BioSimSpace TIP3P water box
206649
    2SOL     OW   29   0.230   0.628   0.113
    2SOL    HW1   30   0.137   0.626   0.150
    2SOL    HW2   31   0.231   0.589   0.021
    3SOL     OW   32   0.225   0.275   0.996
    3SOL    HW1   33   0.260   0.258   1.088
    3SOL    HW2   34   0.137   0.230   0.984
    4SOL     OW   35   0.019   0.368   0.647
    4SOL    HW1   36  -0.063   0.411   0.686
    4SOL    HW2   37  -0.009   0.295   0.584
    5SOL     OW   38   0.569   1.275   1.165
    5SOL    HW1   39   0.476   1.268   1.128
    5SOL    HW2   40   0.580   1.364   1.209
    6SOL     OW   41   1.555   1.511   0.703
    6SOL    HW1   42   1.498   1.495   0.784
    6SOL    HW2   43   1.496   1.521   0.623
    7SOL     OW   44   1.135   0.703   0.717
    7SOL    HW1   45   1.192   0.781   0.692
    7SOL    HW2   46   1.075   0.729   0.793
    8SOL     OW   47   1.755   0.607   0.231
    8SOL    HW1   48   1.743   0.594   0.132
    8SOL    HW2   49   1.725   0.526   0.280
    9SOL     OW   50   0.768   1.144   1.023
    9SOL    HW1   51   0.690   1.161   1.083
    9SOL    HW2   52   0.802   1.231   0.987
   10SOL     OW   53   0.850   0.798   1.823
   10SOL    HW1   54   0.846   0.874   1.888
   10SOL    HW2   55   0.872   0.834   1.732
   11SOL     OW   56   0.685   1.012   0.665
   11SOL    HW1   57   0.754   0.996   0.735
   11SOL    HW2   58   0.612   1.069   0.703
   12SOL     OW   59   0.686   1.161   1.803
   12SOL    HW1   60   0.746   1.240   1.817
   12SOL    HW2   61   0.600   1.192   1.762
   13SOL     OW   62   0.335   1.435   1.061
   13SOL    HW1   63   0.257   1.404   1.008
   13SOL    HW2   64   0.393   1.493   1.004
   14SOL     OW   65   1.460   1.505   1.339
   14SOL    HW1   66   1.484   1.599   1.365
   14SOL    HW2   67   1.444   1.451   1.421
   15SOL     OW   68   0.438   0.392   1.499
   15SOL    HW1   69   0.520   0.336   1.508
   15SOL    HW2   70   0.357   0.334   1.503
   16SOL     OW   71   1.603   0.447   0.737
   16SOL    HW1   72   1.529   0.493   0.687
   16SOL    HW2   73   1.654   0.515   0.790
   17SOL     OW   74   0.231   1.713   0.483
   17SOL    HW1   75   0.265   1.790   0.537
   17SOL    HW2   76   0.275   1.713   0.393
   18SOL     OW   77   1.127   1.341   1.690
   18SOL    HW1   78   1.174   1.341   1.778
   18SOL    HW2   79   1.079   1.254   1.679
   19SOL     OW   80   0.230   1.434   0.538
   19SOL    HW1   81   0.204   1.530   0.538
   19SOL    HW2   82   0.159   1.380   0.583
   20SOL     OW   83   0.240   1.091   0.886
   20SOL    HW1   84   0.254   1.007   0.938
   20SOL    HW2   85   0.185   1.155   0.941
   21SOL     OW   86   0.620   1.786   1.439
   21SOL    HW1   87   0.528   1.769   1.474
   21SOL    HW2   88   0.648   1.878   1.465
   22SOL     OW   89   0.606   0.964   0.123
   22SOL    HW1   90   0.613   1.048   0.069
   22SOL    HW2   91   0.652   0.977   0.211
   23SOL     OW   92   1.594   0.114   1.480
   23SOL    HW1   93   1.576   0.181   1.408
   23SOL    HW2   94   1.591   0.160   1.569
   24SOL     OW   95   0.122   0.643   0.563
   24SOL    HW1   96   0.077   0.555   0.580
   24SOL    HW2   97   0.121   0.697   0.647
   25SOL     OW   98   1.842   1.767   0.359
   25SOL    HW1   99   1.896   1.738   0.439
   25SOL    HW2  100   1.872   1.857   0.330
   26SOL     OW  101   0.027   1.596   0.117
   26SOL    HW1  102   0.008   1.500   0.138
   26SOL    HW2  103  -0.006   1.654   0.192
   27SOL     OW  104   1.689   0.922   0.612
   27SOL    HW1  105   1.784   0.893   0.620
   27SOL    HW2  106   1.681   0.987   0.537
   28SOL     OW  107   1.641   1.108   0.432
   28SOL    HW1  108   1.727   1.110   0.380
   28SOL    HW2  109   1.655   1.155   0.520
   29SOL     OW  110   0.113   0.737   1.597
   29SOL    HW1  111   0.201   0.724   1.642
   29SOL    HW2  112   0.100   0.834   1.575
   30SOL     OW  113   0.613   1.365   0.726
   30SOL    HW1  114   0.564   1.278   0.735
   30SOL    HW2  115   0.590   1.408   0.639
   31SOL     OW  116   1.293   1.228   1.423
   31SOL    HW1  117   1.330   1.155   1.365
   31SOL    HW2  118   1.345   1.233   1.508
   32SOL     OW  119   0.809   0.004   0.502
   32SOL    HW1  120   0.849   0.095   0.493
   32SOL    HW2  121   0.709   0.012   0.508
   33SOL     OW  122   0.197   0.976   1.264
   33SOL    HW1  123   0.286   0.931   1.250
   33SOL    HW2  124   0.124   0.911   1.245
   34SOL     OW  125   1.525   0.999   0.190
   34SOL    HW1  126   1.462   0.923   0.203
   34SOL    HW2  127   1.573   1.017   0.276
   35SOL     OW  128   1.187   1.792   1.616
   35SOL    HW1  129   1.211   1.852   1.540
   35SOL    HW2  130   1.194   1.697   1.586
   36SOL     OW  131   0.317   0.251   1.801
   36SOL    HW1  132   0.388   0.322   1.807
   36SOL    HW2  133   0.229   0.290   1.829
   37SOL     OW  134   1.466   1.417   0.953
   37SOL    HW1  135   1.407   1.423   1.033
   37SOL    HW2  136   1.451   1.329   0.907
   38SOL     OW  137   1.667   1.714   0.572
   38SOL    HW1  138   1.626   1.691   0.484
   38SOL    HW2  139   1.649   1.640   0.637
   39SOL     OW  140   0.598   0.729   0.270
   39SOL    HW1  141   0.622   0.798   0.202
   39SOL    HW2  142   0.520   0.762   0.324
   40SOL     OW  143   1.281   0.345   0.944
   40SOL    HW1  144   1.195   0.295   0.931
   40SOL    HW2  145   1.343   0.291   1.000
   41SOL     OW  146   1.576   1.662   0.307
   41SOL    HW1  147   1.665   1.708   0.310
   41SOL    HW2  148   1.555   1.638   0.212
   42SOL     OW  149   0.807   0.605   1.465
   42SOL    HW1  150   0.760   0.602   1.554
   42SOL    HW2  151   0.756   0.550   1.399
   43SOL     OW  152   1.394   0.469   1.674
   43SOL    HW1  153   1.374   0.512   1.762
   43SOL    HW2  154   1.472   0.407   1.683
   44SOL     OW  155   0.973   0.890   1.572
   44SOL    HW1  156   1.019   0.806   1.543
   44SOL    HW2  157   0.917   0.924   1.497
   45SOL     OW  158   0.991   0.410   1.242
   45SOL    HW1  159   0.914   0.444   1.296
   45SOL    HW2  160   0.957   0.359   1.163
   46SOL     OW  161   1.041   0.701   0.429
   46SOL    HW1  162   1.067   0.697   0.525
   46SOL    HW2  163   0.956   0.650   0.415
   47SOL     OW  164   0.076   0.811   0.789
   47SOL    HW1  165   0.175   0.799   0.798
   47SOL    HW2  166   0.052   0.906   0.810
   48SOL     OW  167   0.130   1.821   1.571
   48SOL    HW1  168   0.120   1.806   1.670
   48SOL    HW2  169   0.044   1.857   1.535
   49SOL     OW  170   0.865   0.348   0.195
   49SOL    HW1  171   0.924   0.411   0.146
   49SOL    HW2  172   0.884   0.254   0.166
   50SOL     OW  173   1.719   0.585   1.831
   50SOL    HW1  174   1.693   0.674   1.795
   50SOL    HW2  175   1.717   0.517   1.758
   51SOL     OW  176   1.362   1.144   0.545
   51SOL    HW1  177   1.445   1.115   0.497
   51SOL    HW2  178   1.313   1.211   0.489
   52SOL     OW  179   0.550   0.196   0.885
   52SOL    HW1  180   0.545   0.191   0.985
   52SOL    HW2  181   0.552   0.292   0.856
   53SOL     OW  182   1.008   1.456   0.477
   53SOL    HW1  183   0.962   1.528   0.425
   53SOL    HW2  184   1.004   1.476   0.575
   54SOL     OW  185   0.351   1.801   0.853
   54SOL    HW1  186   0.401   1.715   0.859
   54SOL    HW2  187   0.416   1.878   0.850
   55SOL     OW  188   1.795   1.066   0.873
   55SOL    HW1  189   1.733   1.051   0.797
   55SOL    HW2  190   1.743   1.077   0.958
   56SOL     OW  191   1.227   1.550   1.506
   56SOL    HW1  192   1.233   1.473   1.570
   56SOL    HW2  193   1.175   1.524   1.426
   57SOL     OW  194   0.321   0.943   0.242
   57SOL    HW1  195   0.403   0.982   0.200
   57SOL    HW2  196   0.294   0.861   0.193
   58SOL     OW  197   1.458   0.735   0.728
   58SOL    HW1  198   1.453   0.670   0.803
   58SOL    HW2  199   1.538   0.794   0.741
   59SOL     OW  200   0.461   1.266   1.727
   59SOL    HW1  201   0.411   1.267   1.641
   59SOL    HW2  202   0.398   1.248   1.803
   60SOL     OW  203   1.111   1.776   0.237
   60SOL    HW1  204   1.051   1.714   0.287
   60SOL    HW2  205   1.142   1.732   0.152
   61SOL     OW  206   0.202   0.285   1.498
   61SOL    HW1  207   0.122   0.345   1.485
   61SOL    HW2  208   0.192   0.236   1.584
   62SOL     OW  209   1.632   1.377   0.081
   62SOL    HW1  210   1.600   1.471   0.071
   62SOL    HW2  211   1.556   1.314   0.069
   63SOL     OW  212   0.464   1.743   0.323
   63SOL    HW1  213   0.497   1.782   0.409
   63SOL    HW2  214   0.540   1.736   0.258
   64SOL     OW  215   1.400   0.107   0.426
   64SOL    HW1  216   1.376   0.070   0.336
   64SOL    HW2  217   1.499   0.123   0.430
   65SOL     OW  218   0.249   1.785   1.241
   65SOL    HW1  219   0.306   1.720   1.291
   65SOL    HW2  220   0.233   1.752   1.148
   66SOL     OW  221   0.940   1.698   0.904
   66SOL    HW1  222   1.020   1.641   0.925
   66SOL    HW2  223   0.891   1.658   0.827
   67SOL     OW  224   0.382   0.700   0.480
   67SOL    HW1  225   0.427   0.610   0.477
   67SOL    HW2  226   0.288   0.689   0.513
   68SOL     OW  227   1.547   0.222   1.729
   68SOL    HW1  228   1.542   0.259   1.821
   68SOL    HW2  229   1.475   0.153   1.717
   69SOL     OW  230   0.614   0.122   0.117
   69SOL    HW1  231   0.712   0.100   0.124
   69SOL    HW2  232   0.583   0.105   0.024
   70SOL     OW  233   0.781   0.264   1.749
   70SOL    HW1  234   0.848   0.203   1.792
   70SOL    HW2  235   0.708   0.283   1.814
   71SOL     OW  236   0.888   1.514   1.195
   71SOL    HW1  237   0.865   1.489   1.101
   71SOL    HW2  238   0.949   1.445   1.234
   72SOL     OW  239   1.351   0.590   1.433
   72SOL    HW1  240   1.379   0.547   1.518
   72SOL    HW2  241   1.376   0.686   1.434
   73SOL     OW  242   0.803   1.402   0.924
   73SOL    HW1  243   0.893   1.416   0.882
   73SOL    HW2  244   0.732   1.404   0.853
   74SOL     OW  245   0.922   0.503   0.899
   74SOL    HW1  246   0.897   0.494   0.803
   74SOL    HW2  247   0.970   0.421   0.930
   75SOL     OW  248   0.539   0.064   0.512
   75SOL    HW1  249   0.458   0.065   0.570
   75SOL    HW2  250   0.542   0.147   0.457
   76SOL     OW  251   1.434   1.188   0.041
   76SOL    HW1  252   1.466   1.112   0.098
   76SOL    HW2  253   1.342   1.215   0.071
   77SOL     OW  254   0.297   0.035   0.171
   77SOL    HW1  255   0.346   0.119   0.150
   77SOL    HW2  256   0.359  -0.030   0.216
   78SOL     OW  257   0.935   0.236   0.480
   78SOL    HW1  258   0.887   0.277   0.402
   78SOL    HW2  259   1.034   0.234   0.461
   79SOL     OW  260   1.076   0.683   1.464
   79SOL    HW1  261   0.996   0.622   1.467
   79SOL    HW2  262   1.157   0.630   1.440
   80SOL     OW  263   1.227   1.570   0.793
   80SOL    HW1  264   1.248   1.644   0.728
   80SOL    HW2  265   1.295   1.570   0.866
   81SOL     OW  266   0.459   1.152   0.741
   81SOL    HW1  267   0.388   1.125   0.806
   81SOL    HW2  268   0.433   1.124   0.648
   82SOL     OW  269   1.271   1.797   0.591
   82SOL    HW1  270   1.315   1.861   0.527
   82SOL    HW2  271   1.221   1.849   0.661
   83SOL     OW  272   1.032   0.549   0.016
   83SOL    HW1  273   0.991   0.631  -0.023
   83SOL    HW2  274   1.096   0.575   0.089
   84SOL     OW  275   0.078   0.556   1.386
   84SOL    HW1  276   0.170   0.555   1.345
   84SOL    HW2  277   0.072   0.630   1.453
   85SOL     OW  278   0.561   0.222   1.147
   85SOL    HW1  279   0.599   0.138   1.184
   85SOL    HW2  280   0.473   0.241   1.191
   86SOL     OW  281   0.866   0.454   0.642
   86SOL    HW1  282   0.834   0.526   0.580
   86SOL    HW2  283   0.890   0.373   0.589
   87SOL     OW  284   1.017   0.039   0.753
   87SOL    HW1  285   0.945   0.044   0.684
   87SOL    HW2  286   0.993  -0.030   0.822
   88SOL     OW  287   1.429   1.173   0.867
   88SOL    HW1  288   1.374   1.089   0.860
   88SOL    HW2  289   1.455   1.202   0.775
   89SOL     OW  290   1.466   0.590   0.992
   89SOL    HW1  291   1.436   0.495   0.999
   89SOL    HW2  292   1.539   0.606   1.058
   90SOL     OW  293   1.857   0.833   0.377
   90SOL    HW1  294   1.899   0.769   0.441
   90SOL    HW2  295   1.819   0.782   0.299
   91SOL     OW  296   0.488   1.385   0.174
   91SOL    HW1  297   0.401   1.370   0.221
   91SOL    HW2  298   0.471   1.411   0.079
   92SOL     OW  299   1.664   1.280   0.657
   92SOL    HW1  300   1.763   1.288   0.671
   92SOL    HW2  301   1.619   1.364   0.688
   93SOL     OW  302   1.390   0.575   0.078
   93SOL    HW1  303   1.336   0.554   0.159
   93SOL    HW2  304   1.481   0.534   0.087
   94SOL     OW  305   0.527   0.256   0.328
   94SOL    HW1  306   0.554   0.197   0.253
   94SOL    HW2  307   0.527   0.351   0.297
   95SOL     OW  308   1.754   1.223   1.588
   95SOL    HW1  309   1.845   1.184   1.575
   95SOL    HW2  310   1.762   1.319   1.612
   96SOL     OW  311   1.064   1.347   1.340
   96SOL    HW1  312   0.984   1.324   1.395
   96SOL    HW2  313   1.147   1.321   1.389
   97SOL     OW  314   1.592   1.629   1.625
   97SOL    HW1  315   1.619   1.663   1.535
   97SOL    HW2  316   1.671   1.591   1.671
   98SOL     OW  317   1.111   1.195   1.100
   98SOL    HW1  318   1.071   1.239   1.181
   98SOL    HW2  319   1.070   1.232   1.017
   99SOL     OW  320   1.638   1.099   1.079
   99SOL    HW1  321   1.643   1.180   1.138
   99SOL    HW2  322   1.552   1.101   1.028
  100SOL     OW  323   0.915   0.089   1.402
  100SOL    HW1  324   0.940   0.069   1.307
  100SOL    HW2  325   0.987   0.145   1.444
  101SOL     OW  326   0.980   1.116   1.719
  101SOL    HW1  327   0.881   1.122   1.729
  101SOL    HW2  328   1.003   1.036   1.663
  102SOL     OW  329   0.705   1.050   0.368
  102SOL    HW1  330   0.691   1.057   0.467
  102SOL    HW2  331   0.789   0.999   0.350
  103SOL     OW  332   0.410   0.813   1.251
  103SOL    HW1  333   0.496   0.825   1.301
  103SOL    HW2  334   0.368   0.726   1.278
  104SOL     OW  335   1.274   0.386   1.262
  104SOL    HW1  336   1.295   0.460   1.326
  104SOL    HW2  337   1.185   0.403   1.219
  105SOL     OW  338   0.064   1.564   1.331
  105SOL    HW1  339   0.018   1.646   1.297
  105SOL    HW2  340   0.162   1.583   1.340
  106SOL     OW  341   0.367   1.100   0.501
  106SOL    HW1  342   0.360   1.183   0.445
  106SOL    HW2  343   0.371   1.020   0.441
  107SOL     OW  344   0.566   0.537   0.865
  107SOL    HW1  345   0.578   0.603   0.791
  107SOL    HW2  346   0.612   0.571   0.948
  108SOL     OW  347   1.252   1.348   0.388
  108SOL    HW1  348   1.302   1.425   0.428
  108SOL    HW2  349   1.157   1.350   0.420
  109SOL     OW  350   1.272   1.445   1.142
  109SOL    HW1  351   1.319   1.458   1.229
  109SOL    HW2  352   1.206   1.371   1.151
  110SOL     OW  353   1.582   0.639   0.472
  110SOL    HW1  354   1.551   0.700   0.545
  110SOL    HW2  355   1.632   0.691   0.403
  111SOL     OW  356   0.354   1.510   1.329
  111SOL    HW1  357   0.333   1.466   1.242
  111SOL    HW2  358   0.451   1.536   1.332
  112SOL     OW  359   0.402   0.751   1.598
  112SOL    HW1  360   0.470   0.806   1.551
  112SOL    HW2  361   0.442   0.663   1.625
  113SOL     OW  362   1.587   0.779   1.670
  113SOL    HW1  363   1.495   0.817   1.665
  113SOL    HW2  364   1.647   0.826   1.605
  114SOL     OW  365   1.013   0.105   1.770
  114SOL    HW1  366   1.019   0.190   1.718
  114SOL    HW2  367   1.045   0.029   1.713
  115SOL     OW  368   0.504   0.050   1.740
  115SOL    HW1  369   0.462  -0.007   1.670
  115SOL    HW2  370   0.438   0.119   1.772
  116SOL     OW  371   0.573   0.870   1.029
  116SOL    HW1  372   0.617   0.959   1.020
  116SOL    HW2  373   0.510   0.870   1.106
  117SOL     OW  374   1.360   0.862   1.045
  117SOL    HW1  375   1.285   0.862   0.979
  117SOL    HW2  376   1.397   0.770   1.054
  118SOL     OW  377   1.209   0.525   0.275
  118SOL    HW1  378   1.222   0.441   0.329
  118SOL    HW2  379   1.180   0.599   0.335
  119SOL     OW  380   0.307   0.213   1.231
  119SOL    HW1  381   0.284   0.250   1.321
  119SOL    HW2  382   0.277   0.118   1.225
  120SOL     OW  383   0.037   1.310   1.282
  120SOL    HW1  384   0.090   1.261   1.350
  120SOL    HW2  385   0.059   1.408   1.287
  121SOL     OW  386   0.732   0.634   1.064
  121SOL    HW1  387   0.791   0.608   0.988
  121SOL    HW2  388   0.704   0.730   1.053
  122SOL     OW  389   1.728   0.935   1.854
  122SOL    HW1  390   1.682   0.928   1.765
  122SOL    HW2  391   1.666   0.979   1.920
  123SOL     OW  392   0.307   0.063   0.618
  123SOL    HW1  393   0.296   0.157   0.651
  123SOL    HW2  394   0.302   0.000   0.695
  124SOL     OW  395   1.622   0.367   0.374
  124SOL    HW1  396   1.624   0.291   0.438
  124SOL    HW2  397   1.574   0.444   0.414
  125SOL     OW  398   1.023   0.766   0.966
  125SOL    HW1  399   1.038   0.787   1.062
  125SOL    HW2  400   0.993   0.671   0.957
  126SOL     OW  401   0.980   1.573   1.700
  126SOL    HW1  402   0.960   1.617   1.612
  126SOL    HW2  403   1.019   1.482   1.684
  127SOL     OW  404   1.859   1.518   1.605
  127SOL    HW1  405   1.873   1.545   1.510
  127SOL    HW2  406   1.942   1.540   1.658
  128SOL     OW  407   0.350   0.898   1.804
  128SOL    HW1  408   0.426   0.942   1.852
  128SOL    HW2  409   0.385   0.851   1.722
  129SOL     OW  410   1.540   0.274   0.125
  129SOL    HW1  411   1.479   0.199   0.148
  129SOL    HW2  412   1.562   0.326   0.208
  130SOL     OW  413   1.303   0.838   0.042
  130SOL    HW1  414   1.337   0.745   0.057
  130SOL    HW2  415   1.321   0.865  -0.053
  131SOL     OW  416   1.068   1.333   0.849
  131SOL    HW1  417   1.075   1.249   0.794
  131SOL    HW2  418   1.130   1.402   0.813
  132SOL     OW  419   0.319   0.810   0.949
  132SOL    HW1  420   0.412   0.846   0.954
  132SOL    HW2  421   0.313   0.725   1.001
  133SOL     OW  422   0.339   0.509   1.006
  133SOL    HW1  423   0.287   0.426   0.989
  133SOL    HW2  424   0.416   0.514   0.942
  134SOL     OW  425   1.138   0.380   1.678
  134SOL    HW1  426   1.093   0.443   1.742
  134SOL    HW2  427   1.231   0.411   1.661
  135SOL     OW  428   1.160   0.207   1.477
  135SOL    HW1  429   1.160   0.271   1.554
  135SOL    HW2  430   1.188   0.255   1.394
  136SOL     OW  431   0.008   1.326   0.200
  136SOL    HW1  432  -0.085   1.347   0.169
  136SOL    HW2  433   0.018   1.227   0.213
  137SOL     OW  434   0.088   1.801   0.927
  137SOL    HW1  435   0.046   1.715   0.900
  137SOL    HW2  436   0.182   1.804   0.893
  138SOL     OW  437   0.504   1.568   0.910
  138SOL    HW1  438   0.570   1.642   0.919
  138SOL    HW2  439   0.548   1.489   0.868
  139SOL     OW  440   1.002   0.796   1.238
  139SOL    HW1  441   1.043   0.764   1.324
  139SOL    HW2  442   0.906   0.769   1.235
  140SOL     OW  443   0.040   0.544   1.114
  140SOL    HW1  444   0.125   0.511   1.073
  140SOL    HW2  445   0.053   0.559   1.212
  141SOL     OW  446   0.189   0.520   1.722
  141SOL    HW1  447   0.248   0.480   1.652
  141SOL    HW2  448   0.131   0.591   1.681
  142SOL     OW  449   1.369   0.950   1.660
  142SOL    HW1  450   1.408   1.039   1.680
  142SOL    HW2  451   1.379   0.930   1.563
  143SOL     OW  452   0.815   0.572   0.325
  143SOL    HW1  453   0.822   0.483   0.279
  143SOL    HW2  454   0.721   0.606   0.317
  144SOL     OW  455   1.657   0.604   1.206
  144SOL    HW1  456   1.619   0.535   1.268
  144SOL    HW2  457   1.739   0.568   1.162
  145SOL     OW  458   0.252   1.564   1.744
  145SOL    HW1  459   0.222   1.621   1.820
  145SOL    HW2  460   0.245   1.467   1.770
  146SOL     OW  461   0.671   0.464   1.269
  146SOL    HW1  462   0.637   0.375   1.239
  146SOL    HW2  463   0.697   0.518   1.189
  147SOL     OW  464   0.930   1.678   1.465
  147SOL    HW1  465   0.906   1.660   1.370
  147SOL    HW2  466   0.960   1.772   1.475
  148SOL     OW  467   0.473   0.500   0.191
  148SOL    HW1  468   0.534   0.580   0.195
  148SOL    HW2  469   0.378   0.531   0.198
  149SOL     OW  470   0.159   1.137   1.466
  149SOL    HW1  471   0.181   1.076   1.542
  149SOL    HW2  472   0.169   1.088   1.380
  150SOL     OW  473   1.347   1.059   1.234
  150SOL    HW1  474   1.371   0.996   1.160
  150SOL    HW2  475   1.257   1.099   1.216
  151SOL     OW  476   1.302   0.855   0.309
  151SOL    HW1  477   1.216   0.824   0.351
  151SOL    HW2  478   1.298   0.841   0.210
  152SOL     OW  479   1.759   1.747   1.154
  152SOL    HW1  480   1.820   1.777   1.081
  152SOL    HW2  481   1.721   1.658   1.132
  153SOL     OW  482   1.252   1.731   1.128
  153SOL    HW1  483   1.336   1.736   1.074
  153SOL    HW2  484   1.229   1.635   1.146
  154SOL     OW  485   0.083   1.258   1.022
  154SOL    HW1  486   0.078   1.257   1.122
  154SOL    HW2  487   0.000   1.217   0.984
  155SOL     OW  488   0.688   1.662   1.716
  155SOL    HW1  489   0.632   1.743   1.725
  155SOL    HW2  490   0.740   1.666   1.630
  156SOL     OW  491   0.903   0.086   0.133
  156SOL    HW1  492   0.954   0.087   0.047
  156SOL    HW2  493   0.959   0.044   0.204
  157SOL     OW  494   1.726   0.135   0.523
  157SOL    HW1  495   1.799   0.118   0.456
  157SOL    HW2  496   1.695   0.048   0.561
  158SOL     OW  497   1.388   1.573   0.477
  158SOL    HW1  498   1.455   1.585   0.403
  158SOL    HW2  499   1.348   1.662   0.500
  159SOL     OW  500   0.130   1.794   1.851
  159SOL    HW1  501   0.089   1.720   1.904
  159SOL    HW2  502   0.194   1.845   1.909
  160SOL     OW  503   1.280   0.927   0.672
  160SOL    HW1  504   1.340   0.846   0.674
  160SOL    HW2  505   1.320   0.996   0.612
  161SOL     OW  506   0.830   1.273   1.422
  161SOL    HW1  507   0.825   1.306   1.517
  161SOL    HW2  508   0.744   1.292   1.376
  162SOL     OW  509   0.672   1.616   0.154
  162SOL    HW1  510   0.681   1.626   0.055
  162SOL    HW2  511   0.632   1.527   0.175
  163SOL     OW  512   1.650   1.720   1.394
  163SOL    HW1  513   1.703   1.730   1.310
  163SOL    HW2  514   1.623   1.810   1.428
  164SOL     OW  515   1.841   0.175   0.963
  164SOL    HW1  516   1.880   0.090   0.927
  164SOL    HW2  517   1.743   0.177   0.944
  165SOL     OW  518   0.263   0.326   0.720
  165SOL    HW1  519   0.184   0.377   0.686
  165SOL    HW2  520   0.254   0.311   0.818
  166SOL     OW  521   1.194   1.612   0.031
  166SOL    HW1  522   1.200   1.519   0.068
  166SOL    HW2  523   1.135   1.612  -0.049
  167SOL     OW  524   0.822   1.002   1.372
  167SOL    HW1  525   0.862   1.001   1.280
  167SOL    HW2  526   0.832   1.094   1.412
  168SOL     OW  527   0.916   0.910   0.291
  168SOL    HW1  528   0.979   0.948   0.223
  168SOL    HW2  529   0.956   0.827   0.330
  169SOL     OW  530   1.504   1.607   0.044
  169SOL    HW1  531   1.412   1.644   0.051
  169SOL    HW2  532   1.542   1.627  -0.046
  170SOL     OW  533   0.372   1.288   1.490
  170SOL    HW1  534   0.359   1.381   1.456
  170SOL    HW2  535   0.288   1.236   1.477
  171SOL     OW  536   1.614   1.292   1.289
  171SOL    HW1  537   1.674   1.295   1.369
  171SOL    HW2  538   1.539   1.356   1.302
  172SOL     OW  539   1.039   1.098   0.696
  172SOL    HW1  540   0.969   1.051   0.750
  172SOL    HW2  541   1.098   1.030   0.653
  173SOL     OW  542   1.014   0.236   0.971
  173SOL    HW1  543   1.006   0.200   0.878
  173SOL    HW2  544   1.012   0.160   1.036
  174SOL     OW  545   0.590   1.487   0.491
  174SOL    HW1  546   0.632   1.429   0.421
  174SOL    HW2  547   0.546   1.566   0.447
  175SOL     OW  548   1.709   0.385   1.381
  175SOL    HW1  549   1.782   0.454   1.385
  175SOL    HW2  550   1.737   0.310   1.322
  176SOL     OW  551   0.255   1.348   0.290
  176SOL    HW1  552   0.159   1.349   0.263
  176SOL    HW2  553   0.267   1.401   0.374
  177SOL     OW  554   0.105   1.013   1.726
  177SOL    HW1  555   0.028   0.980   1.780
  177SOL    HW2  556   0.190   0.983   1.768
  178SOL     OW  557   0.672   0.203   1.489
  178SOL    HW1  558   0.762   0.187   1.449
  178SOL    HW2  559   0.680   0.208   1.588
  179SOL     OW  560   0.075   0.345   0.033
  179SOL    HW1  561  -0.017   0.317   0.004
  179SOL    HW2  562   0.106   0.422  -0.023
  180SOL     OW  563   1.440   0.856   1.398
  180SOL    HW1  564   1.383   0.908   1.335
  180SOL    HW2  565   1.536   0.868   1.374
  181SOL     OW  566   0.072   0.166   0.318
  181SOL    HW1  567   0.055   0.249   0.264
  181SOL    HW2  568   0.162   0.129   0.296
  182SOL     OW  569   1.183   1.335   0.119
  182SOL    HW1  570   1.084   1.324   0.121
  182SOL    HW2  571   1.217   1.350   0.212
  183SOL     OW  572   0.613   0.842   1.431
  183SOL    HW1  573   0.669   0.923   1.414
  183SOL    HW2  574   0.672   0.762   1.434
  184SOL     OW  575   1.493   1.767   0.959
  184SOL    HW1  576   1.526   1.831   0.890
  184SOL    HW2  577   1.559   1.761   1.034
  185SOL     OW  578   0.716   0.565   1.708
  185SOL    HW1  579   0.735   0.630   1.782
  185SOL    HW2  580   0.776   0.485   1.717
  186SOL     OW  581   1.450   1.220   1.633
  186SOL    HW1  582   1.441   1.210   1.732
  186SOL    HW2  583   1.546   1.213   1.607
  187SOL     OW  584   0.390   1.741   1.560
  187SOL    HW1  585   0.299   1.782   1.558
  187SOL    HW2  586   0.383   1.647   1.592
  188SOL     OW  587   1.674   0.883   1.254
  188SOL    HW1  588   1.647   0.794   1.217
  188SOL    HW2  589   1.675   0.951   1.181
  189SOL     OW  590   1.225   0.325   0.449
  189SOL    HW1  591   1.290   0.251   0.438
  189SOL    HW2  592   1.245   0.375   0.533
  190SOL     OW  593   0.594   0.745   0.652
  190SOL    HW1  594   0.644   0.830   0.633
  190SOL    HW2  595   0.506   0.747   0.604
  191SOL     OW  596   1.777   0.342   1.642
  191SOL    HW1  597   1.760   0.373   1.548
  191SOL    HW2  598   1.693   0.305   1.680
  192SOL     OW  599   1.730   0.934   1.517
  192SOL    HW1  600   1.768   1.025   1.532
  192SOL    HW2  601   1.722   0.917   1.418
  193SOL     OW  602   0.859   1.374   0.016
  193SOL    HW1  603   0.813   1.389   0.104
  193SOL    HW2  604   0.903   1.459  -0.014
  194SOL     OW  605   0.661   1.790   0.953
  194SOL    HW1  606   0.615   1.878   0.940
  194SOL    HW2  607   0.760   1.802   0.946
  195SOL     OW  608   0.859   0.956   0.861
  195SOL    HW1  609   0.913   0.887   0.909
  195SOL    HW2  610   0.827   1.025   0.927
  196SOL     OW  611   1.083   0.984   0.087
  196SOL    HW1  612   1.060   1.037   0.005
  196SOL    HW2  613   1.164   0.928   0.068
  197SOL     OW  614   1.861   1.569   0.851
  197SOL    HW1  615   1.790   1.557   0.781
  197SOL    HW2  616   1.862   1.490   0.911
  198SOL     OW  617   0.221   1.314   1.844
  198SOL    HW1  618   0.156   1.241   1.823
  198SOL    HW2  619   0.225   1.328   1.942
  199SOL     OW  620   0.079   1.240   0.653
  199SOL    HW1  621   0.078   1.193   0.741
  199SOL    HW2  622   0.161   1.212   0.602
  200SOL     OW  623   0.672   1.391   1.624
  200SOL    HW1  624   0.594   1.341   1.662
  200SOL    HW2  625   0.669   1.486   1.655
  201SOL     OW  626   1.824   0.192   1.227
  201SOL    HW1  627   1.820   0.102   1.271
  201SOL    HW2  628   1.827   0.181   1.128
  202SOL     OW  629   0.428   0.424   0.520
  202SOL    HW1  630   0.458   0.352   0.458
  202SOL    HW2  631   0.389   0.384   0.603
  203SOL     OW  632   1.705   1.487   1.104
  203SOL    HW1  633   1.612   1.462   1.077
  203SOL    HW2  634   1.731   1.437   1.186
  204SOL     OW  635   0.317   0.547   1.280
  204SOL    HW1  636   0.355   0.488   1.352
  204SOL    HW2  637   0.357   0.521   1.192
  205SOL     OW  638   0.812   1.586   0.687
  205SOL    HW1  639   0.844   1.596   0.593
  205SOL    HW2  640   0.733   1.524   0.689
  206SOL     OW  641   1.424   0.214   1.112
  206SOL    HW1  642   1.476   0.149   1.167
  206SOL    HW2  643   1.375   0.277   1.173
  207SOL     OW  644   1.001   0.034   1.154
  207SOL    HW1  645   0.938  -0.038   1.123
  207SOL    HW2  646   1.094  -0.002   1.154
  208SOL     OW  647   0.770   1.330   0.301
  208SOL    HW1  648   0.724   1.243   0.318
  208SOL    HW2  649   0.861   1.327   0.342
  209SOL     OW  650   0.618   1.567   1.284
  209SOL    HW1  651   0.613   1.649   1.341
  209SOL    HW2  652   0.707   1.564   1.239
  210SOL     OW  653   1.352   0.052   0.168
  210SOL    HW1  654   1.387   0.011   0.084
  210SOL    HW2  655   1.262   0.014   0.188
  211SOL     OW  656   1.300   0.453   0.691
  211SOL    HW1  657   1.241   0.533   0.695
  211SOL    HW2  658   1.315   0.418   0.784
  212SOL     OW  659   1.593   0.221   0.882
  212SOL    HW1  660   1.509   0.220   0.936
  212SOL    HW2  661   1.595   0.304   0.826
  213SOL     OW  662   0.039   1.077   0.300
  213SOL    HW1  663   0.138   1.066   0.291
  213SOL    HW2  664  -0.001   0.991   0.332
  214SOL     OW  665   0.875   1.646   0.337
  214SOL    HW1  666   0.798   1.611   0.283
  214SOL    HW2  667   0.843   1.717   0.399
  215SOL     OW  668   0.230   0.628   1.975
  215SOL    HW1  669   0.137   0.626   2.012
  215SOL    HW2  670   0.231   0.589   1.883
  216SOL     OW  671   0.225   0.275   2.858
  216SOL    HW1  672   0.260   0.258   2.950
  216SOL    HW2  673   0.137   0.230   2.846
  217SOL     OW  674   0.019   0.368   2.509
  217SOL    HW1  675  -0.063   0.411   2.548
  217SOL    HW2  676  -0.009   0.295   2.446
  218SOL     OW  677   0.569   1.275   3.027
  218SOL    HW1  678   0.476   1.268   2.990
  218SOL    HW2  679   0.580   1.364   3.071
  219SOL     OW  680   1.555   1.511   2.565
  219SOL    HW1  681   1.498   1.495   2.646
  219SOL    HW2  682   1.496   1.521   2.485
  220SOL     OW  683   1.135   0.703   2.579
  220SOL    HW1  684   1.192   0.781   2.554
  220SOL    HW2  685   1.075   0.729   2.655
  221SOL     OW  686   1.755   0.607   2.093
  221SOL    HW1  687   1.743   0.594   1.994
  221SOL    HW2  688   1.725   0.526   2.142
  222SOL     OW  689   0.768   1.144   2.885
  222SOL    HW1  690   0.690   1.161   2.945
  222SOL    HW2  691   0.802   1.231   2.849
  223SOL     OW  692   0.850   0.798   3.685
  223SOL    HW1  693   0.846   0.874   3.750
  223SOL    HW2  694   0.872   0.834   3.594
  224SOL     OW  695   0.685   1.012   2.527
  224SOL    HW1  696   0.754   0.996   2.597
  224SOL    HW2  697   0.612   1.069   2.565
  225SOL     OW  698   0.686   1.161   3.665
  225SOL    HW1  699   0.746   1.240   3.679
  225SOL    HW2  700   0.600   1.192   3.624
  226SOL     OW  701   0.335   1.435   2.923
  226SOL    HW1  702   0.257   1.404   2.870
  226SOL    HW2  703   0.393   1.493   2.866
  227SOL     OW  704   1.460   1.505   3.201
  227SOL    HW1  705   1.484   1.599   3.227
  227SOL    HW2  706   1.444   1.451   3.283
  228SOL     OW  707   0.438   0.392   3.361
  228SOL    HW1  708   0.520   0.336   3.370
  228SOL    HW2  709   0.357   0.334   3.365
  229SOL     OW  710   1.603   0.447   2.599
  229SOL    HW1  711   1.529   0.493   2.549
  229SOL    HW2  712   1.654   0.515   2.652
  230SOL     OW  713   0.231   1.713   2.345
  230SOL    HW1  714   0.265   1.790   2.399
  230SOL    HW2  715   0.275   1.713   2.255
  231SOL     OW  716   1.127   1.341   3.552
  231SOL    HW1  717   1.174   1.341   3.640
  231SOL    HW2  718   1.079   1.254   3.541
  232SOL     OW  719   0.230   1.434   2.400
  232SOL    HW1  720   0.204   1.530   2.400
  232SOL    HW2  721   0.159   1.380   2.445
  233SOL     OW  722   0.240   1.091   2.748
  233SOL    HW1  723   0.254   1.007   2.800
  233SOL    HW2  724   0.185   1.155   2.803
  234SOL     OW  725   0.620   1.786   3.301
  234SOL    HW1  726   0.528   1.769   3.336
  234SOL    HW2  727   0.648   1.878   3.327
  235SOL     OW  728   0.606   0.964   1.985
  235SOL    HW1  729   0.613   1.048   1.931
  235SOL    HW2  730   0.652   0.977   2.073
  236SOL     OW  731   1.594   0.114   3.342
  236SOL    HW1  732   1.576   0.181   3.270
  236SOL    HW2  733   1.591   0.160   3.431
  237SOL     OW  734   0.122   0.643   2.425
  237SOL    HW1  735   0.077   0.555   2.442
  237SOL    HW2  736   0.121   0.697   2.509
  238SOL     OW  737   1.842   1.767   2.221
  238SOL    HW1  738   1.896   1.738   2.301
  238SOL    HW2  739   1.872   1.857   2.192
  239SOL     OW  740   0.027   1.596   1.979
  239SOL    HW1  741   0.008   1.500   2.000
  239SOL    HW2  742  -0.006   1.654   2.054
  240SOL     OW  743   1.689   0.922   2.474
  240SOL    HW1  744   1.784   0.893   2.482
  240SOL    HW2  745   1.681   0.987   2.399
  241SOL     OW  746   1.641   1.108   2.294
  241SOL    HW1  747   1.727   1.110   2.242
  241SOL    HW2  748   1.655   1.155   2.382
  242SOL     OW  749   0.113   0.737   3.459
  242SOL    HW1  750   0.201   0.724   3.504
  242SOL    HW2  751   0.100   0.834   3.437
  243SOL     OW  752   0.613   1.365   2.588
  243SOL    HW1  753   0.564   1.278   2.597
  243SOL    HW2  754   0.590   1.408   2.501
  244SOL     OW  755   1.293   1.228   3.285
  244SOL    HW1  756   1.330   1.155   3.227
  244SOL    HW2  757   1.345   1.233   3.370
  245SOL     OW  758   0.809   0.004   2.364
  245SOL    HW1  759   0.849   0.095   2.355
  245SOL    HW2  760   0.709   0.012   2.370
  246SOL     OW  761   0.197   0.976   3.126
  246SOL    HW1  762   0.286   0.931   3.112
  246SOL    HW2  763   0.124   0.911   3.107
  247SOL     OW  764   1.525   0.999   2.052
  247SOL    HW1  765   1.462   0.923   2.065
  247SOL    HW2  766   1.573   1.017   2.138
  248SOL     OW  767   1.187   1.792   3.478
  248SOL    HW1  768   1.211   1.852   3.402
  248SOL    HW2  769   1.194   1.697   3.448
  249SOL     OW  770   0.317   0.251   3.663
  249SOL    HW1  771   0.388   0.322   3.669
  249SOL    HW2  772   0.229   0.290   3.691
  250SOL     OW  773   1.466   1.417   2.815
  250SOL    HW1  774   1.407   1.423   2.895
  250SOL    HW2  775   1.451   1.329   2.769
  251SOL     OW  776   1.667   1.714   2.434
  251SOL    HW1  777   1.626   1.691   2.346
  251SOL    HW2  778   1.649   1.640   2.499
  252SOL     OW  779   0.598   0.729   2.132
  252SOL    HW1  780   0.622   0.798   2.064
  252SOL    HW2  781   0.520   0.762   2.186
  253SOL     OW  782   1.281   0.345   2.806
  253SOL    HW1  783   1.195   0.295   2.793
  253SOL    HW2  784   1.343   0.291   2.862
  254SOL     OW  785   1.576   1.662   2.169
  254SOL    HW1  786   1.665   1.708   2.172
  254SOL    HW2  787   1.555   1.638   2.074
  255SOL     OW  788   0.807   0.605   3.327
  255SOL    HW1  789   0.760   0.602   3.416
  255SOL    HW2  790   0.756   0.550   3.261
  256SOL     OW  791   1.394   0.469   3.536
  256SOL    HW1  792   1.374   0.512   3.624
  256SOL    HW2  793   1.472   0.407   3.545
  257SOL     OW  794   0.973   0.890   3.434
  257SOL    HW1  795   1.019   0.806   3.405
  257SOL    HW2  796   0.917   0.924   3.359
  258SOL     OW  797   0.991   0.410   3.104
  258SOL    HW1  798   0.914   0.444   3.158
  258SOL    HW2  799   0.957   0.359   3.025
  259SOL     OW  800   1.041   0.701   2.291
  259SOL    HW1  801   1.067   0.697   2.387
  259SOL    HW2  802   0.956   0.650   2.277
  260SOL     OW  803   0.076   0.811   2.651
  260SOL    HW1  804   0.175   0.799   2.660
  260SOL    HW2  805   0.052   0.906   2.672
  261SOL     OW  806   0.130   1.821   3.433
  261SOL    HW1  807   0.120   1.806   3.532
  261SOL    HW2  808   0.044   1.857   3.397
  262SOL     OW  809   0.865   0.348   2.057
  262SOL    HW1  810   0.924   0.411   2.008
  262SOL    HW2  811   0.884   0.254   2.028
  263SOL     OW  812   1.719   0.585   3.693
  263SOL    HW1  813   1.693   0.674   3.657
  263SOL    HW2  814   1.717   0.517   3.620
  264SOL     OW  815   1.362   1.144   2.407
  264SOL    HW1  816   1.445   1.115   2.359
  264SOL    HW2  817   1.313   1.211   2.351
  265SOL     OW  818   0.550   0.196   2.747
  265SOL    HW1  819   0.545   0.191   2.847
  265SOL    HW2  820   0.552   0.292   2.718
  266SOL     OW  821   1.008   1.456   2.339
  266SOL    HW1  822   0.962   1.528   2.287
  266SOL    HW2  823   1.004   1.476   2.437
  267SOL     OW  824   0.351   1.801   2.715
  267SOL    HW1  825   0.401   1.715   2.721
  267SOL    HW2  826   0.416   1.878   2.712
  268SOL     OW  827   1.795   1.066   2.735
  268SOL    HW1  828   1.733   1.051   2.659
  268SOL    HW2  829   1.743   1.077   2.820
  269SOL     OW  830   1.227   1.550   3.368
  269SOL    HW1  831   1.233   1.473   3.432
  269SOL    HW2  832   1.175   1.524   3.288
  270SOL     OW  833   0.321   0.943   2.104
  270SOL    HW1  834   0.403   0.982   2.062
  270SOL    HW2  835   0.294   0.861   2.055
  271SOL     OW  836   1.458   0.735   2.590
  271SOL    HW1  837   1.453   0.670   2.665
  271SOL    HW2  838   1.538   0.794   2.603
  272SOL     OW  839   0.461   1.266   3.589
  272SOL    HW1  840   0.411   1.267   3.503
  272SOL    HW2  841   0.398   1.248   3.665
  273SOL     OW  842   1.111   1.776   2.099
  273SOL    HW1  843   1.051   1.714   2.149
  273SOL    HW2  844   1.142   1.732   2.014
  274SOL     OW  845   0.202   0.285   3.360
  274SOL    HW1  846   0.122   0.345   3.347
  274SOL    HW2  847   0.192   0.236   3.446
  275SOL     OW  848   1.632   1.377   1.943
  275SOL    HW1  849   1.600   1.471   1.933
  275SOL    HW2  850   1.556   1.314   1.931
  276SOL     OW  851   0.464   1.743   2.185
  276SOL    HW1  852   0.497   1.782   2.271
  276SOL    HW2  853   0.540   1.736   2.120
  277SOL     OW  854   1.400   0.107   2.288
  277SOL    HW1  855   1.376   0.070   2.198
  277SOL    HW2  856   1.499   0.123   2.292
  278SOL     OW  857   0.249   1.785   3.103
  278SOL    HW1  858   0.306   1.720   3.153
  278SOL    HW2  859   0.233   1.752   3.010
  279SOL     OW  860   0.940   1.698   2.766
  279SOL    HW1  861   1.020   1.641   2.787
  279SOL    HW2  862   0.891   1.658   2.689
  280SOL     OW  863   0.382   0.700   2.342
  280SOL    HW1  864   0.427   0.610   2.339
  280SOL    HW2  865   0.288   0.689   2.375
  281SOL     OW  866   1.547   0.222   3.591
  281SOL    HW1  867   1.542   0.259   3.683
  281SOL    HW2  868   1.475   0.153   3.579
  282SOL     OW  869   0.614   0.122   1.979
  282SOL    HW1  870   0.712   0.100   1.986
  282SOL    HW2  871   0.583   0.105   1.886
  283SOL     OW  872   0.781   0.264   3.611
  283SOL    HW1  873   0.848   0.203   3.654
  283SOL    HW2  874   0.708   0.283   3.676
  284SOL     OW  875   0.888   1.514   3.057
  284SOL    HW1  876   0.865   1.489   2.963
  284SOL    HW2  877   0.949   1.445   3.096
  285SOL     OW  878   1.351   0.590   3.295
  285SOL    HW1  879   1.379   0.547   3.380
  285SOL    HW2  880   1.376   0.686   3.296
  286SOL     OW  881   0.803   1.402   2.786
  286SOL    HW1  882   0.893   1.416   2.744
  286SOL    HW2  883   0.732   1.404   2.715
  287SOL     OW  884   0.922   0.503   2.761
  287SOL    HW1  885   0.897   0.494   2.665
  287SOL    HW2  886   0.970   0.421   2.792
  288SOL     OW  887   0.539   0.064   2.374
  288SOL    HW1  888   0.458   0.065   2.432
  288SOL    HW2  889   0.542   0.147   2.319
  289SOL     OW  890   1.434   1.188   1.903
  289SOL    HW1  891   1.466   1.112   1.960
  289SOL    HW2  892   1.342   1.215   1.933
  290SOL     OW  893   0.297   0.035   2.033
  290SOL    HW1  894   0.346   0.119   2.012
  290SOL    HW2  895   0.359  -0.030   2.078
  291SOL     OW  896   0.935   0.236   2.342
  291SOL    HW1  897   0.887   0.277   2.264
  291SOL    HW2  898   1.034   0.234   2.323
  292SOL     OW  899   1.076   0.683   3.326
  292SOL    HW1  900   0.996   0.622   3.329
  292SOL    HW2  901   1.157   0.630   3.302
  293SOL     OW  902   1.227   1.570   2.655
  293SOL    HW1  903   1.248   1.644   2.590
  293SOL    HW2  904   1.295   1.570   2.728
  294SOL     OW  905   0.459   1.152   2.603
  294SOL    HW1  906   0.388   1.125   2.668
  294SOL    HW2  907   0.433   1.124   2.510
  295SOL     OW  908   1.271   1.797   2.453
  295SOL    HW1  909   1.315   1.861   2.389
  295SOL    HW2  910   1.221   1.849   2.523
  296SOL     OW  911   1.032   0.549   1.878
  296SOL    HW1  912   0.991   0.631   1.839
  296SOL    HW2  913   1.096   0.575   1.951
  297SOL     OW  914   0.078   0.556   3.248
  297SOL    HW1  915   0.170   0.555   3.207
  297SOL    HW2  916   0.072   0.630   3.315
  298SOL     OW  917   0.561   0.222   3.009
  298SOL    HW1  918   0.599   0.138   3.046
  298SOL    HW2  919   0.473   0.241   3.053
  299SOL     OW  920   0.866   0.454   2.504
  299SOL    HW1  921   0.834   0.526   2.442
  299SOL    HW2  922   0.890   0.373   2.451
  300SOL     OW  923   1.017   0.039   2.615
  300SOL    HW1  924   0.945   0.044   2.546
  300SOL    HW2  925   0.993  -0.030   2.684
  301SOL     OW  926   1.429   1.173   2.729
  301SOL    HW1  927   1.374   1.089   2.722
  301SOL    HW2  928   1.455   1.202   2.637
  302SOL     OW  929   1.466   0.590   2.854
  302SOL    HW1  930   1.436   0.495   2.861
  302SOL    HW2  931   1.539   0.606   2.920
  303SOL     OW  932   1.857   0.833   2.239
  303SOL    HW1  933   1.899   0.769   2.303
  303SOL    HW2  934   1.819   0.782   2.161
  304SOL     OW  935   0.488   1.385   2.036
  304SOL    HW1  936   0.401   1.370   2.083
  304SOL    HW2  937   0.471   1.411   1.941
  305SOL     OW  938   1.664   1.280   2.519
  305SOL    HW1  939   1.763   1.288   2.533
  305SOL    HW2  940   1.619   1.364   2.550
  306SOL     OW  941   1.390   0.575   1.940
  306SOL    HW1  942   1.336   0.554   2.021
  306SOL    HW2  943   1.481   0.534   1.949
  307SOL     OW  944   0.527   0.256   2.190
  307SOL    HW1  945   0.554   0.197   2.115
  307SOL    HW2  946   0.527   0.351   2.159
  308SOL     OW  947   1.754   1.223   3.450
  308SOL    HW1  948   1.845   1.184   3.437
  308SOL    HW2  949   1.762   1.319   3.474
  309SOL     OW  950   1.064   1.347   3.202
  309SOL    HW1  951   0.984   1.324   3.257
  309SOL    HW2  952   1.147   1.321   3.251
  310SOL     OW  953   1.592   1.629   3.487
  310SOL    HW1  954   1.619   1.663   3.397
  310SOL    HW2  955   1.671   1.591   3.533
  311SOL     OW  956   1.111   1.195   2.962
  311SOL    HW1  957   1.071   1.239   3.043
  311SOL    HW2  958   1.070   1.232   2.879
  312SOL     OW  959   1.638   1.099   2.941
  312SOL    HW1  960   1.643   1.180   3.000
  312SOL    HW2  961   1.552   1.101   2.890
  313SOL     OW  962   0.915   0.089   3.264
  313SOL    HW1  963   0.940   0.069   3.169
  313SOL    HW2  964   0.987   0.145   3.306
  314SOL     OW  965   0.980   1.116   3.581
  314SOL    HW1  966   0.881   1.122   3.591
  314SOL    HW2  967   1.003   1.036   3.525
  315SOL     OW  968   0.705   1.050   2.230
  315SOL    HW1  969   0.691   1.057   2.329
  315SOL    HW2  970   0.789   0.999   2.212
  316SOL     OW  971   0.410   0.813   3.113
  316SOL    HW1  972   0.496   0.825   3.163
  316SOL    HW2  973   0.368   0.726   3.140
  317SOL     OW  974   1.274   0.386   3.124
  317SOL    HW1  975   1.295   0.460   3.188
  317SOL    HW2  976   1.185   0.403   3.081
  318SOL     OW  977   0.064   1.564   3.193
  318SOL    HW1  978   0.018   1.646   3.159
  318SOL    HW2  979   0.162   1.583   3.202
  319SOL     OW  980   0.367   1.100   2.363
  319SOL    HW1  981   0.360   1.183   2.307
  319SOL    HW2  982   0.371   1.020   2.303
  320SOL     OW  983   0.566   0.537   2.727
  320SOL    HW1  984   0.578   0.603   2.653
  320SOL    HW2  985   0.612   0.571   2.810
  321SOL     OW  986   1.252   1.348   2.250
  321SOL    HW1  987   1.302   1.425   2.290
  321SOL    HW2  988   1.157   1.350   2.282
  322SOL     OW  989   1.272   1.445   3.004
  322SOL    HW1  990   1.319   1.458   3.091
  322SOL    HW2  991   1.206   1.371   3.013
  323SOL     OW  992   1.582   0.639   2.334
  323SOL    HW1  993   1.551   0.700   2.407
  323SOL    HW2  994   1.632   0.691   2.265
  324SOL     OW  995   0.354   1.510   3.191
  324SOL    HW1  996   0.333   1.466   3.104
  324SOL    HW2  997   0.451   1.536   3.194
  325SOL     OW  998   0.402   0.751   3.460
  325SOL    HW1  999   0.470   0.806   3.413
  325SOL    HW2 1000   0.442   0.663   3.487
  326SOL     OW 1001   1.587   0.779   3.532
  326SOL    HW1 1002   1.495   0.817   3.527
  326SOL    HW2 1003   1.647   0.826   3.467
  327SOL     OW 1004   1.013   0.105   3.632
  327SOL    HW1 1005   1.019   0.190   3.580
  327SOL    HW2 1006   1.045   0.029   3.575
  328SOL     OW 1007   0.504   0.050   3.602
  328SOL    HW1 1008   0.462  -0.007   3.532
  328SOL    HW2 1009   0.438   0.119   3.634
  329SOL     OW 1010   0.573   0.870   2.891
  329SOL    HW1 1011   0.617   0.959   2.882
  329SOL    HW2 1012   0.510   0.870   2.968
  330SOL     OW 1013   1.360   0.862   2.907
  330SOL    HW1 1014   1.285   0.862   2.841
  330SOL    HW2 1015   1.397   0.770   2.916
  331SOL     OW 1016   1.209   0.525   2.137
  331SOL    HW1 1017   1.222   0.441   2.191
  331SOL    HW2 1018   1.180   0.599   2.197
  332SOL     OW 1019   0.307   0.213   3.093
  332SOL    HW1 1020   0.284   0.250   3.183
  332SOL    HW2 1021   0.277   0.118   3.087
  333SOL     OW 1022   0.037   1.310   3.144
  333SOL    HW1 1023   0.090   1.261   3.212
  333SOL    HW2 1024   0.059   1.408   3.149
  334SOL     OW 1025   0.732   0.634   2.926
  334SOL    HW1 1026   0.791   0.608   2.850
  334SOL    HW2 1027   0.704   0.730   2.915
  335SOL     OW 1028   1.728   0.935   3.716
  335SOL    HW1 1029   1.682   0.928   3.627
  335SOL    HW2 1030   1.666   0.979   3.782
  336SOL     OW 1031   0.307   0.063   2.480
  336SOL    HW1 1032   0.296   0.157   2.513
  336SOL    HW2 1033   0.302   0.000   2.557
  337SOL     OW 1034   1.622   0.367   2.236
  337SOL    HW1 1035   1.624   0.291   2.300
  337SOL    HW2 1036   1.574   0.444   2.276
  338SOL     OW 1037   1.023   0.766   2.828
  338SOL    HW1 1038   1.038   0.787   2.924
  338SOL    HW2 1039   0.993   0.671   2.819
  339SOL     OW 1040   0.980   1.573   3.562
  339SOL    HW1 1041   0.960   1.617   3.474
  339SOL    HW2 1042   1.019   1.482   3.546
  340SOL     OW 1043   1.859   1.518   3.467
  340SOL    HW1 1044   1.873   1.545   3.372
  340SOL    HW2 1045   1.942   1.540   3.520
  341SOL     OW 1046   0.350   0.898   3.666
  341SOL    HW1 1047   0.426   0.942   3.714
  341SOL    HW2 1048   0.385   0.851   3.584
  342SOL     OW 1049   1.540   0.274   1.987
  342SOL    HW1 1050   1.479   0.199   2.010
  342SOL    HW2 1051   1.562   0.326   2.070
  343SOL     OW 1052   1.303   0.838   1.904
  343SOL    HW1 1053   1.337   0.745   1.919
  343SOL    HW2 1054   1.321   0.865   1.809
  344SOL     OW 1055   1.068   1.333   2.711
  344SOL    HW1 1056   1.075   1.249   2.656
  344SOL    HW2 1057   1.130   1.402   2.675
  345SOL     OW 1058   0.319   0.810   2.811
  345SOL    HW1 1059   0.412   0.846   2.816
  345SOL    HW2 1060   0.313   0.725   2.863
  346SOL     OW 1061   0.339   0.509   2.868
  346SOL    HW1 1062   0.287   0.426   2.851
  346SOL    HW2 1063   0.416   0.514   2.804
  347SOL     OW 1064   1.138   0.380   3.540
  347SOL    HW1 1065   1.093   0.443   3.604
  347SOL    HW2 1066   1.231   0.411   3.523
  348SOL     OW 1067   1.160   0.207   3.339
  348SOL    HW1 1068   1.160   0.271   3.416
  348SOL    HW2 1069   1.188   0.255   3.256
  349SOL     OW 1070   0.008   1.326   2.062
  349SOL    HW1 1071  -0.085   1.347   2.031
  349SOL    HW2 1072   0.018   1.227   2.075
  350SOL     OW 1073   0.088   1.801   2.789
  350SOL    HW1 1074   0.046   1.715   2.762
  350SOL    HW2 1075   0.182   1.804   2.755
  351SOL     OW 1076   0.504   1.568   2.772
  351SOL    HW1 1077   0.570   1.642   2.781
  351SOL    HW2 1078   0.548   1.489   2.730
  352SOL     OW 1079   1.002   0.796   3.100
  352SOL    HW1 1080   1.043   0.764   3.186
  352SOL    HW2 1081   0.906   0.769   3.097
  353SOL     OW 1082   0.040   0.544   2.976
  353SOL    HW1 1083   0.125   0.511   2.935
  353SOL    HW2 1084   0.053   0.559   3.074
  354SOL     OW 1085   0.189   0.520   3.584
  354SOL    HW1 1086   0.248   0.480   3.514
  354SOL    HW2 1087   0.131   0.591   3.543
  355SOL     OW 1088   1.369   0.950   3.522
  355SOL    HW1 1089   1.408   1.039   3.542
  355SOL    HW2 1090   1.379   0.930   3.425
  356SOL     OW 1091   0.815   0.572   2.187
  356SOL    HW1 1092   0.822   0.483   2.141
  356SOL    HW2 1093   0.721   0.606   2.179
  357SOL     OW 1094   1.657   0.604   3.068
  357SOL    HW1 1095   1.619   0.535   3.130
  357SOL    HW2 1096   1.739   0.568   3.024
  358SOL     OW 1097   0.252   1.564   3.606
  358SOL    HW1 1098   0.222   1.621   3.682
  358SOL    HW2 1099   0.245   1.467   3.632
  359SOL     OW 1100   0.671   0.464   3.131
  359SOL    HW1 1101   0.637   0.375   3.101
  359SOL    HW2 1102   0.697   0.518   3.051
  360SOL     OW 1103   0.930   1.678   3.327
  360SOL    HW1 1104   0.906   1.660   3.232
  360SOL    HW2 1105   0.960   1.772   3.337
  361SOL     OW 1106   0.473   0.500   2.053
  361SOL    HW1 1107   0.534   0.580   2.057
  361SOL    HW2 1108   0.378   0.531   2.060
  362SOL     OW 1109   0.159   1.137   3.328
  362SOL    HW1 1110   0.181   1.076   3.404
  362SOL    HW2 1111   0.169   1.088   3.242
  363SOL     OW 1112   1.347   1.059   3.096
  363SOL    HW1 1113   1.371   0.996   3.022
  363SOL    HW2 1114   1.257   1.099   3.078
  364SOL     OW 1115   1.302   0.855   2.171
  364SOL    HW1 1116   1.216   0.824   2.213
  364SOL    HW2 1117   1.298   0.841   2.072
  365SOL     OW 1118   1.759   1.747   3.016
  365SOL    HW1 1119   1.820   1.777   2.943
  365SOL    HW2 1120   1.721   1.658   2.994
  366SOL     OW 1121   1.252   1.731   2.990
  366SOL    HW1 1122   1.336   1.736   2.936
  366SOL    HW2 1123   1.229   1.635   3.008
  367SOL     OW 1124   0.083   1.258   2.884
  367SOL    HW1 1125   0.078   1.257   2.984
  367SOL    HW2 1126   0.000   1.217   2.846
  368SOL     OW 1127   0.688   1.662   3.578
  368SOL    HW1 1128   0.632   1.743   3.587
  368SOL    HW2 1129   0.740   1.666   3.492
  369SOL     OW 1130   1.726   0.135   2.385
  369SOL    HW1 1131   1.799   0.118   2.318
  369SOL    HW2 1132   1.695   0.048   2.423
  370SOL     OW 1133   1.388   1.573   2.339
  370SOL    HW1 1134   1.455   1.585   2.265
  370SOL    HW2 1135   1.348   1.662   2.362
  371SOL     OW 1136   0.130   1.794   3.713
  371SOL    HW1 1137   0.089   1.720   3.766
  371SOL    HW2 1138   0.194   1.845   3.771
  372SOL     OW 1139   1.280   0.927   2.534
  372SOL    HW1 1140   1.340   0.846   2.536
  372SOL    HW2 1141   1.320   0.996   2.474
  373SOL     OW 1142   0.830   1.273   3.284
  373SOL    HW1 1143   0.825   1.306   3.379
  373SOL    HW2 1144   0.744   1.292   3.238
  374SOL     OW 1145   0.672   1.616   2.016
  374SOL    HW1 1146   0.681   1.626   1.917
  374SOL    HW2 1147   0.632   1.527   2.037
  375SOL     OW 1148   1.650   1.720   3.256
  375SOL    HW1 1149   1.703   1.730   3.172
  375SOL    HW2 1150   1.623   1.810   3.290
  376SOL     OW 1151   1.841   0.175   2.825
  376SOL    HW1 1152   1.880   0.090   2.789
  376SOL    HW2 1153   1.743   0.177   2.806
  377SOL     OW 1154   0.263   0.326   2.582
  377SOL    HW1 1155   0.184   0.377   2.548
  377SOL    HW2 1156   0.254   0.311   2.680
  378SOL     OW 1157   1.194   1.612   1.893
  378SOL    HW1 1158   1.200   1.519   1.930
  378SOL    HW2 1159   1.135   1.612   1.813
  379SOL     OW 1160   0.822   1.002   3.234
  379SOL    HW1 1161   0.862   1.001   3.142
  379SOL    HW2 1162   0.832   1.094   3.274
  380SOL     OW 1163   0.916   0.910   2.153
  380SOL    HW1 1164   0.979   0.948   2.085
  380SOL    HW2 1165   0.956   0.827   2.192
  381SOL     OW 1166   1.504   1.607   1.906
  381SOL    HW1 1167   1.412   1.644   1.913
  381SOL    HW2 1168   1.542   1.627   1.816
  382SOL     OW 1169   0.372   1.288   3.352
  382SOL    HW1 1170   0.359   1.381   3.318
  382SOL    HW2 1171   0.288   1.236   3.339
  383SOL     OW 1172   1.614   1.292   3.151
  383SOL    HW1 1173   1.674   1.295   3.231
  383SOL    HW2 1174   1.539   1.356   3.164
  384SOL     OW 1175   1.039   1.098   2.558
  384SOL    HW1 1176   0.969   1.051   2.612
  384SOL    HW2 1177   1.098   1.030   2.515
  385SOL     OW 1178   1.014   0.236   2.833
  385SOL    HW1 1179   1.006   0.200   2.740
  385SOL    HW2 1180   1.012   0.160   2.898
  386SOL     OW 1181   0.590   1.487   2.353
  386SOL    HW1 1182   0.632   1.429   2.283
  386SOL    HW2 1183   0.546   1.566   2.309
  387SOL     OW 1184   1.709   0.385   3.243
  387SOL    HW1 1185   1.782   0.454   3.247
  387SOL    HW2 1186   1.737   0.310   3.184
  388SOL     OW 1187   0.255   1.348   2.152
  388SOL    HW1 1188   0.159   1.349   2.125
  388SOL    HW2 1189   0.267   1.401   2.236
  389SOL     OW 1190   0.105   1.013   3.588
  389SOL    HW1 1191   0.028   0.980   3.642
  389SOL    HW2 1192   0.190   0.983   3.630
  390SOL     OW 1193   0.672   0.203   3.351
  390SOL    HW1 1194   0.762   0.187   3.311
  390SOL    HW2 1195   0.680   0.208   3.450
  391SOL     OW 1196   0.075   0.345   1.895
  391SOL    HW1 1197  -0.017   0.317   1.866
  391SOL    HW2 1198   0.106   0.422   1.839
  392SOL     OW 1199   1.440   0.856   3.260
  392SOL    HW1 1200   1.383   0.908   3.197
  392SOL    HW2 1201   1.536   0.868   3.236
  393SOL     OW 1202   0.072   0.166   2.180
  393SOL    HW1 1203   0.055   0.249   2.126
  393SOL    HW2 1204   0.162   0.129   2.158
  394SOL     OW 1205   1.183   1.335   1.981
  394SOL    HW1 1206   1.084   1.324   1.983
  394SOL    HW2 1207   1.217   1.350   2.074
  395SOL     OW 1208   0.613   0.842   3.293
  395SOL    HW1 1209   0.669   0.923   3.276
  395SOL    HW2 1210   0.672   0.762   3.296
  396SOL     OW 1211   1.493   1.767   2.821
  396SOL    HW1 1212   1.526   1.831   2.752
  396SOL    HW2 1213   1.559   1.761   2.896
  397SOL     OW 1214   0.716   0.565   3.570
  397SOL    HW1 1215   0.735   0.630   3.644
  397SOL    HW2 1216   0.776   0.485   3.579
  398SOL     OW 1217   1.450   1.220   3.495
  398SOL    HW1 1218   1.441   1.210   3.594
  398SOL    HW2 1219   1.546   1.213   3.469
  399SOL     OW 1220   0.390   1.741   3.422
  399SOL    HW1 1221   0.299   1.782   3.420
  399SOL    HW2 1222   0.383   1.647   3.454
  400SOL     OW 1223   1.674   0.883   3.116
  400SOL    HW1 1224   1.647   0.794   3.079
  400SOL    HW2 1225   1.675   0.951   3.043
  401SOL     OW 1226   1.225   0.325   2.311
  401SOL    HW1 1227   1.290   0.251   2.300
  401SOL    HW2 1228   1.245   0.375   2.395
  402SOL     OW 1229   0.594   0.745   2.514
  402SOL    HW1 1230   0.644   0.830   2.495
  402SOL    HW2 1231   0.506   0.747   2.466
  403SOL     OW 1232   1.777   0.342   3.504
  403SOL    HW1 1233   1.760   0.373   3.410
  403SOL    HW2 1234   1.693   0.305   3.542
  404SOL     OW 1235   1.730   0.934   3.379
  404SOL    HW1 1236   1.768   1.025   3.394
  404SOL    HW2 1237   1.722   0.917   3.280
  405SOL     OW 1238   0.859   1.374   1.878
  405SOL    HW1 1239   0.813   1.389   1.966
  405SOL    HW2 1240   0.903   1.459   1.848
  406SOL     OW 1241   0.661   1.790   2.815
  406SOL    HW1 1242   0.615   1.878   2.802
  406SOL    HW2 1243   0.760   1.802   2.808
  407SOL     OW 1244   0.859   0.956   2.723
  407SOL    HW1 1245   0.913   0.887   2.771
  407SOL    HW2 1246   0.827   1.025   2.789
  408SOL     OW 1247   1.083   0.984   1.949
  408SOL    HW1 1248   1.060   1.037   1.867
  408SOL    HW2 1249   1.164   0.928   1.930
  409SOL     OW 1250   1.861   1.569   2.713
  409SOL    HW1 1251   1.790   1.557   2.643
  409SOL    HW2 1252   1.862   1.490   2.773
  410SOL     OW 1253   0.221   1.314   3.706
  410SOL    HW1 1254   0.156   1.241   3.685
  410SOL    HW2 1255   0.225   1.328   3.804
  411SOL     OW 1256   0.079   1.240   2.515
  411SOL    HW1 1257   0.078   1.193   2.603
  411SOL    HW2 1258   0.161   1.212   2.464
  412SOL     OW 1259   0.672   1.391   3.486
  412SOL    HW1 1260   0.594   1.341   3.524
  412SOL    HW2 1261   0.669   1.486   3.517
  413SOL     OW 1262   1.824   0.192   3.089
  413SOL    HW1 1263   1.820   0.102   3.133
  413SOL    HW2 1264   1.827   0.181   2.990
  414SOL     OW 1265   0.428   0.424   2.382
  414SOL    HW1 1266   0.458   0.352   2.320
  414SOL    HW2 1267   0.389   0.384   2.465
  415SOL     OW 1268   1.705   1.487   2.966
  415SOL    HW1 1269   1.612   1.462   2.939
  415SOL    HW2 1270   1.731   1.437   3.048
  416SOL     OW 1271   0.317   0.547   3.142
  416SOL    HW1 1272   0.355   0.488   3.214
  416SOL    HW2 1273   0.357   0.521   3.054
  417SOL     OW 1274   0.812   1.586   2.549
  417SOL    HW1 1275   0.844   1.596   2.455
  417SOL    HW2 1276   0.733   1.524   2.551
  418SOL     OW 1277   1.424   0.214   2.974
  418SOL    HW1 1278   1.476   0.149   3.029
  418SOL    HW2 1279   1.375   0.277   3.035
  419SOL     OW 1280   1.001   0.034   3.016
  419SOL    HW1 1281   0.938  -0.038   2.985
  419SOL    HW2 1282   1.094  -0.002   3.016
  420SOL     OW 1283   0.770   1.330   2.163
  420SOL    HW1 1284   0.724   1.243   2.180
  420SOL    HW2 1285   0.861   1.327   2.204
  421SOL     OW 1286   0.618   1.567   3.146
  421SOL    HW1 1287   0.613   1.649   3.203
  421SOL    HW2 1288   0.707   1.564   3.101
  422SOL     OW 1289   1.352   0.052   2.030
  422SOL    HW1 1290   1.387   0.011   1.946
  422SOL    HW2 1291   1.262   0.014   2.050
  423SOL     OW 1292   1.300   0.453   2.553
  423SOL    HW1 1293   1.241   0.533   2.557
  423SOL    HW2 1294   1.315   0.418   2.646
  424SOL     OW 1295   1.593   0.221   2.744
  424SOL    HW1 1296   1.509   0.220   2.798
  424SOL    HW2 1297   1.595   0.304   2.688
  425SOL     OW 1298   0.039   1.077   2.162
  425SOL    HW1 1299   0.138   1.066   2.153
  425SOL    HW2 1300  -0.001   0.991   2.194
  426SOL     OW 1301   0.875   1.646   2.199
  426SOL    HW1 1302   0.798   1.611   2.145
  426SOL    HW2 1303   0.843   1.717   2.261
  427SOL     OW 1304   0.230   0.628   3.837
  427SOL    HW1 1305   0.137   0.626   3.874
  427SOL    HW2 1306   0.231   0.589   3.745
  428SOL     OW 1307   0.225   0.275   4.720
  428SOL    HW1 1308   0.260   0.258   4.812
  428SOL    HW2 1309   0.137   0.230   4.708
  429SOL     OW 1310   0.019   0.368   4.371
  429SOL    HW1 1311  -0.063   0.411   4.410
  429SOL    HW2 1312  -0.009   0.295   4.308
  430SOL     OW 1313   0.569   1.275   4.889
  430SOL    HW1 1314   0.476   1.268   4.852
  430SOL    HW2 1315   0.580   1.364   4.933
  431SOL     OW 1316   1.555   1.511   4.427
  431SOL    HW1 1317   1.498   1.495   4.508
  431SOL    HW2 1318   1.496   1.521   4.347
  432SOL     OW 1319   1.135   0.703   4.441
  432SOL    HW1 1320   1.192   0.781   4.416
  432SOL    HW2 1321   1.075   0.729   4.517
  433SOL     OW 1322   1.755   0.607   3.955
  433SOL    HW1 1323   1.743   0.594   3.856
  433SOL    HW2 1324   1.725   0.526   4.004
  434SOL     OW 1325   0.768   1.144   4.747
  434SOL    HW1 1326   0.690   1.161   4.807
  434SOL    HW2 1327   0.802   1.231   4.711
  435SOL     OW 1328   0.850   0.798   5.547
  435SOL    HW1 1329   0.846   0.874   5.612
  435SOL    HW2 1330   0.872   0.834   5.456
  436SOL     OW 1331   0.685   1.012   4.389
  436SOL    HW1 1332   0.754   0.996   4.459
  436SOL    HW2 1333   0.612   1.069   4.427
  437SOL     OW 1334   0.686   1.161   5.527
  437SOL    HW1 1335   0.746   1.240   5.541
  437SOL    HW2 1336   0.600   1.192   5.486
  438SOL     OW 1337   0.335   1.435   4.785
  438SOL    HW1 1338   0.257   1.404   4.732
  438SOL    HW2 1339   0.393   1.493   4.728
  439SOL     OW 1340   1.460   1.505   5.063
  439SOL    HW1 1341   1.484   1.599   5.089
  439SOL    HW2 1342   1.444   1.451   5.145
  440SOL     OW 1343   0.438   0.392   5.223
  440SOL    HW1 1344   0.520   0.336   5.232
  440SOL    HW2 1345   0.357   0.334   5.227
  441SOL     OW 1346   1.603   0.447   4.461
  441SOL    HW1 1347   1.529   0.493   4.411
  441SOL    HW2 1348   1.654   0.515   4.514
  442SOL     OW 1349   0.231   1.713   4.207
  442SOL    HW1 1350   0.265   1.790   4.261
  442SOL    HW2 1351   0.275   1.713   4.117
  443SOL     OW 1352   1.127   1.341   5.414
  443SOL    HW1 1353   1.174   1.341   5.502
  443SOL    HW2 1354   1.079   1.254   5.403
  444SOL     OW 1355   0.230   1.434   4.262
  444SOL    HW1 1356   0.204   1.530   4.262
  444SOL    HW2 1357   0.159   1.380   4.307
  445SOL     OW 1358   0.240   1.091   4.610
  445SOL    HW1 1359   0.254   1.007   4.662
  445SOL    HW2 1360   0.185   1.155   4.665
  446SOL     OW 1361   0.620   1.786   5.163
  446SOL    HW1 1362   0.528   1.769   5.198
  446SOL    HW2 1363   0.648   1.878   5.189
  447SOL     OW 1364   0.606   0.964   3.847
  447SOL    HW1 1365   0.613   1.048   3.793
  447SOL    HW2 1366   0.652   0.977   3.935
  448SOL     OW 1367   1.594   0.114   5.204
  448SOL    HW1 1368   1.576   0.181   5.132
  448SOL    HW2 1369   1.591   0.160   5.293
  449SOL     OW 1370   0.122   0.643   4.287
  449SOL    HW1 1371   0.077   0.555   4.304
  449SOL    HW2 1372   0.121   0.697   4.371
  450SOL     OW 1373   1.842   1.767   4.083
  450SOL    HW1 1374   1.896   1.738   4.163
  450SOL    HW2 1375   1.872   1.857   4.054
  451SOL     OW 1376   0.027   1.596   3.841
  451SOL    HW1 1377   0.008   1.500   3.862
  451SOL    HW2 1378  -0.006   1.654   3.916
  452SOL     OW 1379   1.689   0.922   4.336
  452SOL    HW1 1380   1.784   0.893   4.344
  452SOL    HW2 1381   1.681   0.987   4.261
  453SOL     OW 1382   1.641   1.108   4.156
  453SOL    HW1 1383   1.727   1.110   4.104
  453SOL    HW2 1384   1.655   1.155   4.244
  454SOL     OW 1385   0.113   0.737   5.321
  454SOL    HW1 1386   0.201   0.724   5.366
  454SOL    HW2 1387   0.100   0.834   5.299
  455SOL     OW 1388   0.613   1.365   4.450
  455SOL    HW1 1389   0.564   1.278   4.459
  455SOL    HW2 1390   0.590   1.408   4.363
  456SOL     OW 1391   1.293   1.228   5.147
  456SOL    HW1 1392   1.330   1.155   5.089
  456SOL    HW2 1393   1.345   1.233   5.232
  457SOL     OW 1394   0.809   0.004   4.226
  457SOL    HW1 1395   0.849   0.095   4.217
  457SOL    HW2 1396   0.709   0.012   4.232
  458SOL     OW 1397   0.197   0.976   4.988
  458SOL    HW1 1398   0.286   0.931   4.974
  458SOL    HW2 1399   0.124   0.911   4.969
  459SOL     OW 1400   1.525   0.999   3.914
  459SOL    HW1 1401   1.462   0.923   3.927
  459SOL    HW2 1402   1.573   1.017   4.000
  460SOL     OW 1403   1.187   1.792   5.340
  460SOL    HW1 1404   1.211   1.852   5.264
  460SOL    HW2 1405   1.194   1.697   5.310
  461SOL     OW 1406   0.317   0.251   5.525
  461SOL    HW1 1407   0.388   0.322   5.531
  461SOL    HW2 1408   0.229   0.290   5.553
  462SOL     OW 1409   1.466   1.417   4.677
  462SOL    HW1 1410   1.407   1.423   4.757
  462SOL    HW2 1411   1.451   1.329   4.631
  463SOL     OW 1412   1.667   1.714   4.296
  463SOL    HW1 1413   1.626   1.691   4.208
  463SOL    HW2 1414   1.649   1.640   4.361
  464SOL     OW 1415   0.598   0.729   3.994
  464SOL    HW1 1416   0.622   0.798   3.926
  464SOL    HW2 1417   0.520   0.762   4.048
  465SOL     OW 1418   1.281   0.345   4.668
  465SOL    HW1 1419   1.195   0.295   4.655
  465SOL    HW2 1420   1.343   0.291   4.724
  466SOL     OW 1421   1.576   1.662   4.031
  466SOL    HW1 1422   1.665   1.708   4.034
  466SOL    HW2 1423   1.555   1.638   3.936
  467SOL     OW 1424   0.807   0.605   5.189
  467SOL    HW1 1425   0.760   0.602   5.278
  467SOL    HW2 1426   0.756   0.550   5.123
  468SOL     OW 1427   1.394   0.469   5.398
  468SOL    HW1 1428   1.374   0.512   5.486
  468SOL    HW2 1429   1.472   0.407   5.407
  469SOL     OW 1430   0.973   0.890   5.296
  469SOL    HW1 1431   1.019   0.806   5.267
  469SOL    HW2 1432   0.917   0.924   5.221
  470SOL     OW 1433   0.991   0.410   4.966
  470SOL    HW1 1434   0.914   0.444   5.020
  470SOL    HW2 1435   0.957   0.359   4.887
  471SOL     OW 1436   1.041   0.701   4.153
  471SOL    HW1 1437   1.067   0.697   4.249
  471SOL    HW2 1438   0.956   0.650   4.139
  472SOL     OW 1439   0.076   0.811   4.513
  472SOL    HW1 1440   0.175   0.799   4.522
  472SOL    HW2 1441   0.052   0.906   4.534
  473SOL     OW 1442   0.130   1.821   5.295
  473SOL    HW1 1443   0.120   1.806   5.394
  473SOL    HW2 1444   0.044   1.857   5.259
  474SOL     OW 1445   0.865   0.348   3.919
  474SOL    HW1 1446   0.924   0.411   3.870
  474SOL    HW2 1447   0.884   0.254   3.890
  475SOL     OW 1448   1.719   0.585   5.555
  475SOL    HW1 1449   1.693   0.674   5.519
  475SOL    HW2 1450   1.717   0.517   5.482
  476SOL     OW 1451   1.362   1.144   4.269
  476SOL    HW1 1452   1.445   1.115   4.221
  476SOL    HW2 1453   1.313   1.211   4.213
  477SOL     OW 1454   0.550   0.196   4.609
  477SOL    HW1 1455   0.545   0.191   4.709
  477SOL    HW2 1456   0.552   0.292   4.580
  478SOL     OW 1457   1.008   1.456   4.201
  478SOL    HW1 1458   0.962   1.528   4.149
  478SOL    HW2 1459   1.004   1.476   4.299
  479SOL     OW 1460   0.351   1.801   4.577
  479SOL    HW1 1461   0.401   1.715   4.583
  479SOL    HW2 1462   0.416   1.878   4.574
  480SOL     OW 1463   1.795   1.066   4.597
  480SOL    HW1 1464   1.733   1.051   4.521
  480SOL    HW2 1465   1.743   1.077   4.682
  481SOL     OW 1466   1.227   1.550   5.230
  481SOL    HW1 1467   1.233   1.473   5.294
  481SOL    HW2 1468   1.175   1.524   5.150
  482SOL     OW 1469   0.321   0.943   3.966
  482SOL    HW1 1470   0.403   0.982   3.924
  482SOL    HW2 1471   0.294   0.861   3.917
  483SOL     OW 1472   1.458   0.735   4.452
  483SOL    HW1 1473   1.453   0.670   4.527
  483SOL    HW2 1474   1.538   0.794   4.465
  484SOL     OW 1475   0.461   1.266   5.451
  484SOL    HW1 1476   0.411   1.267   5.365
  484SOL    HW2 1477   0.398   1.248   5.527
  485SOL     OW 1478   1.111   1.776   3.961
  485SOL    HW1 1479   1.051   1.714   4.011
  485SOL    HW2 1480   1.142   1.732   3.876
  486SOL     OW 1481   0.202   0.285   5.222
  486SOL    HW1 1482   0.122   0.345   5.209
  486SOL    HW2 1483   0.192   0.236   5.308
  487SOL     OW 1484   1.632   1.377   3.805
  487SOL    HW1 1485   1.600   1.471   3.795
  487SOL    HW2 1486   1.556   1.314   3.793
  488SOL     OW 1487   0.464   1.743   4.047
  488SOL    HW1 1488   0.497   1.782   4.133
  488SOL    HW2 1489   0.540   1.736   3.982
  489SOL     OW 1490   1.400   0.107   4.150
  489SOL    HW1 1491   1.376   0.070   4.060
  489SOL    HW2 1492   1.499   0.123   4.154
  490SOL     OW 1493   0.249   1.785   4.965
  490SOL    HW1 1494   0.306   1.720   5.015
  490SOL    HW2 1495   0.233   1.752   4.872
  491SOL     OW 1496   0.940   1.698   4.628
  491SOL    HW1 1497   1.020   1.641   4.649
  491SOL    HW2 1498   0.891   1.658   4.551
  492SOL     OW 1499   0.382   0.700   4.204
  492SOL    HW1 1500   0.427   0.610   4.201
  492SOL    HW2 1501   0.288   0.689   4.237
  493SOL     OW 1502   1.547   0.222   5.453
  493SOL    HW1 1503   1.542   0.259   5.545
  493SOL    HW2 1504   1.475   0.153   5.441
  494SOL     OW 1505   0.614   0.122   3.841
  494SOL    HW1 1506   0.712   0.100   3.848
  494SOL    HW2 1507   0.583   0.105   3.748
  495SOL     OW 1508   0.781   0.264   5.473
  495SOL    HW1 1509   0.848   0.203   5.516
  495SOL    HW2 1510   0.708   0.283   5.538
  496SOL     OW 1511   0.888   1.514   4.919
  496SOL    HW1 1512   0.865   1.489   4.825
  496SOL    HW2 1513   0.949   1.445   4.958
  497SOL     OW 1514   1.351   0.590   5.157
  497SOL    HW1 1515   1.379   0.547   5.242
  497SOL    HW2 1516   1.376   0.686   5.158
  498SOL     OW 1517   0.803   1.402   4.648
  498SOL    HW1 1518   0.893   1.416   4.606
  498SOL    HW2 1519   0.732   1.404   4.577
  499SOL     OW 1520   0.922   0.503   4.623
  499SOL    HW1 1521   0.897   0.494   4.527
  499SOL    HW2 1522   0.970   0.421   4.654
  500SOL     OW 1523   0.539   0.064   4.236
  500SOL    HW1 1524   0.458   0.065   4.294
  500SOL    HW2 1525   0.542   0.147   4.181
  501SOL     OW 1526   1.434   1.188   3.765
  501SOL    HW1 1527   1.466   1.112   3.822
  501SOL    HW2 1528   1.342   1.215   3.795
  502SOL     OW 1529   0.297   0.035   3.895
  502SOL    HW1 1530   0.346   0.119   3.874
  502SOL    HW2 1531   0.359  -0.030   3.940
  503SOL     OW 1532   0.935   0.236   4.204
  503SOL    HW1 1533   0.887   0.277   4.126
  503SOL    HW2 1534   1.034   0.234   4.185
  504SOL     OW 1535   1.076   0.683   5.188
  504SOL    HW1 1536   0.996   0.622   5.191
  504SOL    HW2 1537   1.157   0.630   5.164
  505SOL     OW 1538   1.227   1.570   4.517
  505SOL    HW1 1539   1.248   1.644   4.452
  505SOL    HW2 1540   1.295   1.570   4.590
  506SOL     OW 1541   0.459   1.152   4.465
  506SOL    HW1 1542   0.388   1.125   4.530
  506SOL    HW2 1543   0.433   1.124   4.372
  507SOL     OW 1544   1.271   1.797   4.315
  507SOL    HW1 1545   1.315   1.861   4.251
  507SOL    HW2 1546   1.221   1.849   4.385
  508SOL     OW 1547   1.032   0.549   3.740
  508SOL    HW1 1548   0.991   0.631   3.701
  508SOL    HW2 1549   1.096   0.575   3.813
  509SOL     OW 1550   0.078   0.556   5.110
  509SOL    HW1 1551   0.170   0.555   5.069
  509SOL    HW2 1552   0.072   0.630   5.177
  510SOL     OW 1553   0.561   0.222   4.871
  510SOL    HW1 1554   0.599   0.138   4.908
  510SOL    HW2 1555   0.473   0.241   4.915
  511SOL     OW 1556   0.866   0.454   4.366
  511SOL    HW1 1557   0.834   0.526   4.304
  511SOL    HW2 1558   0.890   0.373   4.313
  512SOL     OW 1559   1.017   0.039   4.477
  512SOL    HW1 1560   0.945   0.044   4.408
  512SOL    HW2 1561   0.993  -0.030   4.546
  513SOL     OW 1562   1.429   1.173   4.591
  513SOL    HW1 1563   1.374   1.089   4.584
  513SOL    HW2 1564   1.455   1.202   4.499
  514SOL     OW 1565   1.466   0.590   4.716
  514SOL    HW1 1566   1.436   0.495   4.723
  514SOL    HW2 1567   1.539   0.606   4.782
  515SOL     OW 1568   1.857   0.833   4.101
  515SOL    HW1 1569   1.899   0.769   4.165
  515SOL    HW2 1570   1.819   0.782   4.023
  516SOL     OW 1571   0.488   1.385   3.898
  516SOL    HW1 1572   0.401   1.370   3.945
  516SOL    HW2 1573   0.471   1.411   3.803
  517SOL     OW 1574   1.664   1.280   4.381
  517SOL    HW1 1575   1.763   1.288   4.395
  517SOL    HW2 1576   1.619   1.364   4.412
  518SOL     OW 1577   1.390   0.575   3.802
  518SOL    HW1 1578   1.336   0.554   3.883
  518SOL    HW2 1579   1.481   0.534   3.811
  519SOL     OW 1580   0.527   0.256   4.052
  519SOL    HW1 1581   0.554   0.197   3.977
  519SOL    HW2 1582   0.527   0.351   4.021
  520SOL     OW 1583   1.754   1.223   5.312
  520SOL    HW1 1584   1.845   1.184   5.299
  520SOL    HW2 1585   1.762   1.319   5.336
  521SOL     OW 1586   1.064   1.347   5.064
  521SOL    HW1 1587   0.984   1.324   5.119
  521SOL    HW2 1588   1.147   1.321   5.113
  522SOL     OW 1589   1.592   1.629   5.349
  522SOL    HW1 1590   1.619   1.663   5.259
  522SOL    HW2 1591   1.671   1.591   5.395
  523SOL     OW 1592   1.111   1.195   4.824
  523SOL    HW1 1593   1.071   1.239   4.905
  523SOL    HW2 1594   1.070   1.232   4.741
  524SOL     OW 1595   1.638   1.099   4.803
  524SOL    HW1 1596   1.643   1.180   4.862
  524SOL    HW2 1597   1.552   1.101   4.752
  525SOL     OW 1598   0.915   0.089   5.126
  525SOL    HW1 1599   0.940   0.069   5.031
  525SOL    HW2 1600   0.987   0.145   5.168
  526SOL     OW 1601   0.980   1.116   5.443
  526SOL    HW1 1602   0.881   1.122   5.453
  526SOL    HW2 1603   1.003   1.036   5.387
  527SOL     OW 1604   0.705   1.050   4.092
  527SOL    HW1 1605   0.691   1.057   4.191
  527SOL    HW2 1606   0.789   0.999   4.074
  528SOL     OW 1607   0.410   0.813   4.975
  528SOL    HW1 1608   0.496   0.825   5.025
  528SOL    HW2 1609   0.368   0.726   5.002
  529SOL     OW 1610   1.274   0.386   4.986
  529SOL    HW1 1611   1.295   0.460   5.050
  529SOL    HW2 1612   1.185   0.403   4.943
  530SOL     OW 1613   0.064   1.564   5.055
  530SOL    HW1 1614   0.018   1.646   5.021
  530SOL    HW2 1615   0.162   1.583   5.064
  531SOL     OW 1616   0.367   1.100   4.225
  531SOL    HW1 1617   0.360   1.183   4.169
  531SOL    HW2 1618   0.371   1.020   4.165
  532SOL     OW 1619   0.566   0.537   4.589
  532SOL    HW1 1620   0.578   0.603   4.515
  532SOL    HW2 1621   0.612   0.571   4.672
  533SOL     OW 1622   1.252   1.348   4.112
  533SOL    HW1 1623   1.302   1.425   4.152
  533SOL    HW2 1624   1.157   1.350   4.144
  534SOL     OW 1625   1.272   1.445   4.866
  534SOL    HW1 1626   1.319   1.458   4.953
  534SOL    HW2 1627   1.206   1.371   4.875
  535SOL     OW 1628   1.582   0.639   4.196
  535SOL    HW1 1629   1.551   0.700   4.269
  535SOL    HW2 1630   1.632   0.691   4.127
  536SOL     OW 1631   0.354   1.510   5.053
  536SOL    HW1 1632   0.333   1.466   4.966
  536SOL    HW2 1633   0.451   1.536   5.056
  537SOL     OW 1634   0.402   0.751   5.322
  537SOL    HW1 1635   0.470   0.806   5.275
  537SOL    HW2 1636   0.442   0.663   5.349
  538SOL     OW 1637   1.587   0.779   5.394
  538SOL    HW1 1638   1.495   0.817   5.389
  538SOL    HW2 1639   1.647   0.826   5.329
  539SOL     OW 1640   1.013   0.105   5.494
  539SOL    HW1 1641   1.019   0.190   5.442
  539SOL    HW2 1642   1.045   0.029   5.437
  540SOL     OW 1643   0.504   0.050   5.464
  540SOL    HW1 1644   0.462  -0.007   5.394
  540SOL    HW2 1645   0.438   0.119   5.496
  541SOL     OW 1646   0.573   0.870   4.753
  541SOL    HW1 1647   0.617   0.959   4.744
  541SOL    HW2 1648   0.510   0.870   4.830
  542SOL     OW 1649   1.360   0.862   4.769
  542SOL    HW1 1650   1.285   0.862   4.703
  542SOL    HW2 1651   1.397   0.770   4.778
  543SOL     OW 1652   1.209   0.525   3.999
  543SOL    HW1 1653   1.222   0.441   4.053
  543SOL    HW2 1654   1.180   0.599   4.059
  544SOL     OW 1655   0.307   0.213   4.955
  544SOL    HW1 1656   0.284   0.250   5.045
  544SOL    HW2 1657   0.277   0.118   4.949
  545SOL     OW 1658   0.037   1.310   5.006
  545SOL    HW1 1659   0.090   1.261   5.074
  545SOL    HW2 1660   0.059   1.408   5.011
  546SOL     OW 1661   0.732   0.634   4.788
  546SOL    HW1 1662   0.791   0.608   4.712
  546SOL    HW2 1663   0.704   0.730   4.777
  547SOL     OW 1664   1.728   0.935   5.578
  547SOL    HW1 1665   1.682   0.928   5.489
  547SOL    HW2 1666   1.666   0.979   5.644
  548SOL     OW 1667   0.307   0.063   4.342
  548SOL    HW1 1668   0.296   0.157   4.375
  548SOL    HW2 1669   0.302   0.000   4.419
  549SOL     OW 1670   1.622   0.367   4.098
  549SOL    HW1 1671   1.624   0.291   4.162
  549SOL    HW2 1672   1.574   0.444   4.138
  550SOL     OW 1673   1.023   0.766   4.690
  550SOL    HW1 1674   1.038   0.787   4.786
  550SOL    HW2 1675   0.993   0.671   4.681
  551SOL     OW 1676   0.980   1.573   5.424
  551SOL    HW1 1677   0.960   1.617   5.336
  551SOL    HW2 1678   1.019   1.482   5.408
  552SOL     OW 1679   1.859   1.518   5.329
  552SOL    HW1 1680   1.873   1.545   5.234
  552SOL    HW2 1681   1.942   1.540   5.382
  553SOL     OW 1682   0.350   0.898   5.528
  553SOL    HW1 1683   0.426   0.942   5.576
  553SOL    HW2 1684   0.385   0.851   5.446
  554SOL     OW 1685   1.540   0.274   3.849
  554SOL    HW1 1686   1.479   0.199   3.872
  554SOL    HW2 1687   1.562   0.326   3.932
  555SOL     OW 1688   1.303   0.838   3.766
  555SOL    HW1 1689   1.337   0.745   3.781
  555SOL    HW2 1690   1.321   0.865   3.671
  556SOL     OW 1691   1.068   1.333   4.573
  556SOL    HW1 1692   1.075   1.249   4.518
  556SOL    HW2 1693   1.130   1.402   4.537
  557SOL     OW 1694   0.319   0.810   4.673
  557SOL    HW1 1695   0.412   0.846   4.678
  557SOL    HW2 1696   0.313   0.725   4.725
  558SOL     OW 1697   0.339   0.509   4.730
  558SOL    HW1 1698   0.287   0.426   4.713
  558SOL    HW2 1699   0.416   0.514   4.666
  559SOL     OW 1700   1.138   0.380   5.402
  559SOL    HW1 1701   1.093   0.443   5.466
  559SOL    HW2 1702   1.231   0.411   5.385
  560SOL     OW 1703   1.160   0.207   5.201
  560SOL    HW1 1704   1.160   0.271   5.278
  560SOL    HW2 1705   1.188   0.255   5.118
  561SOL     OW 1706   0.008   1.326   3.924
  561SOL    HW1 1707  -0.085   1.347   3.893
  561SOL    HW2 1708   0.018   1.227   3.937
  562SOL     OW 1709   0.088   1.801   4.651
  562SOL    HW1 1710   0.046   1.715   4.624
  562SOL    HW2 1711   0.182   1.804   4.617
  563SOL     OW 1712   0.504   1.568   4.634
  563SOL    HW1 1713   0.570   1.642   4.643
  563SOL    HW2 1714   0.548   1.489   4.592
  564SOL     OW 1715   1.002   0.796   4.962
  564SOL    HW1 1716   1.043   0.764   5.048
  564SOL    HW2 1717   0.906   0.769   4.959
  565SOL     OW 1718   0.040   0.544   4.838
  565SOL    HW1 1719   0.125   0.511   4.797
  565SOL    HW2 1720   0.053   0.559   4.936
  566SOL     OW 1721   0.189   0.520   5.446
  566SOL    HW1 1722   0.248   0.480   5.376
  566SOL    HW2 1723   0.131   0.591   5.405
  567SOL     OW 1724   1.369   0.950   5.384
  567SOL    HW1 1725   1.408   1.039   5.404
  567SOL    HW2 1726   1.379   0.930   5.287
  568SOL     OW 1727   0.815   0.572   4.049
  568SOL    HW1 1728   0.822   0.483   4.003
  568SOL    HW2 1729   0.721   0.606   4.041
  569SOL     OW 1730   1.657   0.604   4.930
  569SOL    HW1 1731   1.619   0.535   4.992
  569SOL    HW2 1732   1.739   0.568   4.886
  570SOL     OW 1733   0.252   1.564   5.468
  570SOL    HW1 1734   0.222   1.621   5.544
  570SOL    HW2 1735   0.245   1.467   5.494
  571SOL     OW 1736   0.671   0.464   4.993
  571SOL    HW1 1737   0.637   0.375   4.963
  571SOL    HW2 1738   0.697   0.518   4.913
  572SOL     OW 1739   0.930   1.678   5.189
  572SOL    HW1 1740   0.906   1.660   5.094
  572SOL    HW2 1741   0.960   1.772   5.199
  573SOL     OW 1742   0.473   0.500   3.915
  573SOL    HW1 1743   0.534   0.580   3.919
  573SOL    HW2 1744   0.378   0.531   3.922
  574SOL     OW 1745   0.159   1.137   5.190
  574SOL    HW1 1746   0.181   1.076   5.266
  574SOL    HW2 1747   0.169   1.088   5.104
  575SOL     OW 1748   1.347   1.059   4.958
  575SOL    HW1 1749   1.371   0.996   4.884
  575SOL    HW2 1750   1.257   1.099   4.940
  576SOL     OW 1751   1.302   0.855   4.033
  576SOL    HW1 1752   1.216   0.824   4.075
  576SOL    HW2 1753   1.298   0.841   3.934
  577SOL     OW 1754   1.759   1.747   4.878
  577SOL    HW1 1755   1.820   1.777   4.805
  577SOL    HW2 1756   1.721   1.658   4.856
  578SOL     OW 1757   1.252   1.731   4.852
  578SOL    HW1 1758   1.336   1.736   4.798
  578SOL    HW2 1759   1.229   1.635   4.870
  579SOL     OW 1760   0.083   1.258   4.746
  579SOL    HW1 1761   0.078   1.257   4.846
  579SOL    HW2 1762   0.000   1.217   4.708
  580SOL     OW 1763   0.688   1.662   5.440
  580SOL    HW1 1764   0.632   1.743   5.449
  580SOL    HW2 1765   0.740   1.666   5.354
  581SOL     OW 1766   1.726   0.135   4.247
  581SOL    HW1 1767   1.799   0.118   4.180
  581SOL    HW2 1768   1.695   0.048   4.285
  582SOL     OW 1769   1.388   1.573   4.201
  582SOL    HW1 1770   1.455   1.585   4.127
  582SOL    HW2 1771   1.348   1.662   4.224
  583SOL     OW 1772   0.130   1.794   5.575
  583SOL    HW1 1773   0.089   1.720   5.628
  583SOL    HW2 1774   0.194   1.845   5.633
  584SOL     OW 1775   1.280   0.927   4.396
  584SOL    HW1 1776   1.340   0.846   4.398
  584SOL    HW2 1777   1.320   0.996   4.336
  585SOL     OW 1778   0.830   1.273   5.146
  585SOL    HW1 1779   0.825   1.306   5.241
  585SOL    HW2 1780   0.744   1.292   5.100
  586SOL     OW 1781   0.672   1.616   3.878
  586SOL    HW1 1782   0.681   1.626   3.779
  586SOL    HW2 1783   0.632   1.527   3.899
  587SOL     OW 1784   1.650   1.720   5.118
  587SOL    HW1 1785   1.703   1.730   5.034
  587SOL    HW2 1786   1.623   1.810   5.152
  588SOL     OW 1787   1.841   0.175   4.687
  588SOL    HW1 1788   1.880   0.090   4.651
  588SOL    HW2 1789   1.743   0.177   4.668
  589SOL     OW 1790   0.263   0.326   4.444
  589SOL    HW1 1791   0.184   0.377   4.410
  589SOL    HW2 1792   0.254   0.311   4.542
  590SOL     OW 1793   1.194   1.612   3.755
  590SOL    HW1 1794   1.200   1.519   3.792
  590SOL    HW2 1795   1.135   1.612   3.675
  591SOL     OW 1796   0.822   1.002   5.096
  591SOL    HW1 1797   0.862   1.001   5.004
  591SOL    HW2 1798   0.832   1.094   5.136
  592SOL     OW 1799   0.916   0.910   4.015
  592SOL    HW1 1800   0.979   0.948   3.947
  592SOL    HW2 1801   0.956   0.827   4.054
  593SOL     OW 1802   1.504   1.607   3.768
  593SOL    HW1 1803   1.412   1.644   3.775
  593SOL    HW2 1804   1.542   1.627   3.678
  594SOL     OW 1805   0.372   1.288   5.214
  594SOL    HW1 1806   0.359   1.381   5.180
  594SOL    HW2 1807   0.288   1.236   5.201
  595SOL     OW 1808   1.614   1.292   5.013
  595SOL    HW1 1809   1.674   1.295   5.093
  595SOL    HW2 1810   1.539   1.356   5.026
  596SOL     OW 1811   1.039   1.098   4.420
  596SOL    HW1 1812   0.969   1.051   4.474
  596SOL    HW2 1813   1.098   1.030   4.377
  597SOL     OW 1814   1.014   0.236   4.695
  597SOL    HW1 1815   1.006   0.200   4.602
  597SOL    HW2 1816   1.012   0.160   4.760
  598SOL     OW 1817   0.590   1.487   4.215
  598SOL    HW1 1818   0.632   1.429   4.145
  598SOL    HW2 1819   0.546   1.566   4.171
  599SOL     OW 1820   1.709   0.385   5.105
  599SOL    HW1 1821   1.782   0.454   5.109
  599SOL    HW2 1822   1.737   0.310   5.046
  600SOL     OW 1823   0.255   1.348   4.014
  600SOL    HW1 1824   0.159   1.349   3.987
  600SOL    HW2 1825   0.267   1.401   4.098
  601SOL     OW 1826   0.105   1.013   5.450
  601SOL    HW1 1827   0.028   0.980   5.504
  601SOL    HW2 1828   0.190   0.983   5.492
  602SOL     OW 1829   0.672   0.203   5.213
  602SOL    HW1 1830   0.762   0.187   5.173
  602SOL    HW2 1831   0.680   0.208   5.312
  603SOL     OW 1832   0.075   0.345   3.757
  603SOL    HW1 1833  -0.017   0.317   3.728
  603SOL    HW2 1834   0.106   0.422   3.701
  604SOL     OW 1835   1.440   0.856   5.122
  604SOL    HW1 1836   1.383   0.908   5.059
  604SOL    HW2 1837   1.536   0.868   5.098
  605SOL     OW 1838   0.072   0.166   4.042
  605SOL    HW1 1839   0.055   0.249   3.988
  605SOL    HW2 1840   0.162   0.129   4.020
  606SOL     OW 1841   1.183   1.335   3.843
  606SOL    HW1 1842   1.084   1.324   3.845
  606SOL    HW2 1843   1.217   1.350   3.936
  607SOL     OW 1844   0.613   0.842   5.155
  607SOL    HW1 1845   0.669   0.923   5.138
  607SOL    HW2 1846   0.672   0.762   5.158
  608SOL     OW 1847   1.493   1.767   4.683
  608SOL    HW1 1848   1.526   1.831   4.614
  608SOL    HW2 1849   1.559   1.761   4.758
  609SOL     OW 1850   0.716   0.565   5.432
  609SOL    HW1 1851   0.735   0.630   5.506
  609SOL    HW2 1852   0.776   0.485   5.441
  610SOL     OW 1853   1.450   1.220   5.357
  610SOL    HW1 1854   1.441   1.210   5.456
  610SOL    HW2 1855   1.546   1.213   5.331
  611SOL     OW 1856   0.390   1.741   5.284
  611SOL    HW1 1857   0.299   1.782   5.282
  611SOL    HW2 1858   0.383   1.647   5.316
  612SOL     OW 1859   1.674   0.883   4.978
  612SOL    HW1 1860   1.647   0.794   4.941
  612SOL    HW2 1861   1.675   0.951   4.905
  613SOL     OW 1862   1.225   0.325   4.173
  613SOL    HW1 1863   1.290   0.251   4.162
  613SOL    HW2 1864   1.245   0.375   4.257
  614SOL     OW 1865   0.594   0.745   4.376
  614SOL    HW1 1866   0.644   0.830   4.357
  614SOL    HW2 1867   0.506   0.747   4.328
  615SOL     OW 1868   1.777   0.342   5.366
  615SOL    HW1 1869   1.760   0.373   5.272
  615SOL    HW2 1870   1.693   0.305   5.404
  616SOL     OW 1871   1.730   0.934   5.241
  616SOL    HW1 1872   1.768   1.025   5.256
  616SOL    HW2 1873   1.722   0.917   5.142
  617SOL     OW 1874   0.859   1.374   3.740
  617SOL    HW1 1875   0.813   1.389   3.828
  617SOL    HW2 1876   0.903   1.459   3.710
  618SOL     OW 1877   0.661   1.790   4.677
  618SOL    HW1 1878   0.615   1.878   4.664
  618SOL    HW2 1879   0.760   1.802   4.670
  619SOL     OW 1880   0.859   0.956   4.585
  619SOL    HW1 1881   0.913   0.887   4.633
  619SOL    HW2 1882   0.827   1.025   4.651
  620SOL     OW 1883   1.083   0.984   3.811
  620SOL    HW1 1884   1.060   1.037   3.729
  620SOL    HW2 1885   1.164   0.928   3.792
  621SOL     OW 1886   1.861   1.569   4.575
  621SOL    HW1 1887   1.790   1.557   4.505
  621SOL    HW2 1888   1.862   1.490   4.635
  622SOL     OW 1889   0.221   1.314   5.568
  622SOL    HW1 1890   0.156   1.241   5.547
  622SOL    HW2 1891   0.225   1.328   5.666
  623SOL     OW 1892   0.079   1.240   4.377
  623SOL    HW1 1893   0.078   1.193   4.465
  623SOL    HW2 1894   0.161   1.212   4.326
  624SOL     OW 1895   0.672   1.391   5.348
  624SOL    HW1 1896   0.594   1.341   5.386
  624SOL    HW2 1897   0.669   1.486   5.379
  625SOL     OW 1898   1.824   0.192   4.951
  625SOL    HW1 1899   1.820   0.102   4.995
  625SOL    HW2 1900   1.827   0.181   4.852
  626SOL     OW 1901   0.428   0.424   4.244
  626SOL    HW1 1902   0.458   0.352   4.182
  626SOL    HW2 1903   0.389   0.384   4.327
  627SOL     OW 1904   1.705   1.487   4.828
  627SOL    HW1 1905   1.612   1.462   4.801
  627SOL    HW2 1906   1.731   1.437   4.910
  628SOL     OW 1907   0.317   0.547   5.004
  628SOL    HW1 1908   0.355   0.488   5.076
  628SOL    HW2 1909   0.357   0.521   4.916
  629SOL     OW 1910   0.812   1.586   4.411
  629SOL    HW1 1911   0.844   1.596   4.317
  629SOL    HW2 1912   0.733   1.524   4.413
  630SOL     OW 1913   1.424   0.214   4.836
  630SOL    HW1 1914   1.476   0.149   4.891
  630SOL    HW2 1915   1.375   0.277   4.897
  631SOL     OW 1916   1.001   0.034   4.878
  631SOL    HW1 1917   0.938  -0.038   4.847
  631SOL    HW2 1918   1.094  -0.002   4.878
  632SOL     OW 1919   0.770   1.330   4.025
  632SOL    HW1 1920   0.724   1.243   4.042
  632SOL    HW2 1921   0.861   1.327   4.066
  633SOL     OW 1922   0.618   1.567   5.008
  633SOL    HW1 1923   0.613   1.649   5.065
  633SOL    HW2 1924   0.707   1.564   4.963
  634SOL     OW 1925   1.352   0.052   3.892
  634SOL    HW1 1926   1.387   0.011   3.808
  634SOL    HW2 1927   1.262   0.014   3.912
  635SOL     OW 1928   1.300   0.453   4.415
  635SOL    HW1 1929   1.241   0.533   4.419
  635SOL    HW2 1930   1.315   0.418   4.508
  636SOL     OW 1931   1.593   0.221   4.606
  636SOL    HW1 1932   1.509   0.220   4.660
  636SOL    HW2 1933   1.595   0.304   4.550
  637SOL     OW 1934   0.039   1.077   4.024
  637SOL    HW1 1935   0.138   1.066   4.015
  637SOL    HW2 1936  -0.001   0.991   4.056
  638SOL     OW 1937   0.875   1.646   4.061
  638SOL    HW1 1938   0.798   1.611   4.007
  638SOL    HW2 1939   0.843   1.717   4.123
  639SOL     OW 1940   0.230   0.628   5.699
  639SOL    HW1 1941   0.137   0.626   5.736
  639SOL    HW2 1942   0.231   0.589   5.607
  640SOL     OW 1943   0.225   0.275   6.582
  640SOL    HW1 1944   0.260   0.258   6.674
  640SOL    HW2 1945   0.137   0.230   6.570
  641SOL     OW 1946   0.019   0.368   6.233
  641SOL    HW1 1947  -0.063   0.411   6.272
  641SOL    HW2 1948  -0.009   0.295   6.170
  642SOL     OW 1949   0.569   1.275   6.751
  642SOL    HW1 1950   0.476   1.268   6.714
  642SOL    HW2 1951   0.580   1.364   6.795
  643SOL     OW 1952   1.555   1.511   6.289
  643SOL    HW1 1953   1.498   1.495   6.370
  643SOL    HW2 1954   1.496   1.521   6.209
  644SOL     OW 1955   1.135   0.703   6.303
  644SOL    HW1 1956   1.192   0.781   6.278
  644SOL    HW2 1957   1.075   0.729   6.379
  645SOL     OW 1958   1.755   0.607   5.817
  645SOL    HW1 1959   1.743   0.594   5.718
  645SOL    HW2 1960   1.725   0.526   5.866
  646SOL     OW 1961   0.768   1.144   6.609
  646SOL    HW1 1962   0.690   1.161   6.669
  646SOL    HW2 1963   0.802   1.231   6.573
  647SOL     OW 1964   0.850   0.798   7.409
  647SOL    HW1 1965   0.846   0.874   7.474
  647SOL    HW2 1966   0.872   0.834   7.318
  648SOL     OW 1967   0.685   1.012   6.251
  648SOL    HW1 1968   0.754   0.996   6.321
  648SOL    HW2 1969   0.612   1.069   6.289
  649SOL     OW 1970   0.686   1.161   7.389
  649SOL    HW1 1971   0.746   1.240   7.403
  649SOL    HW2 1972   0.600   1.192   7.348
  650SOL     OW 1973   0.335   1.435   6.647
  650SOL    HW1 1974   0.257   1.404   6.594
  650SOL    HW2 1975   0.393   1.493   6.590
  651SOL     OW 1976   1.460   1.505   6.925
  651SOL    HW1 1977   1.484   1.599   6.951
  651SOL    HW2 1978   1.444   1.451   7.007
  652SOL     OW 1979   0.438   0.392   7.085
  652SOL    HW1 1980   0.520   0.336   7.094
  652SOL    HW2 1981   0.357   0.334   7.089
  653SOL     OW 1982   1.603   0.447   6.323
  653SOL    HW1 1983   1.529   0.493   6.273
  653SOL    HW2 1984   1.654   0.515   6.376
  654SOL     OW 1985   0.231   1.713   6.069
  654SOL    HW1 1986   0.265   1.790   6.123
  654SOL    HW2 1987   0.275   1.713   5.979
  655SOL     OW 1988   1.127   1.341   7.276
  655SOL    HW1 1989   1.174   1.341   7.364
  655SOL    HW2 1990   1.079   1.254   7.265
  656SOL     OW 1991   0.230   1.434   6.124
  656SOL    HW1 1992   0.204   1.530   6.124
  656SOL    HW2 1993   0.159   1.380   6.169
  657SOL     OW 1994   0.240   1.091   6.472
  657SOL    HW1 1995   0.254   1.007   6.524
  657SOL    HW2 1996   0.185   1.155   6.527
  658SOL     OW 1997   0.620   1.786   7.025
  658SOL    HW1 1998   0.528   1.769   7.060
  658SOL    HW2 1999   0.648   1.878   7.051
  659SOL     OW 2000   0.606   0.964   5.709
  659SOL    HW1 2001   0.613   1.048   5.655
  659SOL    HW2 2002   0.652   0.977   5.797
  660SOL     OW 2003   1.594   0.114   7.066
  660SOL    HW1 2004   1.576   0.181   6.994
  660SOL    HW2 2005   1.591   0.160   7.155
  661SOL     OW 2006   0.122   0.643   6.149
  661SOL    HW1 2007   0.077   0.555   6.166
  661SOL    HW2 2008   0.121   0.697   6.233
  662SOL     OW 2009   1.842   1.767   5.945
  662SOL    HW1 2010   1.896   1.738   6.025
  662SOL    HW2 2011   1.872   1.857   5.916
  663SOL     OW 2012   0.027   1.596   5.703
  663SOL    HW1 2013   0.008   1.500   5.724
  663SOL    HW2 2014  -0.006   1.654   5.778
  664SOL     OW 2015   1.689   0.922   6.198
  664SOL    HW1 2016   1.784   0.893   6.206
  664SOL    HW2 2017   1.681   0.987   6.123
  665SOL     OW 2018   1.641   1.108   6.018
  665SOL    HW1 2019   1.727   1.110   5.966
  665SOL    HW2 2020   1.655   1.155   6.106
  666SOL     OW 2021   0.113   0.737   7.183
  666SOL    HW1 2022   0.201   0.724   7.228
  666SOL    HW2 2023   0.100   0.834   7.161
  667SOL     OW 2024   0.613   1.365   6.312
  667SOL    HW1 2025   0.564   1.278   6.321
  667SOL    HW2 2026   0.590   1.408   6.225
  668SOL     OW 2027   1.293   1.228   7.009
  668SOL    HW1 2028   1.330   1.155   6.951
  668SOL    HW2 2029   1.345   1.233   7.094
  669SOL     OW 2030   0.809   0.004   6.088
  669SOL    HW1 2031   0.849   0.095   6.079
  669SOL    HW2 2032   0.709   0.012   6.094
  670SOL     OW 2033   0.197   0.976   6.850
  670SOL    HW1 2034   0.286   0.931   6.836
  670SOL    HW2 2035   0.124   0.911   6.831
  671SOL     OW 2036   1.525   0.999   5.776
  671SOL    HW1 2037   1.462   0.923   5.789
  671SOL    HW2 2038   1.573   1.017   5.862
  672SOL     OW 2039   1.187   1.792   7.202
  672SOL    HW1 2040   1.211   1.852   7.126
  672SOL    HW2 2041   1.194   1.697   7.172
  673SOL     OW 2042   0.317   0.251   7.387
  673SOL    HW1 2043   0.388   0.322   7.393
  673SOL    HW2 2044   0.229   0.290   7.415
  674SOL     OW 2045   1.466   1.417   6.539
  674SOL    HW1 2046   1.407   1.423   6.619
  674SOL    HW2 2047   1.451   1.329   6.493
  675SOL     OW 2048   1.667   1.714   6.158
  675SOL    HW1 2049   1.626   1.691   6.070
  675SOL    HW2 2050   1.649   1.640   6.223
  676SOL     OW 2051   0.598   0.729   5.856
  676SOL    HW1 2052   0.622   0.798   5.788
  676SOL    HW2 2053   0.520   0.762   5.910
  677SOL     OW 2054   1.281   0.345   6.530
  677SOL    HW1 2055   1.195   0.295   6.517
  677SOL    HW2 2056   1.343   0.291   6.586
  678SOL     OW 2057   1.576   1.662   5.893
  678SOL    HW1 2058   1.665   1.708   5.896
  678SOL    HW2 2059   1.555   1.638   5.798
  679SOL     OW 2060   0.807   0.605   7.051
  679SOL    HW1 2061   0.760   0.602   7.140
  679SOL    HW2 2062   0.756   0.550   6.985
  680SOL     OW 2063   1.394   0.469   7.260
  680SOL    HW1 2064   1.374   0.512   7.348
  680SOL    HW2 2065   1.472   0.407   7.269
  681SOL     OW 2066   0.973   0.890   7.158
  681SOL    HW1 2067   1.019   0.806   7.129
  681SOL    HW2 2068   0.917   0.924   7.083
  682SOL     OW 2069   0.991   0.410   6.828
  682SOL    HW1 2070   0.914   0.444   6.882
  682SOL    HW2 2071   0.957   0.359   6.749
  683SOL     OW 2072   1.041   0.701   6.015
  683SOL    HW1 2073   1.067   0.697   6.111
  683SOL    HW2 2074   0.956   0.650   6.001
  684SOL     OW 2075   0.076   0.811   6.375
  684SOL    HW1 2076   0.175   0.799   6.384
  684SOL    HW2 2077   0.052   0.906   6.396
  685SOL     OW 2078   0.130   1.821   7.157
  685SOL    HW1 2079   0.120   1.806   7.256
  685SOL    HW2 2080   0.044   1.857   7.121
  686SOL     OW 2081   0.865   0.348   5.781
  686SOL    HW1 2082   0.924   0.411   5.732
  686SOL    HW2 2083   0.884   0.254   5.752
  687SOL     OW 2084   1.719   0.585   7.417
  687SOL    HW1 2085   1.693   0.674   7.381
  687SOL    HW2 2086   1.717   0.517   7.344
  688SOL     OW 2087   1.362   1.144   6.131
  688SOL    HW1 2088   1.445   1.115   6.083
  688SOL    HW2 2089   1.313   1.211   6.075
  689SOL     OW 2090   0.550   0.196   6.471
  689SOL    HW1 2091   0.545   0.191   6.571
  689SOL    HW2 2092   0.552   0.292   6.442
  690SOL     OW 2093   1.008   1.456   6.063
  690SOL    HW1 2094   0.962   1.528   6.011
  690SOL    HW2 2095   1.004   1.476   6.161
  691SOL     OW 2096   0.351   1.801   6.439
  691SOL    HW1 2097   0.401   1.715   6.445
  691SOL    HW2 2098   0.416   1.878   6.436
  692SOL     OW 2099   1.795   1.066   6.459
  692SOL    HW1 2100   1.733   1.051   6.383
  692SOL    HW2 2101   1.743   1.077   6.544
  693SOL     OW 2102   1.227   1.550   7.092
  693SOL    HW1 2103   1.233   1.473   7.156
  693SOL    HW2 2104   1.175   1.524   7.012
  694SOL     OW 2105   0.321   0.943   5.828
  694SOL    HW1 2106   0.403   0.982   5.786
  694SOL    HW2 2107   0.294   0.861   5.779
  695SOL     OW 2108   1.458   0.735   6.314
  695SOL    HW1 2109   1.453   0.670   6.389
  695SOL    HW2 2110   1.538   0.794   6.327
  696SOL     OW 2111   0.461   1.266   7.313
  696SOL    HW1 2112   0.411   1.267   7.227
  696SOL    HW2 2113   0.398   1.248   7.389
  697SOL     OW 2114   1.111   1.776   5.823
  697SOL    HW1 2115   1.051   1.714   5.873
  697SOL    HW2 2116   1.142   1.732   5.738
  698SOL     OW 2117   0.202   0.285   7.084
  698SOL    HW1 2118   0.122   0.345   7.071
  698SOL    HW2 2119   0.192   0.236   7.170
  699SOL     OW 2120   1.632   1.377   5.667
  699SOL    HW1 2121   1.600   1.471   5.657
  699SOL    HW2 2122   1.556   1.314   5.655
  700SOL     OW 2123   0.464   1.743   5.909
  700SOL    HW1 2124   0.497   1.782   5.995
  700SOL    HW2 2125   0.540   1.736   5.844
  701SOL     OW 2126   1.400   0.107   6.012
  701SOL    HW1 2127   1.376   0.070   5.922
  701SOL    HW2 2128   1.499   0.123   6.016
  702SOL     OW 2129   0.249   1.785   6.827
  702SOL    HW1 2130   0.306   1.720   6.877
  702SOL    HW2 2131   0.233   1.752   6.734
  703SOL     OW 2132   0.940   1.698   6.490
  703SOL    HW1 2133   1.020   1.641   6.511
  703SOL    HW2 2134   0.891   1.658   6.413
  704SOL     OW 2135   0.382   0.700   6.066
  704SOL    HW1 2136   0.427   0.610   6.063
  704SOL    HW2 2137   0.288   0.689   6.099
  705SOL     OW 2138   1.547   0.222   7.315
  705SOL    HW1 2139   1.542   0.259   7.407
  705SOL    HW2 2140   1.475   0.153   7.303
  706SOL     OW 2141   0.614   0.122   5.703
  706SOL    HW1 2142   0.712   0.100   5.710
  706SOL    HW2 2143   0.583   0.105   5.610
  707SOL     OW 2144   0.781   0.264   7.335
  707SOL    HW1 2145   0.848   0.203   7.378
  707SOL    HW2 2146   0.708   0.283   7.400
  708SOL     OW 2147   0.888   1.514   6.781
  708SOL    HW1 2148   0.865   1.489   6.687
  708SOL    HW2 2149   0.949   1.445   6.820
  709SOL     OW 2150   1.351   0.590   7.019
  709SOL    HW1 2151   1.379   0.547   7.104
  709SOL    HW2 2152   1.376   0.686   7.020
  710SOL     OW 2153   0.803   1.402   6.510
  710SOL    HW1 2154   0.893   1.416   6.468
  710SOL    HW2 2155   0.732   1.404   6.439
  711SOL     OW 2156   0.922   0.503   6.485
  711SOL    HW1 2157   0.897   0.494   6.389
  711SOL    HW2 2158   0.970   0.421   6.516
  712SOL     OW 2159   0.539   0.064   6.098
  712SOL    HW1 2160   0.458   0.065   6.156
  712SOL    HW2 2161   0.542   0.147   6.043
  713SOL     OW 2162   1.434   1.188   5.627
  713SOL    HW1 2163   1.466   1.112   5.684
  713SOL    HW2 2164   1.342   1.215   5.657
  714SOL     OW 2165   0.297   0.035   5.757
  714SOL    HW1 2166   0.346   0.119   5.736
  714SOL    HW2 2167   0.359  -0.030   5.802
  715SOL     OW 2168   0.935   0.236   6.066
  715SOL    HW1 2169   0.887   0.277   5.988
  715SOL    HW2 2170   1.034   0.234   6.047
  716SOL     OW 2171   1.076   0.683   7.050
  716SOL    HW1 2172   0.996   0.622   7.053
  716SOL    HW2 2173   1.157   0.630   7.026
  717SOL     OW 2174   1.227   1.570   6.379
  717SOL    HW1 2175   1.248   1.644   6.314
  717SOL    HW2 2176   1.295   1.570   6.452
  718SOL     OW 2177   0.459   1.152   6.327
  718SOL    HW1 2178   0.388   1.125   6.392
  718SOL    HW2 2179   0.433   1.124   6.234
  719SOL     OW 2180   1.271   1.797   6.177
  719SOL    HW1 2181   1.315   1.861   6.113
  719SOL    HW2 2182   1.221   1.849   6.247
  720SOL     OW 2183   1.032   0.549   5.602
  720SOL    HW1 2184   0.991   0.631   5.563
  720SOL    HW2 2185   1.096   0.575   5.675
  721SOL     OW 2186   0.078   0.556   6.972
  721SOL    HW1 2187   0.170   0.555   6.931
  721SOL    HW2 2188   0.072   0.630   7.039
  722SOL     OW 2189   0.561   0.222   6.733
  722SOL    HW1 2190   0.599   0.138   6.770
  722SOL    HW2 2191   0.473   0.241   6.777
  723SOL     OW 2192   0.866   0.454   6.228
  723SOL    HW1 2193   0.834   0.526   6.166
  723SOL    HW2 2194   0.890   0.373   6.175
  724SOL     OW 2195   1.017   0.039   6.339
  724SOL    HW1 2196   0.945   0.044   6.270
  724SOL    HW2 2197   0.993  -0.030   6.408
  725SOL     OW 2198   1.429   1.173   6.453
  725SOL    HW1 2199   1.374   1.089   6.446
  725SOL    HW2 2200   1.455   1.202   6.361
  726SOL     OW 2201   1.466   0.590   6.578
  726SOL    HW1 2202   1.436   0.495   6.585
  726SOL    HW2 2203   1.539   0.606   6.644
  727SOL     OW 2204   1.857   0.833   5.963
  727SOL    HW1 2205   1.899   0.769   6.027
  727SOL    HW2 2206   1.819   0.782   5.885
  728SOL     OW 2207   0.488   1.385   5.760
  728SOL    HW1 2208   0.401   1.370   5.807
  728SOL    HW2 2209   0.471   1.411   5.665
  729SOL     OW 2210   1.664   1.280   6.243
  729SOL    HW1 2211   1.763   1.288   6.257
  729SOL    HW2 2212   1.619   1.364   6.274
  730SOL     OW 2213   1.390   0.575   5.664
  730SOL    HW1 2214   1.336   0.554   5.745
  730SOL    HW2 2215   1.481   0.534   5.673
  731SOL     OW 2216   0.527   0.256   5.914
  731SOL    HW1 2217   0.554   0.197   5.839
  731SOL    HW2 2218   0.527   0.351   5.883
  732SOL     OW 2219   1.754   1.223   7.174
  732SOL    HW1 2220   1.845   1.184   7.161
  732SOL    HW2 2221   1.762   1.319   7.198
  733SOL     OW 2222   1.064   1.347   6.926
  733SOL    HW1 2223   0.984   1.324   6.981
  733SOL    HW2 2224   1.147   1.321   6.975
  734SOL     OW 2225   1.592   1.629   7.211
  734SOL    HW1 2226   1.619   1.663   7.121
  734SOL    HW2 2227   1.671   1.591   7.257
  735SOL     OW 2228   1.111   1.195   6.686
  735SOL    HW1 2229   1.071   1.239   6.767
  735SOL    HW2 2230   1.070   1.232   6.603
  736SOL     OW 2231   1.638   1.099   6.665
  736SOL    HW1 2232   1.643   1.180   6.724
  736SOL    HW2 2233   1.552   1.101   6.614
  737SOL     OW 2234   0.915   0.089   6.988
  737SOL    HW1 2235   0.940   0.069   6.893
  737SOL    HW2 2236   0.987   0.145   7.030
  738SOL     OW 2237   0.980   1.116   7.305
  738SOL    HW1 2238   0.881   1.122   7.315
  738SOL    HW2 2239   1.003   1.036   7.249
  739SOL     OW 2240   0.705   1.050   5.954
  739SOL    HW1 2241   0.691   1.057   6.053
  739SOL    HW2 2242   0.789   0.999   5.936
  740SOL     OW 2243   0.410   0.813   6.837
  740SOL    HW1 2244   0.496   0.825   6.887
  740SOL    HW2 2245   0.368   0.726   6.864
  741SOL     OW 2246   1.274   0.386   6.848
  741SOL    HW1 2247   1.295   0.460   6.912
  741SOL    HW2 2248   1.185   0.403   6.805
  742SOL     OW 2249   0.064   1.564   6.917
  742SOL    HW1 2250   0.018   1.646   6.883
  742SOL    HW2 2251   0.162   1.583   6.926
  743SOL     OW 2252   0.367   1.100   6.087
  743SOL    HW1 2253   0.360   1.183   6.031
  743SOL    HW2 2254   0.371   1.020   6.027
  744SOL     OW 2255   0.566   0.537   6.451
  744SOL    HW1 2256   0.578   0.603   6.377
  744SOL    HW2 2257   0.612   0.571   6.534
  745SOL     OW 2258   1.252   1.348   5.974
  745SOL    HW1 2259   1.302   1.425   6.014
  745SOL    HW2 2260   1.157   1.350   6.006
  746SOL     OW 2261   1.272   1.445   6.728
  746SOL    HW1 2262   1.319   1.458   6.815
  746SOL    HW2 2263   1.206   1.371   6.737
  747SOL     OW 2264   1.582   0.639   6.058
  747SOL    HW1 2265   1.551   0.700   6.131
  747SOL    HW2 2266   1.632   0.691   5.989
  748SOL     OW 2267   0.354   1.510   6.915
  748SOL    HW1 2268   0.333   1.466   6.828
  748SOL    HW2 2269   0.451   1.536   6.918
  749SOL     OW 2270   0.402   0.751   7.184
  749SOL    HW1 2271   0.470   0.806   7.137
  749SOL    HW2 2272   0.442   0.663   7.211
  750SOL     OW 2273   1.587   0.779   7.256
  750SOL    HW1 2274   1.495   0.817   7.251
  750SOL    HW2 2275   1.647   0.826   7.191
  751SOL     OW 2276   1.013   0.105   7.356
  751SOL    HW1 2277   1.019   0.190   7.304
  751SOL    HW2 2278   1.045   0.029   7.299
  752SOL     OW 2279   0.504   0.050   7.326
  752SOL    HW1 2280   0.462  -0.007   7.256
  752SOL    HW2 2281   0.438   0.119   7.358
  753SOL     OW 2282   0.573   0.870   6.615
  753SOL    HW1 2283   0.617   0.959   6.606
  753SOL    HW2 2284   0.510   0.870   6.692
  754SOL     OW 2285   1.360   0.862   6.631
  754SOL    HW1 2286   1.285   0.862   6.565
  754SOL    HW2 2287   1.397   0.770   6.640
  755SOL     OW 2288   1.209   0.525   5.861
  755SOL    HW1 2289   1.222   0.441   5.915
  755SOL    HW2 2290   1.180   0.599   5.921
  756SOL     OW 2291   0.307   0.213   6.817
  756SOL    HW1 2292   0.284   0.250   6.907
  756SOL    HW2 2293   0.277   0.118   6.811
  757SOL     OW 2294   0.037   1.310   6.868
  757SOL    HW1 2295   0.090   1.261   6.936
  757SOL    HW2 2296   0.059   1.408   6.873
  758SOL     OW 2297   0.732   0.634   6.650
  758SOL    HW1 2298   0.791   0.608   6.574
  758SOL    HW2 2299   0.704   0.730   6.639
  759SOL     OW 2300   1.728   0.935   7.440
  759SOL    HW1 2301   1.682   0.928   7.351
  759SOL    HW2 2302   1.666   0.979   7.506
  760SOL     OW 2303   0.307   0.063   6.204
  760SOL    HW1 2304   0.296   0.157   6.237
  760SOL    HW2 2305   0.302   0.000   6.281
  761SOL     OW 2306   1.622   0.367   5.960
  761SOL    HW1 2307   1.624   0.291   6.024
  761SOL    HW2 2308   1.574   0.444   6.000
  762SOL     OW 2309   1.023   0.766   6.552
  762SOL    HW1 2310   1.038   0.787   6.648
  762SOL    HW2 2311   0.993   0.671   6.543
  763SOL     OW 2312   0.980   1.573   7.286
  763SOL    HW1 2313   0.960   1.617   7.198
  763SOL    HW2 2314   1.019   1.482   7.270
  764SOL     OW 2315   1.859   1.518   7.191
  764SOL    HW1 2316   1.873   1.545   7.096
  764SOL    HW2 2317   1.942   1.540   7.244
  765SOL     OW 2318   0.350   0.898   7.390
  765SOL    HW1 2319   0.426   0.942   7.438
  765SOL    HW2 2320   0.385   0.851   7.308
  766SOL     OW 2321   1.540   0.274   5.711
  766SOL    HW1 2322   1.479   0.199   5.734
  766SOL    HW2 2323   1.562   0.326   5.794
  767SOL     OW 2324   1.303   0.838   5.628
  767SOL    HW1 2325   1.337   0.745   5.643
  767SOL    HW2 2326   1.321   0.865   5.533
  768SOL     OW 2327   1.068   1.333   6.435
  768SOL    HW1 2328   1.075   1.249   6.380
  768SOL    HW2 2329   1.130   1.402   6.399
  769SOL     OW 2330   0.319   0.810   6.535
  769SOL    HW1 2331   0.412   0.846   6.540
  769SOL    HW2 2332   0.313   0.725   6.587
  770SOL     OW 2333   0.339   0.509   6.592
  770SOL    HW1 2334   0.287   0.426   6.575
  770SOL    HW2 2335   0.416   0.514   6.528
  771SOL     OW 2336   1.138   0.380   7.264
  771SOL    HW1 2337   1.093   0.443   7.328
  771SOL    HW2 2338   1.231   0.411   7.247
  772SOL     OW 2339   1.160   0.207   7.063
  772SOL    HW1 2340   1.160   0.271   7.140
  772SOL    HW2 2341   1.188   0.255   6.980
  773SOL     OW 2342   0.008   1.326   5.786
  773SOL    HW1 2343  -0.085   1.347   5.755
  773SOL    HW2 2344   0.018   1.227   5.799
  774SOL     OW 2345   0.088   1.801   6.513
  774SOL    HW1 2346   0.046   1.715   6.486
  774SOL    HW2 2347   0.182   1.804   6.479
  775SOL     OW 2348   0.504   1.568   6.496
  775SOL    HW1 2349   0.570   1.642   6.505
  775SOL    HW2 2350   0.548   1.489   6.454
  776SOL     OW 2351   1.002   0.796   6.824
  776SOL    HW1 2352   1.043   0.764   6.910
  776SOL    HW2 2353   0.906   0.769   6.821
  777SOL     OW 2354   0.040   0.544   6.700
  777SOL    HW1 2355   0.125   0.511   6.659
  777SOL    HW2 2356   0.053   0.559   6.798
  778SOL     OW 2357   0.189   0.520   7.308
  778SOL    HW1 2358   0.248   0.480   7.238
  778SOL    HW2 2359   0.131   0.591   7.267
  779SOL     OW 2360   1.369   0.950   7.246
  779SOL    HW1 2361   1.408   1.039   7.266
  779SOL    HW2 2362   1.379   0.930   7.149
  780SOL     OW 2363   0.815   0.572   5.911
  780SOL    HW1 2364   0.822   0.483   5.865
  780SOL    HW2 2365   0.721   0.606   5.903
  781SOL     OW 2366   1.657   0.604   6.792
  781SOL    HW1 2367   1.619   0.535   6.854
  781SOL    HW2 2368   1.739   0.568   6.748
  782SOL     OW 2369   0.252   1.564   7.330
  782SOL    HW1 2370   0.222   1.621   7.406
  782SOL    HW2 2371   0.245   1.467   7.356
  783SOL     OW 2372   0.671   0.464   6.855
  783SOL    HW1 2373   0.637   0.375   6.825
  783SOL    HW2 2374   0.697   0.518   6.775
  784SOL     OW 2375   0.930   1.678   7.051
  784SOL    HW1 2376   0.906   1.660   6.956
  784SOL    HW2 2377   0.960   1.772   7.061
  785SOL     OW 2378   0.473   0.500   5.777
  785SOL    HW1 2379   0.534   0.580   5.781
  785SOL    HW2 2380   0.378   0.531   5.784
  786SOL     OW 2381   0.159   1.137   7.052
  786SOL    HW1 2382   0.181   1.076   7.128
  786SOL    HW2 2383   0.169   1.088   6.966
  787SOL     OW 2384   1.347   1.059   6.820
  787SOL    HW1 2385   1.371   0.996   6.746
  787SOL    HW2 2386   1.257   1.099   6.802
  788SOL     OW 2387   1.302   0.855   5.895
  788SOL    HW1 2388   1.216   0.824   5.937
  788SOL    HW2 2389   1.298   0.841   5.796
  789SOL     OW 2390   1.759   1.747   6.740
  789SOL    HW1 2391   1.820   1.777   6.667
  789SOL    HW2 2392   1.721   1.658   6.718
  790SOL     OW 2393   1.252   1.731   6.714
  790SOL    HW1 2394   1.336   1.736   6.660
  790SOL    HW2 2395   1.229   1.635   6.732
  791SOL     OW 2396   0.083   1.258   6.608
  791SOL    HW1 2397   0.078   1.257   6.708
  791SOL    HW2 2398   0.000   1.217   6.570
  792SOL     OW 2399   0.688   1.662   7.302
  792SOL    HW1 2400   0.632   1.743   7.311
  792SOL    HW2 2401   0.740   1.666   7.216
  793SOL     OW 2402   1.726   0.135   6.109
  793SOL    HW1 2403   1.799   0.118   6.042
  793SOL    HW2 2404   1.695   0.048   6.147
  794SOL     OW 2405   1.388   1.573   6.063
  794SOL    HW1 2406   1.455   1.585   5.989
  794SOL    HW2 2407   1.348   1.662   6.086
  795SOL     OW 2408   0.130   1.794   7.437
  795SOL    HW1 2409   0.089   1.720   7.490
  795SOL    HW2 2410   0.194   1.845   7.495
  796SOL     OW 2411   1.280   0.927   6.258
  796SOL    HW1 2412   1.340   0.846   6.260
  796SOL    HW2 2413   1.320   0.996   6.198
  797SOL     OW 2414   0.830   1.273   7.008
  797SOL    HW1 2415   0.825   1.306   7.103
  797SOL    HW2 2416   0.744   1.292   6.962
  798SOL     OW 2417   0.672   1.616   5.740
  798SOL    HW1 2418   0.681   1.626   5.641
  798SOL    HW2 2419   0.632   1.527   5.761
  799SOL     OW 2420   1.650   1.720   6.980
  799SOL    HW1 2421   1.703   1.730   6.896
  799SOL    HW2 2422   1.623   1.810   7.014
  800SOL     OW 2423   1.841   0.175   6.549
  800SOL    HW1 2424   1.880   0.090   6.513
  800SOL    HW2 2425   1.743   0.177   6.530
  801SOL     OW 2426   0.263   0.326   6.306
  801SOL    HW1 2427   0.184   0.377   6.272
  801SOL    HW2 2428   0.254   0.311   6.404
  802SOL     OW 2429   1.194   1.612   5.617
  802SOL    HW1 2430   1.200   1.519   5.654
  802SOL    HW2 2431   1.135   1.612   5.537
  803SOL     OW 2432   0.822   1.002   6.958
  803SOL    HW1 2433   0.862   1.001   6.866
  803SOL    HW2 2434   0.832   1.094   6.998
  804SOL     OW 2435   0.916   0.910   5.877
  804SOL    HW1 2436   0.979   0.948   5.809
  804SOL    HW2 2437   0.956   0.827   5.916
  805SOL     OW 2438   1.504   1.607   5.630
  805SOL    HW1 2439   1.412   1.644   5.637
  805SOL    HW2 2440   1.542   1.627   5.540
  806SOL     OW 2441   0.372   1.288   7.076
  806SOL    HW1 2442   0.359   1.381   7.042
  806SOL    HW2 2443   0.288   1.236   7.063
  807SOL     OW 2444   1.614   1.292   6.875
  807SOL    HW1 2445   1.674   1.295   6.955
  807SOL    HW2 2446   1.539   1.356   6.888
  808SOL     OW 2447   1.039   1.098   6.282
  808SOL    HW1 2448   0.969   1.051   6.336
  808SOL    HW2 2449   1.098   1.030   6.239
  809SOL     OW 2450   1.014   0.236   6.557
  809SOL    HW1 2451   1.006   0.200   6.464
  809SOL    HW2 2452   1.012   0.160   6.622
  810SOL     OW 2453   0.590   1.487   6.077
  810SOL    HW1 2454   0.632   1.429   6.007
  810SOL    HW2 2455   0.546   1.566   6.033
  811SOL     OW 2456   1.709   0.385   6.967
  811SOL    HW1 2457   1.782   0.454   6.971
  811SOL    HW2 2458   1.737   0.310   6.908
  812SOL     OW 2459   0.255   1.348   5.876
  812SOL    HW1 2460   0.159   1.349   5.849
  812SOL    HW2 2461   0.267   1.401   5.960
  813SOL     OW 2462   0.105   1.013   7.312
  813SOL    HW1 2463   0.028   0.980   7.366
  813SOL    HW2 2464   0.190   0.983   7.354
  814SOL     OW 2465   0.672   0.203   7.075
  814SOL    HW1 2466   0.762   0.187   7.035
  814SOL    HW2 2467   0.680   0.208   7.174
  815SOL     OW 2468   0.075   0.345   5.619
  815SOL    HW1 2469  -0.017   0.317   5.590
  815SOL    HW2 2470   0.106   0.422   5.563
  816SOL     OW 2471   1.440   0.856   6.984
  816SOL    HW1 2472   1.383   0.908   6.921
  816SOL    HW2 2473   1.536   0.868   6.960
  817SOL     OW 2474   0.072   0.166   5.904
  817SOL    HW1 2475   0.055   0.249   5.850
  817SOL    HW2 2476   0.162   0.129   5.882
  818SOL     OW 2477   1.183   1.335   5.705
  818SOL    HW1 2478   1.084   1.324   5.707
  818SOL    HW2 2479   1.217   1.350   5.798
  819SOL     OW 2480   0.613   0.842   7.017
  819SOL    HW1 2481   0.669   0.923   7.000
  819SOL    HW2 2482   0.672   0.762   7.020
  820SOL     OW 2483   1.493   1.767   6.545
  820SOL    HW1 2484   1.526   1.831   6.476
  820SOL    HW2 2485   1.559   1.761   6.620
  821SOL     OW 2486   0.716   0.565   7.294
  821SOL    HW1 2487   0.735   0.630   7.368
  821SOL    HW2 2488   0.776   0.485   7.303
  822SOL     OW 2489   1.450   1.220   7.219
  822SOL    HW1 2490   1.441   1.210   7.318
  822SOL    HW2 2491   1.546   1.213   7.193
  823SOL     OW 2492   0.390   1.741   7.146
  823SOL    HW1 2493   0.299   1.782   7.144
  823SOL    HW2 2494   0.383   1.647   7.178
  824SOL     OW 2495   1.674   0.883   6.840
  824SOL    HW1 2496   1.647   0.794   6.803
  824SOL    HW2 2497   1.675   0.951   6.767
  825SOL     OW 2498   1.225   0.325   6.035
  825SOL    HW1 2499   1.290   0.251   6.024
  825SOL    HW2 2500   1.245   0.375   6.119
  826SOL     OW 2501   0.594   0.745   6.238
  826SOL    HW1 2502   0.644   0.830   6.219
  826SOL    HW2 2503   0.506   0.747   6.190
  827SOL     OW 2504   1.777   0.342   7.228
  827SOL    HW1 2505   1.760   0.373   7.134
  827SOL    HW2 2506   1.693   0.305   7.266
  828SOL     OW 2507   1.730   0.934   7.103
  828SOL    HW1 2508   1.768   1.025   7.118
  828SOL    HW2 2509   1.722   0.917   7.004
  829SOL     OW 2510   0.859   1.374   5.602
  829SOL    HW1 2511   0.813   1.389   5.690
  829SOL    HW2 2512   0.903   1.459   5.572
  830SOL     OW 2513   0.661   1.790   6.539
  830SOL    HW1 2514   0.615   1.878   6.526
  830SOL    HW2 2515   0.760   1.802   6.532
  831SOL     OW 2516   0.859   0.956   6.447
  831SOL    HW1 2517   0.913   0.887   6.495
  831SOL    HW2 2518   0.827   1.025   6.513
  832SOL     OW 2519   1.083   0.984   5.673
  832SOL    HW1 2520   1.060   1.037   5.591
  832SOL    HW2 2521   1.164   0.928   5.654
  833SOL     OW 2522   1.861   1.569   6.437
  833SOL    HW1 2523   1.790   1.557   6.367
  833SOL    HW2 2524   1.862   1.490   6.497
  834SOL     OW 2525   0.221   1.314   7.430
  834SOL    HW1 2526   0.156   1.241   7.409
  834SOL    HW2 2527   0.225   1.328   7.528
  835SOL     OW 2528   0.079   1.240   6.239
  835SOL    HW1 2529   0.078   1.193   6.327
  835SOL    HW2 2530   0.161   1.212   6.188
  836SOL     OW 2531   0.672   1.391   7.210
  836SOL    HW1 2532   0.594   1.341   7.248
  836SOL    HW2 2533   0.669   1.486   7.241
  837SOL     OW 2534   1.824   0.192   6.813
  837SOL    HW1 2535   1.820   0.102   6.857
  837SOL    HW2 2536   1.827   0.181   6.714
  838SOL     OW 2537   0.428   0.424   6.106
  838SOL    HW1 2538   0.458   0.352   6.044
  838SOL    HW2 2539   0.389   0.384   6.189
  839SOL     OW 2540   1.705   1.487   6.690
  839SOL    HW1 2541   1.612   1.462   6.663
  839SOL    HW2 2542   1.731   1.437   6.772
  840SOL     OW 2543   0.317   0.547   6.866
  840SOL    HW1 2544   0.355   0.488   6.938
  840SOL    HW2 2545   0.357   0.521   6.778
  841SOL     OW 2546   0.812   1.586   6.273
  841SOL    HW1 2547   0.844   1.596   6.179
  841SOL    HW2 2548   0.733   1.524   6.275
  842SOL     OW 2549   1.424   0.214   6.698
  842SOL    HW1 2550   1.476   0.149   6.753
  842SOL    HW2 2551   1.375   0.277   6.759
  843SOL     OW 2552   1.001   0.034   6.740
  843SOL    HW1 2553   0.938  -0.038   6.709
  843SOL    HW2 2554   1.094  -0.002   6.740
  844SOL     OW 2555   0.770   1.330   5.887
  844SOL    HW1 2556   0.724   1.243   5.904
  844SOL    HW2 2557   0.861   1.327   5.928
  845SOL     OW 2558   0.618   1.567   6.870
  845SOL    HW1 2559   0.613   1.649   6.927
  845SOL    HW2 2560   0.707   1.564   6.825
  846SOL     OW 2561   1.352   0.052   5.754
  846SOL    HW1 2562   1.387   0.011   5.670
  846SOL    HW2 2563   1.262   0.014   5.774
  847SOL     OW 2564   1.300   0.453   6.277
  847SOL    HW1 2565   1.241   0.533   6.281
  847SOL    HW2 2566   1.315   0.418   6.370
  848SOL     OW 2567   1.593   0.221   6.468
  848SOL    HW1 2568   1.509   0.220   6.522
  848SOL    HW2 2569   1.595   0.304   6.412
  849SOL     OW 2570   0.039   1.077   5.886
  849SOL    HW1 2571   0.138   1.066   5.877
  849SOL    HW2 2572  -0.001   0.991   5.918
  850SOL     OW 2573   0.875   1.646   5.923
  850SOL    HW1 2574   0.798   1.611   5.869
  850SOL    HW2 2575   0.843   1.717   5.985
  851SOL     OW 2576   0.230   0.628   7.561
  851SOL    HW1 2577   0.137   0.626   7.598
  851SOL    HW2 2578   0.231   0.589   7.469
  852SOL     OW 2579   0.225   0.275   8.444
  852SOL    HW1 2580   0.260   0.258   8.536
  852SOL    HW2 2581   0.137   0.230   8.432
  853SOL     OW 2582   0.019   0.368   8.095
  853SOL    HW1 2583  -0.063   0.411   8.134
  853SOL    HW2 2584  -0.009   0.295   8.032
  854SOL     OW 2585   0.569   1.275   8.613
  854SOL    HW1 2586   0.476   1.268   8.576
  854SOL    HW2 2587   0.580   1.364   8.657
  855SOL     OW 2588   1.555   1.511   8.151
  855SOL    HW1 2589   1.498   1.495   8.232
  855SOL    HW2 2590   1.496   1.521   8.071
  856SOL     OW 2591   1.135   0.703   8.165
  856SOL    HW1 2592   1.192   0.781   8.140
  856SOL    HW2 2593   1.075   0.729   8.241
  857SOL     OW 2594   1.755   0.607   7.679
  857SOL    HW1 2595   1.743   0.594   7.580
  857SOL    HW2 2596   1.725   0.526   7.728
  858SOL     OW 2597   0.768   1.144   8.471
  858SOL    HW1 2598   0.690   1.161   8.531
  858SOL    HW2 2599   0.802   1.231   8.435
  859SOL     OW 2600   0.850   0.798   9.271
  859SOL    HW1 2601   0.846   0.874   9.336
  859SOL    HW2 2602   0.872   0.834   9.180
  860SOL     OW 2603   0.685   1.012   8.113
  860SOL    HW1 2604   0.754   0.996   8.183
  860SOL    HW2 2605   0.612   1.069   8.151
  861SOL     OW 2606   0.686   1.161   9.251
  861SOL    HW1 2607   0.746   1.240   9.265
  861SOL    HW2 2608   0.600   1.192   9.210
  862SOL     OW 2609   0.335   1.435   8.509
  862SOL    HW1 2610   0.257   1.404   8.456
  862SOL    HW2 2611   0.393   1.493   8.452
  863SOL     OW 2612   1.460   1.505   8.787
  863SOL    HW1 2613   1.484   1.599   8.813
  863SOL    HW2 2614   1.444   1.451   8.869
  864SOL     OW 2615   0.438   0.392   8.947
  864SOL    HW1 2616   0.520   0.336   8.956
  864SOL    HW2 2617   0.357   0.334   8.951
  865SOL     OW 2618   1.603   0.447   8.185
  865SOL    HW1 2619   1.529   0.493   8.135
  865SOL    HW2 2620   1.654   0.515   8.238
  866SOL     OW 2621   0.231   1.713   7.931
  866SOL    HW1 2622   0.265   1.790   7.985
  866SOL    HW2 2623   0.275   1.713   7.841
  867SOL     OW 2624   1.127   1.341   9.138
  867SOL    HW1 2625   1.174   1.341   9.226
  867SOL    HW2 2626   1.079   1.254   9.127
  868SOL     OW 2627   0.230   1.434   7.986
  868SOL    HW1 2628   0.204   1.530   7.986
  868SOL    HW2 2629   0.159   1.380   8.031
  869SOL     OW 2630   0.240   1.091   8.334
  869SOL    HW1 2631   0.254   1.007   8.386
  869SOL    HW2 2632   0.185   1.155   8.389
  870SOL     OW 2633   0.620   1.786   8.887
  870SOL    HW1 2634   0.528   1.769   8.922
  870SOL    HW2 2635   0.648   1.878   8.913
  871SOL     OW 2636   0.606   0.964   7.571
  871SOL    HW1 2637   0.613   1.048   7.517
  871SOL    HW2 2638   0.652   0.977   7.659
  872SOL     OW 2639   1.594   0.114   8.928
  872SOL    HW1 2640   1.576   0.181   8.856
  872SOL    HW2 2641   1.591   0.160   9.017
  873SOL     OW 2642   0.122   0.643   8.011
  873SOL    HW1 2643   0.077   0.555   8.028
  873SOL    HW2 2644   0.121   0.697   8.095
  874SOL     OW 2645   1.842   1.767   7.807
  874SOL    HW1 2646   1.896   1.738   7.887
  874SOL    HW2 2647   1.872   1.857   7.778
  875SOL     OW 2648   0.027   1.596   7.565
  875SOL    HW1 2649   0.008   1.500   7.586
  875SOL    HW2 2650  -0.006   1.654   7.640
  876SOL     OW 2651   1.689   0.922   8.060
  876SOL    HW1 2652   1.784   0.893   8.068
  876SOL    HW2 2653   1.681   0.987   7.985
  877SOL     OW 2654   1.641   1.108   7.880
  877SOL    HW1 2655   1.727   1.110   7.828
  877SOL    HW2 2656   1.655   1.155   7.968
  878SOL     OW 2657   0.113   0.737   9.045
  878SOL    HW1 2658   0.201   0.724   9.090
  878SOL    HW2 2659   0.100   0.834   9.023
  879SOL     OW 2660   0.613   1.365   8.174
  879SOL    HW1 2661   0.564   1.278   8.183
  879SOL    HW2 2662   0.590   1.408   8.087
  880SOL     OW 2663   1.293   1.228   8.871
  880SOL    HW1 2664   1.330   1.155   8.813
  880SOL    HW2 2665   1.345   1.233   8.956
  881SOL     OW 2666   0.809   0.004   7.950
  881SOL    HW1 2667   0.849   0.095   7.941
  881SOL    HW2 2668   0.709   0.012   7.956
  882SOL     OW 2669   0.197   0.976   8.712
  882SOL    HW1 2670   0.286   0.931   8.698
  882SOL    HW2 2671   0.124   0.911   8.693
  883SOL     OW 2672   1.525   0.999   7.638
  883SOL    HW1 2673   1.462   0.923   7.651
  883SOL    HW2 2674   1.573   1.017   7.724
  884SOL     OW 2675   1.187   1.792   9.064
  884SOL    HW1 2676   1.211   1.852   8.988
  884SOL    HW2 2677   1.194   1.697   9.034
  885SOL     OW 2678   0.317   0.251   9.249
  885SOL    HW1 2679   0.388   0.322   9.255
  885SOL    HW2 2680   0.229   0.290   9.277
  886SOL     OW 2681   1.466   1.417   8.401
  886SOL    HW1 2682   1.407   1.423   8.481
  886SOL    HW2 2683   1.451   1.329   8.355
  887SOL     OW 2684   1.667   1.714   8.020
  887SOL    HW1 2685   1.626   1.691   7.932
  887SOL    HW2 2686   1.649   1.640   8.085
  888SOL     OW 2687   0.598   0.729   7.718
  888SOL    HW1 2688   0.622   0.798   7.650
  888SOL    HW2 2689   0.520   0.762   7.772
  889SOL     OW 2690   1.281   0.345   8.392
  889SOL    HW1 2691   1.195   0.295   8.379
  889SOL    HW2 2692   1.343   0.291   8.448
  890SOL     OW 2693   1.576   1.662   7.755
  890SOL    HW1 2694   1.665   1.708   7.758
  890SOL    HW2 2695   1.555   1.638   7.660
  891SOL     OW 2696   0.807   0.605   8.913
  891SOL    HW1 2697   0.760   0.602   9.002
  891SOL    HW2 2698   0.756   0.550   8.847
  892SOL     OW 2699   1.394   0.469   9.122
  892SOL    HW1 2700   1.374   0.512   9.210
  892SOL    HW2 2701   1.472   0.407   9.131
  893SOL     OW 2702   0.973   0.890   9.020
  893SOL    HW1 2703   1.019   0.806   8.991
  893SOL    HW2 2704   0.917   0.924   8.945
  894SOL     OW 2705   0.991   0.410   8.690
  894SOL    HW1 2706   0.914   0.444   8.744
  894SOL    HW2 2707   0.957   0.359   8.611
  895SOL     OW 2708   1.041   0.701   7.877
  895SOL    HW1 2709   1.067   0.697   7.973
  895SOL    HW2 2710   0.956   0.650   7.863
  896SOL     OW 2711   0.076   0.811   8.237
  896SOL    HW1 2712   0.175   0.799   8.246
  896SOL    HW2 2713   0.052   0.906   8.258
  897SOL     OW 2714   0.130   1.821   9.019
  897SOL    HW1 2715   0.120   1.806   9.118
  897SOL    HW2 2716   0.044   1.857   8.983
  898SOL     OW 2717   0.865   0.348   7.643
  898SOL    HW1 2718   0.924   0.411   7.594
  898SOL    HW2 2719   0.884   0.254   7.614
  899SOL     OW 2720   1.719   0.585   9.279
  899SOL    HW1 2721   1.693   0.674   9.243
  899SOL    HW2 2722   1.717   0.517   9.206
  900SOL     OW 2723   1.362   1.144   7.993
  900SOL    HW1 2724   1.445   1.115   7.945
  900SOL    HW2 2725   1.313   1.211   7.937
  901SOL     OW 2726   0.550   0.196   8.333
  901SOL    HW1 2727   0.545   0.191   8.433
  901SOL    HW2 2728   0.552   0.292   8.304
  902SOL     OW 2729   1.008   1.456   7.925
  902SOL    HW1 2730   0.962   1.528   7.873
  902SOL    HW2 2731   1.004   1.476   8.023
  903SOL     OW 2732   0.351   1.801   8.301
  903SOL    HW1 2733   0.401   1.715   8.307
  903SOL    HW2 2734   0.416   1.878   8.298
  904SOL     OW 2735   1.795   1.066   8.321
  904SOL    HW1 2736   1.733   1.051   8.245
  904SOL    HW2 2737   1.743   1.077   8.406
  905SOL     OW 2738   1.227   1.550   8.954
  905SOL    HW1 2739   1.233   1.473   9.018
  905SOL    HW2 2740   1.175   1.524   8.874
  906SOL     OW 2741   0.321   0.943   7.690
  906SOL    HW1 2742   0.403   0.982   7.648
  906SOL    HW2 2743   0.294   0.861   7.641
  907SOL     OW 2744   1.458   0.735   8.176
  907SOL    HW1 2745   1.453   0.670   8.251
  907SOL    HW2 2746   1.538   0.794   8.189
  908SOL     OW 2747   0.461   1.266   9.175
  908SOL    HW1 2748   0.411   1.267   9.089
  908SOL    HW2 2749   0.398   1.248   9.251
  909SOL     OW 2750   1.111   1.776   7.685
  909SOL    HW1 2751   1.051   1.714   7.735
  909SOL    HW2 2752   1.142   1.732   7.600
  910SOL     OW 2753   0.202   0.285   8.946
  910SOL    HW1 2754   0.122   0.345   8.933
  910SOL    HW2 2755   0.192   0.236   9.032
  911SOL     OW 2756   1.632   1.377   7.529
  911SOL    HW1 2757   1.600   1.471   7.519
  911SOL    HW2 2758   1.556   1.314   7.517
  912SOL     OW 2759   0.464   1.743   7.771
  912SOL    HW1 2760   0.497   1.782   7.857
  912SOL    HW2 2761   0.540   1.736   7.706
  913SOL     OW 2762   1.400   0.107   7.874
  913SOL    HW1 2763   1.376   0.070   7.784
  913SOL    HW2 2764   1.499   0.123   7.878
  914SOL     OW 2765   0.249   1.785   8.689
  914SOL    HW1 2766   0.306   1.720   8.739
  914SOL    HW2 2767   0.233   1.752   8.596
  915SOL     OW 2768   0.940   1.698   8.352
  915SOL    HW1 2769   1.020   1.641   8.373
  915SOL    HW2 2770   0.891   1.658   8.275
  916SOL     OW 2771   0.382   0.700   7.928
  916SOL    HW1 2772   0.427   0.610   7.925
  916SOL    HW2 2773   0.288   0.689   7.961
  917SOL     OW 2774   1.547   0.222   9.177
  917SOL    HW1 2775   1.542   0.259   9.269
  917SOL    HW2 2776   1.475   0.153   9.165
  918SOL     OW 2777   0.614   0.122   7.565
  918SOL    HW1 2778   0.712   0.100   7.572
  918SOL    HW2 2779   0.583   0.105   7.472
  919SOL     OW 2780   0.781   0.264   9.197
  919SOL    HW1 2781   0.848   0.203   9.240
  919SOL    HW2 2782   0.708   0.283   9.262
  920SOL     OW 2783   0.888   1.514   8.643
  920SOL    HW1 2784   0.865   1.489   8.549
  920SOL    HW2 2785   0.949   1.445   8.682
  921SOL     OW 2786   1.351   0.590   8.881
  921SOL    HW1 2787   1.379   0.547   8.966
  921SOL    HW2 2788   1.376   0.686   8.882
  922SOL     OW 2789   0.803   1.402   8.372
  922SOL    HW1 2790   0.893   1.416   8.330
  922SOL    HW2 2791   0.732   1.404   8.301
  923SOL     OW 2792   0.922   0.503   8.347
  923SOL    HW1 2793   0.897   0.494   8.251
  923SOL    HW2 2794   0.970   0.421   8.378
  924SOL     OW 2795   0.539   0.064   7.960
  924SOL    HW1 2796   0.458   0.065   8.018
  924SOL    HW2 2797   0.542   0.147   7.905
  925SOL     OW 2798   1.434   1.188   7.489
  925SOL    HW1 2799   1.466   1.112   7.546
  925SOL    HW2 2800   1.342   1.215   7.519
  926SOL     OW 2801   0.297   0.035   7.619
  926SOL    HW1 2802   0.346   0.119   7.598
  926SOL    HW2 2803   0.359  -0.030   7.664
  927SOL     OW 2804   0.935   0.236   7.928
  927SOL    HW1 2805   0.887   0.277   7.850
  927SOL    HW2 2806   1.034   0.234   7.909
  928SOL     OW 2807   1.076   0.683   8.912
  928SOL    HW1 2808   0.996   0.622   8.915
  928SOL    HW2 2809   1.157   0.630   8.888
  929SOL     OW 2810   1.227   1.570   8.241
  929SOL    HW1 2811   1.248   1.644   8.176
  929SOL    HW2 2812   1.295   1.570   8.314
  930SOL     OW 2813   0.459   1.152   8.189
  930SOL    HW1 2814   0.388   1.125   8.254
  930SOL    HW2 2815   0.433   1.124   8.096
  931SOL     OW 2816   1.271   1.797   8.039
  931SOL    HW1 2817   1.315   1.861   7.975
  931SOL    HW2 2818   1.221   1.849   8.109
  932SOL     OW 2819   1.032   0.549   7.464
  932SOL    HW1 2820   0.991   0.631   7.425
  932SOL    HW2 2821   1.096   0.575   7.537
  933SOL     OW 2822   0.078   0.556   8.834
  933SOL    HW1 2823   0.170   0.555   8.793
  933SOL    HW2 2824   0.072   0.630   8.901
  934SOL     OW 2825   0.561   0.222   8.595
  934SOL    HW1 2826   0.599   0.138   8.632
  934SOL    HW2 2827   0.473   0.241   8.639
  935SOL     OW 2828   0.866   0.454   8.090
  935SOL    HW1 2829   0.834   0.526   8.028
  935SOL    HW2 2830   0.890   0.373   8.037
  936SOL     OW 2831   1.017   0.039   8.201
  936SOL    HW1 2832   0.945   0.044   8.132
  936SOL    HW2 2833   0.993  -0.030   8.270
  937SOL     OW 2834   1.429   1.173   8.315
  937SOL    HW1 2835   1.374   1.089   8.308
  937SOL    HW2 2836   1.455   1.202   8.223
  938SOL     OW 2837   1.466   0.590   8.440
  938SOL    HW1 2838   1.436   0.495   8.447
  938SOL    HW2 2839   1.539   0.606   8.506
  939SOL     OW 2840   1.857   0.833   7.825
  939SOL    HW1 2841   1.899   0.769   7.889
  939SOL    HW2 2842   1.819   0.782   7.747
  940SOL     OW 2843   0.488   1.385   7.622
  940SOL    HW1 2844   0.401   1.370   7.669
  940SOL    HW2 2845   0.471   1.411   7.527
  941SOL     OW 2846   1.664   1.280   8.105
  941SOL    HW1 2847   1.763   1.288   8.119
  941SOL    HW2 2848   1.619   1.364   8.136
  942SOL     OW 2849   1.390   0.575   7.526
  942SOL    HW1 2850   1.336   0.554   7.607
  942SOL    HW2 2851   1.481   0.534   7.535
  943SOL     OW 2852   0.527   0.256   7.776
  943SOL    HW1 2853   0.554   0.197   7.701
  943SOL    HW2 2854   0.527   0.351   7.745
  944SOL     OW 2855   1.754   1.223   9.036
  944SOL    HW1 2856   1.845   1.184   9.023
  944SOL    HW2 2857   1.762   1.319   9.060
  945SOL     OW 2858   1.064   1.347   8.788
  945SOL    HW1 2859   0.984   1.324   8.843
  945SOL    HW2 2860   1.147   1.321   8.837
  946SOL     OW 2861   1.592   1.629   9.073
  946SOL    HW1 2862   1.619   1.663   8.983
  946SOL    HW2 2863   1.671   1.591   9.119
  947SOL     OW 2864   1.111   1.195   8.548
  947SOL    HW1 2865   1.071   1.239   8.629
  947SOL    HW2 2866   1.070   1.232   8.465
  948SOL     OW 2867   1.638   1.099   8.527
  948SOL    HW1 2868   1.643   1.180   8.586
  948SOL    HW2 2869   1.552   1.101   8.476
  949SOL     OW 2870   0.915   0.089   8.850
  949SOL    HW1 2871   0.940   0.069   8.755
  949SOL    HW2 2872   0.987   0.145   8.892
  950SOL     OW 2873   0.980   1.116   9.167
  950SOL    HW1 2874   0.881   1.122   9.177
  950SOL    HW2 2875   1.003   1.036   9.111
  951SOL     OW 2876   0.705   1.050   7.816
  951SOL    HW1 2877   0.691   1.057   7.915
  951SOL    HW2 2878   0.789   0.999   7.798
  952SOL     OW 2879   0.410   0.813   8.699
  952SOL    HW1 2880   0.496   0.825   8.749
  952SOL    HW2 2881   0.368   0.726   8.726
  953SOL     OW 2882   1.274   0.386   8.710
  953SOL    HW1 2883   1.295   0.460   8.774
  953SOL    HW2 2884   1.185   0.403   8.667
  954SOL     OW 2885   0.064   1.564   8.779
  954SOL    HW1 2886   0.018   1.646   8.745
  954SOL    HW2 2887   0.162   1.583   8.788
  955SOL     OW 2888   0.367   1.100   7.949
  955SOL    HW1 2889   0.360   1.183   7.893
  955SOL    HW2 2890   0.371   1.020   7.889
  956SOL     OW 2891   0.566   0.537   8.313
  956SOL    HW1 2892   0.578   0.603   8.239
  956SOL    HW2 2893   0.612   0.571   8.396
  957SOL     OW 2894   1.252   1.348   7.836
  957SOL    HW1 2895   1.302   1.425   7.876
  957SOL    HW2 2896   1.157   1.350   7.868
  958SOL     OW 2897   1.272   1.445   8.590
  958SOL    HW1 2898   1.319   1.458   8.677
  958SOL    HW2 2899   1.206   1.371   8.599
  959SOL     OW 2900   1.582   0.639   7.920
  959SOL    HW1 2901   1.551   0.700   7.993
  959SOL    HW2 2902   1.632   0.691   7.851
  960SOL     OW 2903   0.354   1.510   8.777
  960SOL    HW1 2904   0.333   1.466   8.690
  960SOL    HW2 2905   0.451   1.536   8.780
  961SOL     OW 2906   0.402   0.751   9.046
  961SOL    HW1 2907   0.470   0.806   8.999
  961SOL    HW2 2908   0.442   0.663   9.073
  962SOL     OW 2909   1.587   0.779   9.118
  962SOL    HW1 2910   1.495   0.817   9.113
  962SOL    HW2 2911   1.647   0.826   9.053
  963SOL     OW 2912   1.013   0.105   9.218
  963SOL    HW1 2913   1.019   0.190   9.166
  963SOL    HW2 2914   1.045   0.029   9.161
  964SOL     OW 2915   0.504   0.050   9.188
  964SOL    HW1 2916   0.462  -0.007   9.118
  964SOL    HW2 2917   0.438   0.119   9.220
  965SOL     OW 2918   0.573   0.870   8.477
  965SOL    HW1 2919   0.617   0.959   8.468
  965SOL    HW2 2920   0.510   0.870   8.554
  966SOL     OW 2921   1.360   0.862   8.493
  966SOL    HW1 2922   1.285   0.862   8.427
  966SOL    HW2 2923   1.397   0.770   8.502
  967SOL     OW 2924   1.209   0.525   7.723
  967SOL    HW1 2925   1.222   0.441   7.777
  967SOL    HW2 2926   1.180   0.599   7.783
  968SOL     OW 2927   0.307   0.213   8.679
  968SOL    HW1 2928   0.284   0.250   8.769
  968SOL    HW2 2929   0.277   0.118   8.673
  969SOL     OW 2930   0.037   1.310   8.730
  969SOL    HW1 2931   0.090   1.261   8.798
  969SOL    HW2 2932   0.059   1.408   8.735
  970SOL     OW 2933   0.732   0.634   8.512
  970SOL    HW1 2934   0.791   0.608   8.436
  970SOL    HW2 2935   0.704   0.730   8.501
  971SOL     OW 2936   1.728   0.935   9.302
  971SOL    HW1 2937   1.682   0.928   9.213
  971SOL    HW2 2938   1.666   0.979   9.368
  972SOL     OW 2939   0.307   0.063   8.066
  972SOL    HW1 2940   0.296   0.157   8.099
  972SOL    HW2 2941   0.302   0.000   8.143
  973SOL     OW 2942   1.622   0.367   7.822
  973SOL    HW1 2943   1.624   0.291   7.886
  973SOL    HW2 2944   1.574   0.444   7.862
  974SOL     OW 2945   1.023   0.766   8.414
  974SOL    HW1 2946   1.038   0.787   8.510
  974SOL    HW2 2947   0.993   0.671   8.405
  975SOL     OW 2948   0.980   1.573   9.148
  975SOL    HW1 2949   0.960   1.617   9.060
  975SOL    HW2 2950   1.019   1.482   9.132
  976SOL     OW 2951   1.859   1.518   9.053
  976SOL    HW1 2952   1.873   1.545   8.958
  976SOL    HW2 2953   1.942   1.540   9.106
  977SOL     OW 2954   0.350   0.898   9.252
  977SOL    HW1 2955   0.426   0.942   9.300
  977SOL    HW2 2956   0.385   0.851   9.170
  978SOL     OW 2957   1.540   0.274   7.573
  978SOL    HW1 2958   1.479   0.199   7.596
  978SOL    HW2 2959   1.562   0.326   7.656
  979SOL     OW 2960   1.303   0.838   7.490
  979SOL    HW1 2961   1.337   0.745   7.505
  979SOL    HW2 2962   1.321   0.865   7.395
  980SOL     OW 2963   1.068   1.333   8.297
  980SOL    HW1 2964   1.075   1.249   8.242
  980SOL    HW2 2965   1.130   1.402   8.261
  981SOL     OW 2966   0.319   0.810   8.397
  981SOL    HW1 2967   0.412   0.846   8.402
  981SOL    HW2 2968   0.313   0.725   8.449
  982SOL     OW 2969   0.339   0.509   8.454
  982SOL    HW1 2970   0.287   0.426   8.437
  982SOL    HW2 2971   0.416   0.514   8.390
  983SOL     OW 2972   1.138   0.380   9.126
  983SOL    HW1 2973   1.093   0.443   9.190
  983SOL    HW2 2974   1.231   0.411   9.109
  984SOL     OW 2975   1.160   0.207   8.925
  984SOL    HW1 2976   1.160   0.271   9.002
  984SOL    HW2 2977   1.188   0.255   8.842
  985SOL     OW 2978   0.008   1.326   7.648
  985SOL    HW1 2979  -0.085   1.347   7.617
  985SOL    HW2 2980   0.018   1.227   7.661
  986SOL     OW 2981   0.088   1.801   8.375
  986SOL    HW1 2982   0.046   1.715   8.348
  986SOL    HW2 2983   0.182   1.804   8.341
  987SOL     OW 2984   0.504   1.568   8.358
  987SOL    HW1 2985   0.570   1.642   8.367
  987SOL    HW2 2986   0.548   1.489   8.316
  988SOL     OW 2987   1.002   0.796   8.686
  988SOL    HW1 2988   1.043   0.764   8.772
  988SOL    HW2 2989   0.906   0.769   8.683
  989SOL     OW 2990   0.040   0.544   8.562
  989SOL    HW1 2991   0.125   0.511   8.521
  989SOL    HW2 2992   0.053   0.559   8.660
  990SOL     OW 2993   0.189   0.520   9.170
  990SOL    HW1 2994   0.248   0.480   9.100
  990SOL    HW2 2995   0.131   0.591   9.129
  991SOL     OW 2996   1.369   0.950   9.108
  991SOL    HW1 2997   1.408   1.039   9.128
  991SOL    HW2 2998   1.379   0.930   9.011
  992SOL     OW 2999   0.815   0.572   7.773
  992SOL    HW1 3000   0.822   0.483   7.727
  992SOL    HW2 3001   0.721   0.606   7.765
  993SOL     OW 3002   1.657   0.604   8.654
  993SOL    HW1 3003   1.619   0.535   8.716
  993SOL    HW2 3004   1.739   0.568   8.610
  994SOL     OW 3005   0.252   1.564   9.192
  994SOL    HW1 3006   0.222   1.621   9.268
  994SOL    HW2 3007   0.245   1.467   9.218
  995SOL     OW 3008   0.671   0.464   8.717
  995SOL    HW1 3009   0.637   0.375   8.687
  995SOL    HW2 3010   0.697   0.518   8.637
  996SOL     OW 3011   0.930   1.678   8.913
  996SOL    HW1 3012   0.906   1.660   8.818
  996SOL    HW2 3013   0.960   1.772   8.923
  997SOL     OW 3014   0.473   0.500   7.639
  997SOL    HW1 3015   0.534   0.580   7.643
  997SOL    HW2 3016   0.378   0.531   7.646
  998SOL     OW 3017   0.159   1.137   8.914
  998SOL    HW1 3018   0.181   1.076   8.990
  998SOL    HW2 3019   0.169   1.088   8.828
  999SOL     OW 3020   1.347   1.059   8.682
  999SOL    HW1 3021   1.371   0.996   8.608
  999SOL    HW2 3022   1.257   1.099   8.664
 1000SOL     OW 3023   1.302   0.855   7.757
 1000SOL    HW1 3024   1.216   0.824   7.799
 1000SOL    HW2 3025   1.298   0.841   7.658
 1001SOL     OW 3026   1.759   1.747   8.602
 1001SOL    HW1 3027   1.820   1.777   8.529
 1001SOL    HW2 3028   1.721   1.658   8.580
 1002SOL     OW 3029   1.252   1.731   8.576
 1002SOL    HW1 3030   1.336   1.736   8.522
 1002SOL    HW2 3031   1.229   1.635   8.594
 1003SOL     OW 3032   0.083   1.258   8.470
 1003SOL    HW1 3033   0.078   1.257   8.570
 1003SOL    HW2 3034   0.000   1.217   8.432
 1004SOL     OW 3035   0.688   1.662   9.164
 1004SOL    HW1 3036   0.632   1.743   9.173
 1004SOL    HW2 3037   0.740   1.666   9.078
 1005SOL     OW 3038   1.726   0.135   7.971
 1005SOL    HW1 3039   1.799   0.118   7.904
 1005SOL    HW2 3040   1.695   0.048   8.009
 1006SOL     OW 3041   1.388   1.573   7.925
 1006SOL    HW1 3042   1.455   1.585   7.851
 1006SOL    HW2 3043   1.348   1.662   7.948
 1007SOL     OW 3044   0.130   1.794   9.299
 1007SOL    HW1 3045   0.089   1.720   9.352
 1007SOL    HW2 3046   0.194   1.845   9.357
 1008SOL     OW 3047   1.280   0.927   8.120
 1008SOL    HW1 3048   1.340   0.846   8.122
 1008SOL    HW2 3049   1.320   0.996   8.060
 1009SOL     OW 3050   0.830   1.273   8.870
 1009SOL    HW1 3051   0.825   1.306   8.965
 1009SOL    HW2 3052   0.744   1.292   8.824
 1010SOL     OW 3053   0.672   1.616   7.602
 1010SOL    HW1 3054   0.681   1.626   7.503
 1010SOL    HW2 3055   0.632   1.527   7.623
 1011SOL     OW 3056   1.650   1.720   8.842
 1011SOL    HW1 3057   1.703   1.730   8.758
 1011SOL    HW2 3058   1.623   1.810   8.876
 1012SOL     OW 3059   1.841   0.175   8.411
 1012SOL    HW1 3060   1.880   0.090   8.375
 1012SOL    HW2 3061   1.743   0.177   8.392
 1013SOL     OW 3062   0.263   0.326   8.168
 1013SOL    HW1 3063   0.184   0.377   8.134
 1013SOL    HW2 3064   0.254   0.311   8.266
 1014SOL     OW 3065   1.194   1.612   7.479
 1014SOL    HW1 3066   1.200   1.519   7.516
 1014SOL    HW2 3067   1.135   1.612   7.399
 1015SOL     OW 3068   0.822   1.002   8.820
 1015SOL    HW1 3069   0.862   1.001   8.728
 1015SOL    HW2 3070   0.832   1.094   8.860
 1016SOL     OW 3071   0.916   0.910   7.739
 1016SOL    HW1 3072   0.979   0.948   7.671
 1016SOL    HW2 3073   0.956   0.827   7.778
 1017SOL     OW 3074   1.504   1.607   7.492
 1017SOL    HW1 3075   1.412   1.644   7.499
 1017SOL    HW2 3076   1.542   1.627   7.402
 1018SOL     OW 3077   0.372   1.288   8.938
 1018SOL    HW1 3078   0.359   1.381   8.904
 1018SOL    HW2 3079   0.288   1.236   8.925
 1019SOL     OW 3080   1.614   1.292   8.737
 1019SOL    HW1 3081   1.674   1.295   8.817
 1019SOL    HW2 3082   1.539   1.356   8.750
 1020SOL     OW 3083   1.039   1.098   8.144
 1020SOL    HW1 3084   0.969   1.051   8.198
 1020SOL    HW2 3085   1.098   1.030   8.101
 1021SOL     OW 3086   1.014   0.236   8.419
 1021SOL    HW1 3087   1.006   0.200   8.326
 1021SOL    HW2 3088   1.012   0.160   8.484
 1022SOL     OW 3089   0.590   1.487   7.939
 1022SOL    HW1 3090   0.632   1.429   7.869
 1022SOL    HW2 3091   0.546   1.566   7.895
 1023SOL     OW 3092   1.709   0.385   8.829
 1023SOL    HW1 3093   1.782   0.454   8.833
 1023SOL    HW2 3094   1.737   0.310   8.770
 1024SOL     OW 3095   0.255   1.348   7.738
 1024SOL    HW1 3096   0.159   1.349   7.711
 1024SOL    HW2 3097   0.267   1.401   7.822
 1025SOL     OW 3098   0.105   1.013   9.174
 1025SOL    HW1 3099   0.028   0.980   9.228
 1025SOL    HW2 3100   0.190   0.983   9.216
 1026SOL     OW 3101   0.672   0.203   8.937
 1026SOL    HW1 3102   0.762   0.187   8.897
 1026SOL    HW2 3103   0.680   0.208   9.036
 1027SOL     OW 3104   0.075   0.345   7.481
 1027SOL    HW1 3105  -0.017   0.317   7.452
 1027SOL    HW2 3106   0.106   0.422   7.425
 1028SOL     OW 3107   1.440   0.856   8.846
 1028SOL    HW1 3108   1.383   0.908   8.783
 1028SOL    HW2 3109   1.536   0.868   8.822
 1029SOL     OW 3110   0.072   0.166   7.766
 1029SOL    HW1 3111   0.055   0.249   7.712
 1029SOL    HW2 3112   0.162   0.129   7.744
 1030SOL     OW 3113   1.183   1.335   7.567
 1030SOL    HW1 3114   1.084   1.324   7.569
 1030SOL    HW2 3115   1.217   1.350   7.660
 1031SOL     OW 3116   0.613   0.842   8.879
 1031SOL    HW1 3117   0.669   0.923   8.862
 1031SOL    HW2 3118   0.672   0.762   8.882
 1032SOL     OW 3119   1.493   1.767   8.407
 1032SOL    HW1 3120   1.526   1.831   8.338
 1032SOL    HW2 3121   1.559   1.761   8.482
 1033SOL     OW 3122   0.716   0.565   9.156
 1033SOL    HW1 3123   0.735   0.630   9.230
 1033SOL    HW2 3124   0.776   0.485   9.165
 1034SOL     OW 3125   1.450   1.220   9.081
 1034SOL    HW1 3126   1.441   1.210   9.180
 1034SOL    HW2 3127   1.546   1.213   9.055
 1035SOL     OW 3128   0.390   1.741   9.008
 1035SOL    HW1 3129   0.299   1.782   9.006
 1035SOL    HW2 3130   0.383   1.647   9.040
 1036SOL     OW 3131   1.674   0.883   8.702
 1036SOL    HW1 3132   1.647   0.794   8.665
 1036SOL    HW2 3133   1.675   0.951   8.629
 1037SOL     OW 3134   1.225   0.325   7.897
 1037SOL    HW1 3135   1.290   0.251   7.886
 1037SOL    HW2 3136   1.245   0.375   7.981
 1038SOL     OW 3137   0.594   0.745   8.100
 1038SOL    HW1 3138   0.644   0.830   8.081
 1038SOL    HW2 3139   0.506   0.747   8.052
 1039SOL     OW 3140   1.777   0.342   9.090
 1039SOL    HW1 3141   1.760   0.373   8.996
 1039SOL    HW2 3142   1.693   0.305   9.128
 1040SOL     OW 3143   1.730   0.934   8.965
 1040SOL    HW1 3144   1.768   1.025   8.980
 1040SOL    HW2 3145   1.722   0.917   8.866
 1041SOL     OW 3146   0.859   1.374   7.464
 1041SOL    HW1 3147   0.813   1.389   7.552
 1041SOL    HW2 3148   0.903   1.459   7.434
 1042SOL     OW 3149   0.661   1.790   8.401
 1042SOL    HW1 3150   0.615   1.878   8.388
 1042SOL    HW2 3151   0.760   1.802   8.394
 1043SOL     OW 3152   0.859   0.956   8.309
 1043SOL    HW1 3153   0.913   0.887   8.357
 1043SOL    HW2 3154   0.827   1.025   8.375
 1044SOL     OW 3155   1.083   0.984   7.535
 1044SOL    HW1 3156   1.060   1.037   7.453
 1044SOL    HW2 3157   1.164   0.928   7.516
 1045SOL     OW 3158   1.861   1.569   8.299
 1045SOL    HW1 3159   1.790   1.557   8.229
 1045SOL    HW2 3160   1.862   1.490   8.359
 1046SOL     OW 3161   0.221   1.314   9.292
 1046SOL    HW1 3162   0.156   1.241   9.271
 1046SOL    HW2 3163   0.225   1.328   9.390
 1047SOL     OW 3164   0.079   1.240   8.101
 1047SOL    HW1 3165   0.078   1.193   8.189
 1047SOL    HW2 3166   0.161   1.212   8.050
 1048SOL     OW 3167   0.672   1.391   9.072
 1048SOL    HW1 3168   0.594   1.341   9.110
 1048SOL    HW2 3169   0.669   1.486   9.103
 1049SOL     OW 3170   1.824   0.192   8.675
 1049SOL    HW1 3171   1.820   0.102   8.719
 1049SOL    HW2 3172   1.827   0.181   8.576
 1050SOL     OW 3173   0.428   0.424   7.968
 1050SOL    HW1 3174   0.458   0.352   7.906
 1050SOL    HW2 3175   0.389   0.384   8.051
 1051SOL     OW 3176   1.705   1.487   8.552
 1051SOL    HW1 3177   1.612   1.462   8.525
 1051SOL    HW2 3178   1.731   1.437   8.634
 1052SOL     OW 3179   0.317   0.547   8.728
 1052SOL    HW1 3180   0.355   0.488   8.800
 1052SOL    HW2 3181   0.357   0.521   8.640
 1053SOL     OW 3182   0.812   1.586   8.135
 1053SOL    HW1 3183   0.844   1.596   8.041
 1053SOL    HW2 3184   0.733   1.524   8.137
 1054SOL     OW 3185   1.424   0.214   8.560
 1054SOL    HW1 3186   1.476   0.149   8.615
 1054SOL    HW2 3187   1.375   0.277   8.621
 1055SOL     OW 3188   1.001   0.034   8.602
 1055SOL    HW1 3189   0.938  -0.038   8.571
 1055SOL    HW2 3190   1.094  -0.002   8.602
 1056SOL     OW 3191   0.770   1.330   7.749
 1056SOL    HW1 3192   0.724   1.243   7.766
 1056SOL    HW2 3193   0.861   1.327   7.790
 1057SOL     OW 3194   0.618   1.567   8.732
 1057SOL    HW1 3195   0.613   1.649   8.789
 1057SOL    HW2 3196   0.707   1.564   8.687
 1058SOL     OW 3197   1.352   0.052   7.616
 1058SOL    HW1 3198   1.387   0.011   7.532
 1058SOL    HW2 3199   1.262   0.014   7.636
 1059SOL     OW 3200   1.300   0.453   8.139
 1059SOL    HW1 3201   1.241   0.533   8.143
 1059SOL    HW2 3202   1.315   0.418   8.232
 1060SOL     OW 3203   1.593   0.221   8.330
 1060SOL    HW1 3204   1.509   0.220   8.384
 1060SOL    HW2 3205   1.595   0.304   8.274
 1061SOL     OW 3206   0.039   1.077   7.748
 1061SOL    HW1 3207   0.138   1.066   7.739
 1061SOL    HW2 3208  -0.001   0.991   7.780
 1062SOL     OW 3209   0.875   1.646   7.785
 1062SOL    HW1 3210   0.798   1.611   7.731
 1062SOL    HW2 3211   0.843   1.717   7.847
 1063SOL     OW 3212   0.230   0.628   9.423
 1063SOL    HW1 3213   0.137   0.626   9.460
 1063SOL    HW2 3214   0.231   0.589   9.331
 1064SOL     OW 3215   0.225   0.275  10.306
 1064SOL    HW1 3216   0.260   0.258  10.398
 1064SOL    HW2 3217   0.137   0.230  10.294
 1065SOL     OW 3218   0.019   0.368   9.957
 1065SOL    HW1 3219  -0.063   0.411   9.996
 1065SOL    HW2 3220  -0.009   0.295   9.894
 1066SOL     OW 3221   0.569   1.275  10.475
 1066SOL    HW1 3222   0.476   1.268  10.438
 1066SOL    HW2 3223   0.580   1.364  10.519
 1067SOL     OW 3224   1.555   1.511  10.013
 1067SOL    HW1 3225   1.498   1.495  10.094
 1067SOL    HW2 3226   1.496   1.521   9.933
 1068SOL     OW 3227   1.135   0.703  10.027
 1068SOL    HW1 3228   1.192   0.781  10.002
 1068SOL    HW2 3229   1.075   0.729  10.103
 1069SOL     OW 3230   1.755   0.607   9.541
 1069SOL    HW1 3231   1.743   0.594   9.442
 1069SOL    HW2 3232   1.725   0.526   9.590
 1070SOL     OW 3233   0.768   1.144  10.333
 1070SOL    HW1 3234   0.690   1.161  10.393
 1070SOL    HW2 3235   0.802   1.231  10.297
 1071SOL     OW 3236   0.850   0.798  11.133
 1071SOL    HW1 3237   0.846   0.874  11.198
 1071SOL    HW2 3238   0.872   0.834  11.042
 1072SOL     OW 3239   0.685   1.012   9.975
 1072SOL    HW1 3240   0.754   0.996  10.045
 1072SOL    HW2 3241   0.612   1.069  10.013
 1073SOL     OW 3242   0.686   1.161  11.113
 1073SOL    HW1 3243   0.746   1.240  11.127
 1073SOL    HW2 3244   0.600   1.192  11.072
 1074SOL     OW 3245   0.335   1.435  10.371
 1074SOL    HW1 3246   0.257   1.404  10.318
 1074SOL    HW2 3247   0.393   1.493  10.314
 1075SOL     OW 3248   1.460   1.505  10.649
 1075SOL    HW1 3249   1.484   1.599  10.675
 1075SOL    HW2 3250   1.444   1.451  10.731
 1076SOL     OW 3251   0.438   0.392  10.809
 1076SOL    HW1 3252   0.520   0.336  10.818
 1076SOL    HW2 3253   0.357   0.334  10.813
 1077SOL     OW 3254   1.603   0.447  10.047
 1077SOL    HW1 3255   1.529   0.493   9.997
 1077SOL    HW2 3256   1.654   0.515  10.100
 1078SOL     OW 3257   0.231   1.713   9.793
 1078SOL    HW1 3258   0.265   1.790   9.847
 1078SOL    HW2 3259   0.275   1.713   9.703
 1079SOL     OW 3260   1.127   1.341  11.000
 1079SOL    HW1 3261   1.174   1.341  11.088
 1079SOL    HW2 3262   1.079   1.254  10.989
 1080SOL     OW 3263   0.230   1.434   9.848
 1080SOL    HW1 3264   0.204   1.530   9.848
 1080SOL    HW2 3265   0.159   1.380   9.893
 1081SOL     OW 3266   0.240   1.091  10.196
 1081SOL    HW1 3267   0.254   1.007  10.248
 1081SOL    HW2 3268   0.185   1.155  10.251
 1082SOL     OW 3269   0.620   1.786  10.749
 1082SOL    HW1 3270   0.528   1.769  10.784
 1082SOL    HW2 3271   0.648   1.878  10.775
 1083SOL     OW 3272   0.606   0.964   9.433
 1083SOL    HW1 3273   0.613   1.048   9.379
 1083SOL    HW2 3274   0.652   0.977   9.521
 1084SOL     OW 3275   1.594   0.114  10.790
 1084SOL    HW1 3276   1.576   0.181  10.718
 1084SOL    HW2 3277   1.591   0.160  10.879
 1085SOL     OW 3278   0.122   0.643   9.873
 1085SOL    HW1 3279   0.077   0.555   9.890
 1085SOL    HW2 3280   0.121   0.697   9.957
 1086SOL     OW 3281   1.842   1.767   9.669
 1086SOL    HW1 3282   1.896   1.738   9.749
 1086SOL    HW2 3283   1.872   1.857   9.640
 1087SOL     OW 3284   0.027   1.596   9.427
 1087SOL    HW1 3285   0.008   1.500   9.448
 1087SOL    HW2 3286  -0.006   1.654   9.502
 1088SOL     OW 3287   1.689   0.922   9.922
 1088SOL    HW1 3288   1.784   0.893   9.930
 1088SOL    HW2 3289   1.681   0.987   9.847
 1089SOL     OW 3290   1.641   1.108   9.742
 1089SOL    HW1 3291   1.727   1.110   9.690
 1089SOL    HW2 3292   1.655   1.155   9.830
 1090SOL     OW 3293   0.113   0.737  10.907
 1090SOL    HW1 3294   0.201   0.724  10.952
 1090SOL    HW2 3295   0.100   0.834  10.885
 1091SOL     OW 3296   0.613   1.365  10.036
 1091SOL    HW1 3297   0.564   1.278  10.045
 1091SOL    HW2 3298   0.590   1.408   9.949
 1092SOL     OW 3299   1.293   1.228  10.733
 1092SOL    HW1 3300   1.330   1.155  10.675
 1092SOL    HW2 3301   1.345   1.233  10.818
 1093SOL     OW 3302   0.809   0.004   9.812
 1093SOL    HW1 3303   0.849   0.095   9.803
 1093SOL    HW2 3304   0.709   0.012   9.818
 1094SOL     OW 3305   0.197   0.976  10.574
 1094SOL    HW1 3306   0.286   0.931  10.560
 1094SOL    HW2 3307   0.124   0.911  10.555
 1095SOL     OW 3308   1.525   0.999   9.500
 1095SOL    HW1 3309   1.462   0.923   9.513
 1095SOL    HW2 3310   1.573   1.017   9.586
 1096SOL     OW 3311   1.187   1.792  10.926
 1096SOL    HW1 3312   1.211   1.852  10.850
 1096SOL    HW2 3313   1.194   1.697  10.896
 1097SOL     OW 3314   0.317   0.251  11.111
 1097SOL    HW1 3315   0.388   0.322  11.117
 1097SOL    HW2 3316   0.229   0.290  11.139
 1098SOL     OW 3317   1.466   1.417  10.263
 1098SOL    HW1 3318   1.407   1.423  10.343
 1098SOL    HW2 3319   1.451   1.329  10.217
 1099SOL     OW 3320   1.667   1.714   9.882
 1099SOL    HW1 3321   1.626   1.691   9.794
 1099SOL    HW2 3322   1.649   1.640   9.947
 1100SOL     OW 3323   0.598   0.729   9.580
 1100SOL    HW1 3324   0.622   0.798   9.512
 1100SOL    HW2 3325   0.520   0.762   9.634
 1101SOL     OW 3326   1.281   0.345  10.254
 1101SOL    HW1 3327   1.195   0.295  10.241
 1101SOL    HW2 3328   1.343   0.291  10.310
 1102SOL     OW 3329   1.576   1.662   9.617
 1102SOL    HW1 3330   1.665   1.708   9.620
 1102SOL    HW2 3331   1.555   1.638   9.522
 1103SOL     OW 3332   0.807   0.605  10.775
 1103SOL    HW1 3333   0.760   0.602  10.864
 1103SOL    HW2 3334   0.756   0.550  10.709
 1104SOL     OW 3335   1.394   0.469  10.984
 1104SOL    HW1 3336   1.374   0.512  11.072
 1104SOL    HW2 3337   1.472   0.407  10.993
 1105SOL     OW 3338   0.973   0.890  10.882
 1105SOL    HW1 3339   1.019   0.806  10.853
 1105SOL    HW2 3340   0.917   0.924  10.807
 1106SOL     OW 3341   0.991   0.410  10.552
 1106SOL    HW1 3342   0.914   0.444  10.606
 1106SOL    HW2 3343   0.957   0.359  10.473
 1107SOL     OW 3344   1.041   0.701   9.739
 1107SOL    HW1 3345   1.067   0.697   9.835
 1107SOL    HW2 3346   0.956   0.650   9.725
 1108SOL     OW 3347   0.076   0.811  10.099
 1108SOL    HW1 3348   0.175   0.799  10.108
 1108SOL    HW2 3349   0.052   0.906  10.120
 1109SOL     OW 3350   0.130   1.821  10.881
 1109SOL    HW1 3351   0.120   1.806  10.980
 1109SOL    HW2 3352   0.044   1.857  10.845
 1110SOL     OW 3353   0.865   0.348   9.505
 1110SOL    HW1 3354   0.924   0.411   9.456
 1110SOL    HW2 3355   0.884   0.254   9.476
 1111SOL     OW 3356   1.719   0.585  11.141
 1111SOL    HW1 3357   1.693   0.674  11.105
 1111SOL    HW2 3358   1.717   0.517  11.068
 1112SOL     OW 3359   1.362   1.144   9.855
 1112SOL    HW1 3360   1.445   1.115   9.807
 1112SOL    HW2 3361   1.313   1.211   9.799
 1113SOL     OW 3362   0.550   0.196  10.195
 1113SOL    HW1 3363   0.545   0.191  10.295
 1113SOL    HW2 3364   0.552   0.292  10.166
 1114SOL     OW 3365   1.008   1.456   9.787
 1114SOL    HW1 3366   0.962   1.528   9.735
 1114SOL    HW2 3367   1.004   1.476   9.885
 1115SOL     OW 3368   0.351   1.801  10.163
 1115SOL    HW1 3369   0.401   1.715  10.169
 1115SOL    HW2 3370   0.416   1.878  10.160
 1116SOL     OW 3371   1.795   1.066  10.183
 1116SOL    HW1 3372   1.733   1.051  10.107
 1116SOL    HW2 3373   1.743   1.077  10.268
 1117SOL     OW 3374   1.227   1.550  10.816
 1117SOL    HW1 3375   1.233   1.473  10.880
 1117SOL    HW2 3376   1.175   1.524  10.736
 1118SOL     OW 3377   0.321   0.943   9.552
 1118SOL    HW1 3378   0.403   0.982   9.510
 1118SOL    HW2 3379   0.294   0.861   9.503
 1119SOL     OW 3380   1.458   0.735  10.038
 1119SOL    HW1 3381   1.453   0.670  10.113
 1119SOL    HW2 3382   1.538   0.794  10.051
 1120SOL     OW 3383   0.461   1.266  11.037
 1120SOL    HW1 3384   0.411   1.267  10.951
 1120SOL    HW2 3385   0.398   1.248  11.113
 1121SOL     OW 3386   1.111   1.776   9.547
 1121SOL    HW1 3387   1.051   1.714   9.597
 1121SOL    HW2 3388   1.142   1.732   9.462
 1122SOL     OW 3389   0.202   0.285  10.808
 1122SOL    HW1 3390   0.122   0.345  10.795
 1122SOL    HW2 3391   0.192   0.236  10.894
 1123SOL     OW 3392   1.632   1.377   9.391
 1123SOL    HW1 3393   1.600   1.471   9.381
 1123SOL    HW2 3394   1.556   1.314   9.379
 1124SOL     OW 3395   0.464   1.743   9.633
 1124SOL    HW1 3396   0.497   1.782   9.719
 1124SOL    HW2 3397   0.540   1.736   9.568
 1125SOL     OW 3398   1.400   0.107   9.736
 1125SOL    HW1 3399   1.376   0.070   9.646
 1125SOL    HW2 3400   1.499   0.123   9.740
 1126SOL     OW 3401   0.249   1.785  10.551
 1126SOL    HW1 3402   0.306   1.720  10.601
 1126SOL    HW2 3403   0.233   1.752  10.458
 1127SOL     OW 3404   0.940   1.698  10.214
 1127SOL    HW1 3405   1.020   1.641  10.235
 1127SOL    HW2 3406   0.891   1.658  10.137
 1128SOL     OW 3407   0.382   0.700   9.790
 1128SOL    HW1 3408   0.427   0.610   9.787
 1128SOL    HW2 3409   0.288   0.689   9.823
 1129SOL     OW 3410   1.547   0.222  11.039
 1129SOL    HW1 3411   1.542   0.259  11.131
 1129SOL    HW2 3412   1.475   0.153  11.027
 1130SOL     OW 3413   0.614   0.122   9.427
 1130SOL    HW1 3414   0.712   0.100   9.434
 1130SOL    HW2 3415   0.583   0.105   9.334
 1131SOL     OW 3416   0.781   0.264  11.059
 1131SOL    HW1 3417   0.848   0.203  11.102
 1131SOL    HW2 3418   0.708   0.283  11.124
 1132SOL     OW 3419   0.888   1.514  10.505
 1132SOL    HW1 3420   0.865   1.489  10.411
 1132SOL    HW2 3421   0.949   1.445  10.544
 1133SOL     OW 3422   1.351   0.590  10.743
 1133SOL    HW1 3423   1.379   0.547  10.828
 1133SOL    HW2 3424   1.376   0.686  10.744
 1134SOL     OW 3425   0.803   1.402  10.234
 1134SOL    HW1 3426   0.893   1.416  10.192
 1134SOL    HW2 3427   0.732   1.404  10.163
 1135SOL     OW 3428   0.922   0.503  10.209
 1135SOL    HW1 3429   0.897   0.494  10.113
 1135SOL    HW2 3430   0.970   0.421  10.240
 1136SOL     OW 3431   0.539   0.064   9.822
 1136SOL    HW1 3432   0.458   0.065   9.880
 1136SOL    HW2 3433   0.542   0.147   9.767
 1137SOL     OW 3434   1.434   1.188   9.351
 1137SOL    HW1 3435   1.466   1.112   9.408
 1137SOL    HW2 3436   1.342   1.215   9.381
 1138SOL     OW 3437   0.297   0.035   9.481
 1138SOL    HW1 3438   0.346   0.119   9.460
 1138SOL    HW2 3439   0.359  -0.030   9.526
 1139SOL     OW 3440   0.935   0.236   9.790
 1139SOL    HW1 3441   0.887   0.277   9.712
 1139SOL    HW2 3442   1.034   0.234   9.771
 1140SOL     OW 3443   1.076   0.683  10.774
 1140SOL    HW1 3444   0.996   0.622  10.777
 1140SOL    HW2 3445   1.157   0.630  10.750
 1141SOL     OW 3446   1.227   1.570  10.103
 1141SOL    HW1 3447   1.248   1.644  10.038
 1141SOL    HW2 3448   1.295   1.570  10.176
 1142SOL     OW 3449   0.459   1.152  10.051
 1142SOL    HW1 3450   0.388   1.125  10.116
 1142SOL    HW2 3451   0.433   1.124   9.958
 1143SOL     OW 3452   1.271   1.797   9.901
 1143SOL    HW1 3453   1.315   1.861   9.837
 1143SOL    HW2 3454   1.221   1.849   9.971
 1144SOL     OW 3455   1.032   0.549   9.326
 1144SOL    HW1 3456   0.991   0.631   9.287
 1144SOL    HW2 3457   1.096   0.575   9.399
 1145SOL     OW 3458   0.078   0.556  10.696
 1145SOL    HW1 3459   0.170   0.555  10.655
 1145SOL    HW2 3460   0.072   0.630  10.763
 1146SOL     OW 3461   0.561   0.222  10.457
 1146SOL    HW1 3462   0.599   0.138  10.494
 1146SOL    HW2 3463   0.473   0.241  10.501
 1147SOL     OW 3464   0.866   0.454   9.952
 1147SOL    HW1 3465   0.834   0.526   9.890
 1147SOL    HW2 3466   0.890   0.373   9.899
 1148SOL     OW 3467   1.017   0.039  10.063
 1148SOL    HW1 3468   0.945   0.044   9.994
 1148SOL    HW2 3469   0.993  -0.030  10.132
 1149SOL     OW 3470   1.429   1.173  10.177
 1149SOL    HW1 3471   1.374   1.089  10.170
 1149SOL    HW2 3472   1.455   1.202  10.085
 1150SOL     OW 3473   1.466   0.590  10.302
 1150SOL    HW1 3474   1.436   0.495  10.309
 1150SOL    HW2 3475   1.539   0.606  10.368
 1151SOL     OW 3476   1.857   0.833   9.687
 1151SOL    HW1 3477   1.899   0.769   9.751
 1151SOL    HW2 3478   1.819   0.782   9.609
 1152SOL     OW 3479   0.488   1.385   9.484
 1152SOL    HW1 3480   0.401   1.370   9.531
 1152SOL    HW2 3481   0.471   1.411   9.389
 1153SOL     OW 3482   1.664   1.280   9.967
 1153SOL    HW1 3483   1.763   1.288   9.981
 1153SOL    HW2 3484   1.619   1.364   9.998
 1154SOL     OW 3485   1.390   0.575   9.388
 1154SOL    HW1 3486   1.336   0.554   9.469
 1154SOL    HW2 3487   1.481   0.534   9.397
 1155SOL     OW 3488   0.527   0.256   9.638
 1155SOL    HW1 3489   0.554   0.197   9.563
 1155SOL    HW2 3490   0.527   0.351   9.607
 1156SOL     OW 3491   1.754   1.223  10.898
 1156SOL    HW1 3492   1.845   1.184  10.885
 1156SOL    HW2 3493   1.762   1.319  10.922
 1157SOL     OW 3494   1.064   1.347  10.650
 1157SOL    HW1 3495   0.984   1.324  10.705
 1157SOL    HW2 3496   1.147   1.321  10.699
 1158SOL     OW 3497   1.592   1.629  10.935
 1158SOL    HW1 3498   1.619   1.663  10.845
 1158SOL    HW2 3499   1.671   1.591  10.981
 1159SOL     OW 3500   1.111   1.195  10.410
 1159SOL    HW1 3501   1.071   1.239  10.491
 1159SOL    HW2 3502   1.070   1.232  10.327
 1160SOL     OW 3503   1.638   1.099  10.389
 1160SOL    HW1 3504   1.643   1.180  10.448
 1160SOL    HW2 3505   1.552   1.101  10.338
 1161SOL     OW 3506   0.915   0.089  10.712
 1161SOL    HW1 3507   0.940   0.069  10.617
 1161SOL    HW2 3508   0.987   0.145  10.754
 1162SOL     OW 3509   0.980   1.116  11.029
 1162SOL    HW1 3510   0.881   1.122  11.039
 1162SOL    HW2 3511   1.003   1.036  10.973
 1163SOL     OW 3512   0.705   1.050   9.678
 1163SOL    HW1 3513   0.691   1.057   9.777
 1163SOL    HW2 3514   0.789   0.999   9.660
 1164SOL     OW 3515   0.410   0.813  10.561
 1164SOL    HW1 3516   0.496   0.825  10.611
 1164SOL    HW2 3517   0.368   0.726  10.588
 1165SOL     OW 3518   1.274   0.386  10.572
 1165SOL    HW1 3519   1.295   0.460  10.636
 1165SOL    HW2 3520   1.185   0.403  10.529
 1166SOL     OW 3521   0.064   1.564  10.641
 1166SOL    HW1 3522   0.018   1.646  10.607
 1166SOL    HW2 3523   0.162   1.583  10.650
 1167SOL     OW 3524   0.367   1.100   9.811
 1167SOL    HW1 3525   0.360   1.183   9.755
 1167SOL    HW2 3526   0.371   1.020   9.751
 1168SOL     OW 3527   0.566   0.537  10.175
 1168SOL    HW1 3528   0.578   0.603  10.101
 1168SOL    HW2 3529   0.612   0.571  10.258
 1169SOL     OW 3530   1.252   1.348   9.698
 1169SOL    HW1 3531   1.302   1.425   9.738
 1169SOL    HW2 3532   1.157   1.350   9.730
 1170SOL     OW 3533   1.272   1.445  10.452
 1170SOL    HW1 3534   1.319   1.458  10.539
 1170SOL    HW2 3535   1.206   1.371  10.461
 1171SOL     OW 3536   1.582   0.639   9.782
 1171SOL    HW1 3537   1.551   0.700   9.855
 1171SOL    HW2 3538   1.632   0.691   9.713
 1172SOL     OW 3539   0.354   1.510  10.639
 1172SOL    HW1 3540   0.333   1.466  10.552
 1172SOL    HW2 3541   0.451   1.536  10.642
 1173SOL     OW 3542   0.402   0.751  10.908
 1173SOL    HW1 3543   0.470   0.806  10.861
 1173SOL    HW2 3544   0.442   0.663  10.935
 1174SOL     OW 3545   1.587   0.779  10.980
 1174SOL    HW1 3546   1.495   0.817  10.975
 1174SOL    HW2 3547   1.647   0.826  10.915
 1175SOL     OW 3548   1.013   0.105  11.080
 1175SOL    HW1 3549   1.019   0.190  11.028
 1175SOL    HW2 3550   1.045   0.029  11.023
 1176SOL     OW 3551   0.504   0.050  11.050
 1176SOL    HW1 3552   0.462  -0.007  10.980
 1176SOL    HW2 3553   0.438   0.119  11.082
 1177SOL     OW 3554   0.573   0.870  10.339
 1177SOL    HW1 3555   0.617   0.959  10.330
 1177SOL    HW2 3556   0.510   0.870  10.416
 1178SOL     OW 3557   1.360   0.862  10.355
 1178SOL    HW1 3558   1.285   0.862  10.289
 1178SOL    HW2 3559   1.397   0.770  10.364
 1179SOL     OW 3560   1.209   0.525   9.585
 1179SOL    HW1 3561   1.222   0.441   9.639
 1179SOL    HW2 3562   1.180   0.599   9.645
 1180SOL     OW 3563   0.307   0.213  10.541
 1180SOL    HW1 3564   0.284   0.250  10.631
 1180SOL    HW2 3565   0.277   0.118  10.535
 1181SOL     OW 3566   0.037   1.310  10.592
 1181SOL    HW1 3567   0.090   1.261  10.660
 1181SOL    HW2 3568   0.059   1.408  10.597
 1182SOL     OW 3569   0.732   0.634  10.374
 1182SOL    HW1 3570   0.791   0.608  10.298
 1182SOL    HW2 3571   0.704   0.730  10.363
 1183SOL     OW 3572   1.728   0.935  11.164
 1183SOL    HW1 3573   1.682   0.928  11.075
 1183SOL    HW2 3574   1.666   0.979  11.230
 1184SOL     OW 3575   0.307   0.063   9.928
 1184SOL    HW1 3576   0.296   0.157   9.961
 1184SOL    HW2 3577   0.302   0.000  10.005
 1185SOL     OW 3578   1.622   0.367   9.684
 1185SOL    HW1 3579   1.624   0.291   9.748
 1185SOL    HW2 3580   1.574   0.444   9.724
 1186SOL     OW 3581   1.023   0.766  10.276
 1186SOL    HW1 3582   1.038   0.787  10.372
 1186SOL    HW2 3583   0.993   0.671  10.267
 1187SOL     OW 3584   0.980   1.573  11.010
 1187SOL    HW1 3585   0.960   1.617  10.922
 1187SOL    HW2 3586   1.019   1.482  10.994
 1188SOL     OW 3587   1.859   1.518  10.915
 1188SOL    HW1 3588   1.873   1.545  10.820
 1188SOL    HW2 3589   1.942   1.540  10.968
 1189SOL     OW 3590   0.350   0.898  11.114
 1189SOL    HW1 3591   0.426   0.942  11.162
 1189SOL    HW2 3592   0.385   0.851  11.032
 1190SOL     OW 3593   1.540   0.274   9.435
 1190SOL    HW1 3594   1.479   0.199   9.458
 1190SOL    HW2 3595   1.562   0.326   9.518
 1191SOL     OW 3596   1.303   0.838   9.352
 1191SOL    HW1 3597   1.337   0.745   9.367
 1191SOL    HW2 3598   1.321   0.865   9.257
 1192SOL     OW 3599   1.068   1.333  10.159
 1192SOL    HW1 3600   1.075   1.249  10.104
 1192SOL    HW2 3601   1.130   1.402  10.123
 1193SOL     OW 3602   0.319   0.810  10.259
 1193SOL    HW1 3603   0.412   0.846  10.264
 1193SOL    HW2 3604   0.313   0.725  10.311
 1194SOL     OW 3605   0.339   0.509  10.316
 1194SOL    HW1 3606   0.287   0.426  10.299
 1194SOL    HW2 3607   0.416   0.514  10.252
 1195SOL     OW 3608   1.138   0.380  10.988
 1195SOL    HW1 3609   1.093   0.443  11.052
 1195SOL    HW2 3610   1.231   0.411  10.971
 1196SOL     OW 3611   1.160   0.207  10.787
 1196SOL    HW1 3612   1.160   0.271  10.864
 1196SOL    HW2 3613   1.188   0.255  10.704
 1197SOL     OW 3614   0.008   1.326   9.510
 1197SOL    HW1 3615  -0.085   1.347   9.479
 1197SOL    HW2 3616   0.018   1.227   9.523
 1198SOL     OW 3617   0.088   1.801  10.237
 1198SOL    HW1 3618   0.046   1.715  10.210
 1198SOL    HW2 3619   0.182   1.804  10.203
 1199SOL     OW 3620   0.504   1.568  10.220
 1199SOL    HW1 3621   0.570   1.642  10.229
 1199SOL    HW2 3622   0.548   1.489  10.178
 1200SOL     OW 3623   1.002   0.796  10.548
 1200SOL    HW1 3624   1.043   0.764  10.634
 1200SOL    HW2 3625   0.906   0.769  10.545
 1201SOL     OW 3626   0.040   0.544  10.424
 1201SOL    HW1 3627   0.125   0.511  10.383
 1201SOL    HW2 3628   0.053   0.559  10.522
 1202SOL     OW 3629   0.189   0.520  11.032
 1202SOL    HW1 3630   0.248   0.480  10.962
 1202SOL    HW2 3631   0.131   0.591  10.991
 1203SOL     OW 3632   1.369   0.950  10.970
 1203SOL    HW1 3633   1.408   1.039  10.990
 1203SOL    HW2 3634   1.379   0.930  10.873
 1204SOL     OW 3635   0.815   0.572   9.635
 1204SOL    HW1 3636   0.822   0.483   9.589
 1204SOL    HW2 3637   0.721   0.606   9.627
 1205SOL     OW 3638   1.657   0.604  10.516
 1205SOL    HW1 3639   1.619   0.535  10.578
 1205SOL    HW2 3640   1.739   0.568  10.472
 1206SOL     OW 3641   0.252   1.564  11.054
 1206SOL    HW1 3642   0.222   1.621  11.130
 1206SOL    HW2 3643   0.245   1.467  11.080
 1207SOL     OW 3644   0.671   0.464  10.579
 1207SOL    HW1 3645   0.637   0.375  10.549
 1207SOL    HW2 3646   0.697   0.518  10.499
 1208SOL     OW 3647   0.930   1.678  10.775
 1208SOL    HW1 3648   0.906   1.660  10.680
 1208SOL    HW2 3649   0.960   1.772  10.785
 1209SOL     OW 3650   0.473   0.500   9.501
 1209SOL    HW1 3651   0.534   0.580   9.505
 1209SOL    HW2 3652   0.378   0.531   9.508
 1210SOL     OW 3653   0.159   1.137  10.776
 1210SOL    HW1 3654   0.181   1.076  10.852
 1210SOL    HW2 3655   0.169   1.088  10.690
 1211SOL     OW 3656   1.347   1.059  10.544
 1211SOL    HW1 3657   1.371   0.996  10.470
 1211SOL    HW2 3658   1.257   1.099  10.526
 1212SOL     OW 3659   1.302   0.855   9.619
 1212SOL    HW1 3660   1.216   0.824   9.661
 1212SOL    HW2 3661   1.298   0.841   9.520
 1213SOL     OW 3662   1.759   1.747  10.464
 1213SOL    HW1 3663   1.820   1.777  10.391
 1213SOL    HW2 3664   1.721   1.658  10.442
 1214SOL     OW 3665   1.252   1.731  10.438
 1214SOL    HW1 3666   1.336   1.736  10.384
 1214SOL    HW2 3667   1.229   1.635  10.456
 1215SOL     OW 3668   0.083   1.258  10.332
 1215SOL    HW1 3669   0.078   1.257  10.432
 1215SOL    HW2 3670   0.000   1.217  10.294
 1216SOL     OW 3671   0.688   1.662  11.026
 1216SOL    HW1 3672   0.632   1.743  11.035
 1216SOL    HW2 3673   0.740   1.666  10.940
 1217SOL     OW 3674   1.726   0.135   9.833
 1217SOL    HW1 3675   1.799   0.118   9.766
 1217SOL    HW2 3676   1.695   0.048   9.871
 1218SOL     OW 3677   1.388   1.573   9.787
 1218SOL    HW1 3678   1.455   1.585   9.713
 1218SOL    HW2 3679   1.348   1.662   9.810
 1219SOL     OW 3680   0.130   1.794  11.161
 1219SOL    HW1 3681   0.089   1.720  11.214
 1219SOL    HW2 3682   0.194   1.845  11.219
 1220SOL     OW 3683   1.280   0.927   9.982
 1220SOL    HW1 3684   1.340   0.846   9.984
 1220SOL    HW2 3685   1.320   0.996   9.922
 1221SOL     OW 3686   0.830   1.273  10.732
 1221SOL    HW1 3687   0.825   1.306  10.827
 1221SOL    HW2 3688   0.744   1.292  10.686
 1222SOL     OW 3689   0.672   1.616   9.464
 1222SOL    HW1 3690   0.681   1.626   9.365
 1222SOL    HW2 3691   0.632   1.527   9.485
 1223SOL     OW 3692   1.650   1.720  10.704
 1223SOL    HW1 3693   1.703   1.730  10.620
 1223SOL    HW2 3694   1.623   1.810  10.738
 1224SOL     OW 3695   1.841   0.175  10.273
 1224SOL    HW1 3696   1.880   0.090  10.237
 1224SOL    HW2 3697   1.743   0.177  10.254
 1225SOL     OW 3698   0.263   0.326  10.030
 1225SOL    HW1 3699   0.184   0.377   9.996
 1225SOL    HW2 3700   0.254   0.311  10.128
 1226SOL     OW 3701   1.194   1.612   9.341
 1226SOL    HW1 3702   1.200   1.519   9.378
 1226SOL    HW2 3703   1.135   1.612   9.261
 1227SOL     OW 3704   0.822   1.002  10.682
 1227SOL    HW1 3705   0.862   1.001  10.590
 1227SOL    HW2 3706   0.832   1.094  10.722
 1228SOL     OW 3707   0.916   0.910   9.601
 1228SOL    HW1 3708   0.979   0.948   9.533
 1228SOL    HW2 3709   0.956   0.827   9.640
 1229SOL     OW 3710   1.504   1.607   9.354
 1229SOL    HW1 3711   1.412   1.644   9.361
 1229SOL    HW2 3712   1.542   1.627   9.264
 1230SOL     OW 3713   0.372   1.288  10.800
 1230SOL    HW1 3714   0.359   1.381  10.766
 1230SOL    HW2 3715   0.288   1.236  10.787
 1231SOL     OW 3716   1.614   1.292  10.599
 1231SOL    HW1 3717   1.674   1.295  10.679
 1231SOL    HW2 3718   1.539   1.356  10.612
 1232SOL     OW 3719   1.039   1.098  10.006
 1232SOL    HW1 3720   0.969   1.051  10.060
 1232SOL    HW2 3721   1.098   1.030   9.963
 1233SOL     OW 3722   1.014   0.236  10.281
 1233SOL    HW1 3723   1.006   0.200  10.188
 1233SOL    HW2 3724   1.012   0.160  10.346
 1234SOL     OW 3725   0.590   1.487   9.801
 1234SOL    HW1 3726   0.632   1.429   9.731
 1234SOL    HW2 3727   0.546   1.566   9.757
 1235SOL     OW 3728   1.709   0.385  10.691
 1235SOL    HW1 3729   1.782   0.454  10.695
 1235SOL    HW2 3730   1.737   0.310  10.632
 1236SOL     OW 3731   0.255   1.348   9.600
 1236SOL    HW1 3732   0.159   1.349   9.573
 1236SOL    HW2 3733   0.267   1.401   9.684
 1237SOL     OW 3734   0.105   1.013  11.036
 1237SOL    HW1 3735   0.028   0.980  11.090
 1237SOL    HW2 3736   0.190   0.983  11.078
 1238SOL     OW 3737   0.672   0.203  10.799
 1238SOL    HW1 3738   0.762   0.187  10.759
 1238SOL    HW2 3739   0.680   0.208  10.898
 1239SOL     OW 3740   0.075   0.345   9.343
 1239SOL    HW1 3741  -0.017   0.317   9.314
 1239SOL    HW2 3742   0.106   0.422   9.287
 1240SOL     OW 3743   1.440   0.856  10.708
 1240SOL    HW1 3744   1.383   0.908  10.645
 1240SOL    HW2 3745   1.536   0.868  10.684
 1241SOL     OW 3746   0.072   0.166   9.628
 1241SOL    HW1 3747   0.055   0.249   9.574
 1241SOL    HW2 3748   0.162   0.129   9.606
 1242SOL     OW 3749   1.183   1.335   9.429
 1242SOL    HW1 3750   1.084   1.324   9.431
 1242SOL    HW2 3751   1.217   1.350   9.522
 1243SOL     OW 3752   0.613   0.842  10.741
 1243SOL    HW1 3753   0.669   0.923  10.724
 1243SOL    HW2 3754   0.672   0.762  10.744
 1244SOL     OW 3755   1.493   1.767  10.269
 1244SOL    HW1 3756   1.526   1.831  10.200
 1244SOL    HW2 3757   1.559   1.761  10.344
 1245SOL     OW 3758   0.716   0.565  11.018
 1245SOL    HW1 3759   0.735   0.630  11.092
 1245SOL    HW2 3760   0.776   0.485  11.027
 1246SOL     OW 3761   1.450   1.220  10.943
 1246SOL    HW1 3762   1.441   1.210  11.042
 1246SOL    HW2 3763   1.546   1.213  10.917
 1247SOL     OW 3764   0.390   1.741  10.870
 1247SOL    HW1 3765   0.299   1.782  10.868
 1247SOL    HW2 3766   0.383   1.647  10.902
 1248SOL     OW 3767   1.674   0.883  10.564
 1248SOL    HW1 3768   1.647   0.794  10.527
 1248SOL    HW2 3769   1.675   0.951  10.491
 1249SOL     OW 3770   1.225   0.325   9.759
 1249SOL    HW1 3771   1.290   0.251   9.748
 1249SOL    HW2 3772   1.245   0.375   9.843
 1250SOL     OW 3773   0.594   0.745   9.962
 1250SOL    HW1 3774   0.644   0.830   9.943
 1250SOL    HW2 3775   0.506   0.747   9.914
 1251SOL     OW 3776   1.777   0.342  10.952
 1251SOL    HW1 3777   1.760   0.373  10.858
 1251SOL    HW2 3778   1.693   0.305  10.990
 1252SOL     OW 3779   1.730   0.934  10.827
 1252SOL    HW1 3780   1.768   1.025  10.842
 1252SOL    HW2 3781   1.722   0.917  10.728
 1253SOL     OW 3782   0.859   1.374   9.326
 1253SOL    HW1 3783   0.813   1.389   9.414
 1253SOL    HW2 3784   0.903   1.459   9.296
 1254SOL     OW 3785   0.661   1.790  10.263
 1254SOL    HW1 3786   0.615   1.878  10.250
 1254SOL    HW2 3787   0.760   1.802  10.256
 1255SOL     OW 3788   0.859   0.956  10.171
 1255SOL    HW1 3789   0.913   0.887  10.219
 1255SOL    HW2 3790   0.827   1.025  10.237
 1256SOL     OW 3791   1.083   0.984   9.397
 1256SOL    HW1 3792   1.060   1.037   9.315
 1256SOL    HW2 3793   1.164   0.928   9.378
 1257SOL     OW 3794   1.861   1.569  10.161
 1257SOL    HW1 3795   1.790   1.557  10.091
 1257SOL    HW2 3796   1.862   1.490  10.221
 1258SOL     OW 3797   0.221   1.314  11.154
 1258SOL    HW1 3798   0.156   1.241  11.133
 1258SOL    HW2 3799   0.225   1.328  11.252
 1259SOL     OW 3800   0.079   1.240   9.963
 1259SOL    HW1 3801   0.078   1.193  10.051
 1259SOL    HW2 3802   0.161   1.212   9.912
 1260SOL     OW 3803   0.672   1.391  10.934
 1260SOL    HW1 3804   0.594   1.341  10.972
 1260SOL    HW2 3805   0.669   1.486  10.965
 1261SOL     OW 3806   1.824   0.192  10.537
 1261SOL    HW1 3807   1.820   0.102  10.581
 1261SOL    HW2 3808   1.827   0.181  10.438
 1262SOL     OW 3809   0.428   0.424   9.830
 1262SOL    HW1 3810   0.458   0.352   9.768
 1262SOL    HW2 3811   0.389   0.384   9.913
 1263SOL     OW 3812   1.705   1.487  10.414
 1263SOL    HW1 3813   1.612   1.462  10.387
 1263SOL    HW2 3814   1.731   1.437  10.496
 1264SOL     OW 3815   0.317   0.547  10.590
 1264SOL    HW1 3816   0.355   0.488  10.662
 1264SOL    HW2 3817   0.357   0.521  10.502
 1265SOL     OW 3818   0.812   1.586   9.997
 1265SOL    HW1 3819   0.844   1.596   9.903
 1265SOL    HW2 3820   0.733   1.524   9.999
 1266SOL     OW 3821   1.424   0.214  10.422
 1266SOL    HW1 3822   1.476   0.149  10.477
 1266SOL    HW2 3823   1.375   0.277  10.483
 1267SOL     OW 3824   1.001   0.034  10.464
 1267SOL    HW1 3825   0.938  -0.038  10.433
 1267SOL    HW2 3826   1.094  -0.002  10.464
 1268SOL     OW 3827   0.770   1.330   9.611
 1268SOL    HW1 3828   0.724   1.243   9.628
 1268SOL    HW2 3829   0.861   1.327   9.652
 1269SOL     OW 3830   0.618   1.567  10.594
 1269SOL    HW1 3831   0.613   1.649  10.651
 1269SOL    HW2 3832   0.707   1.564  10.549
 1270SOL     OW 3833   1.352   0.052   9.478
 1270SOL    HW1 3834   1.387   0.011   9.394
 1270SOL    HW2 3835   1.262   0.014   9.498
 1271SOL     OW 3836   1.300   0.453  10.001
 1271SOL    HW1 3837   1.241   0.533  10.005
 1271SOL    HW2 3838   1.315   0.418  10.094
 1272SOL     OW 3839   1.593   0.221  10.192
 1272SOL    HW1 3840   1.509   0.220  10.246
 1272SOL    HW2 3841   1.595   0.304  10.136
 1273SOL     OW 3842   0.039   1.077   9.610
 1273SOL    HW1 3843   0.138   1.066   9.601
 1273SOL    HW2 3844  -0.001   0.991   9.642
 1274SOL     OW 3845   0.875   1.646   9.647
 1274SOL    HW1 3846   0.798   1.611   9.593
 1274SOL    HW2 3847   0.843   1.717   9.709
 1275SOL     OW 3848   0.230   0.628  11.285
 1275SOL    HW1 3849   0.137   0.626  11.322
 1275SOL    HW2 3850   0.231   0.589  11.193
 1276SOL     OW 3851   0.225   0.275  12.168
 1276SOL    HW1 3852   0.260   0.258  12.260
 1276SOL    HW2 3853   0.137   0.230  12.156
 1277SOL     OW 3854   0.019   0.368  11.819
 1277SOL    HW1 3855  -0.063   0.411  11.858
 1277SOL    HW2 3856  -0.009   0.295  11.756
 1278SOL     OW 3857   0.569   1.275  12.337
 1278SOL    HW1 3858   0.476   1.268  12.300
 1278SOL    HW2 3859   0.580   1.364  12.381
 1279SOL     OW 3860   1.555   1.511  11.875
 1279SOL    HW1 3861   1.498   1.495  11.956
 1279SOL    HW2 3862   1.496   1.521  11.795
 1280SOL     OW 3863   1.135   0.703  11.889
 1280SOL    HW1 3864   1.192   0.781  11.864
 1280SOL    HW2 3865   1.075   0.729  11.965
 1281SOL     OW 3866   1.755   0.607  11.403
 1281SOL    HW1 3867   1.743   0.594  11.304
 1281SOL    HW2 3868   1.725   0.526  11.452
 1282SOL     OW 3869   0.768   1.144  12.195
 1282SOL    HW1 3870   0.690   1.161  12.255
 1282SOL    HW2 3871   0.802   1.231  12.159
 1283SOL     OW 3872   0.685   1.012  11.837
 1283SOL    HW1 3873   0.754   0.996  11.907
 1283SOL    HW2 3874   0.612   1.069  11.875
 1284SOL     OW 3875   0.335   1.435  12.233
 1284SOL    HW1 3876   0.257   1.404  12.180
 1284SOL    HW2 3877   0.393   1.493  12.176
 1285SOL     OW 3878   1.460   1.505  12.511
 1285SOL    HW1 3879   1.484   1.599  12.537
 1285SOL    HW2 3880   1.444   1.451  12.593
 1286SOL     OW 3881   0.438   0.392  12.671
 1286SOL    HW1 3882   0.520   0.336  12.680
 1286SOL    HW2 3883   0.357   0.334  12.675
 1287SOL     OW 3884   1.603   0.447  11.909
 1287SOL    HW1 3885   1.529   0.493  11.859
 1287SOL    HW2 3886   1.654   0.515  11.962
 1288SOL     OW 3887   0.231   1.713  11.655
 1288SOL    HW1 3888   0.265   1.790  11.709
 1288SOL    HW2 3889   0.275   1.713  11.565
 1289SOL     OW 3890   0.230   1.434  11.710
 1289SOL    HW1 3891   0.204   1.530  11.710
 1289SOL    HW2 3892   0.159   1.380  11.755
 1290SOL     OW 3893   0.240   1.091  12.058
 1290SOL    HW1 3894   0.254   1.007  12.110
 1290SOL    HW2 3895   0.185   1.155  12.113
 1291SOL     OW 3896   0.620   1.786  12.611
 1291SOL    HW1 3897   0.528   1.769  12.646
 1291SOL    HW2 3898   0.648   1.878  12.637
 1292SOL     OW 3899   0.606   0.964  11.295
 1292SOL    HW1 3900   0.613   1.048  11.241
 1292SOL    HW2 3901   0.652   0.977  11.383
 1293SOL     OW 3902   1.594   0.114  12.652
 1293SOL    HW1 3903   1.576   0.181  12.580
 1293SOL    HW2 3904   1.591   0.160  12.741
 1294SOL     OW 3905   0.122   0.643  11.735
 1294SOL    HW1 3906   0.077   0.555  11.752
 1294SOL    HW2 3907   0.121   0.697  11.819
 1295SOL     OW 3908   1.842   1.767  11.531
 1295SOL    HW1 3909   1.896   1.738  11.611
 1295SOL    HW2 3910   1.872   1.857  11.502
 1296SOL     OW 3911   0.027   1.596  11.289
 1296SOL    HW1 3912   0.008   1.500  11.310
 1296SOL    HW2 3913  -0.006   1.654  11.364
 1297SOL     OW 3914   1.689   0.922  11.784
 1297SOL    HW1 3915   1.784   0.893  11.792
 1297SOL    HW2 3916   1.681   0.987  11.709
 1298SOL     OW 3917   1.641   1.108  11.604
 1298SOL    HW1 3918   1.727   1.110  11.552
 1298SOL    HW2 3919   1.655   1.155  11.692
 1299SOL     OW 3920   0.113   0.737  12.769
 1299SOL    HW1 3921   0.201   0.724  12.814
 1299SOL    HW2 3922   0.100   0.834  12.747
 1300SOL     OW 3923   0.613   1.365  11.898
 1300SOL    HW1 3924   0.564   1.278  11.907
 1300SOL    HW2 3925   0.590   1.408  11.811
 1301SOL     OW 3926   1.293   1.228  12.595
 1301SOL    HW1 3927   1.330   1.155  12.537
 1301SOL    HW2 3928   1.345   1.233  12.680
 1302SOL     OW 3929   0.809   0.004  11.674
 1302SOL    HW1 3930   0.849   0.095  11.665
 1302SOL    HW2 3931   0.709   0.012  11.680
 1303SOL     OW 3932   0.197   0.976  12.436
 1303SOL    HW1 3933   0.286   0.931  12.422
 1303SOL    HW2 3934   0.124   0.911  12.417
 1304SOL     OW 3935   1.525   0.999  11.362
 1304SOL    HW1 3936   1.462   0.923  11.375
 1304SOL    HW2 3937   1.573   1.017  11.448
 1305SOL     OW 3938   1.466   1.417  12.125
 1305SOL    HW1 3939   1.407   1.423  12.205
 1305SOL    HW2 3940   1.451   1.329  12.079
 1306SOL     OW 3941   1.667   1.714  11.744
 1306SOL    HW1 3942   1.626   1.691  11.656
 1306SOL    HW2 3943   1.649   1.640  11.809
 1307SOL     OW 3944   0.598   0.729  11.442
 1307SOL    HW1 3945   0.622   0.798  11.374
 1307SOL    HW2 3946   0.520   0.762  11.496
 1308SOL     OW 3947   1.281   0.345  12.116
 1308SOL    HW1 3948   1.195   0.295  12.103
 1308SOL    HW2 3949   1.343   0.291  12.172
 1309SOL     OW 3950   1.576   1.662  11.479
 1309SOL    HW1 3951   1.665   1.708  11.482
 1309SOL    HW2 3952   1.555   1.638  11.384
 1310SOL     OW 3953   0.807   0.605  12.637
 1310SOL    HW1 3954   0.760   0.602  12.726
 1310SOL    HW2 3955   0.756   0.550  12.571
 1311SOL     OW 3956   0.973   0.890  12.744
 1311SOL    HW1 3957   1.019   0.806  12.715
 1311SOL    HW2 3958   0.917   0.924  12.669
 1312SOL     OW 3959   0.991   0.410  12.414
 1312SOL    HW1 3960   0.914   0.444  12.468
 1312SOL    HW2 3961   0.957   0.359  12.335
 1313SOL     OW 3962   1.041   0.701  11.601
 1313SOL    HW1 3963   1.067   0.697  11.697
 1313SOL    HW2 3964   0.956   0.650  11.587
 1314SOL     OW 3965   0.076   0.811  11.961
 1314SOL    HW1 3966   0.175   0.799  11.970
 1314SOL    HW2 3967   0.052   0.906  11.982
 1315SOL     OW 3968   0.130   1.821  12.743
 1315SOL    HW1 3969   0.120   1.806  12.842
 1315SOL    HW2 3970   0.044   1.857  12.707
 1316SOL     OW 3971   0.865   0.348  11.367
 1316SOL    HW1 3972   0.924   0.411  11.318
 1316SOL    HW2 3973   0.884   0.254  11.338
 1317SOL     OW 3974   1.362   1.144  11.717
 1317SOL    HW1 3975   1.445   1.115  11.669
 1317SOL    HW2 3976   1.313   1.211  11.661
 1318SOL     OW 3977   0.550   0.196  12.057
 1318SOL    HW1 3978   0.545   0.191  12.157
 1318SOL    HW2 3979   0.552   0.292  12.028
 1319SOL     OW 3980   1.008   1.456  11.649
 1319SOL    HW1 3981   0.962   1.528  11.597
 1319SOL    HW2 3982   1.004   1.476  11.747
 1320SOL     OW 3983   0.351   1.801  12.025
 1320SOL    HW1 3984   0.401   1.715  12.031
 1320SOL    HW2 3985   0.416   1.878  12.022
 1321SOL     OW 3986   1.795   1.066  12.045
 1321SOL    HW1 3987   1.733   1.051  11.969
 1321SOL    HW2 3988   1.743   1.077  12.130
 1322SOL     OW 3989   1.227   1.550  12.678
 1322SOL    HW1 3990   1.233   1.473  12.742
 1322SOL    HW2 3991   1.175   1.524  12.598
 1323SOL     OW 3992   0.321   0.943  11.414
 1323SOL    HW1 3993   0.403   0.982  11.372
 1323SOL    HW2 3994   0.294   0.861  11.365
 1324SOL     OW 3995   1.458   0.735  11.900
 1324SOL    HW1 3996   1.453   0.670  11.975
 1324SOL    HW2 3997   1.538   0.794  11.913
 1325SOL     OW 3998   1.111   1.776  11.409
 1325SOL    HW1 3999   1.051   1.714  11.459
 1325SOL    HW2 4000   1.142   1.732  11.324
 1326SOL     OW 4001   0.202   0.285  12.670
 1326SOL    HW1 4002   0.122   0.345  12.657
 1326SOL    HW2 4003   0.192   0.236  12.756
 1327SOL     OW 4004   1.632   1.377  11.253
 1327SOL    HW1 4005   1.600   1.471  11.243
 1327SOL    HW2 4006   1.556   1.314  11.241
 1328SOL     OW 4007   0.464   1.743  11.495
 1328SOL    HW1 4008   0.497   1.782  11.581
 1328SOL    HW2 4009   0.540   1.736  11.430
 1329SOL     OW 4010   1.400   0.107  11.598
 1329SOL    HW1 4011   1.376   0.070  11.508
 1329SOL    HW2 4012   1.499   0.123  11.602
 1330SOL     OW 4013   0.249   1.785  12.413
 1330SOL    HW1 4014   0.306   1.720  12.463
 1330SOL    HW2 4015   0.233   1.752  12.320
 1331SOL     OW 4016   0.940   1.698  12.076
 1331SOL    HW1 4017   1.020   1.641  12.097
 1331SOL    HW2 4018   0.891   1.658  11.999
 1332SOL     OW 4019   0.382   0.700  11.652
 1332SOL    HW1 4020   0.427   0.610  11.649
 1332SOL    HW2 4021   0.288   0.689  11.685
 1333SOL     OW 4022   0.614   0.122  11.289
 1333SOL    HW1 4023   0.712   0.100  11.296
 1333SOL    HW2 4024   0.583   0.105  11.196
 1334SOL     OW 4025   0.888   1.514  12.367
 1334SOL    HW1 4026   0.865   1.489  12.273
 1334SOL    HW2 4027   0.949   1.445  12.406
 1335SOL     OW 4028   1.351   0.590  12.605
 1335SOL    HW1 4029   1.379   0.547  12.690
 1335SOL    HW2 4030   1.376   0.686  12.606
 1336SOL     OW 4031   0.803   1.402  12.096
 1336SOL    HW1 4032   0.893   1.416  12.054
 1336SOL    HW2 4033   0.732   1.404  12.025
 1337SOL     OW 4034   0.922   0.503  12.071
 1337SOL    HW1 4035   0.897   0.494  11.975
 1337SOL    HW2 4036   0.970   0.421  12.102
 1338SOL     OW 4037   0.539   0.064  11.684
 1338SOL    HW1 4038   0.458   0.065  11.742
 1338SOL    HW2 4039   0.542   0.147  11.629
 1339SOL     OW 4040   1.434   1.188  11.213
 1339SOL    HW1 4041   1.466   1.112  11.270
 1339SOL    HW2 4042   1.342   1.215  11.243
 1340SOL     OW 4043   0.297   0.035  11.343
 1340SOL    HW1 4044   0.346   0.119  11.322
 1340SOL    HW2 4045   0.359  -0.030  11.388
 1341SOL     OW 4046   0.935   0.236  11.652
 1341SOL    HW1 4047   0.887   0.277  11.574
 1341SOL    HW2 4048   1.034   0.234  11.633
 1342SOL     OW 4049   1.076   0.683  12.636
 1342SOL    HW1 4050   0.996   0.622  12.639
 1342SOL    HW2 4051   1.157   0.630  12.612
 1343SOL     OW 4052   1.227   1.570  11.965
 1343SOL    HW1 4053   1.248   1.644  11.900
 1343SOL    HW2 4054   1.295   1.570  12.038
 1344SOL     OW 4055   0.459   1.152  11.913
 1344SOL    HW1 4056   0.388   1.125  11.978
 1344SOL    HW2 4057   0.433   1.124  11.820
 1345SOL     OW 4058   1.271   1.797  11.763
 1345SOL    HW1 4059   1.315   1.861  11.699
 1345SOL    HW2 4060   1.221   1.849  11.833
 1346SOL     OW 4061   1.032   0.549  11.188
 1346SOL    HW1 4062   0.991   0.631  11.149
 1346SOL    HW2 4063   1.096   0.575  11.261
 1347SOL     OW 4064   0.078   0.556  12.558
 1347SOL    HW1 4065   0.170   0.555  12.517
 1347SOL    HW2 4066   0.072   0.630  12.625
 1348SOL     OW 4067   0.561   0.222  12.319
 1348SOL    HW1 4068   0.599   0.138  12.356
 1348SOL    HW2 4069   0.473   0.241  12.363
 1349SOL     OW 4070   0.866   0.454  11.814
 1349SOL    HW1 4071   0.834   0.526  11.752
 1349SOL    HW2 4072   0.890   0.373  11.761
 1350SOL     OW 4073   1.017   0.039  11.925
 1350SOL    HW1 4074   0.945   0.044  11.856
 1350SOL    HW2 4075   0.993  -0.030  11.994
 1351SOL     OW 4076   1.429   1.173  12.039
 1351SOL    HW1 4077   1.374   1.089  12.032
 1351SOL    HW2 4078   1.455   1.202  11.947
 1352SOL     OW 4079   1.466   0.590  12.164
 1352SOL    HW1 4080   1.436   0.495  12.171
 1352SOL    HW2 4081   1.539   0.606  12.230
 1353SOL     OW 4082   1.857   0.833  11.549
 1353SOL    HW1 4083   1.899   0.769  11.613
 1353SOL    HW2 4084   1.819   0.782  11.471
 1354SOL     OW 4085   0.488   1.385  11.346
 1354SOL    HW1 4086   0.401   1.370  11.393
 1354SOL    HW2 4087   0.471   1.411  11.251
 1355SOL     OW 4088   1.664   1.280  11.829
 1355SOL    HW1 4089   1.763   1.288  11.843
 1355SOL    HW2 4090   1.619   1.364  11.860
 1356SOL     OW 4091   1.390   0.575  11.250
 1356SOL    HW1 4092   1.336   0.554  11.331
 1356SOL    HW2 4093   1.481   0.534  11.259
 1357SOL     OW 4094   0.527   0.256  11.500
 1357SOL    HW1 4095   0.554   0.197  11.425
 1357SOL    HW2 4096   0.527   0.351  11.469
 1358SOL     OW 4097   1.754   1.223  12.760
 1358SOL    HW1 4098   1.845   1.184  12.747
 1358SOL    HW2 4099   1.762   1.319  12.784
 1359SOL     OW 4100   1.064   1.347  12.512
 1359SOL    HW1 4101   0.984   1.324  12.567
 1359SOL    HW2 4102   1.147   1.321  12.561
 1360SOL     OW 4103   1.111   1.195  12.272
 1360SOL    HW1 4104   1.071   1.239  12.353
 1360SOL    HW2 4105   1.070   1.232  12.189
 1361SOL     OW 4106   1.638   1.099  12.251
 1361SOL    HW1 4107   1.643   1.180  12.310
 1361SOL    HW2 4108   1.552   1.101  12.200
 1362SOL     OW 4109   0.915   0.089  12.574
 1362SOL    HW1 4110   0.940   0.069  12.479
 1362SOL    HW2 4111   0.987   0.145  12.616
 1363SOL     OW 4112   0.705   1.050  11.540
 1363SOL    HW1 4113   0.691   1.057  11.639
 1363SOL    HW2 4114   0.789   0.999  11.522
 1364SOL     OW 4115   0.410   0.813  12.423
 1364SOL    HW1 4116   0.496   0.825  12.473
 1364SOL    HW2 4117   0.368   0.726  12.450
 1365SOL     OW 4118   1.274   0.386  12.434
 1365SOL    HW1 4119   1.295   0.460  12.498
 1365SOL    HW2 4120   1.185   0.403  12.391
 1366SOL     OW 4121   0.064   1.564  12.503
 1366SOL    HW1 4122   0.018   1.646  12.469
 1366SOL    HW2 4123   0.162   1.583  12.512
 1367SOL     OW 4124   0.367   1.100  11.673
 1367SOL    HW1 4125   0.360   1.183  11.617
 1367SOL    HW2 4126   0.371   1.020  11.613
 1368SOL     OW 4127   0.566   0.537  12.037
 1368SOL    HW1 4128   0.578   0.603  11.963
 1368SOL    HW2 4129   0.612   0.571  12.120
 1369SOL     OW 4130   1.252   1.348  11.560
 1369SOL    HW1 4131   1.302   1.425  11.600
 1369SOL    HW2 4132   1.157   1.350  11.592
 1370SOL     OW 4133   1.272   1.445  12.314
 1370SOL    HW1 4134   1.319   1.458  12.401
 1370SOL    HW2 4135   1.206   1.371  12.323
 1371SOL     OW 4136   1.582   0.639  11.644
 1371SOL    HW1 4137   1.551   0.700  11.717
 1371SOL    HW2 4138   1.632   0.691  11.575
 1372SOL     OW 4139   0.354   1.510  12.501
 1372SOL    HW1 4140   0.333   1.466  12.414
 1372SOL    HW2 4141   0.451   1.536  12.504
 1373SOL     OW 4142   0.402   0.751  12.770
 1373SOL    HW1 4143   0.470   0.806  12.723
 1373SOL    HW2 4144   0.442   0.663  12.797
 1374SOL     OW 4145   1.587   0.779  12.842
 1374SOL    HW1 4146   1.495   0.817  12.837
 1374SOL    HW2 4147   1.647   0.826  12.777
 1375SOL     OW 4148   0.573   0.870  12.201
 1375SOL    HW1 4149   0.617   0.959  12.192
 1375SOL    HW2 4150   0.510   0.870  12.278
 1376SOL     OW 4151   1.360   0.862  12.217
 1376SOL    HW1 4152   1.285   0.862  12.151
 1376SOL    HW2 4153   1.397   0.770  12.226
 1377SOL     OW 4154   1.209   0.525  11.447
 1377SOL    HW1 4155   1.222   0.441  11.501
 1377SOL    HW2 4156   1.180   0.599  11.507
 1378SOL     OW 4157   0.307   0.213  12.403
 1378SOL    HW1 4158   0.284   0.250  12.493
 1378SOL    HW2 4159   0.277   0.118  12.397
 1379SOL     OW 4160   0.037   1.310  12.454
 1379SOL    HW1 4161   0.090   1.261  12.522
 1379SOL    HW2 4162   0.059   1.408  12.459
 1380SOL     OW 4163   0.732   0.634  12.236
 1380SOL    HW1 4164   0.791   0.608  12.160
 1380SOL    HW2 4165   0.704   0.730  12.225
 1381SOL     OW 4166   0.307   0.063  11.790
 1381SOL    HW1 4167   0.296   0.157  11.823
 1381SOL    HW2 4168   0.302   0.000  11.867
 1382SOL     OW 4169   1.622   0.367  11.546
 1382SOL    HW1 4170   1.624   0.291  11.610
 1382SOL    HW2 4171   1.574   0.444  11.586
 1383SOL     OW 4172   1.023   0.766  12.138
 1383SOL    HW1 4173   1.038   0.787  12.234
 1383SOL    HW2 4174   0.993   0.671  12.129
 1384SOL     OW 4175   1.540   0.274  11.297
 1384SOL    HW1 4176   1.479   0.199  11.320
 1384SOL    HW2 4177   1.562   0.326  11.380
 1385SOL     OW 4178   1.303   0.838  11.214
 1385SOL    HW1 4179   1.337   0.745  11.229
 1385SOL    HW2 4180   1.321   0.865  11.119
 1386SOL     OW 4181   1.068   1.333  12.021
 1386SOL    HW1 4182   1.075   1.249  11.966
 1386SOL    HW2 4183   1.130   1.402  11.985
 1387SOL     OW 4184   0.319   0.810  12.121
 1387SOL    HW1 4185   0.412   0.846  12.126
 1387SOL    HW2 4186   0.313   0.725  12.173
 1388SOL     OW 4187   0.339   0.509  12.178
 1388SOL    HW1 4188   0.287   0.426  12.161
 1388SOL    HW2 4189   0.416   0.514  12.114
 1389SOL     OW 4190   1.160   0.207  12.649
 1389SOL    HW1 4191   1.160   0.271  12.726
 1389SOL    HW2 4192   1.188   0.255  12.566
 1390SOL     OW 4193   0.008   1.326  11.372
 1390SOL    HW1 4194  -0.085   1.347  11.341
 1390SOL    HW2 4195   0.018   1.227  11.385
 1391SOL     OW 4196   0.088   1.801  12.099
 1391SOL    HW1 4197   0.046   1.715  12.072
 1391SOL    HW2 4198   0.182   1.804  12.065
 1392SOL     OW 4199   0.504   1.568  12.082
 1392SOL    HW1 4200   0.570   1.642  12.091
 1392SOL    HW2 4201   0.548   1.489  12.040
 1393SOL     OW 4202   1.002   0.796  12.410
 1393SOL    HW1 4203   1.043   0.764  12.496
 1393SOL    HW2 4204   0.906   0.769  12.407
 1394SOL     OW 4205   0.040   0.544  12.286
 1394SOL    HW1 4206   0.125   0.511  12.245
 1394SOL    HW2 4207   0.053   0.559  12.384
 1395SOL     OW 4208   0.815   0.572  11.497
 1395SOL    HW1 4209   0.822   0.483  11.451
 1395SOL    HW2 4210   0.721   0.606  11.489
 1396SOL     OW 4211   1.657   0.604  12.378
 1396SOL    HW1 4212   1.619   0.535  12.440
 1396SOL    HW2 4213   1.739   0.568  12.334
 1397SOL     OW 4214   0.252   1.564  12.916
 1397SOL    HW1 4215   0.222   1.621  12.992
 1397SOL    HW2 4216   0.245   1.467  12.942
 1398SOL     OW 4217   0.671   0.464  12.441
 1398SOL    HW1 4218   0.637   0.375  12.411
 1398SOL    HW2 4219   0.697   0.518  12.361
 1399SOL     OW 4220   0.930   1.678  12.637
 1399SOL    HW1 4221   0.906   1.660  12.542
 1399SOL    HW2 4222   0.960   1.772  12.647
 1400SOL     OW 4223   0.473   0.500  11.363
 1400SOL    HW1 4224   0.534   0.580  11.367
 1400SOL    HW2 4225   0.378   0.531  11.370
 1401SOL     OW 4226   0.159   1.137  12.638
 1401SOL    HW1 4227   0.181   1.076  12.714
 1401SOL    HW2 4228   0.169   1.088  12.552
 1402SOL     OW 4229   1.347   1.059  12.406
 1402SOL    HW1 4230   1.371   0.996  12.332
 1402SOL    HW2 4231   1.257   1.099  12.388
 1403SOL     OW 4232   1.302   0.855  11.481
 1403SOL    HW1 4233   1.216   0.824  11.523
 1403SOL    HW2 4234   1.298   0.841  11.382
 1404SOL     OW 4235   1.759   1.747  12.326
 1404SOL    HW1 4236   1.820   1.777  12.253
 1404SOL    HW2 4237   1.721   1.658  12.304
 1405SOL     OW 4238   1.252   1.731  12.300
 1405SOL    HW1 4239   1.336   1.736  12.246
 1405SOL    HW2 4240   1.229   1.635  12.318
 1406SOL     OW 4241   0.083   1.258  12.194
 1406SOL    HW1 4242   0.078   1.257  12.294
 1406SOL    HW2 4243   0.000   1.217  12.156
 1407SOL     OW 4244   1.726   0.135  11.695
 1407SOL    HW1 4245   1.799   0.118  11.628
 1407SOL    HW2 4246   1.695   0.048  11.733
 1408SOL     OW 4247   1.388   1.573  11.649
 1408SOL    HW1 4248   1.455   1.585  11.575
 1408SOL    HW2 4249   1.348   1.662  11.672
 1409SOL     OW 4250   1.280   0.927  11.844
 1409SOL    HW1 4251   1.340   0.846  11.846
 1409SOL    HW2 4252   1.320   0.996  11.784
 1410SOL     OW 4253   0.830   1.273  12.594
 1410SOL    HW1 4254   0.825   1.306  12.689
 1410SOL    HW2 4255   0.744   1.292  12.548
 1411SOL     OW 4256   0.672   1.616  11.326
 1411SOL    HW1 4257   0.681   1.626  11.227
 1411SOL    HW2 4258   0.632   1.527  11.347
 1412SOL     OW 4259   1.650   1.720  12.566
 1412SOL    HW1 4260   1.703   1.730  12.482
 1412SOL    HW2 4261   1.623   1.810  12.600
 1413SOL     OW 4262   1.841   0.175  12.135
 1413SOL    HW1 4263   1.880   0.090  12.099
 1413SOL    HW2 4264   1.743   0.177  12.116
 1414SOL     OW 4265   0.263   0.326  11.892
 1414SOL    HW1 4266   0.184   0.377  11.858
 1414SOL    HW2 4267   0.254   0.311  11.990
 1415SOL     OW 4268   1.194   1.612  11.203
 1415SOL    HW1 4269   1.200   1.519  11.240
 1415SOL    HW2 4270   1.135   1.612  11.123
 1416SOL     OW 4271   0.822   1.002  12.544
 1416SOL    HW1 4272   0.862   1.001  12.452
 1416SOL    HW2 4273   0.832   1.094  12.584
 1417SOL     OW 4274   0.916   0.910  11.463
 1417SOL    HW1 4275   0.979   0.948  11.395
 1417SOL    HW2 4276   0.956   0.827  11.502
 1418SOL     OW 4277   1.504   1.607  11.216
 1418SOL    HW1 4278   1.412   1.644  11.223
 1418SOL    HW2 4279   1.542   1.627  11.126
 1419SOL     OW 4280   0.372   1.288  12.662
 1419SOL    HW1 4281   0.359   1.381  12.628
 1419SOL    HW2 4282   0.288   1.236  12.649
 1420SOL     OW 4283   1.614   1.292  12.461
 1420SOL    HW1 4284   1.674   1.295  12.541
 1420SOL    HW2 4285   1.539   1.356  12.474
 1421SOL     OW 4286   1.039   1.098  11.868
 1421SOL    HW1 4287   0.969   1.051  11.922
 1421SOL    HW2 4288   1.098   1.030  11.825
 1422SOL     OW 4289   1.014   0.236  12.143
 1422SOL    HW1 4290   1.006   0.200  12.050
 1422SOL    HW2 4291   1.012   0.160  12.208
 1423SOL     OW 4292   0.590   1.487  11.663
 1423SOL    HW1 4293   0.632   1.429  11.593
 1423SOL    HW2 4294   0.546   1.566  11.619
 1424SOL     OW 4295   1.709   0.385  12.553
 1424SOL    HW1 4296   1.782   0.454  12.557
 1424SOL    HW2 4297   1.737   0.310  12.494
 1425SOL     OW 4298   0.255   1.348  11.462
 1425SOL    HW1 4299   0.159   1.349  11.435
 1425SOL    HW2 4300   0.267   1.401  11.546
 1426SOL     OW 4301   0.105   1.013  12.898
 1426SOL    HW1 4302   0.028   0.980  12.952
 1426SOL    HW2 4303   0.190   0.983  12.940
 1427SOL     OW 4304   0.672   0.203  12.661
 1427SOL    HW1 4305   0.762   0.187  12.621
 1427SOL    HW2 4306   0.680   0.208  12.760
 1428SOL     OW 4307   0.075   0.345  11.205
 1428SOL    HW1 4308  -0.017   0.317  11.176
 1428SOL    HW2 4309   0.106   0.422  11.149
 1429SOL     OW 4310   1.440   0.856  12.570
 1429SOL    HW1 4311   1.383   0.908  12.507
 1429SOL    HW2 4312   1.536   0.868  12.546
 1430SOL     OW 4313   0.072   0.166  11.490
 1430SOL    HW1 4314   0.055   0.249  11.436
 1430SOL    HW2 4315   0.162   0.129  11.468
 1431SOL     OW 4316   1.183   1.335  11.291
 1431SOL    HW1 4317   1.084   1.324  11.293
 1431SOL    HW2 4318   1.217   1.350  11.384
 1432SOL     OW 4319   0.613   0.842  12.603
 1432SOL    HW1 4320   0.669   0.923  12.586
 1432SOL    HW2 4321   0.672   0.762  12.606
 1433SOL     OW 4322   1.493   1.767  12.131
 1433SOL    HW1 4323   1.526   1.831  12.062
 1433SOL    HW2 4324   1.559   1.761  12.206
 1434SOL     OW 4325   0.716   0.565  12.880
 1434SOL    HW1 4326   0.735   0.630  12.954
 1434SOL    HW2 4327   0.776   0.485  12.889
 1435SOL     OW 4328   0.390   1.741  12.732
 1435SOL    HW1 4329   0.299   1.782  12.730
 1435SOL    HW2 4330   0.383   1.647  12.764
 1436SOL     OW 4331   1.674   0.883  12.426
 1436SOL    HW1 4332   1.647   0.794  12.389
 1436SOL    HW2 4333   1.675   0.951  12.353
 1437SOL     OW 4334   1.225   0.325  11.621
 1437SOL    HW1 4335   1.290   0.251  11.610
 1437SOL    HW2 4336   1.245   0.375  11.705
 1438SOL     OW 4337   0.594   0.745  11.824
 1438SOL    HW1 4338   0.644   0.830  11.805
 1438SOL    HW2 4339   0.506   0.747  11.776
 1439SOL     OW 4340   1.777   0.342  12.814
 1439SOL    HW1 4341   1.760   0.373  12.720
 1439SOL    HW2 4342   1.693   0.305  12.852
 1440SOL     OW 4343   1.730   0.934  12.689
 1440SOL    HW1 4344   1.768   1.025  12.704
 1440SOL    HW2 4345   1.722   0.917  12.590
 1441SOL     OW 4346   0.859   1.374  11.188
 1441SOL    HW1 4347   0.813   1.389  11.276
 1441SOL    HW2 4348   0.903   1.459  11.158
 1442SOL     OW 4349   0.661   1.790  12.125
 1442SOL    HW1 4350   0.615   1.878  12.112
 1442SOL    HW2 4351   0.760   1.802  12.118
 1443SOL     OW 4352   0.859   0.956  12.033
 1443SOL    HW1 4353   0.913   0.887  12.081
 1443SOL    HW2 4354   0.827   1.025  12.099
 1444SOL     OW 4355   1.083   0.984  11.259
 1444SOL    HW1 4356   1.060   1.037  11.177
 1444SOL    HW2 4357   1.164   0.928  11.240
 1445SOL     OW 4358   1.861   1.569  12.023
 1445SOL    HW1 4359   1.790   1.557  11.953
 1445SOL    HW2 4360   1.862   1.490  12.083
 1446SOL     OW 4361   0.079   1.240  11.825
 1446SOL    HW1 4362   0.078   1.193  11.913
 1446SOL    HW2 4363   0.161   1.212  11.774
 1447SOL     OW 4364   0.672   1.391  12.796
 1447SOL    HW1 4365   0.594   1.341  12.834
 1447SOL    HW2 4366   0.669   1.486  12.827
 1448SOL     OW 4367   1.824   0.192  12.399
 1448SOL    HW1 4368   1.820   0.102  12.443
 1448SOL    HW2 4369   1.827   0.181  12.300
 1449SOL     OW 4370   0.428   0.424  11.692
 1449SOL    HW1 4371   0.458   0.352  11.630
 1449SOL    HW2 4372   0.389   0.384  11.775
 1450SOL     OW 4373   1.705   1.487  12.276
 1450SOL    HW1 4374   1.612   1.462  12.249
 1450SOL    HW2 4375   1.731   1.437  12.358
 1451SOL     OW 4376   0.317   0.547  12.452
 1451SOL    HW1 4377   0.355   0.488  12.524
 1451SOL    HW2 4378   0.357   0.521  12.364
 1452SOL     OW 4379   0.812   1.586  11.859
 1452SOL    HW1 4380   0.844   1.596  11.765
 1452SOL    HW2 4381   0.733   1.524  11.861
 1453SOL     OW 4382   1.424   0.214  12.284
 1453SOL    HW1 4383   1.476   0.149  12.339
 1453SOL    HW2 4384   1.375   0.277  12.345
 1454SOL     OW 4385   1.001   0.034  12.326
 1454SOL    HW1 4386   0.938  -0.038  12.295
 1454SOL    HW2 4387   1.094  -0.002  12.326
 1455SOL     OW 4388   0.770   1.330  11.473
 1455SOL    HW1 4389   0.724   1.243  11.490
 1455SOL    HW2 4390   0.861   1.327  11.514
 1456SOL     OW 4391   0.618   1.567  12.456
 1456SOL    HW1 4392   0.613   1.649  12.513
 1456SOL    HW2 4393   0.707   1.564  12.411
 1457SOL     OW 4394   1.352   0.052  11.340
 1457SOL    HW1 4395   1.387   0.011  11.256
 1457SOL    HW2 4396   1.262   0.014  11.360
 1458SOL     OW 4397   1.300   0.453  11.863
 1458SOL    HW1 4398   1.241   0.533  11.867
 1458SOL    HW2 4399   1.315   0.418  11.956
 1459SOL     OW 4400   1.593   0.221  12.054
 1459SOL    HW1 4401   1.509   0.220  12.108
 1459SOL    HW2 4402   1.595   0.304  11.998
 1460SOL     OW 4403   0.039   1.077  11.472
 1460SOL    HW1 4404   0.138   1.066  11.463
 1460SOL    HW2 4405  -0.001   0.991  11.504
 1461SOL     OW 4406   0.875   1.646  11.509
 1461SOL    HW1 4407   0.798   1.611  11.455
 1461SOL    HW2 4408   0.843   1.717  11.571
 1462SOL     OW 4409   0.230   2.490   0.113
 1462SOL    HW1 4410   0.137   2.488   0.150
 1462SOL    HW2 4411   0.231   2.451   0.021
 1463SOL     OW 4412   0.225   2.137   0.996
 1463SOL    HW1 4413   0.260   2.120   1.088
 1463SOL    HW2 4414   0.137   2.092   0.984
 1464SOL     OW 4415   0.019   2.230   0.647
 1464SOL    HW1 4416  -0.063   2.273   0.686
 1464SOL    HW2 4417  -0.009   2.157   0.584
 1465SOL     OW 4418   0.569   3.137   1.165
 1465SOL    HW1 4419   0.476   3.130   1.128
 1465SOL    HW2 4420   0.580   3.226   1.209
 1466SOL     OW 4421   1.555   3.373   0.703
 1466SOL    HW1 4422   1.498   3.357   0.784
 1466SOL    HW2 4423   1.496   3.383   0.623
 1467SOL     OW 4424   1.135   2.565   0.717
 1467SOL    HW1 4425   1.192   2.643   0.692
 1467SOL    HW2 4426   1.075   2.591   0.793
 1468SOL     OW 4427   1.755   2.469   0.231
 1468SOL    HW1 4428   1.743   2.456   0.132
 1468SOL    HW2 4429   1.725   2.388   0.280
 1469SOL     OW 4430   0.768   3.006   1.023
 1469SOL    HW1 4431   0.690   3.023   1.083
 1469SOL    HW2 4432   0.802   3.093   0.987
 1470SOL     OW 4433   0.850   2.660   1.823
 1470SOL    HW1 4434   0.846   2.736   1.888
 1470SOL    HW2 4435   0.872   2.696   1.732
 1471SOL     OW 4436   0.685   2.874   0.665
 1471SOL    HW1 4437   0.754   2.858   0.735
 1471SOL    HW2 4438   0.612   2.931   0.703
 1472SOL     OW 4439   0.686   3.023   1.803
 1472SOL    HW1 4440   0.746   3.102   1.817
 1472SOL    HW2 4441   0.600   3.054   1.762
 1473SOL     OW 4442   0.335   3.297   1.061
 1473SOL    HW1 4443   0.257   3.266   1.008
 1473SOL    HW2 4444   0.393   3.355   1.004
 1474SOL     OW 4445   1.460   3.367   1.339
 1474SOL    HW1 4446   1.484   3.461   1.365
 1474SOL    HW2 4447   1.444   3.313   1.421
 1475SOL     OW 4448   0.438   2.254   1.499
 1475SOL    HW1 4449   0.520   2.198   1.508
 1475SOL    HW2 4450   0.357   2.196   1.503
 1476SOL     OW 4451   1.603   2.309   0.737
 1476SOL    HW1 4452   1.529   2.355   0.687
 1476SOL    HW2 4453   1.654   2.377   0.790
 1477SOL     OW 4454   0.231   3.575   0.483
 1477SOL    HW1 4455   0.265   3.652   0.537
 1477SOL    HW2 4456   0.275   3.575   0.393
 1478SOL     OW 4457   1.127   3.203   1.690
 1478SOL    HW1 4458   1.174   3.203   1.778
 1478SOL    HW2 4459   1.079   3.116   1.679
 1479SOL     OW 4460   0.230   3.296   0.538
 1479SOL    HW1 4461   0.204   3.392   0.538
 1479SOL    HW2 4462   0.159   3.242   0.583
 1480SOL     OW 4463   0.240   2.953   0.886
 1480SOL    HW1 4464   0.254   2.869   0.938
 1480SOL    HW2 4465   0.185   3.017   0.941
 1481SOL     OW 4466   0.620   3.648   1.439
 1481SOL    HW1 4467   0.528   3.631   1.474
 1481SOL    HW2 4468   0.648   3.740   1.465
 1482SOL     OW 4469   0.606   2.826   0.123
 1482SOL    HW1 4470   0.613   2.910   0.069
 1482SOL    HW2 4471   0.652   2.839   0.211
 1483SOL     OW 4472   1.594   1.976   1.480
 1483SOL    HW1 4473   1.576   2.043   1.408
 1483SOL    HW2 4474   1.591   2.022   1.569
 1484SOL     OW 4475   0.122   2.505   0.563
 1484SOL    HW1 4476   0.077   2.417   0.580
 1484SOL    HW2 4477   0.121   2.559   0.647
 1485SOL     OW 4478   1.842   3.629   0.359
 1485SOL    HW1 4479   1.896   3.600   0.439
 1485SOL    HW2 4480   1.872   3.719   0.330
 1486SOL     OW 4481   0.027   3.458   0.117
 1486SOL    HW1 4482   0.008   3.362   0.138
 1486SOL    HW2 4483  -0.006   3.516   0.192
 1487SOL     OW 4484   1.689   2.784   0.612
 1487SOL    HW1 4485   1.784   2.755   0.620
 1487SOL    HW2 4486   1.681   2.849   0.537
 1488SOL     OW 4487   1.641   2.970   0.432
 1488SOL    HW1 4488   1.727   2.972   0.380
 1488SOL    HW2 4489   1.655   3.017   0.520
 1489SOL     OW 4490   0.113   2.599   1.597
 1489SOL    HW1 4491   0.201   2.586   1.642
 1489SOL    HW2 4492   0.100   2.696   1.575
 1490SOL     OW 4493   0.613   3.227   0.726
 1490SOL    HW1 4494   0.564   3.140   0.735
 1490SOL    HW2 4495   0.590   3.270   0.639
 1491SOL     OW 4496   1.293   3.090   1.423
 1491SOL    HW1 4497   1.330   3.017   1.365
 1491SOL    HW2 4498   1.345   3.095   1.508
 1492SOL     OW 4499   0.809   1.866   0.502
 1492SOL    HW1 4500   0.849   1.957   0.493
 1492SOL    HW2 4501   0.709   1.874   0.508
 1493SOL     OW 4502   0.197   2.838   1.264
 1493SOL    HW1 4503   0.286   2.793   1.250
 1493SOL    HW2 4504   0.124   2.773   1.245
 1494SOL     OW 4505   1.525   2.861   0.190
 1494SOL    HW1 4506   1.462   2.785   0.203
 1494SOL    HW2 4507   1.573   2.879   0.276
 1495SOL     OW 4508   1.187   3.654   1.616
 1495SOL    HW1 4509   1.211   3.714   1.540
 1495SOL    HW2 4510   1.194   3.559   1.586
 1496SOL     OW 4511   0.317   2.113   1.801
 1496SOL    HW1 4512   0.388   2.184   1.807
 1496SOL    HW2 4513   0.229   2.152   1.829
 1497SOL     OW 4514   1.466   3.279   0.953
 1497SOL    HW1 4515   1.407   3.285   1.033
 1497SOL    HW2 4516   1.451   3.191   0.907
 1498SOL     OW 4517   1.667   3.576   0.572
 1498SOL    HW1 4518   1.626   3.553   0.484
 1498SOL    HW2 4519   1.649   3.502   0.637
 1499SOL     OW 4520   0.598   2.591   0.270
 1499SOL    HW1 4521   0.622   2.660   0.202
 1499SOL    HW2 4522   0.520   2.624   0.324
 1500SOL     OW 4523   1.281   2.207   0.944
 1500SOL    HW1 4524   1.195   2.157   0.931
 1500SOL    HW2 4525   1.343   2.153   1.000
 1501SOL     OW 4526   1.576   3.524   0.307
 1501SOL    HW1 4527   1.665   3.570   0.310
 1501SOL    HW2 4528   1.555   3.500   0.212
 1502SOL     OW 4529   0.807   2.467   1.465
 1502SOL    HW1 4530   0.760   2.464   1.554
 1502SOL    HW2 4531   0.756   2.412   1.399
 1503SOL     OW 4532   1.394   2.331   1.674
 1503SOL    HW1 4533   1.374   2.374   1.762
 1503SOL    HW2 4534   1.472   2.269   1.683
 1504SOL     OW 4535   0.973   2.752   1.572
 1504SOL    HW1 4536   1.019   2.668   1.543
 1504SOL    HW2 4537   0.917   2.786   1.497
 1505SOL     OW 4538   0.991   2.272   1.242
 1505SOL    HW1 4539   0.914   2.306   1.296
 1505SOL    HW2 4540   0.957   2.221   1.163
 1506SOL     OW 4541   1.041   2.563   0.429
 1506SOL    HW1 4542   1.067   2.559   0.525
 1506SOL    HW2 4543   0.956   2.512   0.415
 1507SOL     OW 4544   0.076   2.673   0.789
 1507SOL    HW1 4545   0.175   2.661   0.798
 1507SOL    HW2 4546   0.052   2.768   0.810
 1508SOL     OW 4547   0.130   3.683   1.571
 1508SOL    HW1 4548   0.120   3.668   1.670
 1508SOL    HW2 4549   0.044   3.719   1.535
 1509SOL     OW 4550   0.865   2.210   0.195
 1509SOL    HW1 4551   0.924   2.273   0.146
 1509SOL    HW2 4552   0.884   2.116   0.166
 1510SOL     OW 4553   1.719   2.447   1.831
 1510SOL    HW1 4554   1.693   2.536   1.795
 1510SOL    HW2 4555   1.717   2.379   1.758
 1511SOL     OW 4556   1.362   3.006   0.545
 1511SOL    HW1 4557   1.445   2.977   0.497
 1511SOL    HW2 4558   1.313   3.073   0.489
 1512SOL     OW 4559   0.550   2.058   0.885
 1512SOL    HW1 4560   0.545   2.053   0.985
 1512SOL    HW2 4561   0.552   2.154   0.856
 1513SOL     OW 4562   1.008   3.318   0.477
 1513SOL    HW1 4563   0.962   3.390   0.425
 1513SOL    HW2 4564   1.004   3.338   0.575
 1514SOL     OW 4565   0.351   3.663   0.853
 1514SOL    HW1 4566   0.401   3.577   0.859
 1514SOL    HW2 4567   0.416   3.740   0.850
 1515SOL     OW 4568   1.795   2.928   0.873
 1515SOL    HW1 4569   1.733   2.913   0.797
 1515SOL    HW2 4570   1.743   2.939   0.958
 1516SOL     OW 4571   1.227   3.412   1.506
 1516SOL    HW1 4572   1.233   3.335   1.570
 1516SOL    HW2 4573   1.175   3.386   1.426
 1517SOL     OW 4574   0.321   2.805   0.242
 1517SOL    HW1 4575   0.403   2.844   0.200
 1517SOL    HW2 4576   0.294   2.723   0.193
 1518SOL     OW 4577   1.458   2.597   0.728
 1518SOL    HW1 4578   1.453   2.532   0.803
 1518SOL    HW2 4579   1.538   2.656   0.741
 1519SOL     OW 4580   0.461   3.128   1.727
 1519SOL    HW1 4581   0.411   3.129   1.641
 1519SOL    HW2 4582   0.398   3.110   1.803
 1520SOL     OW 4583   1.111   3.638   0.237
 1520SOL    HW1 4584   1.051   3.576   0.287
 1520SOL    HW2 4585   1.142   3.594   0.152
 1521SOL     OW 4586   0.202   2.147   1.498
 1521SOL    HW1 4587   0.122   2.207   1.485
 1521SOL    HW2 4588   0.192   2.098   1.584
 1522SOL     OW 4589   1.632   3.239   0.081
 1522SOL    HW1 4590   1.600   3.333   0.071
 1522SOL    HW2 4591   1.556   3.176   0.069
 1523SOL     OW 4592   0.464   3.605   0.323
 1523SOL    HW1 4593   0.497   3.644   0.409
 1523SOL    HW2 4594   0.540   3.598   0.258
 1524SOL     OW 4595   1.400   1.969   0.426
 1524SOL    HW1 4596   1.376   1.932   0.336
 1524SOL    HW2 4597   1.499   1.985   0.430
 1525SOL     OW 4598   0.249   3.647   1.241
 1525SOL    HW1 4599   0.306   3.582   1.291
 1525SOL    HW2 4600   0.233   3.614   1.148
 1526SOL     OW 4601   0.940   3.560   0.904
 1526SOL    HW1 4602   1.020   3.503   0.925
 1526SOL    HW2 4603   0.891   3.520   0.827
 1527SOL     OW 4604   0.382   2.562   0.480
 1527SOL    HW1 4605   0.427   2.472   0.477
 1527SOL    HW2 4606   0.288   2.551   0.513
 1528SOL     OW 4607   1.547   2.084   1.729
 1528SOL    HW1 4608   1.542   2.121   1.821
 1528SOL    HW2 4609   1.475   2.015   1.717
 1529SOL     OW 4610   0.614   1.984   0.117
 1529SOL    HW1 4611   0.712   1.962   0.124
 1529SOL    HW2 4612   0.583   1.967   0.024
 1530SOL     OW 4613   0.781   2.126   1.749
 1530SOL    HW1 4614   0.848   2.065   1.792
 1530SOL    HW2 4615   0.708   2.145   1.814
 1531SOL     OW 4616   0.888   3.376   1.195
 1531SOL    HW1 4617   0.865   3.351   1.101
 1531SOL    HW2 4618   0.949   3.307   1.234
 1532SOL     OW 4619   1.351   2.452   1.433
 1532SOL    HW1 4620   1.379   2.409   1.518
 1532SOL    HW2 4621   1.376   2.548   1.434
 1533SOL     OW 4622   0.803   3.264   0.924
 1533SOL    HW1 4623   0.893   3.278   0.882
 1533SOL    HW2 4624   0.732   3.266   0.853
 1534SOL     OW 4625   0.922   2.365   0.899
 1534SOL    HW1 4626   0.897   2.356   0.803
 1534SOL    HW2 4627   0.970   2.283   0.930
 1535SOL     OW 4628   0.539   1.926   0.512
 1535SOL    HW1 4629   0.458   1.927   0.570
 1535SOL    HW2 4630   0.542   2.009   0.457
 1536SOL     OW 4631   1.434   3.050   0.041
 1536SOL    HW1 4632   1.466   2.974   0.098
 1536SOL    HW2 4633   1.342   3.077   0.071
 1537SOL     OW 4634   0.297   1.897   0.171
 1537SOL    HW1 4635   0.346   1.981   0.150
 1537SOL    HW2 4636   0.359   1.832   0.216
 1538SOL     OW 4637   0.935   2.098   0.480
 1538SOL    HW1 4638   0.887   2.139   0.402
 1538SOL    HW2 4639   1.034   2.096   0.461
 1539SOL     OW 4640   1.076   2.545   1.464
 1539SOL    HW1 4641   0.996   2.484   1.467
 1539SOL    HW2 4642   1.157   2.492   1.440
 1540SOL     OW 4643   1.227   3.432   0.793
 1540SOL    HW1 4644   1.248   3.506   0.728
 1540SOL    HW2 4645   1.295   3.432   0.866
 1541SOL     OW 4646   0.459   3.014   0.741
 1541SOL    HW1 4647   0.388   2.987   0.806
 1541SOL    HW2 4648   0.433   2.986   0.648
 1542SOL     OW 4649   1.271   3.659   0.591
 1542SOL    HW1 4650   1.315   3.723   0.527
 1542SOL    HW2 4651   1.221   3.711   0.661
 1543SOL     OW 4652   1.032   2.411   0.016
 1543SOL    HW1 4653   0.991   2.493  -0.023
 1543SOL    HW2 4654   1.096   2.437   0.089
 1544SOL     OW 4655   0.078   2.418   1.386
 1544SOL    HW1 4656   0.170   2.417   1.345
 1544SOL    HW2 4657   0.072   2.492   1.453
 1545SOL     OW 4658   0.561   2.084   1.147
 1545SOL    HW1 4659   0.599   2.000   1.184
 1545SOL    HW2 4660   0.473   2.103   1.191
 1546SOL     OW 4661   0.866   2.316   0.642
 1546SOL    HW1 4662   0.834   2.388   0.580
 1546SOL    HW2 4663   0.890   2.235   0.589
 1547SOL     OW 4664   1.017   1.901   0.753
 1547SOL    HW1 4665   0.945   1.906   0.684
 1547SOL    HW2 4666   0.993   1.832   0.822
 1548SOL     OW 4667   1.429   3.035   0.867
 1548SOL    HW1 4668   1.374   2.951   0.860
 1548SOL    HW2 4669   1.455   3.064   0.775
 1549SOL     OW 4670   1.466   2.452   0.992
 1549SOL    HW1 4671   1.436   2.357   0.999
 1549SOL    HW2 4672   1.539   2.468   1.058
 1550SOL     OW 4673   1.857   2.695   0.377
 1550SOL    HW1 4674   1.899   2.631   0.441
 1550SOL    HW2 4675   1.819   2.644   0.299
 1551SOL     OW 4676   0.488   3.247   0.174
 1551SOL    HW1 4677   0.401   3.232   0.221
 1551SOL    HW2 4678   0.471   3.273   0.079
 1552SOL     OW 4679   1.664   3.142   0.657
 1552SOL    HW1 4680   1.763   3.150   0.671
 1552SOL    HW2 4681   1.619   3.226   0.688
 1553SOL     OW 4682   1.390   2.437   0.078
 1553SOL    HW1 4683   1.336   2.416   0.159
 1553SOL    HW2 4684   1.481   2.396   0.087
 1554SOL     OW 4685   0.527   2.118   0.328
 1554SOL    HW1 4686   0.554   2.059   0.253
 1554SOL    HW2 4687   0.527   2.213   0.297
 1555SOL     OW 4688   1.754   3.085   1.588
 1555SOL    HW1 4689   1.845   3.046   1.575
 1555SOL    HW2 4690   1.762   3.181   1.612
 1556SOL     OW 4691   1.064   3.209   1.340
 1556SOL    HW1 4692   0.984   3.186   1.395
 1556SOL    HW2 4693   1.147   3.183   1.389
 1557SOL     OW 4694   1.592   3.491   1.625
 1557SOL    HW1 4695   1.619   3.525   1.535
 1557SOL    HW2 4696   1.671   3.453   1.671
 1558SOL     OW 4697   1.111   3.057   1.100
 1558SOL    HW1 4698   1.071   3.101   1.181
 1558SOL    HW2 4699   1.070   3.094   1.017
 1559SOL     OW 4700   1.638   2.961   1.079
 1559SOL    HW1 4701   1.643   3.042   1.138
 1559SOL    HW2 4702   1.552   2.963   1.028
 1560SOL     OW 4703   0.915   1.951   1.402
 1560SOL    HW1 4704   0.940   1.931   1.307
 1560SOL    HW2 4705   0.987   2.007   1.444
 1561SOL     OW 4706   0.980   2.978   1.719
 1561SOL    HW1 4707   0.881   2.984   1.729
 1561SOL    HW2 4708   1.003   2.898   1.663
 1562SOL     OW 4709   0.705   2.912   0.368
 1562SOL    HW1 4710   0.691   2.919   0.467
 1562SOL    HW2 4711   0.789   2.861   0.350
 1563SOL     OW 4712   0.410   2.675   1.251
 1563SOL    HW1 4713   0.496   2.687   1.301
 1563SOL    HW2 4714   0.368   2.588   1.278
 1564SOL     OW 4715   1.274   2.248   1.262
 1564SOL    HW1 4716   1.295   2.322   1.326
 1564SOL    HW2 4717   1.185   2.265   1.219
 1565SOL     OW 4718   0.064   3.426   1.331
 1565SOL    HW1 4719   0.018   3.508   1.297
 1565SOL    HW2 4720   0.162   3.445   1.340
 1566SOL     OW 4721   0.367   2.962   0.501
 1566SOL    HW1 4722   0.360   3.045   0.445
 1566SOL    HW2 4723   0.371   2.882   0.441
 1567SOL     OW 4724   0.566   2.399   0.865
 1567SOL    HW1 4725   0.578   2.465   0.791
 1567SOL    HW2 4726   0.612   2.433   0.948
 1568SOL     OW 4727   1.252   3.210   0.388
 1568SOL    HW1 4728   1.302   3.287   0.428
 1568SOL    HW2 4729   1.157   3.212   0.420
 1569SOL     OW 4730   1.272   3.307   1.142
 1569SOL    HW1 4731   1.319   3.320   1.229
 1569SOL    HW2 4732   1.206   3.233   1.151
 1570SOL     OW 4733   1.582   2.501   0.472
 1570SOL    HW1 4734   1.551   2.562   0.545
 1570SOL    HW2 4735   1.632   2.553   0.403
 1571SOL     OW 4736   0.354   3.372   1.329
 1571SOL    HW1 4737   0.333   3.328   1.242
 1571SOL    HW2 4738   0.451   3.398   1.332
 1572SOL     OW 4739   0.402   2.613   1.598
 1572SOL    HW1 4740   0.470   2.668   1.551
 1572SOL    HW2 4741   0.442   2.525   1.625
 1573SOL     OW 4742   1.587   2.641   1.670
 1573SOL    HW1 4743   1.495   2.679   1.665
 1573SOL    HW2 4744   1.647   2.688   1.605
 1574SOL     OW 4745   1.013   1.967   1.770
 1574SOL    HW1 4746   1.019   2.052   1.718
 1574SOL    HW2 4747   1.045   1.891   1.713
 1575SOL     OW 4748   0.504   1.912   1.740
 1575SOL    HW1 4749   0.462   1.855   1.670
 1575SOL    HW2 4750   0.438   1.981   1.772
 1576SOL     OW 4751   0.573   2.732   1.029
 1576SOL    HW1 4752   0.617   2.821   1.020
 1576SOL    HW2 4753   0.510   2.732   1.106
 1577SOL     OW 4754   1.360   2.724   1.045
 1577SOL    HW1 4755   1.285   2.724   0.979
 1577SOL    HW2 4756   1.397   2.632   1.054
 1578SOL     OW 4757   1.209   2.387   0.275
 1578SOL    HW1 4758   1.222   2.303   0.329
 1578SOL    HW2 4759   1.180   2.461   0.335
 1579SOL     OW 4760   0.307   2.075   1.231
 1579SOL    HW1 4761   0.284   2.112   1.321
 1579SOL    HW2 4762   0.277   1.980   1.225
 1580SOL     OW 4763   0.037   3.172   1.282
 1580SOL    HW1 4764   0.090   3.123   1.350
 1580SOL    HW2 4765   0.059   3.270   1.287
 1581SOL     OW 4766   0.732   2.496   1.064
 1581SOL    HW1 4767   0.791   2.470   0.988
 1581SOL    HW2 4768   0.704   2.592   1.053
 1582SOL     OW 4769   1.728   2.797   1.854
 1582SOL    HW1 4770   1.682   2.790   1.765
 1582SOL    HW2 4771   1.666   2.841   1.920
 1583SOL     OW 4772   0.307   1.925   0.618
 1583SOL    HW1 4773   0.296   2.019   0.651
 1583SOL    HW2 4774   0.302   1.862   0.695
 1584SOL     OW 4775   1.622   2.229   0.374
 1584SOL    HW1 4776   1.624   2.153   0.438
 1584SOL    HW2 4777   1.574   2.306   0.414
 1585SOL     OW 4778   1.023   2.628   0.966
 1585SOL    HW1 4779   1.038   2.649   1.062
 1585SOL    HW2 4780   0.993   2.533   0.957
 1586SOL     OW 4781   0.980   3.435   1.700
 1586SOL    HW1 4782   0.960   3.479   1.612
 1586SOL    HW2 4783   1.019   3.344   1.684
 1587SOL     OW 4784   1.859   3.380   1.605
 1587SOL    HW1 4785   1.873   3.407   1.510
 1587SOL    HW2 4786   1.942   3.402   1.658
 1588SOL     OW 4787   0.350   2.760   1.804
 1588SOL    HW1 4788   0.426   2.804   1.852
 1588SOL    HW2 4789   0.385   2.713   1.722
 1589SOL     OW 4790   1.540   2.136   0.125
 1589SOL    HW1 4791   1.479   2.061   0.148
 1589SOL    HW2 4792   1.562   2.188   0.208
 1590SOL     OW 4793   1.303   2.700   0.042
 1590SOL    HW1 4794   1.337   2.607   0.057
 1590SOL    HW2 4795   1.321   2.727  -0.053
 1591SOL     OW 4796   1.068   3.195   0.849
 1591SOL    HW1 4797   1.075   3.111   0.794
 1591SOL    HW2 4798   1.130   3.264   0.813
 1592SOL     OW 4799   0.319   2.672   0.949
 1592SOL    HW1 4800   0.412   2.708   0.954
 1592SOL    HW2 4801   0.313   2.587   1.001
 1593SOL     OW 4802   0.339   2.371   1.006
 1593SOL    HW1 4803   0.287   2.288   0.989
 1593SOL    HW2 4804   0.416   2.376   0.942
 1594SOL     OW 4805   1.138   2.242   1.678
 1594SOL    HW1 4806   1.093   2.305   1.742
 1594SOL    HW2 4807   1.231   2.273   1.661
 1595SOL     OW 4808   1.160   2.069   1.477
 1595SOL    HW1 4809   1.160   2.133   1.554
 1595SOL    HW2 4810   1.188   2.117   1.394
 1596SOL     OW 4811   0.008   3.188   0.200
 1596SOL    HW1 4812  -0.085   3.209   0.169
 1596SOL    HW2 4813   0.018   3.089   0.213
 1597SOL     OW 4814   0.088   3.663   0.927
 1597SOL    HW1 4815   0.046   3.577   0.900
 1597SOL    HW2 4816   0.182   3.666   0.893
 1598SOL     OW 4817   0.504   3.430   0.910
 1598SOL    HW1 4818   0.570   3.504   0.919
 1598SOL    HW2 4819   0.548   3.351   0.868
 1599SOL     OW 4820   1.002   2.658   1.238
 1599SOL    HW1 4821   1.043   2.626   1.324
 1599SOL    HW2 4822   0.906   2.631   1.235
 1600SOL     OW 4823   0.040   2.406   1.114
 1600SOL    HW1 4824   0.125   2.373   1.073
 1600SOL    HW2 4825   0.053   2.421   1.212
 1601SOL     OW 4826   0.189   2.382   1.722
 1601SOL    HW1 4827   0.248   2.342   1.652
 1601SOL    HW2 4828   0.131   2.453   1.681
 1602SOL     OW 4829   1.369   2.812   1.660
 1602SOL    HW1 4830   1.408   2.901   1.680
 1602SOL    HW2 4831   1.379   2.792   1.563
 1603SOL     OW 4832   0.815   2.434   0.325
 1603SOL    HW1 4833   0.822   2.345   0.279
 1603SOL    HW2 4834   0.721   2.468   0.317
 1604SOL     OW 4835   1.657   2.466   1.206
 1604SOL    HW1 4836   1.619   2.397   1.268
 1604SOL    HW2 4837   1.739   2.430   1.162
 1605SOL     OW 4838   0.252   3.426   1.744
 1605SOL    HW1 4839   0.222   3.483   1.820
 1605SOL    HW2 4840   0.245   3.329   1.770
 1606SOL     OW 4841   0.671   2.326   1.269
 1606SOL    HW1 4842   0.637   2.237   1.239
 1606SOL    HW2 4843   0.697   2.380   1.189
 1607SOL     OW 4844   0.930   3.540   1.465
 1607SOL    HW1 4845   0.906   3.522   1.370
 1607SOL    HW2 4846   0.960   3.634   1.475
 1608SOL     OW 4847   0.473   2.362   0.191
 1608SOL    HW1 4848   0.534   2.442   0.195
 1608SOL    HW2 4849   0.378   2.393   0.198
 1609SOL     OW 4850   0.159   2.999   1.466
 1609SOL    HW1 4851   0.181   2.938   1.542
 1609SOL    HW2 4852   0.169   2.950   1.380
 1610SOL     OW 4853   1.347   2.921   1.234
 1610SOL    HW1 4854   1.371   2.858   1.160
 1610SOL    HW2 4855   1.257   2.961   1.216
 1611SOL     OW 4856   1.302   2.717   0.309
 1611SOL    HW1 4857   1.216   2.686   0.351
 1611SOL    HW2 4858   1.298   2.703   0.210
 1612SOL     OW 4859   1.759   3.609   1.154
 1612SOL    HW1 4860   1.820   3.639   1.081
 1612SOL    HW2 4861   1.721   3.520   1.132
 1613SOL     OW 4862   1.252   3.593   1.128
 1613SOL    HW1 4863   1.336   3.598   1.074
 1613SOL    HW2 4864   1.229   3.497   1.146
 1614SOL     OW 4865   0.083   3.120   1.022
 1614SOL    HW1 4866   0.078   3.119   1.122
 1614SOL    HW2 4867   0.000   3.079   0.984
 1615SOL     OW 4868   0.688   3.524   1.716
 1615SOL    HW1 4869   0.632   3.605   1.725
 1615SOL    HW2 4870   0.740   3.528   1.630
 1616SOL     OW 4871   0.903   1.948   0.133
 1616SOL    HW1 4872   0.954   1.949   0.047
 1616SOL    HW2 4873   0.959   1.906   0.204
 1617SOL     OW 4874   1.726   1.997   0.523
 1617SOL    HW1 4875   1.799   1.980   0.456
 1617SOL    HW2 4876   1.695   1.910   0.561
 1618SOL     OW 4877   1.388   3.435   0.477
 1618SOL    HW1 4878   1.455   3.447   0.403
 1618SOL    HW2 4879   1.348   3.524   0.500
 1619SOL     OW 4880   0.130   3.656   1.851
 1619SOL    HW1 4881   0.089   3.582   1.904
 1619SOL    HW2 4882   0.194   3.707   1.909
 1620SOL     OW 4883   1.280   2.789   0.672
 1620SOL    HW1 4884   1.340   2.708   0.674
 1620SOL    HW2 4885   1.320   2.858   0.612
 1621SOL     OW 4886   0.830   3.135   1.422
 1621SOL    HW1 4887   0.825   3.168   1.517
 1621SOL    HW2 4888   0.744   3.154   1.376
 1622SOL     OW 4889   0.672   3.478   0.154
 1622SOL    HW1 4890   0.681   3.488   0.055
 1622SOL    HW2 4891   0.632   3.389   0.175
 1623SOL     OW 4892   1.650   3.582   1.394
 1623SOL    HW1 4893   1.703   3.592   1.310
 1623SOL    HW2 4894   1.623   3.672   1.428
 1624SOL     OW 4895   1.841   2.037   0.963
 1624SOL    HW1 4896   1.880   1.952   0.927
 1624SOL    HW2 4897   1.743   2.039   0.944
 1625SOL     OW 4898   0.263   2.188   0.720
 1625SOL    HW1 4899   0.184   2.239   0.686
 1625SOL    HW2 4900   0.254   2.173   0.818
 1626SOL     OW 4901   1.194   3.474   0.031
 1626SOL    HW1 4902   1.200   3.381   0.068
 1626SOL    HW2 4903   1.135   3.474  -0.049
 1627SOL     OW 4904   0.822   2.864   1.372
 1627SOL    HW1 4905   0.862   2.863   1.280
 1627SOL    HW2 4906   0.832   2.956   1.412
 1628SOL     OW 4907   0.916   2.772   0.291
 1628SOL    HW1 4908   0.979   2.810   0.223
 1628SOL    HW2 4909   0.956   2.689   0.330
 1629SOL     OW 4910   1.504   3.469   0.044
 1629SOL    HW1 4911   1.412   3.506   0.051
 1629SOL    HW2 4912   1.542   3.489  -0.046
 1630SOL     OW 4913   0.372   3.150   1.490
 1630SOL    HW1 4914   0.359   3.243   1.456
 1630SOL    HW2 4915   0.288   3.098   1.477
 1631SOL     OW 4916   1.614   3.154   1.289
 1631SOL    HW1 4917   1.674   3.157   1.369
 1631SOL    HW2 4918   1.539   3.218   1.302
 1632SOL     OW 4919   1.039   2.960   0.696
 1632SOL    HW1 4920   0.969   2.913   0.750
 1632SOL    HW2 4921   1.098   2.892   0.653
 1633SOL     OW 4922   1.014   2.098   0.971
 1633SOL    HW1 4923   1.006   2.062   0.878
 1633SOL    HW2 4924   1.012   2.022   1.036
 1634SOL     OW 4925   0.590   3.349   0.491
 1634SOL    HW1 4926   0.632   3.291   0.421
 1634SOL    HW2 4927   0.546   3.428   0.447
 1635SOL     OW 4928   1.709   2.247   1.381
 1635SOL    HW1 4929   1.782   2.316   1.385
 1635SOL    HW2 4930   1.737   2.172   1.322
 1636SOL     OW 4931   0.255   3.210   0.290
 1636SOL    HW1 4932   0.159   3.211   0.263
 1636SOL    HW2 4933   0.267   3.263   0.374
 1637SOL     OW 4934   0.105   2.875   1.726
 1637SOL    HW1 4935   0.028   2.842   1.780
 1637SOL    HW2 4936   0.190   2.845   1.768
 1638SOL     OW 4937   0.672   2.065   1.489
 1638SOL    HW1 4938   0.762   2.049   1.449
 1638SOL    HW2 4939   0.680   2.070   1.588
 1639SOL     OW 4940   0.075   2.207   0.033
 1639SOL    HW1 4941  -0.017   2.179   0.004
 1639SOL    HW2 4942   0.106   2.284  -0.023
 1640SOL     OW 4943   1.440   2.718   1.398
 1640SOL    HW1 4944   1.383   2.770   1.335
 1640SOL    HW2 4945   1.536   2.730   1.374
 1641SOL     OW 4946   0.072   2.028   0.318
 1641SOL    HW1 4947   0.055   2.111   0.264
 1641SOL    HW2 4948   0.162   1.991   0.296
 1642SOL     OW 4949   1.183   3.197   0.119
 1642SOL    HW1 4950   1.084   3.186   0.121
 1642SOL    HW2 4951   1.217   3.212   0.212
 1643SOL     OW 4952   0.613   2.704   1.431
 1643SOL    HW1 4953   0.669   2.785   1.414
 1643SOL    HW2 4954   0.672   2.624   1.434
 1644SOL     OW 4955   1.493   3.629   0.959
 1644SOL    HW1 4956   1.526   3.693   0.890
 1644SOL    HW2 4957   1.559   3.623   1.034
 1645SOL     OW 4958   0.716   2.427   1.708
 1645SOL    HW1 4959   0.735   2.492   1.782
 1645SOL    HW2 4960   0.776   2.347   1.717
 1646SOL     OW 4961   1.450   3.082   1.633
 1646SOL    HW1 4962   1.441   3.072   1.732
 1646SOL    HW2 4963   1.546   3.075   1.607
 1647SOL     OW 4964   0.390   3.603   1.560
 1647SOL    HW1 4965   0.299   3.644   1.558
 1647SOL    HW2 4966   0.383   3.509   1.592
 1648SOL     OW 4967   1.674   2.745   1.254
 1648SOL    HW1 4968   1.647   2.656   1.217
 1648SOL    HW2 4969   1.675   2.813   1.181
 1649SOL     OW 4970   1.225   2.187   0.449
 1649SOL    HW1 4971   1.290   2.113   0.438
 1649SOL    HW2 4972   1.245   2.237   0.533
 1650SOL     OW 4973   0.594   2.607   0.652
 1650SOL    HW1 4974   0.644   2.692   0.633
 1650SOL    HW2 4975   0.506   2.609   0.604
 1651SOL     OW 4976   1.777   2.204   1.642
 1651SOL    HW1 4977   1.760   2.235   1.548
 1651SOL    HW2 4978   1.693   2.167   1.680
 1652SOL     OW 4979   1.730   2.796   1.517
 1652SOL    HW1 4980   1.768   2.887   1.532
 1652SOL    HW2 4981   1.722   2.779   1.418
 1653SOL     OW 4982   0.859   3.236   0.016
 1653SOL    HW1 4983   0.813   3.251   0.104
 1653SOL    HW2 4984   0.903   3.321  -0.014
 1654SOL     OW 4985   0.661   3.652   0.953
 1654SOL    HW1 4986   0.615   3.740   0.940
 1654SOL    HW2 4987   0.760   3.664   0.946
 1655SOL     OW 4988   0.859   2.818   0.861
 1655SOL    HW1 4989   0.913   2.749   0.909
 1655SOL    HW2 4990   0.827   2.887   0.927
 1656SOL     OW 4991   1.083   2.846   0.087
 1656SOL    HW1 4992   1.060   2.899   0.005
 1656SOL    HW2 4993   1.164   2.790   0.068
 1657SOL     OW 4994   1.861   3.431   0.851
 1657SOL    HW1 4995   1.790   3.419   0.781
 1657SOL    HW2 4996   1.862   3.352   0.911
 1658SOL     OW 4997   0.221   3.176   1.844
 1658SOL    HW1 4998   0.156   3.103   1.823
 1658SOL    HW2 4999   0.225   3.190   1.942
 1659SOL     OW 5000   0.079   3.102   0.653
 1659SOL    HW1 5001   0.078   3.055   0.741
 1659SOL    HW2 5002   0.161   3.074   0.602
 1660SOL     OW 5003   0.672   3.253   1.624
 1660SOL    HW1 5004   0.594   3.203   1.662
 1660SOL    HW2 5005   0.669   3.348   1.655
 1661SOL     OW 5006   1.824   2.054   1.227
 1661SOL    HW1 5007   1.820   1.964   1.271
 1661SOL    HW2 5008   1.827   2.043   1.128
 1662SOL     OW 5009   0.428   2.286   0.520
 1662SOL    HW1 5010   0.458   2.214   0.458
 1662SOL    HW2 5011   0.389   2.246   0.603
 1663SOL     OW 5012   1.705   3.349   1.104
 1663SOL    HW1 5013   1.612   3.324   1.077
 1663SOL    HW2 5014   1.731   3.299   1.186
 1664SOL     OW 5015   0.317   2.409   1.280
 1664SOL    HW1 5016   0.355   2.350   1.352
 1664SOL    HW2 5017   0.357   2.383   1.192
 1665SOL     OW 5018   0.812   3.448   0.687
 1665SOL    HW1 5019   0.844   3.458   0.593
 1665SOL    HW2 5020   0.733   3.386   0.689
 1666SOL     OW 5021   1.424   2.076   1.112
 1666SOL    HW1 5022   1.476   2.011   1.167
 1666SOL    HW2 5023   1.375   2.139   1.173
 1667SOL     OW 5024   1.001   1.896   1.154
 1667SOL    HW1 5025   0.938   1.824   1.123
 1667SOL    HW2 5026   1.094   1.860   1.154
 1668SOL     OW 5027   0.770   3.192   0.301
 1668SOL    HW1 5028   0.724   3.105   0.318
 1668SOL    HW2 5029   0.861   3.189   0.342
 1669SOL     OW 5030   0.618   3.429   1.284
 1669SOL    HW1 5031   0.613   3.511   1.341
 1669SOL    HW2 5032   0.707   3.426   1.239
 1670SOL     OW 5033   1.352   1.914   0.168
 1670SOL    HW1 5034   1.387   1.873   0.084
 1670SOL    HW2 5035   1.262   1.876   0.188
 1671SOL     OW 5036   1.300   2.315   0.691
 1671SOL    HW1 5037   1.241   2.395   0.695
 1671SOL    HW2 5038   1.315   2.280   0.784
 1672SOL     OW 5039   1.593   2.083   0.882
 1672SOL    HW1 5040   1.509   2.082   0.936
 1672SOL    HW2 5041   1.595   2.166   0.826
 1673SOL     OW 5042   0.039   2.939   0.300
 1673SOL    HW1 5043   0.138   2.928   0.291
 1673SOL    HW2 5044  -0.001   2.853   0.332
 1674SOL     OW 5045   0.875   3.508   0.337
 1674SOL    HW1 5046   0.798   3.473   0.283
 1674SOL    HW2 5047   0.843   3.579   0.399
 1675SOL     OW 5048   0.230   2.490   1.975
 1675SOL    HW1 5049   0.137   2.488   2.012
 1675SOL    HW2 5050   0.231   2.451   1.883
 1676SOL     OW 5051   0.225   2.137   2.858
 1676SOL    HW1 5052   0.260   2.120   2.950
 1676SOL    HW2 5053   0.137   2.092   2.846
 1677SOL     OW 5054   0.019   2.230   2.509
 1677SOL    HW1 5055  -0.063   2.273   2.548
 1677SOL    HW2 5056  -0.009   2.157   2.446
 1678SOL     OW 5057   0.569   3.137   3.027
 1678SOL    HW1 5058   0.476   3.130   2.990
 1678SOL    HW2 5059   0.580   3.226   3.071
 1679SOL     OW 5060   1.555   3.373   2.565
 1679SOL    HW1 5061   1.498   3.357   2.646
 1679SOL    HW2 5062   1.496   3.383   2.485
 1680SOL     OW 5063   1.135   2.565   2.579
 1680SOL    HW1 5064   1.192   2.643   2.554
 1680SOL    HW2 5065   1.075   2.591   2.655
 1681SOL     OW 5066   1.755   2.469   2.093
 1681SOL    HW1 5067   1.743   2.456   1.994
 1681SOL    HW2 5068   1.725   2.388   2.142
 1682SOL     OW 5069   0.768   3.006   2.885
 1682SOL    HW1 5070   0.690   3.023   2.945
 1682SOL    HW2 5071   0.802   3.093   2.849
 1683SOL     OW 5072   0.850   2.660   3.685
 1683SOL    HW1 5073   0.846   2.736   3.750
 1683SOL    HW2 5074   0.872   2.696   3.594
 1684SOL     OW 5075   0.685   2.874   2.527
 1684SOL    HW1 5076   0.754   2.858   2.597
 1684SOL    HW2 5077   0.612   2.931   2.565
 1685SOL     OW 5078   0.686   3.023   3.665
 1685SOL    HW1 5079   0.746   3.102   3.679
 1685SOL    HW2 5080   0.600   3.054   3.624
 1686SOL     OW 5081   0.335   3.297   2.923
 1686SOL    HW1 5082   0.257   3.266   2.870
 1686SOL    HW2 5083   0.393   3.355   2.866
 1687SOL     OW 5084   1.460   3.367   3.201
 1687SOL    HW1 5085   1.484   3.461   3.227
 1687SOL    HW2 5086   1.444   3.313   3.283
 1688SOL     OW 5087   0.438   2.254   3.361
 1688SOL    HW1 5088   0.520   2.198   3.370
 1688SOL    HW2 5089   0.357   2.196   3.365
 1689SOL     OW 5090   1.603   2.309   2.599
 1689SOL    HW1 5091   1.529   2.355   2.549
 1689SOL    HW2 5092   1.654   2.377   2.652
 1690SOL     OW 5093   0.231   3.575   2.345
 1690SOL    HW1 5094   0.265   3.652   2.399
 1690SOL    HW2 5095   0.275   3.575   2.255
 1691SOL     OW 5096   1.127   3.203   3.552
 1691SOL    HW1 5097   1.174   3.203   3.640
 1691SOL    HW2 5098   1.079   3.116   3.541
 1692SOL     OW 5099   0.230   3.296   2.400
 1692SOL    HW1 5100   0.204   3.392   2.400
 1692SOL    HW2 5101   0.159   3.242   2.445
 1693SOL     OW 5102   0.240   2.953   2.748
 1693SOL    HW1 5103   0.254   2.869   2.800
 1693SOL    HW2 5104   0.185   3.017   2.803
 1694SOL     OW 5105   0.620   3.648   3.301
 1694SOL    HW1 5106   0.528   3.631   3.336
 1694SOL    HW2 5107   0.648   3.740   3.327
 1695SOL     OW 5108   0.606   2.826   1.985
 1695SOL    HW1 5109   0.613   2.910   1.931
 1695SOL    HW2 5110   0.652   2.839   2.073
 1696SOL     OW 5111   1.594   1.976   3.342
 1696SOL    HW1 5112   1.576   2.043   3.270
 1696SOL    HW2 5113   1.591   2.022   3.431
 1697SOL     OW 5114   0.122   2.505   2.425
 1697SOL    HW1 5115   0.077   2.417   2.442
 1697SOL    HW2 5116   0.121   2.559   2.509
 1698SOL     OW 5117   1.842   3.629   2.221
 1698SOL    HW1 5118   1.896   3.600   2.301
 1698SOL    HW2 5119   1.872   3.719   2.192
 1699SOL     OW 5120   0.027   3.458   1.979
 1699SOL    HW1 5121   0.008   3.362   2.000
 1699SOL    HW2 5122  -0.006   3.516   2.054
 1700SOL     OW 5123   1.689   2.784   2.474
 1700SOL    HW1 5124   1.784   2.755   2.482
 1700SOL    HW2 5125   1.681   2.849   2.399
 1701SOL     OW 5126   1.641   2.970   2.294
 1701SOL    HW1 5127   1.727   2.972   2.242
 1701SOL    HW2 5128   1.655   3.017   2.382
 1702SOL     OW 5129   0.113   2.599   3.459
 1702SOL    HW1 5130   0.201   2.586   3.504
 1702SOL    HW2 5131   0.100   2.696   3.437
 1703SOL     OW 5132   0.613   3.227   2.588
 1703SOL    HW1 5133   0.564   3.140   2.597
 1703SOL    HW2 5134   0.590   3.270   2.501
 1704SOL     OW 5135   1.293   3.090   3.285
 1704SOL    HW1 5136   1.330   3.017   3.227
 1704SOL    HW2 5137   1.345   3.095   3.370
 1705SOL     OW 5138   0.809   1.866   2.364
 1705SOL    HW1 5139   0.849   1.957   2.355
 1705SOL    HW2 5140   0.709   1.874   2.370
 1706SOL     OW 5141   0.197   2.838   3.126
 1706SOL    HW1 5142   0.286   2.793   3.112
 1706SOL    HW2 5143   0.124   2.773   3.107
 1707SOL     OW 5144   1.525   2.861   2.052
 1707SOL    HW1 5145   1.462   2.785   2.065
 1707SOL    HW2 5146   1.573   2.879   2.138
 1708SOL     OW 5147   1.187   3.654   3.478
 1708SOL    HW1 5148   1.211   3.714   3.402
 1708SOL    HW2 5149   1.194   3.559   3.448
 1709SOL     OW 5150   0.317   2.113   3.663
 1709SOL    HW1 5151   0.388   2.184   3.669
 1709SOL    HW2 5152   0.229   2.152   3.691
 1710SOL     OW 5153   1.466   3.279   2.815
 1710SOL    HW1 5154   1.407   3.285   2.895
 1710SOL    HW2 5155   1.451   3.191   2.769
 1711SOL     OW 5156   1.667   3.576   2.434
 1711SOL    HW1 5157   1.626   3.553   2.346
 1711SOL    HW2 5158   1.649   3.502   2.499
 1712SOL     OW 5159   0.598   2.591   2.132
 1712SOL    HW1 5160   0.622   2.660   2.064
 1712SOL    HW2 5161   0.520   2.624   2.186
 1713SOL     OW 5162   1.281   2.207   2.806
 1713SOL    HW1 5163   1.195   2.157   2.793
 1713SOL    HW2 5164   1.343   2.153   2.862
 1714SOL     OW 5165   1.576   3.524   2.169
 1714SOL    HW1 5166   1.665   3.570   2.172
 1714SOL    HW2 5167   1.555   3.500   2.074
 1715SOL     OW 5168   0.807   2.467   3.327
 1715SOL    HW1 5169   0.760   2.464   3.416
 1715SOL    HW2 5170   0.756   2.412   3.261
 1716SOL     OW 5171   1.394   2.331   3.536
 1716SOL    HW1 5172   1.374   2.374   3.624
 1716SOL    HW2 5173   1.472   2.269   3.545
 1717SOL     OW 5174   0.973   2.752   3.434
 1717SOL    HW1 5175   1.019   2.668   3.405
 1717SOL    HW2 5176   0.917   2.786   3.359
 1718SOL     OW 5177   0.991   2.272   3.104
 1718SOL    HW1 5178   0.914   2.306   3.158
 1718SOL    HW2 5179   0.957   2.221   3.025
 1719SOL     OW 5180   1.041   2.563   2.291
 1719SOL    HW1 5181   1.067   2.559   2.387
 1719SOL    HW2 5182   0.956   2.512   2.277
 1720SOL     OW 5183   0.076   2.673   2.651
 1720SOL    HW1 5184   0.175   2.661   2.660
 1720SOL    HW2 5185   0.052   2.768   2.672
 1721SOL     OW 5186   0.130   3.683   3.433
 1721SOL    HW1 5187   0.120   3.668   3.532
 1721SOL    HW2 5188   0.044   3.719   3.397
 1722SOL     OW 5189   0.865   2.210   2.057
 1722SOL    HW1 5190   0.924   2.273   2.008
 1722SOL    HW2 5191   0.884   2.116   2.028
 1723SOL     OW 5192   1.719   2.447   3.693
 1723SOL    HW1 5193   1.693   2.536   3.657
 1723SOL    HW2 5194   1.717   2.379   3.620
 1724SOL     OW 5195   1.362   3.006   2.407
 1724SOL    HW1 5196   1.445   2.977   2.359
 1724SOL    HW2 5197   1.313   3.073   2.351
 1725SOL     OW 5198   0.550   2.058   2.747
 1725SOL    HW1 5199   0.545   2.053   2.847
 1725SOL    HW2 5200   0.552   2.154   2.718
 1726SOL     OW 5201   1.008   3.318   2.339
 1726SOL    HW1 5202   0.962   3.390   2.287
 1726SOL    HW2 5203   1.004   3.338   2.437
 1727SOL     OW 5204   0.351   3.663   2.715
 1727SOL    HW1 5205   0.401   3.577   2.721
 1727SOL    HW2 5206   0.416   3.740   2.712
 1728SOL     OW 5207   1.795   2.928   2.735
 1728SOL    HW1 5208   1.733   2.913   2.659
 1728SOL    HW2 5209   1.743   2.939   2.820
 1729SOL     OW 5210   1.227   3.412   3.368
 1729SOL    HW1 5211   1.233   3.335   3.432
 1729SOL    HW2 5212   1.175   3.386   3.288
 1730SOL     OW 5213   0.321   2.805   2.104
 1730SOL    HW1 5214   0.403   2.844   2.062
 1730SOL    HW2 5215   0.294   2.723   2.055
 1731SOL     OW 5216   1.458   2.597   2.590
 1731SOL    HW1 5217   1.453   2.532   2.665
 1731SOL    HW2 5218   1.538   2.656   2.603
 1732SOL     OW 5219   0.461   3.128   3.589
 1732SOL    HW1 5220   0.411   3.129   3.503
 1732SOL    HW2 5221   0.398   3.110   3.665
 1733SOL     OW 5222   1.111   3.638   2.099
 1733SOL    HW1 5223   1.051   3.576   2.149
 1733SOL    HW2 5224   1.142   3.594   2.014
 1734SOL     OW 5225   0.202   2.147   3.360
 1734SOL    HW1 5226   0.122   2.207   3.347
 1734SOL    HW2 5227   0.192   2.098   3.446
 1735SOL     OW 5228   1.632   3.239   1.943
 1735SOL    HW1 5229   1.600   3.333   1.933
 1735SOL    HW2 5230   1.556   3.176   1.931
 1736SOL     OW 5231   0.464   3.605   2.185
 1736SOL    HW1 5232   0.497   3.644   2.271
 1736SOL    HW2 5233   0.540   3.598   2.120
 1737SOL     OW 5234   1.400   1.969   2.288
 1737SOL    HW1 5235   1.376   1.932   2.198
 1737SOL    HW2 5236   1.499   1.985   2.292
 1738SOL     OW 5237   0.249   3.647   3.103
 1738SOL    HW1 5238   0.306   3.582   3.153
 1738SOL    HW2 5239   0.233   3.614   3.010
 1739SOL     OW 5240   0.940   3.560   2.766
 1739SOL    HW1 5241   1.020   3.503   2.787
 1739SOL    HW2 5242   0.891   3.520   2.689
 1740SOL     OW 5243   0.382   2.562   2.342
 1740SOL    HW1 5244   0.427   2.472   2.339
 1740SOL    HW2 5245   0.288   2.551   2.375
 1741SOL     OW 5246   1.547   2.084   3.591
 1741SOL    HW1 5247   1.542   2.121   3.683
 1741SOL    HW2 5248   1.475   2.015   3.579
 1742SOL     OW 5249   0.614   1.984   1.979
 1742SOL    HW1 5250   0.712   1.962   1.986
 1742SOL    HW2 5251   0.583   1.967   1.886
 1743SOL     OW 5252   0.781   2.126   3.611
 1743SOL    HW1 5253   0.848   2.065   3.654
 1743SOL    HW2 5254   0.708   2.145   3.676
 1744SOL     OW 5255   0.888   3.376   3.057
 1744SOL    HW1 5256   0.865   3.351   2.963
 1744SOL    HW2 5257   0.949   3.307   3.096
 1745SOL     OW 5258   1.351   2.452   3.295
 1745SOL    HW1 5259   1.379   2.409   3.380
 1745SOL    HW2 5260   1.376   2.548   3.296
 1746SOL     OW 5261   0.803   3.264   2.786
 1746SOL    HW1 5262   0.893   3.278   2.744
 1746SOL    HW2 5263   0.732   3.266   2.715
 1747SOL     OW 5264   0.922   2.365   2.761
 1747SOL    HW1 5265   0.897   2.356   2.665
 1747SOL    HW2 5266   0.970   2.283   2.792
 1748SOL     OW 5267   0.539   1.926   2.374
 1748SOL    HW1 5268   0.458   1.927   2.432
 1748SOL    HW2 5269   0.542   2.009   2.319
 1749SOL     OW 5270   1.434   3.050   1.903
 1749SOL    HW1 5271   1.466   2.974   1.960
 1749SOL    HW2 5272   1.342   3.077   1.933
 1750SOL     OW 5273   0.297   1.897   2.033
 1750SOL    HW1 5274   0.346   1.981   2.012
 1750SOL    HW2 5275   0.359   1.832   2.078
 1751SOL     OW 5276   0.935   2.098   2.342
 1751SOL    HW1 5277   0.887   2.139   2.264
 1751SOL    HW2 5278   1.034   2.096   2.323
 1752SOL     OW 5279   1.076   2.545   3.326
 1752SOL    HW1 5280   0.996   2.484   3.329
 1752SOL    HW2 5281   1.157   2.492   3.302
 1753SOL     OW 5282   1.227   3.432   2.655
 1753SOL    HW1 5283   1.248   3.506   2.590
 1753SOL    HW2 5284   1.295   3.432   2.728
 1754SOL     OW 5285   0.459   3.014   2.603
 1754SOL    HW1 5286   0.388   2.987   2.668
 1754SOL    HW2 5287   0.433   2.986   2.510
 1755SOL     OW 5288   1.271   3.659   2.453
 1755SOL    HW1 5289   1.315   3.723   2.389
 1755SOL    HW2 5290   1.221   3.711   2.523
 1756SOL     OW 5291   1.032   2.411   1.878
 1756SOL    HW1 5292   0.991   2.493   1.839
 1756SOL    HW2 5293   1.096   2.437   1.951
 1757SOL     OW 5294   0.078   2.418   3.248
 1757SOL    HW1 5295   0.170   2.417   3.207
 1757SOL    HW2 5296   0.072   2.492   3.315
 1758SOL     OW 5297   0.561   2.084   3.009
 1758SOL    HW1 5298   0.599   2.000   3.046
 1758SOL    HW2 5299   0.473   2.103   3.053
 1759SOL     OW 5300   0.866   2.316   2.504
 1759SOL    HW1 5301   0.834   2.388   2.442
 1759SOL    HW2 5302   0.890   2.235   2.451
 1760SOL     OW 5303   1.017   1.901   2.615
 1760SOL    HW1 5304   0.945   1.906   2.546
 1760SOL    HW2 5305   0.993   1.832   2.684
 1761SOL     OW 5306   1.429   3.035   2.729
 1761SOL    HW1 5307   1.374   2.951   2.722
 1761SOL    HW2 5308   1.455   3.064   2.637
 1762SOL     OW 5309   1.466   2.452   2.854
 1762SOL    HW1 5310   1.436   2.357   2.861
 1762SOL    HW2 5311   1.539   2.468   2.920
 1763SOL     OW 5312   1.857   2.695   2.239
 1763SOL    HW1 5313   1.899   2.631   2.303
 1763SOL    HW2 5314   1.819   2.644   2.161
 1764SOL     OW 5315   0.488   3.247   2.036
 1764SOL    HW1 5316   0.401   3.232   2.083
 1764SOL    HW2 5317   0.471   3.273   1.941
 1765SOL     OW 5318   1.664   3.142   2.519
 1765SOL    HW1 5319   1.763   3.150   2.533
 1765SOL    HW2 5320   1.619   3.226   2.550
 1766SOL     OW 5321   1.390   2.437   1.940
 1766SOL    HW1 5322   1.336   2.416   2.021
 1766SOL    HW2 5323   1.481   2.396   1.949
 1767SOL     OW 5324   0.527   2.118   2.190
 1767SOL    HW1 5325   0.554   2.059   2.115
 1767SOL    HW2 5326   0.527   2.213   2.159
 1768SOL     OW 5327   1.754   3.085   3.450
 1768SOL    HW1 5328   1.845   3.046   3.437
 1768SOL    HW2 5329   1.762   3.181   3.474
 1769SOL     OW 5330   1.064   3.209   3.202
 1769SOL    HW1 5331   0.984   3.186   3.257
 1769SOL    HW2 5332   1.147   3.183   3.251
 1770SOL     OW 5333   1.592   3.491   3.487
 1770SOL    HW1 5334   1.619   3.525   3.397
 1770SOL    HW2 5335   1.671   3.453   3.533
 1771SOL     OW 5336   1.111   3.057   2.962
 1771SOL    HW1 5337   1.071   3.101   3.043
 1771SOL    HW2 5338   1.070   3.094   2.879
 1772SOL     OW 5339   1.638   2.961   2.941
 1772SOL    HW1 5340   1.643   3.042   3.000
 1772SOL    HW2 5341   1.552   2.963   2.890
 1773SOL     OW 5342   0.915   1.951   3.264
 1773SOL    HW1 5343   0.940   1.931   3.169
 1773SOL    HW2 5344   0.987   2.007   3.306
 1774SOL     OW 5345   0.980   2.978   3.581
 1774SOL    HW1 5346   0.881   2.984   3.591
 1774SOL    HW2 5347   1.003   2.898   3.525
 1775SOL     OW 5348   0.705   2.912   2.230
 1775SOL    HW1 5349   0.691   2.919   2.329
 1775SOL    HW2 5350   0.789   2.861   2.212
 1776SOL     OW 5351   0.410   2.675   3.113
 1776SOL    HW1 5352   0.496   2.687   3.163
 1776SOL    HW2 5353   0.368   2.588   3.140
 1777SOL     OW 5354   1.274   2.248   3.124
 1777SOL    HW1 5355   1.295   2.322   3.188
 1777SOL    HW2 5356   1.185   2.265   3.081
 1778SOL     OW 5357   0.064   3.426   3.193
 1778SOL    HW1 5358   0.018   3.508   3.159
 1778SOL    HW2 5359   0.162   3.445   3.202
 1779SOL     OW 5360   0.367   2.962   2.363
 1779SOL    HW1 5361   0.360   3.045   2.307
 1779SOL    HW2 5362   0.371   2.882   2.303
 1780SOL     OW 5363   0.566   2.399   2.727
 1780SOL    HW1 5364   0.578   2.465   2.653
 1780SOL    HW2 5365   0.612   2.433   2.810
 1781SOL     OW 5366   1.252   3.210   2.250
 1781SOL    HW1 5367   1.302   3.287   2.290
 1781SOL    HW2 5368   1.157   3.212   2.282
 1782SOL     OW 5369   1.272   3.307   3.004
 1782SOL    HW1 5370   1.319   3.320   3.091
 1782SOL    HW2 5371   1.206   3.233   3.013
 1783SOL     OW 5372   1.582   2.501   2.334
 1783SOL    HW1 5373   1.551   2.562   2.407
 1783SOL    HW2 5374   1.632   2.553   2.265
 1784SOL     OW 5375   0.354   3.372   3.191
 1784SOL    HW1 5376   0.333   3.328   3.104
 1784SOL    HW2 5377   0.451   3.398   3.194
 1785SOL     OW 5378   0.402   2.613   3.460
 1785SOL    HW1 5379   0.470   2.668   3.413
 1785SOL    HW2 5380   0.442   2.525   3.487
 1786SOL     OW 5381   1.587   2.641   3.532
 1786SOL    HW1 5382   1.495   2.679   3.527
 1786SOL    HW2 5383   1.647   2.688   3.467
 1787SOL     OW 5384   1.013   1.967   3.632
 1787SOL    HW1 5385   1.019   2.052   3.580
 1787SOL    HW2 5386   1.045   1.891   3.575
 1788SOL     OW 5387   0.504   1.912   3.602
 1788SOL    HW1 5388   0.462   1.855   3.532
 1788SOL    HW2 5389   0.438   1.981   3.634
 1789SOL     OW 5390   0.573   2.732   2.891
 1789SOL    HW1 5391   0.617   2.821   2.882
 1789SOL    HW2 5392   0.510   2.732   2.968
 1790SOL     OW 5393   1.360   2.724   2.907
 1790SOL    HW1 5394   1.285   2.724   2.841
 1790SOL    HW2 5395   1.397   2.632   2.916
 1791SOL     OW 5396   1.209   2.387   2.137
 1791SOL    HW1 5397   1.222   2.303   2.191
 1791SOL    HW2 5398   1.180   2.461   2.197
 1792SOL     OW 5399   0.307   2.075   3.093
 1792SOL    HW1 5400   0.284   2.112   3.183
 1792SOL    HW2 5401   0.277   1.980   3.087
 1793SOL     OW 5402   0.037   3.172   3.144
 1793SOL    HW1 5403   0.090   3.123   3.212
 1793SOL    HW2 5404   0.059   3.270   3.149
 1794SOL     OW 5405   0.732   2.496   2.926
 1794SOL    HW1 5406   0.791   2.470   2.850
 1794SOL    HW2 5407   0.704   2.592   2.915
 1795SOL     OW 5408   1.728   2.797   3.716
 1795SOL    HW1 5409   1.682   2.790   3.627
 1795SOL    HW2 5410   1.666   2.841   3.782
 1796SOL     OW 5411   0.307   1.925   2.480
 1796SOL    HW1 5412   0.296   2.019   2.513
 1796SOL    HW2 5413   0.302   1.862   2.557
 1797SOL     OW 5414   1.622   2.229   2.236
 1797SOL    HW1 5415   1.624   2.153   2.300
 1797SOL    HW2 5416   1.574   2.306   2.276
 1798SOL     OW 5417   1.023   2.628   2.828
 1798SOL    HW1 5418   1.038   2.649   2.924
 1798SOL    HW2 5419   0.993   2.533   2.819
 1799SOL     OW 5420   0.980   3.435   3.562
 1799SOL    HW1 5421   0.960   3.479   3.474
 1799SOL    HW2 5422   1.019   3.344   3.546
 1800SOL     OW 5423   1.859   3.380   3.467
 1800SOL    HW1 5424   1.873   3.407   3.372
 1800SOL    HW2 5425   1.942   3.402   3.520
 1801SOL     OW 5426   0.350   2.760   3.666
 1801SOL    HW1 5427   0.426   2.804   3.714
 1801SOL    HW2 5428   0.385   2.713   3.584
 1802SOL     OW 5429   1.540   2.136   1.987
 1802SOL    HW1 5430   1.479   2.061   2.010
 1802SOL    HW2 5431   1.562   2.188   2.070
 1803SOL     OW 5432   1.303   2.700   1.904
 1803SOL    HW1 5433   1.337   2.607   1.919
 1803SOL    HW2 5434   1.321   2.727   1.809
 1804SOL     OW 5435   1.068   3.195   2.711
 1804SOL    HW1 5436   1.075   3.111   2.656
 1804SOL    HW2 5437   1.130   3.264   2.675
 1805SOL     OW 5438   0.319   2.672   2.811
 1805SOL    HW1 5439   0.412   2.708   2.816
 1805SOL    HW2 5440   0.313   2.587   2.863
 1806SOL     OW 5441   0.339   2.371   2.868
 1806SOL    HW1 5442   0.287   2.288   2.851
 1806SOL    HW2 5443   0.416   2.376   2.804
 1807SOL     OW 5444   1.138   2.242   3.540
 1807SOL    HW1 5445   1.093   2.305   3.604
 1807SOL    HW2 5446   1.231   2.273   3.523
 1808SOL     OW 5447   1.160   2.069   3.339
 1808SOL    HW1 5448   1.160   2.133   3.416
 1808SOL    HW2 5449   1.188   2.117   3.256
 1809SOL     OW 5450   0.008   3.188   2.062
 1809SOL    HW1 5451  -0.085   3.209   2.031
 1809SOL    HW2 5452   0.018   3.089   2.075
 1810SOL     OW 5453   0.088   3.663   2.789
 1810SOL    HW1 5454   0.046   3.577   2.762
 1810SOL    HW2 5455   0.182   3.666   2.755
 1811SOL     OW 5456   0.504   3.430   2.772
 1811SOL    HW1 5457   0.570   3.504   2.781
 1811SOL    HW2 5458   0.548   3.351   2.730
 1812SOL     OW 5459   1.002   2.658   3.100
 1812SOL    HW1 5460   1.043   2.626   3.186
 1812SOL    HW2 5461   0.906   2.631   3.097
 1813SOL     OW 5462   0.040   2.406   2.976
 1813SOL    HW1 5463   0.125   2.373   2.935
 1813SOL    HW2 5464   0.053   2.421   3.074
 1814SOL     OW 5465   0.189   2.382   3.584
 1814SOL    HW1 5466   0.248   2.342   3.514
 1814SOL    HW2 5467   0.131   2.453   3.543
 1815SOL     OW 5468   1.369   2.812   3.522
 1815SOL    HW1 5469   1.408   2.901   3.542
 1815SOL    HW2 5470   1.379   2.792   3.425
 1816SOL     OW 5471   0.815   2.434   2.187
 1816SOL    HW1 5472   0.822   2.345   2.141
 1816SOL    HW2 5473   0.721   2.468   2.179
 1817SOL     OW 5474   1.657   2.466   3.068
 1817SOL    HW1 5475   1.619   2.397   3.130
 1817SOL    HW2 5476   1.739   2.430   3.024
 1818SOL     OW 5477   0.252   3.426   3.606
 1818SOL    HW1 5478   0.222   3.483   3.682
 1818SOL    HW2 5479   0.245   3.329   3.632
 1819SOL     OW 5480   0.671   2.326   3.131
 1819SOL    HW1 5481   0.637   2.237   3.101
 1819SOL    HW2 5482   0.697   2.380   3.051
 1820SOL     OW 5483   0.930   3.540   3.327
 1820SOL    HW1 5484   0.906   3.522   3.232
 1820SOL    HW2 5485   0.960   3.634   3.337
 1821SOL     OW 5486   0.473   2.362   2.053
 1821SOL    HW1 5487   0.534   2.442   2.057
 1821SOL    HW2 5488   0.378   2.393   2.060
 1822SOL     OW 5489   0.159   2.999   3.328
 1822SOL    HW1 5490   0.181   2.938   3.404
 1822SOL    HW2 5491   0.169   2.950   3.242
 1823SOL     OW 5492   1.347   2.921   3.096
 1823SOL    HW1 5493   1.371   2.858   3.022
 1823SOL    HW2 5494   1.257   2.961   3.078
 1824SOL     OW 5495   1.302   2.717   2.171
 1824SOL    HW1 5496   1.216   2.686   2.213
 1824SOL    HW2 5497   1.298   2.703   2.072
 1825SOL     OW 5498   1.759   3.609   3.016
 1825SOL    HW1 5499   1.820   3.639   2.943
 1825SOL    HW2 5500   1.721   3.520   2.994
 1826SOL     OW 5501   1.252   3.593   2.990
 1826SOL    HW1 5502   1.336   3.598   2.936
 1826SOL    HW2 5503   1.229   3.497   3.008
 1827SOL     OW 5504   0.083   3.120   2.884
 1827SOL    HW1 5505   0.078   3.119   2.984
 1827SOL    HW2 5506   0.000   3.079   2.846
 1828SOL     OW 5507   0.688   3.524   3.578
 1828SOL    HW1 5508   0.632   3.605   3.587
 1828SOL    HW2 5509   0.740   3.528   3.492
 1829SOL     OW 5510   1.726   1.997   2.385
 1829SOL    HW1 5511   1.799   1.980   2.318
 1829SOL    HW2 5512   1.695   1.910   2.423
 1830SOL     OW 5513   1.388   3.435   2.339
 1830SOL    HW1 5514   1.455   3.447   2.265
 1830SOL    HW2 5515   1.348   3.524   2.362
 1831SOL     OW 5516   0.130   3.656   3.713
 1831SOL    HW1 5517   0.089   3.582   3.766
 1831SOL    HW2 5518   0.194   3.707   3.771
 1832SOL     OW 5519   1.280   2.789   2.534
 1832SOL    HW1 5520   1.340   2.708   2.536
 1832SOL    HW2 5521   1.320   2.858   2.474
 1833SOL     OW 5522   0.830   3.135   3.284
 1833SOL    HW1 5523   0.825   3.168   3.379
 1833SOL    HW2 5524   0.744   3.154   3.238
 1834SOL     OW 5525   0.672   3.478   2.016
 1834SOL    HW1 5526   0.681   3.488   1.917
 1834SOL    HW2 5527   0.632   3.389   2.037
 1835SOL     OW 5528   1.650   3.582   3.256
 1835SOL    HW1 5529   1.703   3.592   3.172
 1835SOL    HW2 5530   1.623   3.672   3.290
 1836SOL     OW 5531   1.841   2.037   2.825
 1836SOL    HW1 5532   1.880   1.952   2.789
 1836SOL    HW2 5533   1.743   2.039   2.806
 1837SOL     OW 5534   0.263   2.188   2.582
 1837SOL    HW1 5535   0.184   2.239   2.548
 1837SOL    HW2 5536   0.254   2.173   2.680
 1838SOL     OW 5537   1.194   3.474   1.893
 1838SOL    HW1 5538   1.200   3.381   1.930
 1838SOL    HW2 5539   1.135   3.474   1.813
 1839SOL     OW 5540   0.822   2.864   3.234
 1839SOL    HW1 5541   0.862   2.863   3.142
 1839SOL    HW2 5542   0.832   2.956   3.274
 1840SOL     OW 5543   0.916   2.772   2.153
 1840SOL    HW1 5544   0.979   2.810   2.085
 1840SOL    HW2 5545   0.956   2.689   2.192
 1841SOL     OW 5546   1.504   3.469   1.906
 1841SOL    HW1 5547   1.412   3.506   1.913
 1841SOL    HW2 5548   1.542   3.489   1.816
 1842SOL     OW 5549   0.372   3.150   3.352
 1842SOL    HW1 5550   0.359   3.243   3.318
 1842SOL    HW2 5551   0.288   3.098   3.339
 1843SOL     OW 5552   1.614   3.154   3.151
 1843SOL    HW1 5553   1.674   3.157   3.231
 1843SOL    HW2 5554   1.539   3.218   3.164
 1844SOL     OW 5555   1.039   2.960   2.558
 1844SOL    HW1 5556   0.969   2.913   2.612
 1844SOL    HW2 5557   1.098   2.892   2.515
 1845SOL     OW 5558   1.014   2.098   2.833
 1845SOL    HW1 5559   1.006   2.062   2.740
 1845SOL    HW2 5560   1.012   2.022   2.898
 1846SOL     OW 5561   0.590   3.349   2.353
 1846SOL    HW1 5562   0.632   3.291   2.283
 1846SOL    HW2 5563   0.546   3.428   2.309
 1847SOL     OW 5564   1.709   2.247   3.243
 1847SOL    HW1 5565   1.782   2.316   3.247
 1847SOL    HW2 5566   1.737   2.172   3.184
 1848SOL     OW 5567   0.255   3.210   2.152
 1848SOL    HW1 5568   0.159   3.211   2.125
 1848SOL    HW2 5569   0.267   3.263   2.236
 1849SOL     OW 5570   0.105   2.875   3.588
 1849SOL    HW1 5571   0.028   2.842   3.642
 1849SOL    HW2 5572   0.190   2.845   3.630
 1850SOL     OW 5573   0.672   2.065   3.351
 1850SOL    HW1 5574   0.762   2.049   3.311
 1850SOL    HW2 5575   0.680   2.070   3.450
 1851SOL     OW 5576   0.075   2.207   1.895
 1851SOL    HW1 5577  -0.017   2.179   1.866
 1851SOL    HW2 5578   0.106   2.284   1.839
 1852SOL     OW 5579   1.440   2.718   3.260
 1852SOL    HW1 5580   1.383   2.770   3.197
 1852SOL    HW2 5581   1.536   2.730   3.236
 1853SOL     OW 5582   0.072   2.028   2.180
 1853SOL    HW1 5583   0.055   2.111   2.126
 1853SOL    HW2 5584   0.162   1.991   2.158
 1854SOL     OW 5585   1.183   3.197   1.981
 1854SOL    HW1 5586   1.084   3.186   1.983
 1854SOL    HW2 5587   1.217   3.212   2.074
 1855SOL     OW 5588   0.613   2.704   3.293
 1855SOL    HW1 5589   0.669   2.785   3.276
 1855SOL    HW2 5590   0.672   2.624   3.296
 1856SOL     OW 5591   1.493   3.629   2.821
 1856SOL    HW1 5592   1.526   3.693   2.752
 1856SOL    HW2 5593   1.559   3.623   2.896
 1857SOL     OW 5594   0.716   2.427   3.570
 1857SOL    HW1 5595   0.735   2.492   3.644
 1857SOL    HW2 5596   0.776   2.347   3.579
 1858SOL     OW 5597   1.450   3.082   3.495
 1858SOL    HW1 5598   1.441   3.072   3.594
 1858SOL    HW2 5599   1.546   3.075   3.469
 1859SOL     OW 5600   0.390   3.603   3.422
 1859SOL    HW1 5601   0.299   3.644   3.420
 1859SOL    HW2 5602   0.383   3.509   3.454
 1860SOL     OW 5603   1.674   2.745   3.116
 1860SOL    HW1 5604   1.647   2.656   3.079
 1860SOL    HW2 5605   1.675   2.813   3.043
 1861SOL     OW 5606   1.225   2.187   2.311
 1861SOL    HW1 5607   1.290   2.113   2.300
 1861SOL    HW2 5608   1.245   2.237   2.395
 1862SOL     OW 5609   0.594   2.607   2.514
 1862SOL    HW1 5610   0.644   2.692   2.495
 1862SOL    HW2 5611   0.506   2.609   2.466
 1863SOL     OW 5612   1.777   2.204   3.504
 1863SOL    HW1 5613   1.760   2.235   3.410
 1863SOL    HW2 5614   1.693   2.167   3.542
 1864SOL     OW 5615   1.730   2.796   3.379
 1864SOL    HW1 5616   1.768   2.887   3.394
 1864SOL    HW2 5617   1.722   2.779   3.280
 1865SOL     OW 5618   0.859   3.236   1.878
 1865SOL    HW1 5619   0.813   3.251   1.966
 1865SOL    HW2 5620   0.903   3.321   1.848
 1866SOL     OW 5621   0.661   3.652   2.815
 1866SOL    HW1 5622   0.615   3.740   2.802
 1866SOL    HW2 5623   0.760   3.664   2.808
 1867SOL     OW 5624   0.859   2.818   2.723
 1867SOL    HW1 5625   0.913   2.749   2.771
 1867SOL    HW2 5626   0.827   2.887   2.789
 1868SOL     OW 5627   1.083   2.846   1.949
 1868SOL    HW1 5628   1.060   2.899   1.867
 1868SOL    HW2 5629   1.164   2.790   1.930
 1869SOL     OW 5630   1.861   3.431   2.713
 1869SOL    HW1 5631   1.790   3.419   2.643
 1869SOL    HW2 5632   1.862   3.352   2.773
 1870SOL     OW 5633   0.221   3.176   3.706
 1870SOL    HW1 5634   0.156   3.103   3.685
 1870SOL    HW2 5635   0.225   3.190   3.804
 1871SOL     OW 5636   0.079   3.102   2.515
 1871SOL    HW1 5637   0.078   3.055   2.603
 1871SOL    HW2 5638   0.161   3.074   2.464
 1872SOL     OW 5639   0.672   3.253   3.486
 1872SOL    HW1 5640   0.594   3.203   3.524
 1872SOL    HW2 5641   0.669   3.348   3.517
 1873SOL     OW 5642   1.824   2.054   3.089
 1873SOL    HW1 5643   1.820   1.964   3.133
 1873SOL    HW2 5644   1.827   2.043   2.990
 1874SOL     OW 5645   0.428   2.286   2.382
 1874SOL    HW1 5646   0.458   2.214   2.320
 1874SOL    HW2 5647   0.389   2.246   2.465
 1875SOL     OW 5648   1.705   3.349   2.966
 1875SOL    HW1 5649   1.612   3.324   2.939
 1875SOL    HW2 5650   1.731   3.299   3.048
 1876SOL     OW 5651   0.317   2.409   3.142
 1876SOL    HW1 5652   0.355   2.350   3.214
 1876SOL    HW2 5653   0.357   2.383   3.054
 1877SOL     OW 5654   0.812   3.448   2.549
 1877SOL    HW1 5655   0.844   3.458   2.455
 1877SOL    HW2 5656   0.733   3.386   2.551
 1878SOL     OW 5657   1.424   2.076   2.974
 1878SOL    HW1 5658   1.476   2.011   3.029
 1878SOL    HW2 5659   1.375   2.139   3.035
 1879SOL     OW 5660   1.001   1.896   3.016
 1879SOL    HW1 5661   0.938   1.824   2.985
 1879SOL    HW2 5662   1.094   1.860   3.016
 1880SOL     OW 5663   0.770   3.192   2.163
 1880SOL    HW1 5664   0.724   3.105   2.180
 1880SOL    HW2 5665   0.861   3.189   2.204
 1881SOL     OW 5666   0.618   3.429   3.146
 1881SOL    HW1 5667   0.613   3.511   3.203
 1881SOL    HW2 5668   0.707   3.426   3.101
 1882SOL     OW 5669   1.352   1.914   2.030
 1882SOL    HW1 5670   1.387   1.873   1.946
 1882SOL    HW2 5671   1.262   1.876   2.050
 1883SOL     OW 5672   1.300   2.315   2.553
 1883SOL    HW1 5673   1.241   2.395   2.557
 1883SOL    HW2 5674   1.315   2.280   2.646
 1884SOL     OW 5675   1.593   2.083   2.744
 1884SOL    HW1 5676   1.509   2.082   2.798
 1884SOL    HW2 5677   1.595   2.166   2.688
 1885SOL     OW 5678   0.039   2.939   2.162
 1885SOL    HW1 5679   0.138   2.928   2.153
 1885SOL    HW2 5680  -0.001   2.853   2.194
 1886SOL     OW 5681   0.875   3.508   2.199
 1886SOL    HW1 5682   0.798   3.473   2.145
 1886SOL    HW2 5683   0.843   3.579   2.261
 1887SOL     OW 5684   0.230   2.490   3.837
 1887SOL    HW1 5685   0.137   2.488   3.874
 1887SOL    HW2 5686   0.231   2.451   3.745
 1888SOL     OW 5687   0.225   2.137   4.720
 1888SOL    HW1 5688   0.260   2.120   4.812
 1888SOL    HW2 5689   0.137   2.092   4.708
 1889SOL     OW 5690   0.019   2.230   4.371
 1889SOL    HW1 5691  -0.063   2.273   4.410
 1889SOL    HW2 5692  -0.009   2.157   4.308
 1890SOL     OW 5693   0.569   3.137   4.889
 1890SOL    HW1 5694   0.476   3.130   4.852
 1890SOL    HW2 5695   0.580   3.226   4.933
 1891SOL     OW 5696   1.555   3.373   4.427
 1891SOL    HW1 5697   1.498   3.357   4.508
 1891SOL    HW2 5698   1.496   3.383   4.347
 1892SOL     OW 5699   1.135   2.565   4.441
 1892SOL    HW1 5700   1.192   2.643   4.416
 1892SOL    HW2 5701   1.075   2.591   4.517
 1893SOL     OW 5702   1.755   2.469   3.955
 1893SOL    HW1 5703   1.743   2.456   3.856
 1893SOL    HW2 5704   1.725   2.388   4.004
 1894SOL     OW 5705   0.768   3.006   4.747
 1894SOL    HW1 5706   0.690   3.023   4.807
 1894SOL    HW2 5707   0.802   3.093   4.711
 1895SOL     OW 5708   0.850   2.660   5.547
 1895SOL    HW1 5709   0.846   2.736   5.612
 1895SOL    HW2 5710   0.872   2.696   5.456
 1896SOL     OW 5711   0.685   2.874   4.389
 1896SOL    HW1 5712   0.754   2.858   4.459
 1896SOL    HW2 5713   0.612   2.931   4.427
 1897SOL     OW 5714   0.686   3.023   5.527
 1897SOL    HW1 5715   0.746   3.102   5.541
 1897SOL    HW2 5716   0.600   3.054   5.486
 1898SOL     OW 5717   0.335   3.297   4.785
 1898SOL    HW1 5718   0.257   3.266   4.732
 1898SOL    HW2 5719   0.393   3.355   4.728
 1899SOL     OW 5720   1.460   3.367   5.063
 1899SOL    HW1 5721   1.484   3.461   5.089
 1899SOL    HW2 5722   1.444   3.313   5.145
 1900SOL     OW 5723   0.438   2.254   5.223
 1900SOL    HW1 5724   0.520   2.198   5.232
 1900SOL    HW2 5725   0.357   2.196   5.227
 1901SOL     OW 5726   1.603   2.309   4.461
 1901SOL    HW1 5727   1.529   2.355   4.411
 1901SOL    HW2 5728   1.654   2.377   4.514
 1902SOL     OW 5729   0.231   3.575   4.207
 1902SOL    HW1 5730   0.265   3.652   4.261
 1902SOL    HW2 5731   0.275   3.575   4.117
 1903SOL     OW 5732   1.127   3.203   5.414
 1903SOL    HW1 5733   1.174   3.203   5.502
 1903SOL    HW2 5734   1.079   3.116   5.403
 1904SOL     OW 5735   0.230   3.296   4.262
 1904SOL    HW1 5736   0.204   3.392   4.262
 1904SOL    HW2 5737   0.159   3.242   4.307
 1905SOL     OW 5738   0.240   2.953   4.610
 1905SOL    HW1 5739   0.254   2.869   4.662
 1905SOL    HW2 5740   0.185   3.017   4.665
 1906SOL     OW 5741   0.620   3.648   5.163
 1906SOL    HW1 5742   0.528   3.631   5.198
 1906SOL    HW2 5743   0.648   3.740   5.189
 1907SOL     OW 5744   0.606   2.826   3.847
 1907SOL    HW1 5745   0.613   2.910   3.793
 1907SOL    HW2 5746   0.652   2.839   3.935
 1908SOL     OW 5747   1.594   1.976   5.204
 1908SOL    HW1 5748   1.576   2.043   5.132
 1908SOL    HW2 5749   1.591   2.022   5.293
 1909SOL     OW 5750   0.122   2.505   4.287
 1909SOL    HW1 5751   0.077   2.417   4.304
 1909SOL    HW2 5752   0.121   2.559   4.371
 1910SOL     OW 5753   1.842   3.629   4.083
 1910SOL    HW1 5754   1.896   3.600   4.163
 1910SOL    HW2 5755   1.872   3.719   4.054
 1911SOL     OW 5756   0.027   3.458   3.841
 1911SOL    HW1 5757   0.008   3.362   3.862
 1911SOL    HW2 5758  -0.006   3.516   3.916
 1912SOL     OW 5759   1.689   2.784   4.336
 1912SOL    HW1 5760   1.784   2.755   4.344
 1912SOL    HW2 5761   1.681   2.849   4.261
 1913SOL     OW 5762   1.641   2.970   4.156
 1913SOL    HW1 5763   1.727   2.972   4.104
 1913SOL    HW2 5764   1.655   3.017   4.244
 1914SOL     OW 5765   0.113   2.599   5.321
 1914SOL    HW1 5766   0.201   2.586   5.366
 1914SOL    HW2 5767   0.100   2.696   5.299
 1915SOL     OW 5768   0.613   3.227   4.450
 1915SOL    HW1 5769   0.564   3.140   4.459
 1915SOL    HW2 5770   0.590   3.270   4.363
 1916SOL     OW 5771   1.293   3.090   5.147
 1916SOL    HW1 5772   1.330   3.017   5.089
 1916SOL    HW2 5773   1.345   3.095   5.232
 1917SOL     OW 5774   0.809   1.866   4.226
 1917SOL    HW1 5775   0.849   1.957   4.217
 1917SOL    HW2 5776   0.709   1.874   4.232
 1918SOL     OW 5777   0.197   2.838   4.988
 1918SOL    HW1 5778   0.286   2.793   4.974
 1918SOL    HW2 5779   0.124   2.773   4.969
 1919SOL     OW 5780   1.525   2.861   3.914
 1919SOL    HW1 5781   1.462   2.785   3.927
 1919SOL    HW2 5782   1.573   2.879   4.000
 1920SOL     OW 5783   1.187   3.654   5.340
 1920SOL    HW1 5784   1.211   3.714   5.264
 1920SOL    HW2 5785   1.194   3.559   5.310
 1921SOL     OW 5786   0.317   2.113   5.525
 1921SOL    HW1 5787   0.388   2.184   5.531
 1921SOL    HW2 5788   0.229   2.152   5.553
 1922SOL     OW 5789   1.466   3.279   4.677
 1922SOL    HW1 5790   1.407   3.285   4.757
 1922SOL    HW2 5791   1.451   3.191   4.631
 1923SOL     OW 5792   1.667   3.576   4.296
 1923SOL    HW1 5793   1.626   3.553   4.208
 1923SOL    HW2 5794   1.649   3.502   4.361
 1924SOL     OW 5795   0.598   2.591   3.994
 1924SOL    HW1 5796   0.622   2.660   3.926
 1924SOL    HW2 5797   0.520   2.624   4.048
 1925SOL     OW 5798   1.281   2.207   4.668
 1925SOL    HW1 5799   1.195   2.157   4.655
 1925SOL    HW2 5800   1.343   2.153   4.724
 1926SOL     OW 5801   1.576   3.524   4.031
 1926SOL    HW1 5802   1.665   3.570   4.034
 1926SOL    HW2 5803   1.555   3.500   3.936
 1927SOL     OW 5804   0.807   2.467   5.189
 1927SOL    HW1 5805   0.760   2.464   5.278
 1927SOL    HW2 5806   0.756   2.412   5.123
 1928SOL     OW 5807   1.394   2.331   5.398
 1928SOL    HW1 5808   1.374   2.374   5.486
 1928SOL    HW2 5809   1.472   2.269   5.407
 1929SOL     OW 5810   0.973   2.752   5.296
 1929SOL    HW1 5811   1.019   2.668   5.267
 1929SOL    HW2 5812   0.917   2.786   5.221
 1930SOL     OW 5813   0.991   2.272   4.966
 1930SOL    HW1 5814   0.914   2.306   5.020
 1930SOL    HW2 5815   0.957   2.221   4.887
 1931SOL     OW 5816   1.041   2.563   4.153
 1931SOL    HW1 5817   1.067   2.559   4.249
 1931SOL    HW2 5818   0.956   2.512   4.139
 1932SOL     OW 5819   0.076   2.673   4.513
 1932SOL    HW1 5820   0.175   2.661   4.522
 1932SOL    HW2 5821   0.052   2.768   4.534
 1933SOL     OW 5822   0.130   3.683   5.295
 1933SOL    HW1 5823   0.120   3.668   5.394
 1933SOL    HW2 5824   0.044   3.719   5.259
 1934SOL     OW 5825   0.865   2.210   3.919
 1934SOL    HW1 5826   0.924   2.273   3.870
 1934SOL    HW2 5827   0.884   2.116   3.890
 1935SOL     OW 5828   1.719   2.447   5.555
 1935SOL    HW1 5829   1.693   2.536   5.519
 1935SOL    HW2 5830   1.717   2.379   5.482
 1936SOL     OW 5831   1.362   3.006   4.269
 1936SOL    HW1 5832   1.445   2.977   4.221
 1936SOL    HW2 5833   1.313   3.073   4.213
 1937SOL     OW 5834   0.550   2.058   4.609
 1937SOL    HW1 5835   0.545   2.053   4.709
 1937SOL    HW2 5836   0.552   2.154   4.580
 1938SOL     OW 5837   1.008   3.318   4.201
 1938SOL    HW1 5838   0.962   3.390   4.149
 1938SOL    HW2 5839   1.004   3.338   4.299
 1939SOL     OW 5840   0.351   3.663   4.577
 1939SOL    HW1 5841   0.401   3.577   4.583
 1939SOL    HW2 5842   0.416   3.740   4.574
 1940SOL     OW 5843   1.795   2.928   4.597
 1940SOL    HW1 5844   1.733   2.913   4.521
 1940SOL    HW2 5845   1.743   2.939   4.682
 1941SOL     OW 5846   1.227   3.412   5.230
 1941SOL    HW1 5847   1.233   3.335   5.294
 1941SOL    HW2 5848   1.175   3.386   5.150
 1942SOL     OW 5849   0.321   2.805   3.966
 1942SOL    HW1 5850   0.403   2.844   3.924
 1942SOL    HW2 5851   0.294   2.723   3.917
 1943SOL     OW 5852   1.458   2.597   4.452
 1943SOL    HW1 5853   1.453   2.532   4.527
 1943SOL    HW2 5854   1.538   2.656   4.465
 1944SOL     OW 5855   0.461   3.128   5.451
 1944SOL    HW1 5856   0.411   3.129   5.365
 1944SOL    HW2 5857   0.398   3.110   5.527
 1945SOL     OW 5858   1.111   3.638   3.961
 1945SOL    HW1 5859   1.051   3.576   4.011
 1945SOL    HW2 5860   1.142   3.594   3.876
 1946SOL     OW 5861   0.202   2.147   5.222
 1946SOL    HW1 5862   0.122   2.207   5.209
 1946SOL    HW2 5863   0.192   2.098   5.308
 1947SOL     OW 5864   1.632   3.239   3.805
 1947SOL    HW1 5865   1.600   3.333   3.795
 1947SOL    HW2 5866   1.556   3.176   3.793
 1948SOL     OW 5867   0.464   3.605   4.047
 1948SOL    HW1 5868   0.497   3.644   4.133
 1948SOL    HW2 5869   0.540   3.598   3.982
 1949SOL     OW 5870   1.400   1.969   4.150
 1949SOL    HW1 5871   1.376   1.932   4.060
 1949SOL    HW2 5872   1.499   1.985   4.154
 1950SOL     OW 5873   0.249   3.647   4.965
 1950SOL    HW1 5874   0.306   3.582   5.015
 1950SOL    HW2 5875   0.233   3.614   4.872
 1951SOL     OW 5876   0.940   3.560   4.628
 1951SOL    HW1 5877   1.020   3.503   4.649
 1951SOL    HW2 5878   0.891   3.520   4.551
 1952SOL     OW 5879   0.382   2.562   4.204
 1952SOL    HW1 5880   0.427   2.472   4.201
 1952SOL    HW2 5881   0.288   2.551   4.237
 1953SOL     OW 5882   1.547   2.084   5.453
 1953SOL    HW1 5883   1.542   2.121   5.545
 1953SOL    HW2 5884   1.475   2.015   5.441
 1954SOL     OW 5885   0.614   1.984   3.841
 1954SOL    HW1 5886   0.712   1.962   3.848
 1954SOL    HW2 5887   0.583   1.967   3.748
 1955SOL     OW 5888   0.781   2.126   5.473
 1955SOL    HW1 5889   0.848   2.065   5.516
 1955SOL    HW2 5890   0.708   2.145   5.538
 1956SOL     OW 5891   0.888   3.376   4.919
 1956SOL    HW1 5892   0.865   3.351   4.825
 1956SOL    HW2 5893   0.949   3.307   4.958
 1957SOL     OW 5894   1.351   2.452   5.157
 1957SOL    HW1 5895   1.379   2.409   5.242
 1957SOL    HW2 5896   1.376   2.548   5.158
 1958SOL     OW 5897   0.803   3.264   4.648
 1958SOL    HW1 5898   0.893   3.278   4.606
 1958SOL    HW2 5899   0.732   3.266   4.577
 1959SOL     OW 5900   0.922   2.365   4.623
 1959SOL    HW1 5901   0.897   2.356   4.527
 1959SOL    HW2 5902   0.970   2.283   4.654
 1960SOL     OW 5903   0.539   1.926   4.236
 1960SOL    HW1 5904   0.458   1.927   4.294
 1960SOL    HW2 5905   0.542   2.009   4.181
 1961SOL     OW 5906   1.434   3.050   3.765
 1961SOL    HW1 5907   1.466   2.974   3.822
 1961SOL    HW2 5908   1.342   3.077   3.795
 1962SOL     OW 5909   0.297   1.897   3.895
 1962SOL    HW1 5910   0.346   1.981   3.874
 1962SOL    HW2 5911   0.359   1.832   3.940
 1963SOL     OW 5912   0.935   2.098   4.204
 1963SOL    HW1 5913   0.887   2.139   4.126
 1963SOL    HW2 5914   1.034   2.096   4.185
 1964SOL     OW 5915   1.076   2.545   5.188
 1964SOL    HW1 5916   0.996   2.484   5.191
 1964SOL    HW2 5917   1.157   2.492   5.164
 1965SOL     OW 5918   1.227   3.432   4.517
 1965SOL    HW1 5919   1.248   3.506   4.452
 1965SOL    HW2 5920   1.295   3.432   4.590
 1966SOL     OW 5921   0.459   3.014   4.465
 1966SOL    HW1 5922   0.388   2.987   4.530
 1966SOL    HW2 5923   0.433   2.986   4.372
 1967SOL     OW 5924   1.271   3.659   4.315
 1967SOL    HW1 5925   1.315   3.723   4.251
 1967SOL    HW2 5926   1.221   3.711   4.385
 1968SOL     OW 5927   1.032   2.411   3.740
 1968SOL    HW1 5928   0.991   2.493   3.701
 1968SOL    HW2 5929   1.096   2.437   3.813
 1969SOL     OW 5930   0.078   2.418   5.110
 1969SOL    HW1 5931   0.170   2.417   5.069
 1969SOL    HW2 5932   0.072   2.492   5.177
 1970SOL     OW 5933   0.561   2.084   4.871
 1970SOL    HW1 5934   0.599   2.000   4.908
 1970SOL    HW2 5935   0.473   2.103   4.915
 1971SOL     OW 5936   0.866   2.316   4.366
 1971SOL    HW1 5937   0.834   2.388   4.304
 1971SOL    HW2 5938   0.890   2.235   4.313
 1972SOL     OW 5939   1.017   1.901   4.477
 1972SOL    HW1 5940   0.945   1.906   4.408
 1972SOL    HW2 5941   0.993   1.832   4.546
 1973SOL     OW 5942   1.429   3.035   4.591
 1973SOL    HW1 5943   1.374   2.951   4.584
 1973SOL    HW2 5944   1.455   3.064   4.499
 1974SOL     OW 5945   1.466   2.452   4.716
 1974SOL    HW1 5946   1.436   2.357   4.723
 1974SOL    HW2 5947   1.539   2.468   4.782
 1975SOL     OW 5948   1.857   2.695   4.101
 1975SOL    HW1 5949   1.899   2.631   4.165
 1975SOL    HW2 5950   1.819   2.644   4.023
 1976SOL     OW 5951   0.488   3.247   3.898
 1976SOL    HW1 5952   0.401   3.232   3.945
 1976SOL    HW2 5953   0.471   3.273   3.803
 1977SOL     OW 5954   1.664   3.142   4.381
 1977SOL    HW1 5955   1.763   3.150   4.395
 1977SOL    HW2 5956   1.619   3.226   4.412
 1978SOL     OW 5957   1.390   2.437   3.802
 1978SOL    HW1 5958   1.336   2.416   3.883
 1978SOL    HW2 5959   1.481   2.396   3.811
 1979SOL     OW 5960   0.527   2.118   4.052
 1979SOL    HW1 5961   0.554   2.059   3.977
 1979SOL    HW2 5962   0.527   2.213   4.021
 1980SOL     OW 5963   1.754   3.085   5.312
 1980SOL    HW1 5964   1.845   3.046   5.299
 1980SOL    HW2 5965   1.762   3.181   5.336
 1981SOL     OW 5966   1.064   3.209   5.064
 1981SOL    HW1 5967   0.984   3.186   5.119
 1981SOL    HW2 5968   1.147   3.183   5.113
 1982SOL     OW 5969   1.592   3.491   5.349
 1982SOL    HW1 5970   1.619   3.525   5.259
 1982SOL    HW2 5971   1.671   3.453   5.395
 1983SOL     OW 5972   1.111   3.057   4.824
 1983SOL    HW1 5973   1.071   3.101   4.905
 1983SOL    HW2 5974   1.070   3.094   4.741
 1984SOL     OW 5975   1.638   2.961   4.803
 1984SOL    HW1 5976   1.643   3.042   4.862
 1984SOL    HW2 5977   1.552   2.963   4.752
 1985SOL     OW 5978   0.915   1.951   5.126
 1985SOL    HW1 5979   0.940   1.931   5.031
 1985SOL    HW2 5980   0.987   2.007   5.168
 1986SOL     OW 5981   0.980   2.978   5.443
 1986SOL    HW1 5982   0.881   2.984   5.453
 1986SOL    HW2 5983   1.003   2.898   5.387
 1987SOL     OW 5984   0.705   2.912   4.092
 1987SOL    HW1 5985   0.691   2.919   4.191
 1987SOL    HW2 5986   0.789   2.861   4.074
 1988SOL     OW 5987   0.410   2.675   4.975
 1988SOL    HW1 5988   0.496   2.687   5.025
 1988SOL    HW2 5989   0.368   2.588   5.002
 1989SOL     OW 5990   1.274   2.248   4.986
 1989SOL    HW1 5991   1.295   2.322   5.050
 1989SOL    HW2 5992   1.185   2.265   4.943
 1990SOL     OW 5993   0.064   3.426   5.055
 1990SOL    HW1 5994   0.018   3.508   5.021
 1990SOL    HW2 5995   0.162   3.445   5.064
 1991SOL     OW 5996   0.367   2.962   4.225
 1991SOL    HW1 5997   0.360   3.045   4.169
 1991SOL    HW2 5998   0.371   2.882   4.165
 1992SOL     OW 5999   0.566   2.399   4.589
 1992SOL    HW1 6000   0.578   2.465   4.515
 1992SOL    HW2 6001   0.612   2.433   4.672
 1993SOL     OW 6002   1.252   3.210   4.112
 1993SOL    HW1 6003   1.302   3.287   4.152
 1993SOL    HW2 6004   1.157   3.212   4.144
 1994SOL     OW 6005   1.272   3.307   4.866
 1994SOL    HW1 6006   1.319   3.320   4.953
 1994SOL    HW2 6007   1.206   3.233   4.875
 1995SOL     OW 6008   1.582   2.501   4.196
 1995SOL    HW1 6009   1.551   2.562   4.269
 1995SOL    HW2 6010   1.632   2.553   4.127
 1996SOL     OW 6011   0.354   3.372   5.053
 1996SOL    HW1 6012   0.333   3.328   4.966
 1996SOL    HW2 6013   0.451   3.398   5.056
 1997SOL     OW 6014   0.402   2.613   5.322
 1997SOL    HW1 6015   0.470   2.668   5.275
 1997SOL    HW2 6016   0.442   2.525   5.349
 1998SOL     OW 6017   1.587   2.641   5.394
 1998SOL    HW1 6018   1.495   2.679   5.389
 1998SOL    HW2 6019   1.647   2.688   5.329
 1999SOL     OW 6020   1.013   1.967   5.494
 1999SOL    HW1 6021   1.019   2.052   5.442
 1999SOL    HW2 6022   1.045   1.891   5.437
 2000SOL     OW 6023   0.504   1.912   5.464
 2000SOL    HW1 6024   0.462   1.855   5.394
 2000SOL    HW2 6025   0.438   1.981   5.496
 2001SOL     OW 6026   0.573   2.732   4.753
 2001SOL    HW1 6027   0.617   2.821   4.744
 2001SOL    HW2 6028   0.510   2.732   4.830
 2002SOL     OW 6029   1.360   2.724   4.769
 2002SOL    HW1 6030   1.285   2.724   4.703
 2002SOL    HW2 6031   1.397   2.632   4.778
 2003SOL     OW 6032   1.209   2.387   3.999
 2003SOL    HW1 6033   1.222   2.303   4.053
 2003SOL    HW2 6034   1.180   2.461   4.059
 2004SOL     OW 6035   0.307   2.075   4.955
 2004SOL    HW1 6036   0.284   2.112   5.045
 2004SOL    HW2 6037   0.277   1.980   4.949
 2005SOL     OW 6038   0.037   3.172   5.006
 2005SOL    HW1 6039   0.090   3.123   5.074
 2005SOL    HW2 6040   0.059   3.270   5.011
 2006SOL     OW 6041   0.732   2.496   4.788
 2006SOL    HW1 6042   0.791   2.470   4.712
 2006SOL    HW2 6043   0.704   2.592   4.777
 2007SOL     OW 6044   1.728   2.797   5.578
 2007SOL    HW1 6045   1.682   2.790   5.489
 2007SOL    HW2 6046   1.666   2.841   5.644
 2008SOL     OW 6047   0.307   1.925   4.342
 2008SOL    HW1 6048   0.296   2.019   4.375
 2008SOL    HW2 6049   0.302   1.862   4.419
 2009SOL     OW 6050   1.622   2.229   4.098
 2009SOL    HW1 6051   1.624   2.153   4.162
 2009SOL    HW2 6052   1.574   2.306   4.138
 2010SOL     OW 6053   1.023   2.628   4.690
 2010SOL    HW1 6054   1.038   2.649   4.786
 2010SOL    HW2 6055   0.993   2.533   4.681
 2011SOL     OW 6056   0.980   3.435   5.424
 2011SOL    HW1 6057   0.960   3.479   5.336
 2011SOL    HW2 6058   1.019   3.344   5.408
 2012SOL     OW 6059   1.859   3.380   5.329
 2012SOL    HW1 6060   1.873   3.407   5.234
 2012SOL    HW2 6061   1.942   3.402   5.382
 2013SOL     OW 6062   0.350   2.760   5.528
 2013SOL    HW1 6063   0.426   2.804   5.576
 2013SOL    HW2 6064   0.385   2.713   5.446
 2014SOL     OW 6065   1.540   2.136   3.849
 2014SOL    HW1 6066   1.479   2.061   3.872
 2014SOL    HW2 6067   1.562   2.188   3.932
 2015SOL     OW 6068   1.303   2.700   3.766
 2015SOL    HW1 6069   1.337   2.607   3.781
 2015SOL    HW2 6070   1.321   2.727   3.671
 2016SOL     OW 6071   1.068   3.195   4.573
 2016SOL    HW1 6072   1.075   3.111   4.518
 2016SOL    HW2 6073   1.130   3.264   4.537
 2017SOL     OW 6074   0.319   2.672   4.673
 2017SOL    HW1 6075   0.412   2.708   4.678
 2017SOL    HW2 6076   0.313   2.587   4.725
 2018SOL     OW 6077   0.339   2.371   4.730
 2018SOL    HW1 6078   0.287   2.288   4.713
 2018SOL    HW2 6079   0.416   2.376   4.666
 2019SOL     OW 6080   1.138   2.242   5.402
 2019SOL    HW1 6081   1.093   2.305   5.466
 2019SOL    HW2 6082   1.231   2.273   5.385
 2020SOL     OW 6083   1.160   2.069   5.201
 2020SOL    HW1 6084   1.160   2.133   5.278
 2020SOL    HW2 6085   1.188   2.117   5.118
 2021SOL     OW 6086   0.008   3.188   3.924
 2021SOL    HW1 6087  -0.085   3.209   3.893
 2021SOL    HW2 6088   0.018   3.089   3.937
 2022SOL     OW 6089   0.088   3.663   4.651
 2022SOL    HW1 6090   0.046   3.577   4.624
 2022SOL    HW2 6091   0.182   3.666   4.617
 2023SOL     OW 6092   0.504   3.430   4.634
 2023SOL    HW1 6093   0.570   3.504   4.643
 2023SOL    HW2 6094   0.548   3.351   4.592
 2024SOL     OW 6095   1.002   2.658   4.962
 2024SOL    HW1 6096   1.043   2.626   5.048
 2024SOL    HW2 6097   0.906   2.631   4.959
 2025SOL     OW 6098   0.040   2.406   4.838
 2025SOL    HW1 6099   0.125   2.373   4.797
 2025SOL    HW2 6100   0.053   2.421   4.936
 2026SOL     OW 6101   0.189   2.382   5.446
 2026SOL    HW1 6102   0.248   2.342   5.376
 2026SOL    HW2 6103   0.131   2.453   5.405
 2027SOL     OW 6104   1.369   2.812   5.384
 2027SOL    HW1 6105   1.408   2.901   5.404
 2027SOL    HW2 6106   1.379   2.792   5.287
 2028SOL     OW 6107   0.815   2.434   4.049
 2028SOL    HW1 6108   0.822   2.345   4.003
 2028SOL    HW2 6109   0.721   2.468   4.041
 2029SOL     OW 6110   1.657   2.466   4.930
 2029SOL    HW1 6111   1.619   2.397   4.992
 2029SOL    HW2 6112   1.739   2.430   4.886
 2030SOL     OW 6113   0.252   3.426   5.468
 2030SOL    HW1 6114   0.222   3.483   5.544
 2030SOL    HW2 6115   0.245   3.329   5.494
 2031SOL     OW 6116   0.671   2.326   4.993
 2031SOL    HW1 6117   0.637   2.237   4.963
 2031SOL    HW2 6118   0.697   2.380   4.913
 2032SOL     OW 6119   0.930   3.540   5.189
 2032SOL    HW1 6120   0.906   3.522   5.094
 2032SOL    HW2 6121   0.960   3.634   5.199
 2033SOL     OW 6122   0.473   2.362   3.915
 2033SOL    HW1 6123   0.534   2.442   3.919
 2033SOL    HW2 6124   0.378   2.393   3.922
 2034SOL     OW 6125   0.159   2.999   5.190
 2034SOL    HW1 6126   0.181   2.938   5.266
 2034SOL    HW2 6127   0.169   2.950   5.104
 2035SOL     OW 6128   1.347   2.921   4.958
 2035SOL    HW1 6129   1.371   2.858   4.884
 2035SOL    HW2 6130   1.257   2.961   4.940
 2036SOL     OW 6131   1.302   2.717   4.033
 2036SOL    HW1 6132   1.216   2.686   4.075
 2036SOL    HW2 6133   1.298   2.703   3.934
 2037SOL     OW 6134   1.759   3.609   4.878
 2037SOL    HW1 6135   1.820   3.639   4.805
 2037SOL    HW2 6136   1.721   3.520   4.856
 2038SOL     OW 6137   1.252   3.593   4.852
 2038SOL    HW1 6138   1.336   3.598   4.798
 2038SOL    HW2 6139   1.229   3.497   4.870
 2039SOL     OW 6140   0.083   3.120   4.746
 2039SOL    HW1 6141   0.078   3.119   4.846
 2039SOL    HW2 6142   0.000   3.079   4.708
 2040SOL     OW 6143   0.688   3.524   5.440
 2040SOL    HW1 6144   0.632   3.605   5.449
 2040SOL    HW2 6145   0.740   3.528   5.354
 2041SOL     OW 6146   1.726   1.997   4.247
 2041SOL    HW1 6147   1.799   1.980   4.180
 2041SOL    HW2 6148   1.695   1.910   4.285
 2042SOL     OW 6149   1.388   3.435   4.201
 2042SOL    HW1 6150   1.455   3.447   4.127
 2042SOL    HW2 6151   1.348   3.524   4.224
 2043SOL     OW 6152   0.130   3.656   5.575
 2043SOL    HW1 6153   0.089   3.582   5.628
 2043SOL    HW2 6154   0.194   3.707   5.633
 2044SOL     OW 6155   1.280   2.789   4.396
 2044SOL    HW1 6156   1.340   2.708   4.398
 2044SOL    HW2 6157   1.320   2.858   4.336
 2045SOL     OW 6158   0.830   3.135   5.146
 2045SOL    HW1 6159   0.825   3.168   5.241
 2045SOL    HW2 6160   0.744   3.154   5.100
 2046SOL     OW 6161   0.672   3.478   3.878
 2046SOL    HW1 6162   0.681   3.488   3.779
 2046SOL    HW2 6163   0.632   3.389   3.899
 2047SOL     OW 6164   1.650   3.582   5.118
 2047SOL    HW1 6165   1.703   3.592   5.034
 2047SOL    HW2 6166   1.623   3.672   5.152
 2048SOL     OW 6167   1.841   2.037   4.687
 2048SOL    HW1 6168   1.880   1.952   4.651
 2048SOL    HW2 6169   1.743   2.039   4.668
 2049SOL     OW 6170   0.263   2.188   4.444
 2049SOL    HW1 6171   0.184   2.239   4.410
 2049SOL    HW2 6172   0.254   2.173   4.542
 2050SOL     OW 6173   1.194   3.474   3.755
 2050SOL    HW1 6174   1.200   3.381   3.792
 2050SOL    HW2 6175   1.135   3.474   3.675
 2051SOL     OW 6176   0.822   2.864   5.096
 2051SOL    HW1 6177   0.862   2.863   5.004
 2051SOL    HW2 6178   0.832   2.956   5.136
 2052SOL     OW 6179   0.916   2.772   4.015
 2052SOL    HW1 6180   0.979   2.810   3.947
 2052SOL    HW2 6181   0.956   2.689   4.054
 2053SOL     OW 6182   1.504   3.469   3.768
 2053SOL    HW1 6183   1.412   3.506   3.775
 2053SOL    HW2 6184   1.542   3.489   3.678
 2054SOL     OW 6185   0.372   3.150   5.214
 2054SOL    HW1 6186   0.359   3.243   5.180
 2054SOL    HW2 6187   0.288   3.098   5.201
 2055SOL     OW 6188   1.614   3.154   5.013
 2055SOL    HW1 6189   1.674   3.157   5.093
 2055SOL    HW2 6190   1.539   3.218   5.026
 2056SOL     OW 6191   1.039   2.960   4.420
 2056SOL    HW1 6192   0.969   2.913   4.474
 2056SOL    HW2 6193   1.098   2.892   4.377
 2057SOL     OW 6194   1.014   2.098   4.695
 2057SOL    HW1 6195   1.006   2.062   4.602
 2057SOL    HW2 6196   1.012   2.022   4.760
 2058SOL     OW 6197   0.590   3.349   4.215
 2058SOL    HW1 6198   0.632   3.291   4.145
 2058SOL    HW2 6199   0.546   3.428   4.171
 2059SOL     OW 6200   1.709   2.247   5.105
 2059SOL    HW1 6201   1.782   2.316   5.109
 2059SOL    HW2 6202   1.737   2.172   5.046
 2060SOL     OW 6203   0.255   3.210   4.014
 2060SOL    HW1 6204   0.159   3.211   3.987
 2060SOL    HW2 6205   0.267   3.263   4.098
 2061SOL     OW 6206   0.105   2.875   5.450
 2061SOL    HW1 6207   0.028   2.842   5.504
 2061SOL    HW2 6208   0.190   2.845   5.492
 2062SOL     OW 6209   0.672   2.065   5.213
 2062SOL    HW1 6210   0.762   2.049   5.173
 2062SOL    HW2 6211   0.680   2.070   5.312
 2063SOL     OW 6212   0.075   2.207   3.757
 2063SOL    HW1 6213  -0.017   2.179   3.728
 2063SOL    HW2 6214   0.106   2.284   3.701
 2064SOL     OW 6215   1.440   2.718   5.122
 2064SOL    HW1 6216   1.383   2.770   5.059
 2064SOL    HW2 6217   1.536   2.730   5.098
 2065SOL     OW 6218   0.072   2.028   4.042
 2065SOL    HW1 6219   0.055   2.111   3.988
 2065SOL    HW2 6220   0.162   1.991   4.020
 2066SOL     OW 6221   1.183   3.197   3.843
 2066SOL    HW1 6222   1.084   3.186   3.845
 2066SOL    HW2 6223   1.217   3.212   3.936
 2067SOL     OW 6224   0.613   2.704   5.155
 2067SOL    HW1 6225   0.669   2.785   5.138
 2067SOL    HW2 6226   0.672   2.624   5.158
 2068SOL     OW 6227   1.493   3.629   4.683
 2068SOL    HW1 6228   1.526   3.693   4.614
 2068SOL    HW2 6229   1.559   3.623   4.758
 2069SOL     OW 6230   0.716   2.427   5.432
 2069SOL    HW1 6231   0.735   2.492   5.506
 2069SOL    HW2 6232   0.776   2.347   5.441
 2070SOL     OW 6233   1.450   3.082   5.357
 2070SOL    HW1 6234   1.441   3.072   5.456
 2070SOL    HW2 6235   1.546   3.075   5.331
 2071SOL     OW 6236   0.390   3.603   5.284
 2071SOL    HW1 6237   0.299   3.644   5.282
 2071SOL    HW2 6238   0.383   3.509   5.316
 2072SOL     OW 6239   1.674   2.745   4.978
 2072SOL    HW1 6240   1.647   2.656   4.941
 2072SOL    HW2 6241   1.675   2.813   4.905
 2073SOL     OW 6242   1.225   2.187   4.173
 2073SOL    HW1 6243   1.290   2.113   4.162
 2073SOL    HW2 6244   1.245   2.237   4.257
 2074SOL     OW 6245   0.594   2.607   4.376
 2074SOL    HW1 6246   0.644   2.692   4.357
 2074SOL    HW2 6247   0.506   2.609   4.328
 2075SOL     OW 6248   1.777   2.204   5.366
 2075SOL    HW1 6249   1.760   2.235   5.272
 2075SOL    HW2 6250   1.693   2.167   5.404
 2076SOL     OW 6251   1.730   2.796   5.241
 2076SOL    HW1 6252   1.768   2.887   5.256
 2076SOL    HW2 6253   1.722   2.779   5.142
 2077SOL     OW 6254   0.859   3.236   3.740
 2077SOL    HW1 6255   0.813   3.251   3.828
 2077SOL    HW2 6256   0.903   3.321   3.710
 2078SOL     OW 6257   0.661   3.652   4.677
 2078SOL    HW1 6258   0.615   3.740   4.664
 2078SOL    HW2 6259   0.760   3.664   4.670
 2079SOL     OW 6260   0.859   2.818   4.585
 2079SOL    HW1 6261   0.913   2.749   4.633
 2079SOL    HW2 6262   0.827   2.887   4.651
 2080SOL     OW 6263   1.083   2.846   3.811
 2080SOL    HW1 6264   1.060   2.899   3.729
 2080SOL    HW2 6265   1.164   2.790   3.792
 2081SOL     OW 6266   1.861   3.431   4.575
 2081SOL    HW1 6267   1.790   3.419   4.505
 2081SOL    HW2 6268   1.862   3.352   4.635
 2082SOL     OW 6269   0.221   3.176   5.568
 2082SOL    HW1 6270   0.156   3.103   5.547
 2082SOL    HW2 6271   0.225   3.190   5.666
 2083SOL     OW 6272   0.079   3.102   4.377
 2083SOL    HW1 6273   0.078   3.055   4.465
 2083SOL    HW2 6274   0.161   3.074   4.326
 2084SOL     OW 6275   0.672   3.253   5.348
 2084SOL    HW1 6276   0.594   3.203   5.386
 2084SOL    HW2 6277   0.669   3.348   5.379
 2085SOL     OW 6278   1.824   2.054   4.951
 2085SOL    HW1 6279   1.820   1.964   4.995
 2085SOL    HW2 6280   1.827   2.043   4.852
 2086SOL     OW 6281   0.428   2.286   4.244
 2086SOL    HW1 6282   0.458   2.214   4.182
 2086SOL    HW2 6283   0.389   2.246   4.327
 2087SOL     OW 6284   1.705   3.349   4.828
 2087SOL    HW1 6285   1.612   3.324   4.801
 2087SOL    HW2 6286   1.731   3.299   4.910
 2088SOL     OW 6287   0.317   2.409   5.004
 2088SOL    HW1 6288   0.355   2.350   5.076
 2088SOL    HW2 6289   0.357   2.383   4.916
 2089SOL     OW 6290   0.812   3.448   4.411
 2089SOL    HW1 6291   0.844   3.458   4.317
 2089SOL    HW2 6292   0.733   3.386   4.413
 2090SOL     OW 6293   1.424   2.076   4.836
 2090SOL    HW1 6294   1.476   2.011   4.891
 2090SOL    HW2 6295   1.375   2.139   4.897
 2091SOL     OW 6296   1.001   1.896   4.878
 2091SOL    HW1 6297   0.938   1.824   4.847
 2091SOL    HW2 6298   1.094   1.860   4.878
 2092SOL     OW 6299   0.770   3.192   4.025
 2092SOL    HW1 6300   0.724   3.105   4.042
 2092SOL    HW2 6301   0.861   3.189   4.066
 2093SOL     OW 6302   0.618   3.429   5.008
 2093SOL    HW1 6303   0.613   3.511   5.065
 2093SOL    HW2 6304   0.707   3.426   4.963
 2094SOL     OW 6305   1.352   1.914   3.892
 2094SOL    HW1 6306   1.387   1.873   3.808
 2094SOL    HW2 6307   1.262   1.876   3.912
 2095SOL     OW 6308   1.300   2.315   4.415
 2095SOL    HW1 6309   1.241   2.395   4.419
 2095SOL    HW2 6310   1.315   2.280   4.508
 2096SOL     OW 6311   1.593   2.083   4.606
 2096SOL    HW1 6312   1.509   2.082   4.660
 2096SOL    HW2 6313   1.595   2.166   4.550
 2097SOL     OW 6314   0.039   2.939   4.024
 2097SOL    HW1 6315   0.138   2.928   4.015
 2097SOL    HW2 6316  -0.001   2.853   4.056
 2098SOL     OW 6317   0.875   3.508   4.061
 2098SOL    HW1 6318   0.798   3.473   4.007
 2098SOL    HW2 6319   0.843   3.579   4.123
 2099SOL     OW 6320   0.230   2.490   5.699
 2099SOL    HW1 6321   0.137   2.488   5.736
 2099SOL    HW2 6322   0.231   2.451   5.607
 2100SOL     OW 6323   0.225   2.137   6.582
 2100SOL    HW1 6324   0.260   2.120   6.674
 2100SOL    HW2 6325   0.137   2.092   6.570
 2101SOL     OW 6326   0.019   2.230   6.233
 2101SOL    HW1 6327  -0.063   2.273   6.272
 2101SOL    HW2 6328  -0.009   2.157   6.170
 2102SOL     OW 6329   0.569   3.137   6.751
 2102SOL    HW1 6330   0.476   3.130   6.714
 2102SOL    HW2 6331   0.580   3.226   6.795
 2103SOL     OW 6332   1.555   3.373   6.289
 2103SOL    HW1 6333   1.498   3.357   6.370
 2103SOL    HW2 6334   1.496   3.383   6.209
 2104SOL     OW 6335   1.135   2.565   6.303
 2104SOL    HW1 6336   1.192   2.643   6.278
 2104SOL    HW2 6337   1.075   2.591   6.379
 2105SOL     OW 6338   1.755   2.469   5.817
 2105SOL    HW1 6339   1.743   2.456   5.718
 2105SOL    HW2 6340   1.725   2.388   5.866
 2106SOL     OW 6341   0.768   3.006   6.609
 2106SOL    HW1 6342   0.690   3.023   6.669
 2106SOL    HW2 6343   0.802   3.093   6.573
 2107SOL     OW 6344   0.850   2.660   7.409
 2107SOL    HW1 6345   0.846   2.736   7.474
 2107SOL    HW2 6346   0.872   2.696   7.318
 2108SOL     OW 6347   0.685   2.874   6.251
 2108SOL    HW1 6348   0.754   2.858   6.321
 2108SOL    HW2 6349   0.612   2.931   6.289
 2109SOL     OW 6350   0.686   3.023   7.389
 2109SOL    HW1 6351   0.746   3.102   7.403
 2109SOL    HW2 6352   0.600   3.054   7.348
 2110SOL     OW 6353   0.335   3.297   6.647
 2110SOL    HW1 6354   0.257   3.266   6.594
 2110SOL    HW2 6355   0.393   3.355   6.590
 2111SOL     OW 6356   1.460   3.367   6.925
 2111SOL    HW1 6357   1.484   3.461   6.951
 2111SOL    HW2 6358   1.444   3.313   7.007
 2112SOL     OW 6359   0.438   2.254   7.085
 2112SOL    HW1 6360   0.520   2.198   7.094
 2112SOL    HW2 6361   0.357   2.196   7.089
 2113SOL     OW 6362   1.603   2.309   6.323
 2113SOL    HW1 6363   1.529   2.355   6.273
 2113SOL    HW2 6364   1.654   2.377   6.376
 2114SOL     OW 6365   0.231   3.575   6.069
 2114SOL    HW1 6366   0.265   3.652   6.123
 2114SOL    HW2 6367   0.275   3.575   5.979
 2115SOL     OW 6368   1.127   3.203   7.276
 2115SOL    HW1 6369   1.174   3.203   7.364
 2115SOL    HW2 6370   1.079   3.116   7.265
 2116SOL     OW 6371   0.230   3.296   6.124
 2116SOL    HW1 6372   0.204   3.392   6.124
 2116SOL    HW2 6373   0.159   3.242   6.169
 2117SOL     OW 6374   0.240   2.953   6.472
 2117SOL    HW1 6375   0.254   2.869   6.524
 2117SOL    HW2 6376   0.185   3.017   6.527
 2118SOL     OW 6377   0.620   3.648   7.025
 2118SOL    HW1 6378   0.528   3.631   7.060
 2118SOL    HW2 6379   0.648   3.740   7.051
 2119SOL     OW 6380   0.606   2.826   5.709
 2119SOL    HW1 6381   0.613   2.910   5.655
 2119SOL    HW2 6382   0.652   2.839   5.797
 2120SOL     OW 6383   1.594   1.976   7.066
 2120SOL    HW1 6384   1.576   2.043   6.994
 2120SOL    HW2 6385   1.591   2.022   7.155
 2121SOL     OW 6386   0.122   2.505   6.149
 2121SOL    HW1 6387   0.077   2.417   6.166
 2121SOL    HW2 6388   0.121   2.559   6.233
 2122SOL     OW 6389   1.842   3.629   5.945
 2122SOL    HW1 6390   1.896   3.600   6.025
 2122SOL    HW2 6391   1.872   3.719   5.916
 2123SOL     OW 6392   0.027   3.458   5.703
 2123SOL    HW1 6393   0.008   3.362   5.724
 2123SOL    HW2 6394  -0.006   3.516   5.778
 2124SOL     OW 6395   1.689   2.784   6.198
 2124SOL    HW1 6396   1.784   2.755   6.206
 2124SOL    HW2 6397   1.681   2.849   6.123
 2125SOL     OW 6398   1.641   2.970   6.018
 2125SOL    HW1 6399   1.727   2.972   5.966
 2125SOL    HW2 6400   1.655   3.017   6.106
 2126SOL     OW 6401   0.113   2.599   7.183
 2126SOL    HW1 6402   0.201   2.586   7.228
 2126SOL    HW2 6403   0.100   2.696   7.161
 2127SOL     OW 6404   0.613   3.227   6.312
 2127SOL    HW1 6405   0.564   3.140   6.321
 2127SOL    HW2 6406   0.590   3.270   6.225
 2128SOL     OW 6407   1.293   3.090   7.009
 2128SOL    HW1 6408   1.330   3.017   6.951
 2128SOL    HW2 6409   1.345   3.095   7.094
 2129SOL     OW 6410   0.809   1.866   6.088
 2129SOL    HW1 6411   0.849   1.957   6.079
 2129SOL    HW2 6412   0.709   1.874   6.094
 2130SOL     OW 6413   0.197   2.838   6.850
 2130SOL    HW1 6414   0.286   2.793   6.836
 2130SOL    HW2 6415   0.124   2.773   6.831
 2131SOL     OW 6416   1.525   2.861   5.776
 2131SOL    HW1 6417   1.462   2.785   5.789
 2131SOL    HW2 6418   1.573   2.879   5.862
 2132SOL     OW 6419   1.187   3.654   7.202
 2132SOL    HW1 6420   1.211   3.714   7.126
 2132SOL    HW2 6421   1.194   3.559   7.172
 2133SOL     OW 6422   0.317   2.113   7.387
 2133SOL    HW1 6423   0.388   2.184   7.393
 2133SOL    HW2 6424   0.229   2.152   7.415
 2134SOL     OW 6425   1.466   3.279   6.539
 2134SOL    HW1 6426   1.407   3.285   6.619
 2134SOL    HW2 6427   1.451   3.191   6.493
 2135SOL     OW 6428   1.667   3.576   6.158
 2135SOL    HW1 6429   1.626   3.553   6.070
 2135SOL    HW2 6430   1.649   3.502   6.223
 2136SOL     OW 6431   0.598   2.591   5.856
 2136SOL    HW1 6432   0.622   2.660   5.788
 2136SOL    HW2 6433   0.520   2.624   5.910
 2137SOL     OW 6434   1.281   2.207   6.530
 2137SOL    HW1 6435   1.195   2.157   6.517
 2137SOL    HW2 6436   1.343   2.153   6.586
 2138SOL     OW 6437   1.576   3.524   5.893
 2138SOL    HW1 6438   1.665   3.570   5.896
 2138SOL    HW2 6439   1.555   3.500   5.798
 2139SOL     OW 6440   0.807   2.467   7.051
 2139SOL    HW1 6441   0.760   2.464   7.140
 2139SOL    HW2 6442   0.756   2.412   6.985
 2140SOL     OW 6443   1.394   2.331   7.260
 2140SOL    HW1 6444   1.374   2.374   7.348
 2140SOL    HW2 6445   1.472   2.269   7.269
 2141SOL     OW 6446   0.973   2.752   7.158
 2141SOL    HW1 6447   1.019   2.668   7.129
 2141SOL    HW2 6448   0.917   2.786   7.083
 2142SOL     OW 6449   0.991   2.272   6.828
 2142SOL    HW1 6450   0.914   2.306   6.882
 2142SOL    HW2 6451   0.957   2.221   6.749
 2143SOL     OW 6452   1.041   2.563   6.015
 2143SOL    HW1 6453   1.067   2.559   6.111
 2143SOL    HW2 6454   0.956   2.512   6.001
 2144SOL     OW 6455   0.076   2.673   6.375
 2144SOL    HW1 6456   0.175   2.661   6.384
 2144SOL    HW2 6457   0.052   2.768   6.396
 2145SOL     OW 6458   0.130   3.683   7.157
 2145SOL    HW1 6459   0.120   3.668   7.256
 2145SOL    HW2 6460   0.044   3.719   7.121
 2146SOL     OW 6461   0.865   2.210   5.781
 2146SOL    HW1 6462   0.924   2.273   5.732
 2146SOL    HW2 6463   0.884   2.116   5.752
 2147SOL     OW 6464   1.719   2.447   7.417
 2147SOL    HW1 6465   1.693   2.536   7.381
 2147SOL    HW2 6466   1.717   2.379   7.344
 2148SOL     OW 6467   1.362   3.006   6.131
 2148SOL    HW1 6468   1.445   2.977   6.083
 2148SOL    HW2 6469   1.313   3.073   6.075
 2149SOL     OW 6470   0.550   2.058   6.471
 2149SOL    HW1 6471   0.545   2.053   6.571
 2149SOL    HW2 6472   0.552   2.154   6.442
 2150SOL     OW 6473   1.008   3.318   6.063
 2150SOL    HW1 6474   0.962   3.390   6.011
 2150SOL    HW2 6475   1.004   3.338   6.161
 2151SOL     OW 6476   0.351   3.663   6.439
 2151SOL    HW1 6477   0.401   3.577   6.445
 2151SOL    HW2 6478   0.416   3.740   6.436
 2152SOL     OW 6479   1.795   2.928   6.459
 2152SOL    HW1 6480   1.733   2.913   6.383
 2152SOL    HW2 6481   1.743   2.939   6.544
 2153SOL     OW 6482   1.227   3.412   7.092
 2153SOL    HW1 6483   1.233   3.335   7.156
 2153SOL    HW2 6484   1.175   3.386   7.012
 2154SOL     OW 6485   0.321   2.805   5.828
 2154SOL    HW1 6486   0.403   2.844   5.786
 2154SOL    HW2 6487   0.294   2.723   5.779
 2155SOL     OW 6488   1.458   2.597   6.314
 2155SOL    HW1 6489   1.453   2.532   6.389
 2155SOL    HW2 6490   1.538   2.656   6.327
 2156SOL     OW 6491   0.461   3.128   7.313
 2156SOL    HW1 6492   0.411   3.129   7.227
 2156SOL    HW2 6493   0.398   3.110   7.389
 2157SOL     OW 6494   1.111   3.638   5.823
 2157SOL    HW1 6495   1.051   3.576   5.873
 2157SOL    HW2 6496   1.142   3.594   5.738
 2158SOL     OW 6497   0.202   2.147   7.084
 2158SOL    HW1 6498   0.122   2.207   7.071
 2158SOL    HW2 6499   0.192   2.098   7.170
 2159SOL     OW 6500   1.632   3.239   5.667
 2159SOL    HW1 6501   1.600   3.333   5.657
 2159SOL    HW2 6502   1.556   3.176   5.655
 2160SOL     OW 6503   0.464   3.605   5.909
 2160SOL    HW1 6504   0.497   3.644   5.995
 2160SOL    HW2 6505   0.540   3.598   5.844
 2161SOL     OW 6506   1.400   1.969   6.012
 2161SOL    HW1 6507   1.376   1.932   5.922
 2161SOL    HW2 6508   1.499   1.985   6.016
 2162SOL     OW 6509   0.249   3.647   6.827
 2162SOL    HW1 6510   0.306   3.582   6.877
 2162SOL    HW2 6511   0.233   3.614   6.734
 2163SOL     OW 6512   0.940   3.560   6.490
 2163SOL    HW1 6513   1.020   3.503   6.511
 2163SOL    HW2 6514   0.891   3.520   6.413
 2164SOL     OW 6515   0.382   2.562   6.066
 2164SOL    HW1 6516   0.427   2.472   6.063
 2164SOL    HW2 6517   0.288   2.551   6.099
 2165SOL     OW 6518   1.547   2.084   7.315
 2165SOL    HW1 6519   1.542   2.121   7.407
 2165SOL    HW2 6520   1.475   2.015   7.303
 2166SOL     OW 6521   0.614   1.984   5.703
 2166SOL    HW1 6522   0.712   1.962   5.710
 2166SOL    HW2 6523   0.583   1.967   5.610
 2167SOL     OW 6524   0.781   2.126   7.335
 2167SOL    HW1 6525   0.848   2.065   7.378
 2167SOL    HW2 6526   0.708   2.145   7.400
 2168SOL     OW 6527   0.888   3.376   6.781
 2168SOL    HW1 6528   0.865   3.351   6.687
 2168SOL    HW2 6529   0.949   3.307   6.820
 2169SOL     OW 6530   1.351   2.452   7.019
 2169SOL    HW1 6531   1.379   2.409   7.104
 2169SOL    HW2 6532   1.376   2.548   7.020
 2170SOL     OW 6533   0.803   3.264   6.510
 2170SOL    HW1 6534   0.893   3.278   6.468
 2170SOL    HW2 6535   0.732   3.266   6.439
 2171SOL     OW 6536   0.922   2.365   6.485
 2171SOL    HW1 6537   0.897   2.356   6.389
 2171SOL    HW2 6538   0.970   2.283   6.516
 2172SOL     OW 6539   0.539   1.926   6.098
 2172SOL    HW1 6540   0.458   1.927   6.156
 2172SOL    HW2 6541   0.542   2.009   6.043
 2173SOL     OW 6542   1.434   3.050   5.627
 2173SOL    HW1 6543   1.466   2.974   5.684
 2173SOL    HW2 6544   1.342   3.077   5.657
 2174SOL     OW 6545   0.297   1.897   5.757
 2174SOL    HW1 6546   0.346   1.981   5.736
 2174SOL    HW2 6547   0.359   1.832   5.802
 2175SOL     OW 6548   0.935   2.098   6.066
 2175SOL    HW1 6549   0.887   2.139   5.988
 2175SOL    HW2 6550   1.034   2.096   6.047
 2176SOL     OW 6551   1.076   2.545   7.050
 2176SOL    HW1 6552   0.996   2.484   7.053
 2176SOL    HW2 6553   1.157   2.492   7.026
 2177SOL     OW 6554   1.227   3.432   6.379
 2177SOL    HW1 6555   1.248   3.506   6.314
 2177SOL    HW2 6556   1.295   3.432   6.452
 2178SOL     OW 6557   0.459   3.014   6.327
 2178SOL    HW1 6558   0.388   2.987   6.392
 2178SOL    HW2 6559   0.433   2.986   6.234
 2179SOL     OW 6560   1.271   3.659   6.177
 2179SOL    HW1 6561   1.315   3.723   6.113
 2179SOL    HW2 6562   1.221   3.711   6.247
 2180SOL     OW 6563   1.032   2.411   5.602
 2180SOL    HW1 6564   0.991   2.493   5.563
 2180SOL    HW2 6565   1.096   2.437   5.675
 2181SOL     OW 6566   0.078   2.418   6.972
 2181SOL    HW1 6567   0.170   2.417   6.931
 2181SOL    HW2 6568   0.072   2.492   7.039
 2182SOL     OW 6569   0.561   2.084   6.733
 2182SOL    HW1 6570   0.599   2.000   6.770
 2182SOL    HW2 6571   0.473   2.103   6.777
 2183SOL     OW 6572   0.866   2.316   6.228
 2183SOL    HW1 6573   0.834   2.388   6.166
 2183SOL    HW2 6574   0.890   2.235   6.175
 2184SOL     OW 6575   1.017   1.901   6.339
 2184SOL    HW1 6576   0.945   1.906   6.270
 2184SOL    HW2 6577   0.993   1.832   6.408
 2185SOL     OW 6578   1.429   3.035   6.453
 2185SOL    HW1 6579   1.374   2.951   6.446
 2185SOL    HW2 6580   1.455   3.064   6.361
 2186SOL     OW 6581   1.466   2.452   6.578
 2186SOL    HW1 6582   1.436   2.357   6.585
 2186SOL    HW2 6583   1.539   2.468   6.644
 2187SOL     OW 6584   1.857   2.695   5.963
 2187SOL    HW1 6585   1.899   2.631   6.027
 2187SOL    HW2 6586   1.819   2.644   5.885
 2188SOL     OW 6587   0.488   3.247   5.760
 2188SOL    HW1 6588   0.401   3.232   5.807
 2188SOL    HW2 6589   0.471   3.273   5.665
 2189SOL     OW 6590   1.664   3.142   6.243
 2189SOL    HW1 6591   1.763   3.150   6.257
 2189SOL    HW2 6592   1.619   3.226   6.274
 2190SOL     OW 6593   1.390   2.437   5.664
 2190SOL    HW1 6594   1.336   2.416   5.745
 2190SOL    HW2 6595   1.481   2.396   5.673
 2191SOL     OW 6596   0.527   2.118   5.914
 2191SOL    HW1 6597   0.554   2.059   5.839
 2191SOL    HW2 6598   0.527   2.213   5.883
 2192SOL     OW 6599   1.754   3.085   7.174
 2192SOL    HW1 6600   1.845   3.046   7.161
 2192SOL    HW2 6601   1.762   3.181   7.198
 2193SOL     OW 6602   1.064   3.209   6.926
 2193SOL    HW1 6603   0.984   3.186   6.981
 2193SOL    HW2 6604   1.147   3.183   6.975
 2194SOL     OW 6605   1.592   3.491   7.211
 2194SOL    HW1 6606   1.619   3.525   7.121
 2194SOL    HW2 6607   1.671   3.453   7.257
 2195SOL     OW 6608   1.111   3.057   6.686
 2195SOL    HW1 6609   1.071   3.101   6.767
 2195SOL    HW2 6610   1.070   3.094   6.603
 2196SOL     OW 6611   1.638   2.961   6.665
 2196SOL    HW1 6612   1.643   3.042   6.724
 2196SOL    HW2 6613   1.552   2.963   6.614
 2197SOL     OW 6614   0.915   1.951   6.988
 2197SOL    HW1 6615   0.940   1.931   6.893
 2197SOL    HW2 6616   0.987   2.007   7.030
 2198SOL     OW 6617   0.980   2.978   7.305
 2198SOL    HW1 6618   0.881   2.984   7.315
 2198SOL    HW2 6619   1.003   2.898   7.249
 2199SOL     OW 6620   0.705   2.912   5.954
 2199SOL    HW1 6621   0.691   2.919   6.053
 2199SOL    HW2 6622   0.789   2.861   5.936
 2200SOL     OW 6623   0.410   2.675   6.837
 2200SOL    HW1 6624   0.496   2.687   6.887
 2200SOL    HW2 6625   0.368   2.588   6.864
 2201SOL     OW 6626   1.274   2.248   6.848
 2201SOL    HW1 6627   1.295   2.322   6.912
 2201SOL    HW2 6628   1.185   2.265   6.805
 2202SOL     OW 6629   0.064   3.426   6.917
 2202SOL    HW1 6630   0.018   3.508   6.883
 2202SOL    HW2 6631   0.162   3.445   6.926
 2203SOL     OW 6632   0.367   2.962   6.087
 2203SOL    HW1 6633   0.360   3.045   6.031
 2203SOL    HW2 6634   0.371   2.882   6.027
 2204SOL     OW 6635   0.566   2.399   6.451
 2204SOL    HW1 6636   0.578   2.465   6.377
 2204SOL    HW2 6637   0.612   2.433   6.534
 2205SOL     OW 6638   1.252   3.210   5.974
 2205SOL    HW1 6639   1.302   3.287   6.014
 2205SOL    HW2 6640   1.157   3.212   6.006
 2206SOL     OW 6641   1.272   3.307   6.728
 2206SOL    HW1 6642   1.319   3.320   6.815
 2206SOL    HW2 6643   1.206   3.233   6.737
 2207SOL     OW 6644   1.582   2.501   6.058
 2207SOL    HW1 6645   1.551   2.562   6.131
 2207SOL    HW2 6646   1.632   2.553   5.989
 2208SOL     OW 6647   0.354   3.372   6.915
 2208SOL    HW1 6648   0.333   3.328   6.828
 2208SOL    HW2 6649   0.451   3.398   6.918
 2209SOL     OW 6650   0.402   2.613   7.184
 2209SOL    HW1 6651   0.470   2.668   7.137
 2209SOL    HW2 6652   0.442   2.525   7.211
 2210SOL     OW 6653   1.587   2.641   7.256
 2210SOL    HW1 6654   1.495   2.679   7.251
 2210SOL    HW2 6655   1.647   2.688   7.191
 2211SOL     OW 6656   1.013   1.967   7.356
 2211SOL    HW1 6657   1.019   2.052   7.304
 2211SOL    HW2 6658   1.045   1.891   7.299
 2212SOL     OW 6659   0.504   1.912   7.326
 2212SOL    HW1 6660   0.462   1.855   7.256
 2212SOL    HW2 6661   0.438   1.981   7.358
 2213SOL     OW 6662   0.573   2.732   6.615
 2213SOL    HW1 6663   0.617   2.821   6.606
 2213SOL    HW2 6664   0.510   2.732   6.692
 2214SOL     OW 6665   1.360   2.724   6.631
 2214SOL    HW1 6666   1.285   2.724   6.565
 2214SOL    HW2 6667   1.397   2.632   6.640
 2215SOL     OW 6668   1.209   2.387   5.861
 2215SOL    HW1 6669   1.222   2.303   5.915
 2215SOL    HW2 6670   1.180   2.461   5.921
 2216SOL     OW 6671   0.307   2.075   6.817
 2216SOL    HW1 6672   0.284   2.112   6.907
 2216SOL    HW2 6673   0.277   1.980   6.811
 2217SOL     OW 6674   0.037   3.172   6.868
 2217SOL    HW1 6675   0.090   3.123   6.936
 2217SOL    HW2 6676   0.059   3.270   6.873
 2218SOL     OW 6677   0.732   2.496   6.650
 2218SOL    HW1 6678   0.791   2.470   6.574
 2218SOL    HW2 6679   0.704   2.592   6.639
 2219SOL     OW 6680   1.728   2.797   7.440
 2219SOL    HW1 6681   1.682   2.790   7.351
 2219SOL    HW2 6682   1.666   2.841   7.506
 2220SOL     OW 6683   0.307   1.925   6.204
 2220SOL    HW1 6684   0.296   2.019   6.237
 2220SOL    HW2 6685   0.302   1.862   6.281
 2221SOL     OW 6686   1.622   2.229   5.960
 2221SOL    HW1 6687   1.624   2.153   6.024
 2221SOL    HW2 6688   1.574   2.306   6.000
 2222SOL     OW 6689   1.023   2.628   6.552
 2222SOL    HW1 6690   1.038   2.649   6.648
 2222SOL    HW2 6691   0.993   2.533   6.543
 2223SOL     OW 6692   0.980   3.435   7.286
 2223SOL    HW1 6693   0.960   3.479   7.198
 2223SOL    HW2 6694   1.019   3.344   7.270
 2224SOL     OW 6695   1.859   3.380   7.191
 2224SOL    HW1 6696   1.873   3.407   7.096
 2224SOL    HW2 6697   1.942   3.402   7.244
 2225SOL     OW 6698   0.350   2.760   7.390
 2225SOL    HW1 6699   0.426   2.804   7.438
 2225SOL    HW2 6700   0.385   2.713   7.308
 2226SOL     OW 6701   1.540   2.136   5.711
 2226SOL    HW1 6702   1.479   2.061   5.734
 2226SOL    HW2 6703   1.562   2.188   5.794
 2227SOL     OW 6704   1.303   2.700   5.628
 2227SOL    HW1 6705   1.337   2.607   5.643
 2227SOL    HW2 6706   1.321   2.727   5.533
 2228SOL     OW 6707   1.068   3.195   6.435
 2228SOL    HW1 6708   1.075   3.111   6.380
 2228SOL    HW2 6709   1.130   3.264   6.399
 2229SOL     OW 6710   0.319   2.672   6.535
 2229SOL    HW1 6711   0.412   2.708   6.540
 2229SOL    HW2 6712   0.313   2.587   6.587
 2230SOL     OW 6713   0.339   2.371   6.592
 2230SOL    HW1 6714   0.287   2.288   6.575
 2230SOL    HW2 6715   0.416   2.376   6.528
 2231SOL     OW 6716   1.138   2.242   7.264
 2231SOL    HW1 6717   1.093   2.305   7.328
 2231SOL    HW2 6718   1.231   2.273   7.247
 2232SOL     OW 6719   1.160   2.069   7.063
 2232SOL    HW1 6720   1.160   2.133   7.140
 2232SOL    HW2 6721   1.188   2.117   6.980
 2233SOL     OW 6722   0.008   3.188   5.786
 2233SOL    HW1 6723  -0.085   3.209   5.755
 2233SOL    HW2 6724   0.018   3.089   5.799
 2234SOL     OW 6725   0.088   3.663   6.513
 2234SOL    HW1 6726   0.046   3.577   6.486
 2234SOL    HW2 6727   0.182   3.666   6.479
 2235SOL     OW 6728   0.504   3.430   6.496
 2235SOL    HW1 6729   0.570   3.504   6.505
 2235SOL    HW2 6730   0.548   3.351   6.454
 2236SOL     OW 6731   1.002   2.658   6.824
 2236SOL    HW1 6732   1.043   2.626   6.910
 2236SOL    HW2 6733   0.906   2.631   6.821
 2237SOL     OW 6734   0.040   2.406   6.700
 2237SOL    HW1 6735   0.125   2.373   6.659
 2237SOL    HW2 6736   0.053   2.421   6.798
 2238SOL     OW 6737   0.189   2.382   7.308
 2238SOL    HW1 6738   0.248   2.342   7.238
 2238SOL    HW2 6739   0.131   2.453   7.267
 2239SOL     OW 6740   1.369   2.812   7.246
 2239SOL    HW1 6741   1.408   2.901   7.266
 2239SOL    HW2 6742   1.379   2.792   7.149
 2240SOL     OW 6743   0.815   2.434   5.911
 2240SOL    HW1 6744   0.822   2.345   5.865
 2240SOL    HW2 6745   0.721   2.468   5.903
 2241SOL     OW 6746   1.657   2.466   6.792
 2241SOL    HW1 6747   1.619   2.397   6.854
 2241SOL    HW2 6748   1.739   2.430   6.748
 2242SOL     OW 6749   0.252   3.426   7.330
 2242SOL    HW1 6750   0.222   3.483   7.406
 2242SOL    HW2 6751   0.245   3.329   7.356
 2243SOL     OW 6752   0.671   2.326   6.855
 2243SOL    HW1 6753   0.637   2.237   6.825
 2243SOL    HW2 6754   0.697   2.380   6.775
 2244SOL     OW 6755   0.930   3.540   7.051
 2244SOL    HW1 6756   0.906   3.522   6.956
 2244SOL    HW2 6757   0.960   3.634   7.061
 2245SOL     OW 6758   0.473   2.362   5.777
 2245SOL    HW1 6759   0.534   2.442   5.781
 2245SOL    HW2 6760   0.378   2.393   5.784
 2246SOL     OW 6761   0.159   2.999   7.052
 2246SOL    HW1 6762   0.181   2.938   7.128
 2246SOL    HW2 6763   0.169   2.950   6.966
 2247SOL     OW 6764   1.347   2.921   6.820
 2247SOL    HW1 6765   1.371   2.858   6.746
 2247SOL    HW2 6766   1.257   2.961   6.802
 2248SOL     OW 6767   1.302   2.717   5.895
 2248SOL    HW1 6768   1.216   2.686   5.937
 2248SOL    HW2 6769   1.298   2.703   5.796
 2249SOL     OW 6770   1.759   3.609   6.740
 2249SOL    HW1 6771   1.820   3.639   6.667
 2249SOL    HW2 6772   1.721   3.520   6.718
 2250SOL     OW 6773   1.252   3.593   6.714
 2250SOL    HW1 6774   1.336   3.598   6.660
 2250SOL    HW2 6775   1.229   3.497   6.732
 2251SOL     OW 6776   0.083   3.120   6.608
 2251SOL    HW1 6777   0.078   3.119   6.708
 2251SOL    HW2 6778   0.000   3.079   6.570
 2252SOL     OW 6779   0.688   3.524   7.302
 2252SOL    HW1 6780   0.632   3.605   7.311
 2252SOL    HW2 6781   0.740   3.528   7.216
 2253SOL     OW 6782   1.726   1.997   6.109
 2253SOL    HW1 6783   1.799   1.980   6.042
 2253SOL    HW2 6784   1.695   1.910   6.147
 2254SOL     OW 6785   1.388   3.435   6.063
 2254SOL    HW1 6786   1.455   3.447   5.989
 2254SOL    HW2 6787   1.348   3.524   6.086
 2255SOL     OW 6788   0.130   3.656   7.437
 2255SOL    HW1 6789   0.089   3.582   7.490
 2255SOL    HW2 6790   0.194   3.707   7.495
 2256SOL     OW 6791   1.280   2.789   6.258
 2256SOL    HW1 6792   1.340   2.708   6.260
 2256SOL    HW2 6793   1.320   2.858   6.198
 2257SOL     OW 6794   0.830   3.135   7.008
 2257SOL    HW1 6795   0.825   3.168   7.103
 2257SOL    HW2 6796   0.744   3.154   6.962
 2258SOL     OW 6797   0.672   3.478   5.740
 2258SOL    HW1 6798   0.681   3.488   5.641
 2258SOL    HW2 6799   0.632   3.389   5.761
 2259SOL     OW 6800   1.650   3.582   6.980
 2259SOL    HW1 6801   1.703   3.592   6.896
 2259SOL    HW2 6802   1.623   3.672   7.014
 2260SOL     OW 6803   1.841   2.037   6.549
 2260SOL    HW1 6804   1.880   1.952   6.513
 2260SOL    HW2 6805   1.743   2.039   6.530
 2261SOL     OW 6806   0.263   2.188   6.306
 2261SOL    HW1 6807   0.184   2.239   6.272
 2261SOL    HW2 6808   0.254   2.173   6.404
 2262SOL     OW 6809   1.194   3.474   5.617
 2262SOL    HW1 6810   1.200   3.381   5.654
 2262SOL    HW2 6811   1.135   3.474   5.537
 2263SOL     OW 6812   0.822   2.864   6.958
 2263SOL    HW1 6813   0.862   2.863   6.866
 2263SOL    HW2 6814   0.832   2.956   6.998
 2264SOL     OW 6815   0.916   2.772   5.877
 2264SOL    HW1 6816   0.979   2.810   5.809
 2264SOL    HW2 6817   0.956   2.689   5.916
 2265SOL     OW 6818   1.504   3.469   5.630
 2265SOL    HW1 6819   1.412   3.506   5.637
 2265SOL    HW2 6820   1.542   3.489   5.540
 2266SOL     OW 6821   0.372   3.150   7.076
 2266SOL    HW1 6822   0.359   3.243   7.042
 2266SOL    HW2 6823   0.288   3.098   7.063
 2267SOL     OW 6824   1.614   3.154   6.875
 2267SOL    HW1 6825   1.674   3.157   6.955
 2267SOL    HW2 6826   1.539   3.218   6.888
 2268SOL     OW 6827   1.039   2.960   6.282
 2268SOL    HW1 6828   0.969   2.913   6.336
 2268SOL    HW2 6829   1.098   2.892   6.239
 2269SOL     OW 6830   1.014   2.098   6.557
 2269SOL    HW1 6831   1.006   2.062   6.464
 2269SOL    HW2 6832   1.012   2.022   6.622
 2270SOL     OW 6833   0.590   3.349   6.077
 2270SOL    HW1 6834   0.632   3.291   6.007
 2270SOL    HW2 6835   0.546   3.428   6.033
 2271SOL     OW 6836   1.709   2.247   6.967
 2271SOL    HW1 6837   1.782   2.316   6.971
 2271SOL    HW2 6838   1.737   2.172   6.908
 2272SOL     OW 6839   0.255   3.210   5.876
 2272SOL    HW1 6840   0.159   3.211   5.849
 2272SOL    HW2 6841   0.267   3.263   5.960
 2273SOL     OW 6842   0.105   2.875   7.312
 2273SOL    HW1 6843   0.028   2.842   7.366
 2273SOL    HW2 6844   0.190   2.845   7.354
 2274SOL     OW 6845   0.672   2.065   7.075
 2274SOL    HW1 6846   0.762   2.049   7.035
 2274SOL    HW2 6847   0.680   2.070   7.174
 2275SOL     OW 6848   0.075   2.207   5.619
 2275SOL    HW1 6849  -0.017   2.179   5.590
 2275SOL    HW2 6850   0.106   2.284   5.563
 2276SOL     OW 6851   1.440   2.718   6.984
 2276SOL    HW1 6852   1.383   2.770   6.921
 2276SOL    HW2 6853   1.536   2.730   6.960
 2277SOL     OW 6854   0.072   2.028   5.904
 2277SOL    HW1 6855   0.055   2.111   5.850
 2277SOL    HW2 6856   0.162   1.991   5.882
 2278SOL     OW 6857   1.183   3.197   5.705
 2278SOL    HW1 6858   1.084   3.186   5.707
 2278SOL    HW2 6859   1.217   3.212   5.798
 2279SOL     OW 6860   0.613   2.704   7.017
 2279SOL    HW1 6861   0.669   2.785   7.000
 2279SOL    HW2 6862   0.672   2.624   7.020
 2280SOL     OW 6863   1.493   3.629   6.545
 2280SOL    HW1 6864   1.526   3.693   6.476
 2280SOL    HW2 6865   1.559   3.623   6.620
 2281SOL     OW 6866   0.716   2.427   7.294
 2281SOL    HW1 6867   0.735   2.492   7.368
 2281SOL    HW2 6868   0.776   2.347   7.303
 2282SOL     OW 6869   1.450   3.082   7.219
 2282SOL    HW1 6870   1.441   3.072   7.318
 2282SOL    HW2 6871   1.546   3.075   7.193
 2283SOL     OW 6872   0.390   3.603   7.146
 2283SOL    HW1 6873   0.299   3.644   7.144
 2283SOL    HW2 6874   0.383   3.509   7.178
 2284SOL     OW 6875   1.674   2.745   6.840
 2284SOL    HW1 6876   1.647   2.656   6.803
 2284SOL    HW2 6877   1.675   2.813   6.767
 2285SOL     OW 6878   1.225   2.187   6.035
 2285SOL    HW1 6879   1.290   2.113   6.024
 2285SOL    HW2 6880   1.245   2.237   6.119
 2286SOL     OW 6881   0.594   2.607   6.238
 2286SOL    HW1 6882   0.644   2.692   6.219
 2286SOL    HW2 6883   0.506   2.609   6.190
 2287SOL     OW 6884   1.777   2.204   7.228
 2287SOL    HW1 6885   1.760   2.235   7.134
 2287SOL    HW2 6886   1.693   2.167   7.266
 2288SOL     OW 6887   1.730   2.796   7.103
 2288SOL    HW1 6888   1.768   2.887   7.118
 2288SOL    HW2 6889   1.722   2.779   7.004
 2289SOL     OW 6890   0.859   3.236   5.602
 2289SOL    HW1 6891   0.813   3.251   5.690
 2289SOL    HW2 6892   0.903   3.321   5.572
 2290SOL     OW 6893   0.661   3.652   6.539
 2290SOL    HW1 6894   0.615   3.740   6.526
 2290SOL    HW2 6895   0.760   3.664   6.532
 2291SOL     OW 6896   0.859   2.818   6.447
 2291SOL    HW1 6897   0.913   2.749   6.495
 2291SOL    HW2 6898   0.827   2.887   6.513
 2292SOL     OW 6899   1.083   2.846   5.673
 2292SOL    HW1 6900   1.060   2.899   5.591
 2292SOL    HW2 6901   1.164   2.790   5.654
 2293SOL     OW 6902   1.861   3.431   6.437
 2293SOL    HW1 6903   1.790   3.419   6.367
 2293SOL    HW2 6904   1.862   3.352   6.497
 2294SOL     OW 6905   0.221   3.176   7.430
 2294SOL    HW1 6906   0.156   3.103   7.409
 2294SOL    HW2 6907   0.225   3.190   7.528
 2295SOL     OW 6908   0.079   3.102   6.239
 2295SOL    HW1 6909   0.078   3.055   6.327
 2295SOL    HW2 6910   0.161   3.074   6.188
 2296SOL     OW 6911   0.672   3.253   7.210
 2296SOL    HW1 6912   0.594   3.203   7.248
 2296SOL    HW2 6913   0.669   3.348   7.241
 2297SOL     OW 6914   1.824   2.054   6.813
 2297SOL    HW1 6915   1.820   1.964   6.857
 2297SOL    HW2 6916   1.827   2.043   6.714
 2298SOL     OW 6917   0.428   2.286   6.106
 2298SOL    HW1 6918   0.458   2.214   6.044
 2298SOL    HW2 6919   0.389   2.246   6.189
 2299SOL     OW 6920   1.705   3.349   6.690
 2299SOL    HW1 6921   1.612   3.324   6.663
 2299SOL    HW2 6922   1.731   3.299   6.772
 2300SOL     OW 6923   0.317   2.409   6.866
 2300SOL    HW1 6924   0.355   2.350   6.938
 2300SOL    HW2 6925   0.357   2.383   6.778
 2301SOL     OW 6926   0.812   3.448   6.273
 2301SOL    HW1 6927   0.844   3.458   6.179
 2301SOL    HW2 6928   0.733   3.386   6.275
 2302SOL     OW 6929   1.424   2.076   6.698
 2302SOL    HW1 6930   1.476   2.011   6.753
 2302SOL    HW2 6931   1.375   2.139   6.759
 2303SOL     OW 6932   1.001   1.896   6.740
 2303SOL    HW1 6933   0.938   1.824   6.709
 2303SOL    HW2 6934   1.094   1.860   6.740
 2304SOL     OW 6935   0.770   3.192   5.887
 2304SOL    HW1 6936   0.724   3.105   5.904
 2304SOL    HW2 6937   0.861   3.189   5.928
 2305SOL     OW 6938   0.618   3.429   6.870
 2305SOL    HW1 6939   0.613   3.511   6.927
 2305SOL    HW2 6940   0.707   3.426   6.825
 2306SOL     OW 6941   1.352   1.914   5.754
 2306SOL    HW1 6942   1.387   1.873   5.670
 2306SOL    HW2 6943   1.262   1.876   5.774
 2307SOL     OW 6944   1.300   2.315   6.277
 2307SOL    HW1 6945   1.241   2.395   6.281
 2307SOL    HW2 6946   1.315   2.280   6.370
 2308SOL     OW 6947   1.593   2.083   6.468
 2308SOL    HW1 6948   1.509   2.082   6.522
 2308SOL    HW2 6949   1.595   2.166   6.412
 2309SOL     OW 6950   0.039   2.939   5.886
 2309SOL    HW1 6951   0.138   2.928   5.877
 2309SOL    HW2 6952  -0.001   2.853   5.918
 2310SOL     OW 6953   0.875   3.508   5.923
 2310SOL    HW1 6954   0.798   3.473   5.869
 2310SOL    HW2 6955   0.843   3.579   5.985
 2311SOL     OW 6956   0.230   2.490   7.561
 2311SOL    HW1 6957   0.137   2.488   7.598
 2311SOL    HW2 6958   0.231   2.451   7.469
 2312SOL     OW 6959   0.225   2.137   8.444
 2312SOL    HW1 6960   0.260   2.120   8.536
 2312SOL    HW2 6961   0.137   2.092   8.432
 2313SOL     OW 6962   0.019   2.230   8.095
 2313SOL    HW1 6963  -0.063   2.273   8.134
 2313SOL    HW2 6964  -0.009   2.157   8.032
 2314SOL     OW 6965   0.569   3.137   8.613
 2314SOL    HW1 6966   0.476   3.130   8.576
 2314SOL    HW2 6967   0.580   3.226   8.657
 2315SOL     OW 6968   1.555   3.373   8.151
 2315SOL    HW1 6969   1.498   3.357   8.232
 2315SOL    HW2 6970   1.496   3.383   8.071
 2316SOL     OW 6971   1.135   2.565   8.165
 2316SOL    HW1 6972   1.192   2.643   8.140
 2316SOL    HW2 6973   1.075   2.591   8.241
 2317SOL     OW 6974   1.755   2.469   7.679
 2317SOL    HW1 6975   1.743   2.456   7.580
 2317SOL    HW2 6976   1.725   2.388   7.728
 2318SOL     OW 6977   0.768   3.006   8.471
 2318SOL    HW1 6978   0.690   3.023   8.531
 2318SOL    HW2 6979   0.802   3.093   8.435
 2319SOL     OW 6980   0.850   2.660   9.271
 2319SOL    HW1 6981   0.846   2.736   9.336
 2319SOL    HW2 6982   0.872   2.696   9.180
 2320SOL     OW 6983   0.685   2.874   8.113
 2320SOL    HW1 6984   0.754   2.858   8.183
 2320SOL    HW2 6985   0.612   2.931   8.151
 2321SOL     OW 6986   0.686   3.023   9.251
 2321SOL    HW1 6987   0.746   3.102   9.265
 2321SOL    HW2 6988   0.600   3.054   9.210
 2322SOL     OW 6989   0.335   3.297   8.509
 2322SOL    HW1 6990   0.257   3.266   8.456
 2322SOL    HW2 6991   0.393   3.355   8.452
 2323SOL     OW 6992   1.460   3.367   8.787
 2323SOL    HW1 6993   1.484   3.461   8.813
 2323SOL    HW2 6994   1.444   3.313   8.869
 2324SOL     OW 6995   0.438   2.254   8.947
 2324SOL    HW1 6996   0.520   2.198   8.956
 2324SOL    HW2 6997   0.357   2.196   8.951
 2325SOL     OW 6998   1.603   2.309   8.185
 2325SOL    HW1 6999   1.529   2.355   8.135
 2325SOL    HW2 7000   1.654   2.377   8.238
 2326SOL     OW 7001   0.231   3.575   7.931
 2326SOL    HW1 7002   0.265   3.652   7.985
 2326SOL    HW2 7003   0.275   3.575   7.841
 2327SOL     OW 7004   1.127   3.203   9.138
 2327SOL    HW1 7005   1.174   3.203   9.226
 2327SOL    HW2 7006   1.079   3.116   9.127
 2328SOL     OW 7007   0.230   3.296   7.986
 2328SOL    HW1 7008   0.204   3.392   7.986
 2328SOL    HW2 7009   0.159   3.242   8.031
 2329SOL     OW 7010   0.240   2.953   8.334
 2329SOL    HW1 7011   0.254   2.869   8.386
 2329SOL    HW2 7012   0.185   3.017   8.389
 2330SOL     OW 7013   0.620   3.648   8.887
 2330SOL    HW1 7014   0.528   3.631   8.922
 2330SOL    HW2 7015   0.648   3.740   8.913
 2331SOL     OW 7016   0.606   2.826   7.571
 2331SOL    HW1 7017   0.613   2.910   7.517
 2331SOL    HW2 7018   0.652   2.839   7.659
 2332SOL     OW 7019   1.594   1.976   8.928
 2332SOL    HW1 7020   1.576   2.043   8.856
 2332SOL    HW2 7021   1.591   2.022   9.017
 2333SOL     OW 7022   0.122   2.505   8.011
 2333SOL    HW1 7023   0.077   2.417   8.028
 2333SOL    HW2 7024   0.121   2.559   8.095
 2334SOL     OW 7025   1.842   3.629   7.807
 2334SOL    HW1 7026   1.896   3.600   7.887
 2334SOL    HW2 7027   1.872   3.719   7.778
 2335SOL     OW 7028   0.027   3.458   7.565
 2335SOL    HW1 7029   0.008   3.362   7.586
 2335SOL    HW2 7030  -0.006   3.516   7.640
 2336SOL     OW 7031   1.689   2.784   8.060
 2336SOL    HW1 7032   1.784   2.755   8.068
 2336SOL    HW2 7033   1.681   2.849   7.985
 2337SOL     OW 7034   1.641   2.970   7.880
 2337SOL    HW1 7035   1.727   2.972   7.828
 2337SOL    HW2 7036   1.655   3.017   7.968
 2338SOL     OW 7037   0.113   2.599   9.045
 2338SOL    HW1 7038   0.201   2.586   9.090
 2338SOL    HW2 7039   0.100   2.696   9.023
 2339SOL     OW 7040   0.613   3.227   8.174
 2339SOL    HW1 7041   0.564   3.140   8.183
 2339SOL    HW2 7042   0.590   3.270   8.087
 2340SOL     OW 7043   1.293   3.090   8.871
 2340SOL    HW1 7044   1.330   3.017   8.813
 2340SOL    HW2 7045   1.345   3.095   8.956
 2341SOL     OW 7046   0.809   1.866   7.950
 2341SOL    HW1 7047   0.849   1.957   7.941
 2341SOL    HW2 7048   0.709   1.874   7.956
 2342SOL     OW 7049   0.197   2.838   8.712
 2342SOL    HW1 7050   0.286   2.793   8.698
 2342SOL    HW2 7051   0.124   2.773   8.693
 2343SOL     OW 7052   1.525   2.861   7.638
 2343SOL    HW1 7053   1.462   2.785   7.651
 2343SOL    HW2 7054   1.573   2.879   7.724
 2344SOL     OW 7055   1.187   3.654   9.064
 2344SOL    HW1 7056   1.211   3.714   8.988
 2344SOL    HW2 7057   1.194   3.559   9.034
 2345SOL     OW 7058   0.317   2.113   9.249
 2345SOL    HW1 7059   0.388   2.184   9.255
 2345SOL    HW2 7060   0.229   2.152   9.277
 2346SOL     OW 7061   1.466   3.279   8.401
 2346SOL    HW1 7062   1.407   3.285   8.481
 2346SOL    HW2 7063   1.451   3.191   8.355
 2347SOL     OW 7064   1.667   3.576   8.020
 2347SOL    HW1 7065   1.626   3.553   7.932
 2347SOL    HW2 7066   1.649   3.502   8.085
 2348SOL     OW 7067   0.598   2.591   7.718
 2348SOL    HW1 7068   0.622   2.660   7.650
 2348SOL    HW2 7069   0.520   2.624   7.772
 2349SOL     OW 7070   1.281   2.207   8.392
 2349SOL    HW1 7071   1.195   2.157   8.379
 2349SOL    HW2 7072   1.343   2.153   8.448
 2350SOL     OW 7073   1.576   3.524   7.755
 2350SOL    HW1 7074   1.665   3.570   7.758
 2350SOL    HW2 7075   1.555   3.500   7.660
 2351SOL     OW 7076   0.807   2.467   8.913
 2351SOL    HW1 7077   0.760   2.464   9.002
 2351SOL    HW2 7078   0.756   2.412   8.847
 2352SOL     OW 7079   1.394   2.331   9.122
 2352SOL    HW1 7080   1.374   2.374   9.210
 2352SOL    HW2 7081   1.472   2.269   9.131
 2353SOL     OW 7082   0.973   2.752   9.020
 2353SOL    HW1 7083   1.019   2.668   8.991
 2353SOL    HW2 7084   0.917   2.786   8.945
 2354SOL     OW 7085   0.991   2.272   8.690
 2354SOL    HW1 7086   0.914   2.306   8.744
 2354SOL    HW2 7087   0.957   2.221   8.611
 2355SOL     OW 7088   1.041   2.563   7.877
 2355SOL    HW1 7089   1.067   2.559   7.973
 2355SOL    HW2 7090   0.956   2.512   7.863
 2356SOL     OW 7091   0.076   2.673   8.237
 2356SOL    HW1 7092   0.175   2.661   8.246
 2356SOL    HW2 7093   0.052   2.768   8.258
 2357SOL     OW 7094   0.130   3.683   9.019
 2357SOL    HW1 7095   0.120   3.668   9.118
 2357SOL    HW2 7096   0.044   3.719   8.983
 2358SOL     OW 7097   0.865   2.210   7.643
 2358SOL    HW1 7098   0.924   2.273   7.594
 2358SOL    HW2 7099   0.884   2.116   7.614
 2359SOL     OW 7100   1.719   2.447   9.279
 2359SOL    HW1 7101   1.693   2.536   9.243
 2359SOL    HW2 7102   1.717   2.379   9.206
 2360SOL     OW 7103   1.362   3.006   7.993
 2360SOL    HW1 7104   1.445   2.977   7.945
 2360SOL    HW2 7105   1.313   3.073   7.937
 2361SOL     OW 7106   0.550   2.058   8.333
 2361SOL    HW1 7107   0.545   2.053   8.433
 2361SOL    HW2 7108   0.552   2.154   8.304
 2362SOL     OW 7109   1.008   3.318   7.925
 2362SOL    HW1 7110   0.962   3.390   7.873
 2362SOL    HW2 7111   1.004   3.338   8.023
 2363SOL     OW 7112   0.351   3.663   8.301
 2363SOL    HW1 7113   0.401   3.577   8.307
 2363SOL    HW2 7114   0.416   3.740   8.298
 2364SOL     OW 7115   1.795   2.928   8.321
 2364SOL    HW1 7116   1.733   2.913   8.245
 2364SOL    HW2 7117   1.743   2.939   8.406
 2365SOL     OW 7118   1.227   3.412   8.954
 2365SOL    HW1 7119   1.233   3.335   9.018
 2365SOL    HW2 7120   1.175   3.386   8.874
 2366SOL     OW 7121   0.321   2.805   7.690
 2366SOL    HW1 7122   0.403   2.844   7.648
 2366SOL    HW2 7123   0.294   2.723   7.641
 2367SOL     OW 7124   1.458   2.597   8.176
 2367SOL    HW1 7125   1.453   2.532   8.251
 2367SOL    HW2 7126   1.538   2.656   8.189
 2368SOL     OW 7127   0.461   3.128   9.175
 2368SOL    HW1 7128   0.411   3.129   9.089
 2368SOL    HW2 7129   0.398   3.110   9.251
 2369SOL     OW 7130   1.111   3.638   7.685
 2369SOL    HW1 7131   1.051   3.576   7.735
 2369SOL    HW2 7132   1.142   3.594   7.600
 2370SOL     OW 7133   0.202   2.147   8.946
 2370SOL    HW1 7134   0.122   2.207   8.933
 2370SOL    HW2 7135   0.192   2.098   9.032
 2371SOL     OW 7136   1.632   3.239   7.529
 2371SOL    HW1 7137   1.600   3.333   7.519
 2371SOL    HW2 7138   1.556   3.176   7.517
 2372SOL     OW 7139   0.464   3.605   7.771
 2372SOL    HW1 7140   0.497   3.644   7.857
 2372SOL    HW2 7141   0.540   3.598   7.706
 2373SOL     OW 7142   1.400   1.969   7.874
 2373SOL    HW1 7143   1.376   1.932   7.784
 2373SOL    HW2 7144   1.499   1.985   7.878
 2374SOL     OW 7145   0.249   3.647   8.689
 2374SOL    HW1 7146   0.306   3.582   8.739
 2374SOL    HW2 7147   0.233   3.614   8.596
 2375SOL     OW 7148   0.940   3.560   8.352
 2375SOL    HW1 7149   1.020   3.503   8.373
 2375SOL    HW2 7150   0.891   3.520   8.275
 2376SOL     OW 7151   0.382   2.562   7.928
 2376SOL    HW1 7152   0.427   2.472   7.925
 2376SOL    HW2 7153   0.288   2.551   7.961
 2377SOL     OW 7154   1.547   2.084   9.177
 2377SOL    HW1 7155   1.542   2.121   9.269
 2377SOL    HW2 7156   1.475   2.015   9.165
 2378SOL     OW 7157   0.614   1.984   7.565
 2378SOL    HW1 7158   0.712   1.962   7.572
 2378SOL    HW2 7159   0.583   1.967   7.472
 2379SOL     OW 7160   0.781   2.126   9.197
 2379SOL    HW1 7161   0.848   2.065   9.240
 2379SOL    HW2 7162   0.708   2.145   9.262
 2380SOL     OW 7163   0.888   3.376   8.643
 2380SOL    HW1 7164   0.865   3.351   8.549
 2380SOL    HW2 7165   0.949   3.307   8.682
 2381SOL     OW 7166   1.351   2.452   8.881
 2381SOL    HW1 7167   1.379   2.409   8.966
 2381SOL    HW2 7168   1.376   2.548   8.882
 2382SOL     OW 7169   0.803   3.264   8.372
 2382SOL    HW1 7170   0.893   3.278   8.330
 2382SOL    HW2 7171   0.732   3.266   8.301
 2383SOL     OW 7172   0.922   2.365   8.347
 2383SOL    HW1 7173   0.897   2.356   8.251
 2383SOL    HW2 7174   0.970   2.283   8.378
 2384SOL     OW 7175   0.539   1.926   7.960
 2384SOL    HW1 7176   0.458   1.927   8.018
 2384SOL    HW2 7177   0.542   2.009   7.905
 2385SOL     OW 7178   1.434   3.050   7.489
 2385SOL    HW1 7179   1.466   2.974   7.546
 2385SOL    HW2 7180   1.342   3.077   7.519
 2386SOL     OW 7181   0.297   1.897   7.619
 2386SOL    HW1 7182   0.346   1.981   7.598
 2386SOL    HW2 7183   0.359   1.832   7.664
 2387SOL     OW 7184   0.935   2.098   7.928
 2387SOL    HW1 7185   0.887   2.139   7.850
 2387SOL    HW2 7186   1.034   2.096   7.909
 2388SOL     OW 7187   1.076   2.545   8.912
 2388SOL    HW1 7188   0.996   2.484   8.915
 2388SOL    HW2 7189   1.157   2.492   8.888
 2389SOL     OW 7190   1.227   3.432   8.241
 2389SOL    HW1 7191   1.248   3.506   8.176
 2389SOL    HW2 7192   1.295   3.432   8.314
 2390SOL     OW 7193   0.459   3.014   8.189
 2390SOL    HW1 7194   0.388   2.987   8.254
 2390SOL    HW2 7195   0.433   2.986   8.096
 2391SOL     OW 7196   1.271   3.659   8.039
 2391SOL    HW1 7197   1.315   3.723   7.975
 2391SOL    HW2 7198   1.221   3.711   8.109
 2392SOL     OW 7199   1.032   2.411   7.464
 2392SOL    HW1 7200   0.991   2.493   7.425
 2392SOL    HW2 7201   1.096   2.437   7.537
 2393SOL     OW 7202   0.078   2.418   8.834
 2393SOL    HW1 7203   0.170   2.417   8.793
 2393SOL    HW2 7204   0.072   2.492   8.901
 2394SOL     OW 7205   0.561   2.084   8.595
 2394SOL    HW1 7206   0.599   2.000   8.632
 2394SOL    HW2 7207   0.473   2.103   8.639
 2395SOL     OW 7208   0.866   2.316   8.090
 2395SOL    HW1 7209   0.834   2.388   8.028
 2395SOL    HW2 7210   0.890   2.235   8.037
 2396SOL     OW 7211   1.017   1.901   8.201
 2396SOL    HW1 7212   0.945   1.906   8.132
 2396SOL    HW2 7213   0.993   1.832   8.270
 2397SOL     OW 7214   1.429   3.035   8.315
 2397SOL    HW1 7215   1.374   2.951   8.308
 2397SOL    HW2 7216   1.455   3.064   8.223
 2398SOL     OW 7217   1.466   2.452   8.440
 2398SOL    HW1 7218   1.436   2.357   8.447
 2398SOL    HW2 7219   1.539   2.468   8.506
 2399SOL     OW 7220   1.857   2.695   7.825
 2399SOL    HW1 7221   1.899   2.631   7.889
 2399SOL    HW2 7222   1.819   2.644   7.747
 2400SOL     OW 7223   0.488   3.247   7.622
 2400SOL    HW1 7224   0.401   3.232   7.669
 2400SOL    HW2 7225   0.471   3.273   7.527
 2401SOL     OW 7226   1.664   3.142   8.105
 2401SOL    HW1 7227   1.763   3.150   8.119
 2401SOL    HW2 7228   1.619   3.226   8.136
 2402SOL     OW 7229   1.390   2.437   7.526
 2402SOL    HW1 7230   1.336   2.416   7.607
 2402SOL    HW2 7231   1.481   2.396   7.535
 2403SOL     OW 7232   0.527   2.118   7.776
 2403SOL    HW1 7233   0.554   2.059   7.701
 2403SOL    HW2 7234   0.527   2.213   7.745
 2404SOL     OW 7235   1.754   3.085   9.036
 2404SOL    HW1 7236   1.845   3.046   9.023
 2404SOL    HW2 7237   1.762   3.181   9.060
 2405SOL     OW 7238   1.064   3.209   8.788
 2405SOL    HW1 7239   0.984   3.186   8.843
 2405SOL    HW2 7240   1.147   3.183   8.837
 2406SOL     OW 7241   1.592   3.491   9.073
 2406SOL    HW1 7242   1.619   3.525   8.983
 2406SOL    HW2 7243   1.671   3.453   9.119
 2407SOL     OW 7244   1.111   3.057   8.548
 2407SOL    HW1 7245   1.071   3.101   8.629
 2407SOL    HW2 7246   1.070   3.094   8.465
 2408SOL     OW 7247   1.638   2.961   8.527
 2408SOL    HW1 7248   1.643   3.042   8.586
 2408SOL    HW2 7249   1.552   2.963   8.476
 2409SOL     OW 7250   0.915   1.951   8.850
 2409SOL    HW1 7251   0.940   1.931   8.755
 2409SOL    HW2 7252   0.987   2.007   8.892
 2410SOL     OW 7253   0.980   2.978   9.167
 2410SOL    HW1 7254   0.881   2.984   9.177
 2410SOL    HW2 7255   1.003   2.898   9.111
 2411SOL     OW 7256   0.705   2.912   7.816
 2411SOL    HW1 7257   0.691   2.919   7.915
 2411SOL    HW2 7258   0.789   2.861   7.798
 2412SOL     OW 7259   0.410   2.675   8.699
 2412SOL    HW1 7260   0.496   2.687   8.749
 2412SOL    HW2 7261   0.368   2.588   8.726
 2413SOL     OW 7262   1.274   2.248   8.710
 2413SOL    HW1 7263   1.295   2.322   8.774
 2413SOL    HW2 7264   1.185   2.265   8.667
 2414SOL     OW 7265   0.064   3.426   8.779
 2414SOL    HW1 7266   0.018   3.508   8.745
 2414SOL    HW2 7267   0.162   3.445   8.788
 2415SOL     OW 7268   0.367   2.962   7.949
 2415SOL    HW1 7269   0.360   3.045   7.893
 2415SOL    HW2 7270   0.371   2.882   7.889
 2416SOL     OW 7271   0.566   2.399   8.313
 2416SOL    HW1 7272   0.578   2.465   8.239
 2416SOL    HW2 7273   0.612   2.433   8.396
 2417SOL     OW 7274   1.252   3.210   7.836
 2417SOL    HW1 7275   1.302   3.287   7.876
 2417SOL    HW2 7276   1.157   3.212   7.868
 2418SOL     OW 7277   1.272   3.307   8.590
 2418SOL    HW1 7278   1.319   3.320   8.677
 2418SOL    HW2 7279   1.206   3.233   8.599
 2419SOL     OW 7280   1.582   2.501   7.920
 2419SOL    HW1 7281   1.551   2.562   7.993
 2419SOL    HW2 7282   1.632   2.553   7.851
 2420SOL     OW 7283   0.354   3.372   8.777
 2420SOL    HW1 7284   0.333   3.328   8.690
 2420SOL    HW2 7285   0.451   3.398   8.780
 2421SOL     OW 7286   0.402   2.613   9.046
 2421SOL    HW1 7287   0.470   2.668   8.999
 2421SOL    HW2 7288   0.442   2.525   9.073
 2422SOL     OW 7289   1.587   2.641   9.118
 2422SOL    HW1 7290   1.495   2.679   9.113
 2422SOL    HW2 7291   1.647   2.688   9.053
 2423SOL     OW 7292   1.013   1.967   9.218
 2423SOL    HW1 7293   1.019   2.052   9.166
 2423SOL    HW2 7294   1.045   1.891   9.161
 2424SOL     OW 7295   0.504   1.912   9.188
 2424SOL    HW1 7296   0.462   1.855   9.118
 2424SOL    HW2 7297   0.438   1.981   9.220
 2425SOL     OW 7298   0.573   2.732   8.477
 2425SOL    HW1 7299   0.617   2.821   8.468
 2425SOL    HW2 7300   0.510   2.732   8.554
 2426SOL     OW 7301   1.360   2.724   8.493
 2426SOL    HW1 7302   1.285   2.724   8.427
 2426SOL    HW2 7303   1.397   2.632   8.502
 2427SOL     OW 7304   1.209   2.387   7.723
 2427SOL    HW1 7305   1.222   2.303   7.777
 2427SOL    HW2 7306   1.180   2.461   7.783
 2428SOL     OW 7307   0.307   2.075   8.679
 2428SOL    HW1 7308   0.284   2.112   8.769
 2428SOL    HW2 7309   0.277   1.980   8.673
 2429SOL     OW 7310   0.037   3.172   8.730
 2429SOL    HW1 7311   0.090   3.123   8.798
 2429SOL    HW2 7312   0.059   3.270   8.735
 2430SOL     OW 7313   0.732   2.496   8.512
 2430SOL    HW1 7314   0.791   2.470   8.436
 2430SOL    HW2 7315   0.704   2.592   8.501
 2431SOL     OW 7316   1.728   2.797   9.302
 2431SOL    HW1 7317   1.682   2.790   9.213
 2431SOL    HW2 7318   1.666   2.841   9.368
 2432SOL     OW 7319   0.307   1.925   8.066
 2432SOL    HW1 7320   0.296   2.019   8.099
 2432SOL    HW2 7321   0.302   1.862   8.143
 2433SOL     OW 7322   1.622   2.229   7.822
 2433SOL    HW1 7323   1.624   2.153   7.886
 2433SOL    HW2 7324   1.574   2.306   7.862
 2434SOL     OW 7325   1.023   2.628   8.414
 2434SOL    HW1 7326   1.038   2.649   8.510
 2434SOL    HW2 7327   0.993   2.533   8.405
 2435SOL     OW 7328   0.980   3.435   9.148
 2435SOL    HW1 7329   0.960   3.479   9.060
 2435SOL    HW2 7330   1.019   3.344   9.132
 2436SOL     OW 7331   1.859   3.380   9.053
 2436SOL    HW1 7332   1.873   3.407   8.958
 2436SOL    HW2 7333   1.942   3.402   9.106
 2437SOL     OW 7334   0.350   2.760   9.252
 2437SOL    HW1 7335   0.426   2.804   9.300
 2437SOL    HW2 7336   0.385   2.713   9.170
 2438SOL     OW 7337   1.540   2.136   7.573
 2438SOL    HW1 7338   1.479   2.061   7.596
 2438SOL    HW2 7339   1.562   2.188   7.656
 2439SOL     OW 7340   1.303   2.700   7.490
 2439SOL    HW1 7341   1.337   2.607   7.505
 2439SOL    HW2 7342   1.321   2.727   7.395
 2440SOL     OW 7343   1.068   3.195   8.297
 2440SOL    HW1 7344   1.075   3.111   8.242
 2440SOL    HW2 7345   1.130   3.264   8.261
 2441SOL     OW 7346   0.319   2.672   8.397
 2441SOL    HW1 7347   0.412   2.708   8.402
 2441SOL    HW2 7348   0.313   2.587   8.449
 2442SOL     OW 7349   0.339   2.371   8.454
 2442SOL    HW1 7350   0.287   2.288   8.437
 2442SOL    HW2 7351   0.416   2.376   8.390
 2443SOL     OW 7352   1.138   2.242   9.126
 2443SOL    HW1 7353   1.093   2.305   9.190
 2443SOL    HW2 7354   1.231   2.273   9.109
 2444SOL     OW 7355   1.160   2.069   8.925
 2444SOL    HW1 7356   1.160   2.133   9.002
 2444SOL    HW2 7357   1.188   2.117   8.842
 2445SOL     OW 7358   0.008   3.188   7.648
 2445SOL    HW1 7359  -0.085   3.209   7.617
 2445SOL    HW2 7360   0.018   3.089   7.661
 2446SOL     OW 7361   0.088   3.663   8.375
 2446SOL    HW1 7362   0.046   3.577   8.348
 2446SOL    HW2 7363   0.182   3.666   8.341
 2447SOL     OW 7364   0.504   3.430   8.358
 2447SOL    HW1 7365   0.570   3.504   8.367
 2447SOL    HW2 7366   0.548   3.351   8.316
 2448SOL     OW 7367   1.002   2.658   8.686
 2448SOL    HW1 7368   1.043   2.626   8.772
 2448SOL    HW2 7369   0.906   2.631   8.683
 2449SOL     OW 7370   0.040   2.406   8.562
 2449SOL    HW1 7371   0.125   2.373   8.521
 2449SOL    HW2 7372   0.053   2.421   8.660
 2450SOL     OW 7373   0.189   2.382   9.170
 2450SOL    HW1 7374   0.248   2.342   9.100
 2450SOL    HW2 7375   0.131   2.453   9.129
 2451SOL     OW 7376   1.369   2.812   9.108
 2451SOL    HW1 7377   1.408   2.901   9.128
 2451SOL    HW2 7378   1.379   2.792   9.011
 2452SOL     OW 7379   0.815   2.434   7.773
 2452SOL    HW1 7380   0.822   2.345   7.727
 2452SOL    HW2 7381   0.721   2.468   7.765
 2453SOL     OW 7382   1.657   2.466   8.654
 2453SOL    HW1 7383   1.619   2.397   8.716
 2453SOL    HW2 7384   1.739   2.430   8.610
 2454SOL     OW 7385   0.252   3.426   9.192
 2454SOL    HW1 7386   0.222   3.483   9.268
 2454SOL    HW2 7387   0.245   3.329   9.218
 2455SOL     OW 7388   0.671   2.326   8.717
 2455SOL    HW1 7389   0.637   2.237   8.687
 2455SOL    HW2 7390   0.697   2.380   8.637
 2456SOL     OW 7391   0.930   3.540   8.913
 2456SOL    HW1 7392   0.906   3.522   8.818
 2456SOL    HW2 7393   0.960   3.634   8.923
 2457SOL     OW 7394   0.473   2.362   7.639
 2457SOL    HW1 7395   0.534   2.442   7.643
 2457SOL    HW2 7396   0.378   2.393   7.646
 2458SOL     OW 7397   0.159   2.999   8.914
 2458SOL    HW1 7398   0.181   2.938   8.990
 2458SOL    HW2 7399   0.169   2.950   8.828
 2459SOL     OW 7400   1.347   2.921   8.682
 2459SOL    HW1 7401   1.371   2.858   8.608
 2459SOL    HW2 7402   1.257   2.961   8.664
 2460SOL     OW 7403   1.302   2.717   7.757
 2460SOL    HW1 7404   1.216   2.686   7.799
 2460SOL    HW2 7405   1.298   2.703   7.658
 2461SOL     OW 7406   1.759   3.609   8.602
 2461SOL    HW1 7407   1.820   3.639   8.529
 2461SOL    HW2 7408   1.721   3.520   8.580
 2462SOL     OW 7409   1.252   3.593   8.576
 2462SOL    HW1 7410   1.336   3.598   8.522
 2462SOL    HW2 7411   1.229   3.497   8.594
 2463SOL     OW 7412   0.083   3.120   8.470
 2463SOL    HW1 7413   0.078   3.119   8.570
 2463SOL    HW2 7414   0.000   3.079   8.432
 2464SOL     OW 7415   0.688   3.524   9.164
 2464SOL    HW1 7416   0.632   3.605   9.173
 2464SOL    HW2 7417   0.740   3.528   9.078
 2465SOL     OW 7418   1.726   1.997   7.971
 2465SOL    HW1 7419   1.799   1.980   7.904
 2465SOL    HW2 7420   1.695   1.910   8.009
 2466SOL     OW 7421   1.388   3.435   7.925
 2466SOL    HW1 7422   1.455   3.447   7.851
 2466SOL    HW2 7423   1.348   3.524   7.948
 2467SOL     OW 7424   0.130   3.656   9.299
 2467SOL    HW1 7425   0.089   3.582   9.352
 2467SOL    HW2 7426   0.194   3.707   9.357
 2468SOL     OW 7427   1.280   2.789   8.120
 2468SOL    HW1 7428   1.340   2.708   8.122
 2468SOL    HW2 7429   1.320   2.858   8.060
 2469SOL     OW 7430   0.830   3.135   8.870
 2469SOL    HW1 7431   0.825   3.168   8.965
 2469SOL    HW2 7432   0.744   3.154   8.824
 2470SOL     OW 7433   0.672   3.478   7.602
 2470SOL    HW1 7434   0.681   3.488   7.503
 2470SOL    HW2 7435   0.632   3.389   7.623
 2471SOL     OW 7436   1.650   3.582   8.842
 2471SOL    HW1 7437   1.703   3.592   8.758
 2471SOL    HW2 7438   1.623   3.672   8.876
 2472SOL     OW 7439   1.841   2.037   8.411
 2472SOL    HW1 7440   1.880   1.952   8.375
 2472SOL    HW2 7441   1.743   2.039   8.392
 2473SOL     OW 7442   0.263   2.188   8.168
 2473SOL    HW1 7443   0.184   2.239   8.134
 2473SOL    HW2 7444   0.254   2.173   8.266
 2474SOL     OW 7445   1.194   3.474   7.479
 2474SOL    HW1 7446   1.200   3.381   7.516
 2474SOL    HW2 7447   1.135   3.474   7.399
 2475SOL     OW 7448   0.822   2.864   8.820
 2475SOL    HW1 7449   0.862   2.863   8.728
 2475SOL    HW2 7450   0.832   2.956   8.860
 2476SOL     OW 7451   0.916   2.772   7.739
 2476SOL    HW1 7452   0.979   2.810   7.671
 2476SOL    HW2 7453   0.956   2.689   7.778
 2477SOL     OW 7454   1.504   3.469   7.492
 2477SOL    HW1 7455   1.412   3.506   7.499
 2477SOL    HW2 7456   1.542   3.489   7.402
 2478SOL     OW 7457   0.372   3.150   8.938
 2478SOL    HW1 7458   0.359   3.243   8.904
 2478SOL    HW2 7459   0.288   3.098   8.925
 2479SOL     OW 7460   1.614   3.154   8.737
 2479SOL    HW1 7461   1.674   3.157   8.817
 2479SOL    HW2 7462   1.539   3.218   8.750
 2480SOL     OW 7463   1.039   2.960   8.144
 2480SOL    HW1 7464   0.969   2.913   8.198
 2480SOL    HW2 7465   1.098   2.892   8.101
 2481SOL     OW 7466   1.014   2.098   8.419
 2481SOL    HW1 7467   1.006   2.062   8.326
 2481SOL    HW2 7468   1.012   2.022   8.484
 2482SOL     OW 7469   0.590   3.349   7.939
 2482SOL    HW1 7470   0.632   3.291   7.869
 2482SOL    HW2 7471   0.546   3.428   7.895
 2483SOL     OW 7472   1.709   2.247   8.829
 2483SOL    HW1 7473   1.782   2.316   8.833
 2483SOL    HW2 7474   1.737   2.172   8.770
 2484SOL     OW 7475   0.255   3.210   7.738
 2484SOL    HW1 7476   0.159   3.211   7.711
 2484SOL    HW2 7477   0.267   3.263   7.822
 2485SOL     OW 7478   0.105   2.875   9.174
 2485SOL    HW1 7479   0.028   2.842   9.228
 2485SOL    HW2 7480   0.190   2.845   9.216
 2486SOL     OW 7481   0.672   2.065   8.937
 2486SOL    HW1 7482   0.762   2.049   8.897
 2486SOL    HW2 7483   0.680   2.070   9.036
 2487SOL     OW 7484   0.075   2.207   7.481
 2487SOL    HW1 7485  -0.017   2.179   7.452
 2487SOL    HW2 7486   0.106   2.284   7.425
 2488SOL     OW 7487   1.440   2.718   8.846
 2488SOL    HW1 7488   1.383   2.770   8.783
 2488SOL    HW2 7489   1.536   2.730   8.822
 2489SOL     OW 7490   0.072   2.028   7.766
 2489SOL    HW1 7491   0.055   2.111   7.712
 2489SOL    HW2 7492   0.162   1.991   7.744
 2490SOL     OW 7493   1.183   3.197   7.567
 2490SOL    HW1 7494   1.084   3.186   7.569
 2490SOL    HW2 7495   1.217   3.212   7.660
 2491SOL     OW 7496   0.613   2.704   8.879
 2491SOL    HW1 7497   0.669   2.785   8.862
 2491SOL    HW2 7498   0.672   2.624   8.882
 2492SOL     OW 7499   1.493   3.629   8.407
 2492SOL    HW1 7500   1.526   3.693   8.338
 2492SOL    HW2 7501   1.559   3.623   8.482
 2493SOL     OW 7502   0.716   2.427   9.156
 2493SOL    HW1 7503   0.735   2.492   9.230
 2493SOL    HW2 7504   0.776   2.347   9.165
 2494SOL     OW 7505   1.450   3.082   9.081
 2494SOL    HW1 7506   1.441   3.072   9.180
 2494SOL    HW2 7507   1.546   3.075   9.055
 2495SOL     OW 7508   0.390   3.603   9.008
 2495SOL    HW1 7509   0.299   3.644   9.006
 2495SOL    HW2 7510   0.383   3.509   9.040
 2496SOL     OW 7511   1.674   2.745   8.702
 2496SOL    HW1 7512   1.647   2.656   8.665
 2496SOL    HW2 7513   1.675   2.813   8.629
 2497SOL     OW 7514   1.225   2.187   7.897
 2497SOL    HW1 7515   1.290   2.113   7.886
 2497SOL    HW2 7516   1.245   2.237   7.981
 2498SOL     OW 7517   0.594   2.607   8.100
 2498SOL    HW1 7518   0.644   2.692   8.081
 2498SOL    HW2 7519   0.506   2.609   8.052
 2499SOL     OW 7520   1.777   2.204   9.090
 2499SOL    HW1 7521   1.760   2.235   8.996
 2499SOL    HW2 7522   1.693   2.167   9.128
 2500SOL     OW 7523   1.730   2.796   8.965
 2500SOL    HW1 7524   1.768   2.887   8.980
 2500SOL    HW2 7525   1.722   2.779   8.866
 2501SOL     OW 7526   0.859   3.236   7.464
 2501SOL    HW1 7527   0.813   3.251   7.552
 2501SOL    HW2 7528   0.903   3.321   7.434
 2502SOL     OW 7529   0.661   3.652   8.401
 2502SOL    HW1 7530   0.615   3.740   8.388
 2502SOL    HW2 7531   0.760   3.664   8.394
 2503SOL     OW 7532   0.859   2.818   8.309
 2503SOL    HW1 7533   0.913   2.749   8.357
 2503SOL    HW2 7534   0.827   2.887   8.375
 2504SOL     OW 7535   1.083   2.846   7.535
 2504SOL    HW1 7536   1.060   2.899   7.453
 2504SOL    HW2 7537   1.164   2.790   7.516
 2505SOL     OW 7538   1.861   3.431   8.299
 2505SOL    HW1 7539   1.790   3.419   8.229
 2505SOL    HW2 7540   1.862   3.352   8.359
 2506SOL     OW 7541   0.221   3.176   9.292
 2506SOL    HW1 7542   0.156   3.103   9.271
 2506SOL    HW2 7543   0.225   3.190   9.390
 2507SOL     OW 7544   0.079   3.102   8.101
 2507SOL    HW1 7545   0.078   3.055   8.189
 2507SOL    HW2 7546   0.161   3.074   8.050
 2508SOL     OW 7547   0.672   3.253   9.072
 2508SOL    HW1 7548   0.594   3.203   9.110
 2508SOL    HW2 7549   0.669   3.348   9.103
 2509SOL     OW 7550   1.824   2.054   8.675
 2509SOL    HW1 7551   1.820   1.964   8.719
 2509SOL    HW2 7552   1.827   2.043   8.576
 2510SOL     OW 7553   0.428   2.286   7.968
 2510SOL    HW1 7554   0.458   2.214   7.906
 2510SOL    HW2 7555   0.389   2.246   8.051
 2511SOL     OW 7556   1.705   3.349   8.552
 2511SOL    HW1 7557   1.612   3.324   8.525
 2511SOL    HW2 7558   1.731   3.299   8.634
 2512SOL     OW 7559   0.317   2.409   8.728
 2512SOL    HW1 7560   0.355   2.350   8.800
 2512SOL    HW2 7561   0.357   2.383   8.640
 2513SOL     OW 7562   0.812   3.448   8.135
 2513SOL    HW1 7563   0.844   3.458   8.041
 2513SOL    HW2 7564   0.733   3.386   8.137
 2514SOL     OW 7565   1.424   2.076   8.560
 2514SOL    HW1 7566   1.476   2.011   8.615
 2514SOL    HW2 7567   1.375   2.139   8.621
 2515SOL     OW 7568   1.001   1.896   8.602
 2515SOL    HW1 7569   0.938   1.824   8.571
 2515SOL    HW2 7570   1.094   1.860   8.602
 2516SOL     OW 7571   0.770   3.192   7.749
 2516SOL    HW1 7572   0.724   3.105   7.766
 2516SOL    HW2 7573   0.861   3.189   7.790
 2517SOL     OW 7574   0.618   3.429   8.732
 2517SOL    HW1 7575   0.613   3.511   8.789
 2517SOL    HW2 7576   0.707   3.426   8.687
 2518SOL     OW 7577   1.352   1.914   7.616
 2518SOL    HW1 7578   1.387   1.873   7.532
 2518SOL    HW2 7579   1.262   1.876   7.636
 2519SOL     OW 7580   1.300   2.315   8.139
 2519SOL    HW1 7581   1.241   2.395   8.143
 2519SOL    HW2 7582   1.315   2.280   8.232
 2520SOL     OW 7583   1.593   2.083   8.330
 2520SOL    HW1 7584   1.509   2.082   8.384
 2520SOL    HW2 7585   1.595   2.166   8.274
 2521SOL     OW 7586   0.039   2.939   7.748
 2521SOL    HW1 7587   0.138   2.928   7.739
 2521SOL    HW2 7588  -0.001   2.853   7.780
 2522SOL     OW 7589   0.875   3.508   7.785
 2522SOL    HW1 7590   0.798   3.473   7.731
 2522SOL    HW2 7591   0.843   3.579   7.847
 2523SOL     OW 7592   0.230   2.490   9.423
 2523SOL    HW1 7593   0.137   2.488   9.460
 2523SOL    HW2 7594   0.231   2.451   9.331
 2524SOL     OW 7595   0.225   2.137  10.306
 2524SOL    HW1 7596   0.260   2.120  10.398
 2524SOL    HW2 7597   0.137   2.092  10.294
 2525SOL     OW 7598   0.019   2.230   9.957
 2525SOL    HW1 7599  -0.063   2.273   9.996
 2525SOL    HW2 7600  -0.009   2.157   9.894
 2526SOL     OW 7601   0.569   3.137  10.475
 2526SOL    HW1 7602   0.476   3.130  10.438
 2526SOL    HW2 7603   0.580   3.226  10.519
 2527SOL     OW 7604   1.555   3.373  10.013
 2527SOL    HW1 7605   1.498   3.357  10.094
 2527SOL    HW2 7606   1.496   3.383   9.933
 2528SOL     OW 7607   1.135   2.565  10.027
 2528SOL    HW1 7608   1.192   2.643  10.002
 2528SOL    HW2 7609   1.075   2.591  10.103
 2529SOL     OW 7610   1.755   2.469   9.541
 2529SOL    HW1 7611   1.743   2.456   9.442
 2529SOL    HW2 7612   1.725   2.388   9.590
 2530SOL     OW 7613   0.768   3.006  10.333
 2530SOL    HW1 7614   0.690   3.023  10.393
 2530SOL    HW2 7615   0.802   3.093  10.297
 2531SOL     OW 7616   0.850   2.660  11.133
 2531SOL    HW1 7617   0.846   2.736  11.198
 2531SOL    HW2 7618   0.872   2.696  11.042
 2532SOL     OW 7619   0.685   2.874   9.975
 2532SOL    HW1 7620   0.754   2.858  10.045
 2532SOL    HW2 7621   0.612   2.931  10.013
 2533SOL     OW 7622   0.686   3.023  11.113
 2533SOL    HW1 7623   0.746   3.102  11.127
 2533SOL    HW2 7624   0.600   3.054  11.072
 2534SOL     OW 7625   0.335   3.297  10.371
 2534SOL    HW1 7626   0.257   3.266  10.318
 2534SOL    HW2 7627   0.393   3.355  10.314
 2535SOL     OW 7628   1.460   3.367  10.649
 2535SOL    HW1 7629   1.484   3.461  10.675
 2535SOL    HW2 7630   1.444   3.313  10.731
 2536SOL     OW 7631   0.438   2.254  10.809
 2536SOL    HW1 7632   0.520   2.198  10.818
 2536SOL    HW2 7633   0.357   2.196  10.813
 2537SOL     OW 7634   1.603   2.309  10.047
 2537SOL    HW1 7635   1.529   2.355   9.997
 2537SOL    HW2 7636   1.654   2.377  10.100
 2538SOL     OW 7637   0.231   3.575   9.793
 2538SOL    HW1 7638   0.265   3.652   9.847
 2538SOL    HW2 7639   0.275   3.575   9.703
 2539SOL     OW 7640   1.127   3.203  11.000
 2539SOL    HW1 7641   1.174   3.203  11.088
 2539SOL    HW2 7642   1.079   3.116  10.989
 2540SOL     OW 7643   0.230   3.296   9.848
 2540SOL    HW1 7644   0.204   3.392   9.848
 2540SOL    HW2 7645   0.159   3.242   9.893
 2541SOL     OW 7646   0.240   2.953  10.196
 2541SOL    HW1 7647   0.254   2.869  10.248
 2541SOL    HW2 7648   0.185   3.017  10.251
 2542SOL     OW 7649   0.620   3.648  10.749
 2542SOL    HW1 7650   0.528   3.631  10.784
 2542SOL    HW2 7651   0.648   3.740  10.775
 2543SOL     OW 7652   0.606   2.826   9.433
 2543SOL    HW1 7653   0.613   2.910   9.379
 2543SOL    HW2 7654   0.652   2.839   9.521
 2544SOL     OW 7655   1.594   1.976  10.790
 2544SOL    HW1 7656   1.576   2.043  10.718
 2544SOL    HW2 7657   1.591   2.022  10.879
 2545SOL     OW 7658   0.122   2.505   9.873
 2545SOL    HW1 7659   0.077   2.417   9.890
 2545SOL    HW2 7660   0.121   2.559   9.957
 2546SOL     OW 7661   1.842   3.629   9.669
 2546SOL    HW1 7662   1.896   3.600   9.749
 2546SOL    HW2 7663   1.872   3.719   9.640
 2547SOL     OW 7664   0.027   3.458   9.427
 2547SOL    HW1 7665   0.008   3.362   9.448
 2547SOL    HW2 7666  -0.006   3.516   9.502
 2548SOL     OW 7667   1.689   2.784   9.922
 2548SOL    HW1 7668   1.784   2.755   9.930
 2548SOL    HW2 7669   1.681   2.849   9.847
 2549SOL     OW 7670   1.641   2.970   9.742
 2549SOL    HW1 7671   1.727   2.972   9.690
 2549SOL    HW2 7672   1.655   3.017   9.830
 2550SOL     OW 7673   0.113   2.599  10.907
 2550SOL    HW1 7674   0.201   2.586  10.952
 2550SOL    HW2 7675   0.100   2.696  10.885
 2551SOL     OW 7676   0.613   3.227  10.036
 2551SOL    HW1 7677   0.564   3.140  10.045
 2551SOL    HW2 7678   0.590   3.270   9.949
 2552SOL     OW 7679   1.293   3.090  10.733
 2552SOL    HW1 7680   1.330   3.017  10.675
 2552SOL    HW2 7681   1.345   3.095  10.818
 2553SOL     OW 7682   0.809   1.866   9.812
 2553SOL    HW1 7683   0.849   1.957   9.803
 2553SOL    HW2 7684   0.709   1.874   9.818
 2554SOL     OW 7685   0.197   2.838  10.574
 2554SOL    HW1 7686   0.286   2.793  10.560
 2554SOL    HW2 7687   0.124   2.773  10.555
 2555SOL     OW 7688   1.525   2.861   9.500
 2555SOL    HW1 7689   1.462   2.785   9.513
 2555SOL    HW2 7690   1.573   2.879   9.586
 2556SOL     OW 7691   1.187   3.654  10.926
 2556SOL    HW1 7692   1.211   3.714  10.850
 2556SOL    HW2 7693   1.194   3.559  10.896
 2557SOL     OW 7694   0.317   2.113  11.111
 2557SOL    HW1 7695   0.388   2.184  11.117
 2557SOL    HW2 7696   0.229   2.152  11.139
 2558SOL     OW 7697   1.466   3.279  10.263
 2558SOL    HW1 7698   1.407   3.285  10.343
 2558SOL    HW2 7699   1.451   3.191  10.217
 2559SOL     OW 7700   1.667   3.576   9.882
 2559SOL    HW1 7701   1.626   3.553   9.794
 2559SOL    HW2 7702   1.649   3.502   9.947
 2560SOL     OW 7703   0.598   2.591   9.580
 2560SOL    HW1 7704   0.622   2.660   9.512
 2560SOL    HW2 7705   0.520   2.624   9.634
 2561SOL     OW 7706   1.281   2.207  10.254
 2561SOL    HW1 7707   1.195   2.157  10.241
 2561SOL    HW2 7708   1.343   2.153  10.310
 2562SOL     OW 7709   1.576   3.524   9.617
 2562SOL    HW1 7710   1.665   3.570   9.620
 2562SOL    HW2 7711   1.555   3.500   9.522
 2563SOL     OW 7712   0.807   2.467  10.775
 2563SOL    HW1 7713   0.760   2.464  10.864
 2563SOL    HW2 7714   0.756   2.412  10.709
 2564SOL     OW 7715   1.394   2.331  10.984
 2564SOL    HW1 7716   1.374   2.374  11.072
 2564SOL    HW2 7717   1.472   2.269  10.993
 2565SOL     OW 7718   0.973   2.752  10.882
 2565SOL    HW1 7719   1.019   2.668  10.853
 2565SOL    HW2 7720   0.917   2.786  10.807
 2566SOL     OW 7721   0.991   2.272  10.552
 2566SOL    HW1 7722   0.914   2.306  10.606
 2566SOL    HW2 7723   0.957   2.221  10.473
 2567SOL     OW 7724   1.041   2.563   9.739
 2567SOL    HW1 7725   1.067   2.559   9.835
 2567SOL    HW2 7726   0.956   2.512   9.725
 2568SOL     OW 7727   0.076   2.673  10.099
 2568SOL    HW1 7728   0.175   2.661  10.108
 2568SOL    HW2 7729   0.052   2.768  10.120
 2569SOL     OW 7730   0.130   3.683  10.881
 2569SOL    HW1 7731   0.120   3.668  10.980
 2569SOL    HW2 7732   0.044   3.719  10.845
 2570SOL     OW 7733   0.865   2.210   9.505
 2570SOL    HW1 7734   0.924   2.273   9.456
 2570SOL    HW2 7735   0.884   2.116   9.476
 2571SOL     OW 7736   1.719   2.447  11.141
 2571SOL    HW1 7737   1.693   2.536  11.105
 2571SOL    HW2 7738   1.717   2.379  11.068
 2572SOL     OW 7739   1.362   3.006   9.855
 2572SOL    HW1 7740   1.445   2.977   9.807
 2572SOL    HW2 7741   1.313   3.073   9.799
 2573SOL     OW 7742   0.550   2.058  10.195
 2573SOL    HW1 7743   0.545   2.053  10.295
 2573SOL    HW2 7744   0.552   2.154  10.166
 2574SOL     OW 7745   1.008   3.318   9.787
 2574SOL    HW1 7746   0.962   3.390   9.735
 2574SOL    HW2 7747   1.004   3.338   9.885
 2575SOL     OW 7748   0.351   3.663  10.163
 2575SOL    HW1 7749   0.401   3.577  10.169
 2575SOL    HW2 7750   0.416   3.740  10.160
 2576SOL     OW 7751   1.795   2.928  10.183
 2576SOL    HW1 7752   1.733   2.913  10.107
 2576SOL    HW2 7753   1.743   2.939  10.268
 2577SOL     OW 7754   1.227   3.412  10.816
 2577SOL    HW1 7755   1.233   3.335  10.880
 2577SOL    HW2 7756   1.175   3.386  10.736
 2578SOL     OW 7757   0.321   2.805   9.552
 2578SOL    HW1 7758   0.403   2.844   9.510
 2578SOL    HW2 7759   0.294   2.723   9.503
 2579SOL     OW 7760   1.458   2.597  10.038
 2579SOL    HW1 7761   1.453   2.532  10.113
 2579SOL    HW2 7762   1.538   2.656  10.051
 2580SOL     OW 7763   0.461   3.128  11.037
 2580SOL    HW1 7764   0.411   3.129  10.951
 2580SOL    HW2 7765   0.398   3.110  11.113
 2581SOL     OW 7766   1.111   3.638   9.547
 2581SOL    HW1 7767   1.051   3.576   9.597
 2581SOL    HW2 7768   1.142   3.594   9.462
 2582SOL     OW 7769   0.202   2.147  10.808
 2582SOL    HW1 7770   0.122   2.207  10.795
 2582SOL    HW2 7771   0.192   2.098  10.894
 2583SOL     OW 7772   1.632   3.239   9.391
 2583SOL    HW1 7773   1.600   3.333   9.381
 2583SOL    HW2 7774   1.556   3.176   9.379
 2584SOL     OW 7775   0.464   3.605   9.633
 2584SOL    HW1 7776   0.497   3.644   9.719
 2584SOL    HW2 7777   0.540   3.598   9.568
 2585SOL     OW 7778   1.400   1.969   9.736
 2585SOL    HW1 7779   1.376   1.932   9.646
 2585SOL    HW2 7780   1.499   1.985   9.740
 2586SOL     OW 7781   0.249   3.647  10.551
 2586SOL    HW1 7782   0.306   3.582  10.601
 2586SOL    HW2 7783   0.233   3.614  10.458
 2587SOL     OW 7784   0.940   3.560  10.214
 2587SOL    HW1 7785   1.020   3.503  10.235
 2587SOL    HW2 7786   0.891   3.520  10.137
 2588SOL     OW 7787   0.382   2.562   9.790
 2588SOL    HW1 7788   0.427   2.472   9.787
 2588SOL    HW2 7789   0.288   2.551   9.823
 2589SOL     OW 7790   1.547   2.084  11.039
 2589SOL    HW1 7791   1.542   2.121  11.131
 2589SOL    HW2 7792   1.475   2.015  11.027
 2590SOL     OW 7793   0.614   1.984   9.427
 2590SOL    HW1 7794   0.712   1.962   9.434
 2590SOL    HW2 7795   0.583   1.967   9.334
 2591SOL     OW 7796   0.781   2.126  11.059
 2591SOL    HW1 7797   0.848   2.065  11.102
 2591SOL    HW2 7798   0.708   2.145  11.124
 2592SOL     OW 7799   0.888   3.376  10.505
 2592SOL    HW1 7800   0.865   3.351  10.411
 2592SOL    HW2 7801   0.949   3.307  10.544
 2593SOL     OW 7802   1.351   2.452  10.743
 2593SOL    HW1 7803   1.379   2.409  10.828
 2593SOL    HW2 7804   1.376   2.548  10.744
 2594SOL     OW 7805   0.803   3.264  10.234
 2594SOL    HW1 7806   0.893   3.278  10.192
 2594SOL    HW2 7807   0.732   3.266  10.163
 2595SOL     OW 7808   0.922   2.365  10.209
 2595SOL    HW1 7809   0.897   2.356  10.113
 2595SOL    HW2 7810   0.970   2.283  10.240
 2596SOL     OW 7811   0.539   1.926   9.822
 2596SOL    HW1 7812   0.458   1.927   9.880
 2596SOL    HW2 7813   0.542   2.009   9.767
 2597SOL     OW 7814   1.434   3.050   9.351
 2597SOL    HW1 7815   1.466   2.974   9.408
 2597SOL    HW2 7816   1.342   3.077   9.381
 2598SOL     OW 7817   0.297   1.897   9.481
 2598SOL    HW1 7818   0.346   1.981   9.460
 2598SOL    HW2 7819   0.359   1.832   9.526
 2599SOL     OW 7820   0.935   2.098   9.790
 2599SOL    HW1 7821   0.887   2.139   9.712
 2599SOL    HW2 7822   1.034   2.096   9.771
 2600SOL     OW 7823   1.076   2.545  10.774
 2600SOL    HW1 7824   0.996   2.484  10.777
 2600SOL    HW2 7825   1.157   2.492  10.750
 2601SOL     OW 7826   1.227   3.432  10.103
 2601SOL    HW1 7827   1.248   3.506  10.038
 2601SOL    HW2 7828   1.295   3.432  10.176
 2602SOL     OW 7829   0.459   3.014  10.051
 2602SOL    HW1 7830   0.388   2.987  10.116
 2602SOL    HW2 7831   0.433   2.986   9.958
 2603SOL     OW 7832   1.271   3.659   9.901
 2603SOL    HW1 7833   1.315   3.723   9.837
 2603SOL    HW2 7834   1.221   3.711   9.971
 2604SOL     OW 7835   1.032   2.411   9.326
 2604SOL    HW1 7836   0.991   2.493   9.287
 2604SOL    HW2 7837   1.096   2.437   9.399
 2605SOL     OW 7838   0.078   2.418  10.696
 2605SOL    HW1 7839   0.170   2.417  10.655
 2605SOL    HW2 7840   0.072   2.492  10.763
 2606SOL     OW 7841   0.561   2.084  10.457
 2606SOL    HW1 7842   0.599   2.000  10.494
 2606SOL    HW2 7843   0.473   2.103  10.501
 2607SOL     OW 7844   0.866   2.316   9.952
 2607SOL    HW1 7845   0.834   2.388   9.890
 2607SOL    HW2 7846   0.890   2.235   9.899
 2608SOL     OW 7847   1.017   1.901  10.063
 2608SOL    HW1 7848   0.945   1.906   9.994
 2608SOL    HW2 7849   0.993   1.832  10.132
 2609SOL     OW 7850   1.429   3.035  10.177
 2609SOL    HW1 7851   1.374   2.951  10.170
 2609SOL    HW2 7852   1.455   3.064  10.085
 2610SOL     OW 7853   1.466   2.452  10.302
 2610SOL    HW1 7854   1.436   2.357  10.309
 2610SOL    HW2 7855   1.539   2.468  10.368
 2611SOL     OW 7856   1.857   2.695   9.687
 2611SOL    HW1 7857   1.899   2.631   9.751
 2611SOL    HW2 7858   1.819   2.644   9.609
 2612SOL     OW 7859   0.488   3.247   9.484
 2612SOL    HW1 7860   0.401   3.232   9.531
 2612SOL    HW2 7861   0.471   3.273   9.389
 2613SOL     OW 7862   1.664   3.142   9.967
 2613SOL    HW1 7863   1.763   3.150   9.981
 2613SOL    HW2 7864   1.619   3.226   9.998
 2614SOL     OW 7865   1.390   2.437   9.388
 2614SOL    HW1 7866   1.336   2.416   9.469
 2614SOL    HW2 7867   1.481   2.396   9.397
 2615SOL     OW 7868   0.527   2.118   9.638
 2615SOL    HW1 7869   0.554   2.059   9.563
 2615SOL    HW2 7870   0.527   2.213   9.607
 2616SOL     OW 7871   1.754   3.085  10.898
 2616SOL    HW1 7872   1.845   3.046  10.885
 2616SOL    HW2 7873   1.762   3.181  10.922
 2617SOL     OW 7874   1.064   3.209  10.650
 2617SOL    HW1 7875   0.984   3.186  10.705
 2617SOL    HW2 7876   1.147   3.183  10.699
 2618SOL     OW 7877   1.592   3.491  10.935
 2618SOL    HW1 7878   1.619   3.525  10.845
 2618SOL    HW2 7879   1.671   3.453  10.981
 2619SOL     OW 7880   1.111   3.057  10.410
 2619SOL    HW1 7881   1.071   3.101  10.491
 2619SOL    HW2 7882   1.070   3.094  10.327
 2620SOL     OW 7883   1.638   2.961  10.389
 2620SOL    HW1 7884   1.643   3.042  10.448
 2620SOL    HW2 7885   1.552   2.963  10.338
 2621SOL     OW 7886   0.915   1.951  10.712
 2621SOL    HW1 7887   0.940   1.931  10.617
 2621SOL    HW2 7888   0.987   2.007  10.754
 2622SOL     OW 7889   0.980   2.978  11.029
 2622SOL    HW1 7890   0.881   2.984  11.039
 2622SOL    HW2 7891   1.003   2.898  10.973
 2623SOL     OW 7892   0.705   2.912   9.678
 2623SOL    HW1 7893   0.691   2.919   9.777
 2623SOL    HW2 7894   0.789   2.861   9.660
 2624SOL     OW 7895   0.410   2.675  10.561
 2624SOL    HW1 7896   0.496   2.687  10.611
 2624SOL    HW2 7897   0.368   2.588  10.588
 2625SOL     OW 7898   1.274   2.248  10.572
 2625SOL    HW1 7899   1.295   2.322  10.636
 2625SOL    HW2 7900   1.185   2.265  10.529
 2626SOL     OW 7901   0.064   3.426  10.641
 2626SOL    HW1 7902   0.018   3.508  10.607
 2626SOL    HW2 7903   0.162   3.445  10.650
 2627SOL     OW 7904   0.367   2.962   9.811
 2627SOL    HW1 7905   0.360   3.045   9.755
 2627SOL    HW2 7906   0.371   2.882   9.751
 2628SOL     OW 7907   0.566   2.399  10.175
 2628SOL    HW1 7908   0.578   2.465  10.101
 2628SOL    HW2 7909   0.612   2.433  10.258
 2629SOL     OW 7910   1.252   3.210   9.698
 2629SOL    HW1 7911   1.302   3.287   9.738
 2629SOL    HW2 7912   1.157   3.212   9.730
 2630SOL     OW 7913   1.272   3.307  10.452
 2630SOL    HW1 7914   1.319   3.320  10.539
 2630SOL    HW2 7915   1.206   3.233  10.461
 2631SOL     OW 7916   1.582   2.501   9.782
 2631SOL    HW1 7917   1.551   2.562   9.855
 2631SOL    HW2 7918   1.632   2.553   9.713
 2632SOL     OW 7919   0.354   3.372  10.639
 2632SOL    HW1 7920   0.333   3.328  10.552
 2632SOL    HW2 7921   0.451   3.398  10.642
 2633SOL     OW 7922   0.402   2.613  10.908
 2633SOL    HW1 7923   0.470   2.668  10.861
 2633SOL    HW2 7924   0.442   2.525  10.935
 2634SOL     OW 7925   1.587   2.641  10.980
 2634SOL    HW1 7926   1.495   2.679  10.975
 2634SOL    HW2 7927   1.647   2.688  10.915
 2635SOL     OW 7928   1.013   1.967  11.080
 2635SOL    HW1 7929   1.019   2.052  11.028
 2635SOL    HW2 7930   1.045   1.891  11.023
 2636SOL     OW 7931   0.504   1.912  11.050
 2636SOL    HW1 7932   0.462   1.855  10.980
 2636SOL    HW2 7933   0.438   1.981  11.082
 2637SOL     OW 7934   0.573   2.732  10.339
 2637SOL    HW1 7935   0.617   2.821  10.330
 2637SOL    HW2 7936   0.510   2.732  10.416
 2638SOL     OW 7937   1.360   2.724  10.355
 2638SOL    HW1 7938   1.285   2.724  10.289
 2638SOL    HW2 7939   1.397   2.632  10.364
 2639SOL     OW 7940   1.209   2.387   9.585
 2639SOL    HW1 7941   1.222   2.303   9.639
 2639SOL    HW2 7942   1.180   2.461   9.645
 2640SOL     OW 7943   0.307   2.075  10.541
 2640SOL    HW1 7944   0.284   2.112  10.631
 2640SOL    HW2 7945   0.277   1.980  10.535
 2641SOL     OW 7946   0.037   3.172  10.592
 2641SOL    HW1 7947   0.090   3.123  10.660
 2641SOL    HW2 7948   0.059   3.270  10.597
 2642SOL     OW 7949   0.732   2.496  10.374
 2642SOL    HW1 7950   0.791   2.470  10.298
 2642SOL    HW2 7951   0.704   2.592  10.363
 2643SOL     OW 7952   1.728   2.797  11.164
 2643SOL    HW1 7953   1.682   2.790  11.075
 2643SOL    HW2 7954   1.666   2.841  11.230
 2644SOL     OW 7955   0.307   1.925   9.928
 2644SOL    HW1 7956   0.296   2.019   9.961
 2644SOL    HW2 7957   0.302   1.862  10.005
 2645SOL     OW 7958   1.622   2.229   9.684
 2645SOL    HW1 7959   1.624   2.153   9.748
 2645SOL    HW2 7960   1.574   2.306   9.724
 2646SOL     OW 7961   1.023   2.628  10.276
 2646SOL    HW1 7962   1.038   2.649  10.372
 2646SOL    HW2 7963   0.993   2.533  10.267
 2647SOL     OW 7964   0.980   3.435  11.010
 2647SOL    HW1 7965   0.960   3.479  10.922
 2647SOL    HW2 7966   1.019   3.344  10.994
 2648SOL     OW 7967   1.859   3.380  10.915
 2648SOL    HW1 7968   1.873   3.407  10.820
 2648SOL    HW2 7969   1.942   3.402  10.968
 2649SOL     OW 7970   0.350   2.760  11.114
 2649SOL    HW1 7971   0.426   2.804  11.162
 2649SOL    HW2 7972   0.385   2.713  11.032
 2650SOL     OW 7973   1.540   2.136   9.435
 2650SOL    HW1 7974   1.479   2.061   9.458
 2650SOL    HW2 7975   1.562   2.188   9.518
 2651SOL     OW 7976   1.303   2.700   9.352
 2651SOL    HW1 7977   1.337   2.607   9.367
 2651SOL    HW2 7978   1.321   2.727   9.257
 2652SOL     OW 7979   1.068   3.195  10.159
 2652SOL    HW1 7980   1.075   3.111  10.104
 2652SOL    HW2 7981   1.130   3.264  10.123
 2653SOL     OW 7982   0.319   2.672  10.259
 2653SOL    HW1 7983   0.412   2.708  10.264
 2653SOL    HW2 7984   0.313   2.587  10.311
 2654SOL     OW 7985   0.339   2.371  10.316
 2654SOL    HW1 7986   0.287   2.288  10.299
 2654SOL    HW2 7987   0.416   2.376  10.252
 2655SOL     OW 7988   1.138   2.242  10.988
 2655SOL    HW1 7989   1.093   2.305  11.052
 2655SOL    HW2 7990   1.231   2.273  10.971
 2656SOL     OW 7991   1.160   2.069  10.787
 2656SOL    HW1 7992   1.160   2.133  10.864
 2656SOL    HW2 7993   1.188   2.117  10.704
 2657SOL     OW 7994   0.008   3.188   9.510
 2657SOL    HW1 7995  -0.085   3.209   9.479
 2657SOL    HW2 7996   0.018   3.089   9.523
 2658SOL     OW 7997   0.088   3.663  10.237
 2658SOL    HW1 7998   0.046   3.577  10.210
 2658SOL    HW2 7999   0.182   3.666  10.203
 2659SOL     OW 8000   0.504   3.430  10.220
 2659SOL    HW1 8001   0.570   3.504  10.229
 2659SOL    HW2 8002   0.548   3.351  10.178
 2660SOL     OW 8003   1.002   2.658  10.548
 2660SOL    HW1 8004   1.043   2.626  10.634
 2660SOL    HW2 8005   0.906   2.631  10.545
 2661SOL     OW 8006   0.040   2.406  10.424
 2661SOL    HW1 8007   0.125   2.373  10.383
 2661SOL    HW2 8008   0.053   2.421  10.522
 2662SOL     OW 8009   0.189   2.382  11.032
 2662SOL    HW1 8010   0.248   2.342  10.962
 2662SOL    HW2 8011   0.131   2.453  10.991
 2663SOL     OW 8012   1.369   2.812  10.970
 2663SOL    HW1 8013   1.408   2.901  10.990
 2663SOL    HW2 8014   1.379   2.792  10.873
 2664SOL     OW 8015   0.815   2.434   9.635
 2664SOL    HW1 8016   0.822   2.345   9.589
 2664SOL    HW2 8017   0.721   2.468   9.627
 2665SOL     OW 8018   1.657   2.466  10.516
 2665SOL    HW1 8019   1.619   2.397  10.578
 2665SOL    HW2 8020   1.739   2.430  10.472
 2666SOL     OW 8021   0.252   3.426  11.054
 2666SOL    HW1 8022   0.222   3.483  11.130
 2666SOL    HW2 8023   0.245   3.329  11.080
 2667SOL     OW 8024   0.671   2.326  10.579
 2667SOL    HW1 8025   0.637   2.237  10.549
 2667SOL    HW2 8026   0.697   2.380  10.499
 2668SOL     OW 8027   0.930   3.540  10.775
 2668SOL    HW1 8028   0.906   3.522  10.680
 2668SOL    HW2 8029   0.960   3.634  10.785
 2669SOL     OW 8030   0.473   2.362   9.501
 2669SOL    HW1 8031   0.534   2.442   9.505
 2669SOL    HW2 8032   0.378   2.393   9.508
 2670SOL     OW 8033   0.159   2.999  10.776
 2670SOL    HW1 8034   0.181   2.938  10.852
 2670SOL    HW2 8035   0.169   2.950  10.690
 2671SOL     OW 8036   1.347   2.921  10.544
 2671SOL    HW1 8037   1.371   2.858  10.470
 2671SOL    HW2 8038   1.257   2.961  10.526
 2672SOL     OW 8039   1.302   2.717   9.619
 2672SOL    HW1 8040   1.216   2.686   9.661
 2672SOL    HW2 8041   1.298   2.703   9.520
 2673SOL     OW 8042   1.759   3.609  10.464
 2673SOL    HW1 8043   1.820   3.639  10.391
 2673SOL    HW2 8044   1.721   3.520  10.442
 2674SOL     OW 8045   1.252   3.593  10.438
 2674SOL    HW1 8046   1.336   3.598  10.384
 2674SOL    HW2 8047   1.229   3.497  10.456
 2675SOL     OW 8048   0.083   3.120  10.332
 2675SOL    HW1 8049   0.078   3.119  10.432
 2675SOL    HW2 8050   0.000   3.079  10.294
 2676SOL     OW 8051   0.688   3.524  11.026
 2676SOL    HW1 8052   0.632   3.605  11.035
 2676SOL    HW2 8053   0.740   3.528  10.940
 2677SOL     OW 8054   1.726   1.997   9.833
 2677SOL    HW1 8055   1.799   1.980   9.766
 2677SOL    HW2 8056   1.695   1.910   9.871
 2678SOL     OW 8057   1.388   3.435   9.787
 2678SOL    HW1 8058   1.455   3.447   9.713
 2678SOL    HW2 8059   1.348   3.524   9.810
 2679SOL     OW 8060   0.130   3.656  11.161
 2679SOL    HW1 8061   0.089   3.582  11.214
 2679SOL    HW2 8062   0.194   3.707  11.219
 2680SOL     OW 8063   1.280   2.789   9.982
 2680SOL    HW1 8064   1.340   2.708   9.984
 2680SOL    HW2 8065   1.320   2.858   9.922
 2681SOL     OW 8066   0.830   3.135  10.732
 2681SOL    HW1 8067   0.825   3.168  10.827
 2681SOL    HW2 8068   0.744   3.154  10.686
 2682SOL     OW 8069   0.672   3.478   9.464
 2682SOL    HW1 8070   0.681   3.488   9.365
 2682SOL    HW2 8071   0.632   3.389   9.485
 2683SOL     OW 8072   1.650   3.582  10.704
 2683SOL    HW1 8073   1.703   3.592  10.620
 2683SOL    HW2 8074   1.623   3.672  10.738
 2684SOL     OW 8075   1.841   2.037  10.273
 2684SOL    HW1 8076   1.880   1.952  10.237
 2684SOL    HW2 8077   1.743   2.039  10.254
 2685SOL     OW 8078   0.263   2.188  10.030
 2685SOL    HW1 8079   0.184   2.239   9.996
 2685SOL    HW2 8080   0.254   2.173  10.128
 2686SOL     OW 8081   1.194   3.474   9.341
 2686SOL    HW1 8082   1.200   3.381   9.378
 2686SOL    HW2 8083   1.135   3.474   9.261
 2687SOL     OW 8084   0.822   2.864  10.682
 2687SOL    HW1 8085   0.862   2.863  10.590
 2687SOL    HW2 8086   0.832   2.956  10.722
 2688SOL     OW 8087   0.916   2.772   9.601
 2688SOL    HW1 8088   0.979   2.810   9.533
 2688SOL    HW2 8089   0.956   2.689   9.640
 2689SOL     OW 8090   1.504   3.469   9.354
 2689SOL    HW1 8091   1.412   3.506   9.361
 2689SOL    HW2 8092   1.542   3.489   9.264
 2690SOL     OW 8093   0.372   3.150  10.800
 2690SOL    HW1 8094   0.359   3.243  10.766
 2690SOL    HW2 8095   0.288   3.098  10.787
 2691SOL     OW 8096   1.614   3.154  10.599
 2691SOL    HW1 8097   1.674   3.157  10.679
 2691SOL    HW2 8098   1.539   3.218  10.612
 2692SOL     OW 8099   1.039   2.960  10.006
 2692SOL    HW1 8100   0.969   2.913  10.060
 2692SOL    HW2 8101   1.098   2.892   9.963
 2693SOL     OW 8102   1.014   2.098  10.281
 2693SOL    HW1 8103   1.006   2.062  10.188
 2693SOL    HW2 8104   1.012   2.022  10.346
 2694SOL     OW 8105   0.590   3.349   9.801
 2694SOL    HW1 8106   0.632   3.291   9.731
 2694SOL    HW2 8107   0.546   3.428   9.757
 2695SOL     OW 8108   1.709   2.247  10.691
 2695SOL    HW1 8109   1.782   2.316  10.695
 2695SOL    HW2 8110   1.737   2.172  10.632
 2696SOL     OW 8111   0.255   3.210   9.600
 2696SOL    HW1 8112   0.159   3.211   9.573
 2696SOL    HW2 8113   0.267   3.263   9.684
 2697SOL     OW 8114   0.105   2.875  11.036
 2697SOL    HW1 8115   0.028   2.842  11.090
 2697SOL    HW2 8116   0.190   2.845  11.078
 2698SOL     OW 8117   0.672   2.065  10.799
 2698SOL    HW1 8118   0.762   2.049  10.759
 2698SOL    HW2 8119   0.680   2.070  10.898
 2699SOL     OW 8120   0.075   2.207   9.343
 2699SOL    HW1 8121  -0.017   2.179   9.314
 2699SOL    HW2 8122   0.106   2.284   9.287
 2700SOL     OW 8123   1.440   2.718  10.708
 2700SOL    HW1 8124   1.383   2.770  10.645
 2700SOL    HW2 8125   1.536   2.730  10.684
 2701SOL     OW 8126   0.072   2.028   9.628
 2701SOL    HW1 8127   0.055   2.111   9.574
 2701SOL    HW2 8128   0.162   1.991   9.606
 2702SOL     OW 8129   1.183   3.197   9.429
 2702SOL    HW1 8130   1.084   3.186   9.431
 2702SOL    HW2 8131   1.217   3.212   9.522
 2703SOL     OW 8132   0.613   2.704  10.741
 2703SOL    HW1 8133   0.669   2.785  10.724
 2703SOL    HW2 8134   0.672   2.624  10.744
 2704SOL     OW 8135   1.493   3.629  10.269
 2704SOL    HW1 8136   1.526   3.693  10.200
 2704SOL    HW2 8137   1.559   3.623  10.344
 2705SOL     OW 8138   0.716   2.427  11.018
 2705SOL    HW1 8139   0.735   2.492  11.092
 2705SOL    HW2 8140   0.776   2.347  11.027
 2706SOL     OW 8141   1.450   3.082  10.943
 2706SOL    HW1 8142   1.441   3.072  11.042
 2706SOL    HW2 8143   1.546   3.075  10.917
 2707SOL     OW 8144   0.390   3.603  10.870
 2707SOL    HW1 8145   0.299   3.644  10.868
 2707SOL    HW2 8146   0.383   3.509  10.902
 2708SOL     OW 8147   1.674   2.745  10.564
 2708SOL    HW1 8148   1.647   2.656  10.527
 2708SOL    HW2 8149   1.675   2.813  10.491
 2709SOL     OW 8150   1.225   2.187   9.759
 2709SOL    HW1 8151   1.290   2.113   9.748
 2709SOL    HW2 8152   1.245   2.237   9.843
 2710SOL     OW 8153   0.594   2.607   9.962
 2710SOL    HW1 8154   0.644   2.692   9.943
 2710SOL    HW2 8155   0.506   2.609   9.914
 2711SOL     OW 8156   1.777   2.204  10.952
 2711SOL    HW1 8157   1.760   2.235  10.858
 2711SOL    HW2 8158   1.693   2.167  10.990
 2712SOL     OW 8159   1.730   2.796  10.827
 2712SOL    HW1 8160   1.768   2.887  10.842
 2712SOL    HW2 8161   1.722   2.779  10.728
 2713SOL     OW 8162   0.859   3.236   9.326
 2713SOL    HW1 8163   0.813   3.251   9.414
 2713SOL    HW2 8164   0.903   3.321   9.296
 2714SOL     OW 8165   0.661   3.652  10.263
 2714SOL    HW1 8166   0.615   3.740  10.250
 2714SOL    HW2 8167   0.760   3.664  10.256
 2715SOL     OW 8168   0.859   2.818  10.171
 2715SOL    HW1 8169   0.913   2.749  10.219
 2715SOL    HW2 8170   0.827   2.887  10.237
 2716SOL     OW 8171   1.083   2.846   9.397
 2716SOL    HW1 8172   1.060   2.899   9.315
 2716SOL    HW2 8173   1.164   2.790   9.378
 2717SOL     OW 8174   1.861   3.431  10.161
 2717SOL    HW1 8175   1.790   3.419  10.091
 2717SOL    HW2 8176   1.862   3.352  10.221
 2718SOL     OW 8177   0.221   3.176  11.154
 2718SOL    HW1 8178   0.156   3.103  11.133
 2718SOL    HW2 8179   0.225   3.190  11.252
 2719SOL     OW 8180   0.079   3.102   9.963
 2719SOL    HW1 8181   0.078   3.055  10.051
 2719SOL    HW2 8182   0.161   3.074   9.912
 2720SOL     OW 8183   0.672   3.253  10.934
 2720SOL    HW1 8184   0.594   3.203  10.972
 2720SOL    HW2 8185   0.669   3.348  10.965
 2721SOL     OW 8186   1.824   2.054  10.537
 2721SOL    HW1 8187   1.820   1.964  10.581
 2721SOL    HW2 8188   1.827   2.043  10.438
 2722SOL     OW 8189   0.428   2.286   9.830
 2722SOL    HW1 8190   0.458   2.214   9.768
 2722SOL    HW2 8191   0.389   2.246   9.913
 2723SOL     OW 8192   1.705   3.349  10.414
 2723SOL    HW1 8193   1.612   3.324  10.387
 2723SOL    HW2 8194   1.731   3.299  10.496
 2724SOL     OW 8195   0.317   2.409  10.590
 2724SOL    HW1 8196   0.355   2.350  10.662
 2724SOL    HW2 8197   0.357   2.383  10.502
 2725SOL     OW 8198   0.812   3.448   9.997
 2725SOL    HW1 8199   0.844   3.458   9.903
 2725SOL    HW2 8200   0.733   3.386   9.999
 2726SOL     OW 8201   1.424   2.076  10.422
 2726SOL    HW1 8202   1.476   2.011  10.477
 2726SOL    HW2 8203   1.375   2.139  10.483
 2727SOL     OW 8204   1.001   1.896  10.464
 2727SOL    HW1 8205   0.938   1.824  10.433
 2727SOL    HW2 8206   1.094   1.860  10.464
 2728SOL     OW 8207   0.770   3.192   9.611
 2728SOL    HW1 8208   0.724   3.105   9.628
 2728SOL    HW2 8209   0.861   3.189   9.652
 2729SOL     OW 8210   0.618   3.429  10.594
 2729SOL    HW1 8211   0.613   3.511  10.651
 2729SOL    HW2 8212   0.707   3.426  10.549
 2730SOL     OW 8213   1.352   1.914   9.478
 2730SOL    HW1 8214   1.387   1.873   9.394
 2730SOL    HW2 8215   1.262   1.876   9.498
 2731SOL     OW 8216   1.300   2.315  10.001
 2731SOL    HW1 8217   1.241   2.395  10.005
 2731SOL    HW2 8218   1.315   2.280  10.094
 2732SOL     OW 8219   1.593   2.083  10.192
 2732SOL    HW1 8220   1.509   2.082  10.246
 2732SOL    HW2 8221   1.595   2.166  10.136
 2733SOL     OW 8222   0.039   2.939   9.610
 2733SOL    HW1 8223   0.138   2.928   9.601
 2733SOL    HW2 8224  -0.001   2.853   9.642
 2734SOL     OW 8225   0.875   3.508   9.647
 2734SOL    HW1 8226   0.798   3.473   9.593
 2734SOL    HW2 8227   0.843   3.579   9.709
 2735SOL     OW 8228   0.230   2.490  11.285
 2735SOL    HW1 8229   0.137   2.488  11.322
 2735SOL    HW2 8230   0.231   2.451  11.193
 2736SOL     OW 8231   0.225   2.137  12.168
 2736SOL    HW1 8232   0.260   2.120  12.260
 2736SOL    HW2 8233   0.137   2.092  12.156
 2737SOL     OW 8234   0.019   2.230  11.819
 2737SOL    HW1 8235  -0.063   2.273  11.858
 2737SOL    HW2 8236  -0.009   2.157  11.756
 2738SOL     OW 8237   0.569   3.137  12.337
 2738SOL    HW1 8238   0.476   3.130  12.300
 2738SOL    HW2 8239   0.580   3.226  12.381
 2739SOL     OW 8240   1.555   3.373  11.875
 2739SOL    HW1 8241   1.498   3.357  11.956
 2739SOL    HW2 8242   1.496   3.383  11.795
 2740SOL     OW 8243   1.135   2.565  11.889
 2740SOL    HW1 8244   1.192   2.643  11.864
 2740SOL    HW2 8245   1.075   2.591  11.965
 2741SOL     OW 8246   1.755   2.469  11.403
 2741SOL    HW1 8247   1.743   2.456  11.304
 2741SOL    HW2 8248   1.725   2.388  11.452
 2742SOL     OW 8249   0.768   3.006  12.195
 2742SOL    HW1 8250   0.690   3.023  12.255
 2742SOL    HW2 8251   0.802   3.093  12.159
 2743SOL     OW 8252   0.685   2.874  11.837
 2743SOL    HW1 8253   0.754   2.858  11.907
 2743SOL    HW2 8254   0.612   2.931  11.875
 2744SOL     OW 8255   0.335   3.297  12.233
 2744SOL    HW1 8256   0.257   3.266  12.180
 2744SOL    HW2 8257   0.393   3.355  12.176
 2745SOL     OW 8258   1.460   3.367  12.511
 2745SOL    HW1 8259   1.484   3.461  12.537
 2745SOL    HW2 8260   1.444   3.313  12.593
 2746SOL     OW 8261   0.438   2.254  12.671
 2746SOL    HW1 8262   0.520   2.198  12.680
 2746SOL    HW2 8263   0.357   2.196  12.675
 2747SOL     OW 8264   1.603   2.309  11.909
 2747SOL    HW1 8265   1.529   2.355  11.859
 2747SOL    HW2 8266   1.654   2.377  11.962
 2748SOL     OW 8267   0.231   3.575  11.655
 2748SOL    HW1 8268   0.265   3.652  11.709
 2748SOL    HW2 8269   0.275   3.575  11.565
 2749SOL     OW 8270   0.230   3.296  11.710
 2749SOL    HW1 8271   0.204   3.392  11.710
 2749SOL    HW2 8272   0.159   3.242  11.755
 2750SOL     OW 8273   0.240   2.953  12.058
 2750SOL    HW1 8274   0.254   2.869  12.110
 2750SOL    HW2 8275   0.185   3.017  12.113
 2751SOL     OW 8276   0.620   3.648  12.611
 2751SOL    HW1 8277   0.528   3.631  12.646
 2751SOL    HW2 8278   0.648   3.740  12.637
 2752SOL     OW 8279   0.606   2.826  11.295
 2752SOL    HW1 8280   0.613   2.910  11.241
 2752SOL    HW2 8281   0.652   2.839  11.383
 2753SOL     OW 8282   1.594   1.976  12.652
 2753SOL    HW1 8283   1.576   2.043  12.580
 2753SOL    HW2 8284   1.591   2.022  12.741
 2754SOL     OW 8285   0.122   2.505  11.735
 2754SOL    HW1 8286   0.077   2.417  11.752
 2754SOL    HW2 8287   0.121   2.559  11.819
 2755SOL     OW 8288   1.842   3.629  11.531
 2755SOL    HW1 8289   1.896   3.600  11.611
 2755SOL    HW2 8290   1.872   3.719  11.502
 2756SOL     OW 8291   0.027   3.458  11.289
 2756SOL    HW1 8292   0.008   3.362  11.310
 2756SOL    HW2 8293  -0.006   3.516  11.364
 2757SOL     OW 8294   1.689   2.784  11.784
 2757SOL    HW1 8295   1.784   2.755  11.792
 2757SOL    HW2 8296   1.681   2.849  11.709
 2758SOL     OW 8297   1.641   2.970  11.604
 2758SOL    HW1 8298   1.727   2.972  11.552
 2758SOL    HW2 8299   1.655   3.017  11.692
 2759SOL     OW 8300   0.113   2.599  12.769
 2759SOL    HW1 8301   0.201   2.586  12.814
 2759SOL    HW2 8302   0.100   2.696  12.747
 2760SOL     OW 8303   0.613   3.227  11.898
 2760SOL    HW1 8304   0.564   3.140  11.907
 2760SOL    HW2 8305   0.590   3.270  11.811
 2761SOL     OW 8306   1.293   3.090  12.595
 2761SOL    HW1 8307   1.330   3.017  12.537
 2761SOL    HW2 8308   1.345   3.095  12.680
 2762SOL     OW 8309   0.809   1.866  11.674
 2762SOL    HW1 8310   0.849   1.957  11.665
 2762SOL    HW2 8311   0.709   1.874  11.680
 2763SOL     OW 8312   0.197   2.838  12.436
 2763SOL    HW1 8313   0.286   2.793  12.422
 2763SOL    HW2 8314   0.124   2.773  12.417
 2764SOL     OW 8315   1.525   2.861  11.362
 2764SOL    HW1 8316   1.462   2.785  11.375
 2764SOL    HW2 8317   1.573   2.879  11.448
 2765SOL     OW 8318   1.466   3.279  12.125
 2765SOL    HW1 8319   1.407   3.285  12.205
 2765SOL    HW2 8320   1.451   3.191  12.079
 2766SOL     OW 8321   1.667   3.576  11.744
 2766SOL    HW1 8322   1.626   3.553  11.656
 2766SOL    HW2 8323   1.649   3.502  11.809
 2767SOL     OW 8324   0.598   2.591  11.442
 2767SOL    HW1 8325   0.622   2.660  11.374
 2767SOL    HW2 8326   0.520   2.624  11.496
 2768SOL     OW 8327   1.281   2.207  12.116
 2768SOL    HW1 8328   1.195   2.157  12.103
 2768SOL    HW2 8329   1.343   2.153  12.172
 2769SOL     OW 8330   1.576   3.524  11.479
 2769SOL    HW1 8331   1.665   3.570  11.482
 2769SOL    HW2 8332   1.555   3.500  11.384
 2770SOL     OW 8333   0.807   2.467  12.637
 2770SOL    HW1 8334   0.760   2.464  12.726
 2770SOL    HW2 8335   0.756   2.412  12.571
 2771SOL     OW 8336   0.973   2.752  12.744
 2771SOL    HW1 8337   1.019   2.668  12.715
 2771SOL    HW2 8338   0.917   2.786  12.669
 2772SOL     OW 8339   0.991   2.272  12.414
 2772SOL    HW1 8340   0.914   2.306  12.468
 2772SOL    HW2 8341   0.957   2.221  12.335
 2773SOL     OW 8342   1.041   2.563  11.601
 2773SOL    HW1 8343   1.067   2.559  11.697
 2773SOL    HW2 8344   0.956   2.512  11.587
 2774SOL     OW 8345   0.076   2.673  11.961
 2774SOL    HW1 8346   0.175   2.661  11.970
 2774SOL    HW2 8347   0.052   2.768  11.982
 2775SOL     OW 8348   0.130   3.683  12.743
 2775SOL    HW1 8349   0.120   3.668  12.842
 2775SOL    HW2 8350   0.044   3.719  12.707
 2776SOL     OW 8351   0.865   2.210  11.367
 2776SOL    HW1 8352   0.924   2.273  11.318
 2776SOL    HW2 8353   0.884   2.116  11.338
 2777SOL     OW 8354   1.362   3.006  11.717
 2777SOL    HW1 8355   1.445   2.977  11.669
 2777SOL    HW2 8356   1.313   3.073  11.661
 2778SOL     OW 8357   0.550   2.058  12.057
 2778SOL    HW1 8358   0.545   2.053  12.157
 2778SOL    HW2 8359   0.552   2.154  12.028
 2779SOL     OW 8360   1.008   3.318  11.649
 2779SOL    HW1 8361   0.962   3.390  11.597
 2779SOL    HW2 8362   1.004   3.338  11.747
 2780SOL     OW 8363   0.351   3.663  12.025
 2780SOL    HW1 8364   0.401   3.577  12.031
 2780SOL    HW2 8365   0.416   3.740  12.022
 2781SOL     OW 8366   1.795   2.928  12.045
 2781SOL    HW1 8367   1.733   2.913  11.969
 2781SOL    HW2 8368   1.743   2.939  12.130
 2782SOL     OW 8369   1.227   3.412  12.678
 2782SOL    HW1 8370   1.233   3.335  12.742
 2782SOL    HW2 8371   1.175   3.386  12.598
 2783SOL     OW 8372   0.321   2.805  11.414
 2783SOL    HW1 8373   0.403   2.844  11.372
 2783SOL    HW2 8374   0.294   2.723  11.365
 2784SOL     OW 8375   1.458   2.597  11.900
 2784SOL    HW1 8376   1.453   2.532  11.975
 2784SOL    HW2 8377   1.538   2.656  11.913
 2785SOL     OW 8378   1.111   3.638  11.409
 2785SOL    HW1 8379   1.051   3.576  11.459
 2785SOL    HW2 8380   1.142   3.594  11.324
 2786SOL     OW 8381   0.202   2.147  12.670
 2786SOL    HW1 8382   0.122   2.207  12.657
 2786SOL    HW2 8383   0.192   2.098  12.756
 2787SOL     OW 8384   1.632   3.239  11.253
 2787SOL    HW1 8385   1.600   3.333  11.243
 2787SOL    HW2 8386   1.556   3.176  11.241
 2788SOL     OW 8387   0.464   3.605  11.495
 2788SOL    HW1 8388   0.497   3.644  11.581
 2788SOL    HW2 8389   0.540   3.598  11.430
 2789SOL     OW 8390   1.400   1.969  11.598
 2789SOL    HW1 8391   1.376   1.932  11.508
 2789SOL    HW2 8392   1.499   1.985  11.602
 2790SOL     OW 8393   0.249   3.647  12.413
 2790SOL    HW1 8394   0.306   3.582  12.463
 2790SOL    HW2 8395   0.233   3.614  12.320
 2791SOL     OW 8396   0.940   3.560  12.076
 2791SOL    HW1 8397   1.020   3.503  12.097
 2791SOL    HW2 8398   0.891   3.520  11.999
 2792SOL     OW 8399   0.382   2.562  11.652
 2792SOL    HW1 8400   0.427   2.472  11.649
 2792SOL    HW2 8401   0.288   2.551  11.685
 2793SOL     OW 8402   0.614   1.984  11.289
 2793SOL    HW1 8403   0.712   1.962  11.296
 2793SOL    HW2 8404   0.583   1.967  11.196
 2794SOL     OW 8405   0.888   3.376  12.367
 2794SOL    HW1 8406   0.865   3.351  12.273
 2794SOL    HW2 8407   0.949   3.307  12.406
 2795SOL     OW 8408   1.351   2.452  12.605
 2795SOL    HW1 8409   1.379   2.409  12.690
 2795SOL    HW2 8410   1.376   2.548  12.606
 2796SOL     OW 8411   0.803   3.264  12.096
 2796SOL    HW1 8412   0.893   3.278  12.054
 2796SOL    HW2 8413   0.732   3.266  12.025
 2797SOL     OW 8414   0.922   2.365  12.071
 2797SOL    HW1 8415   0.897   2.356  11.975
 2797SOL    HW2 8416   0.970   2.283  12.102
 2798SOL     OW 8417   0.539   1.926  11.684
 2798SOL    HW1 8418   0.458   1.927  11.742
 2798SOL    HW2 8419   0.542   2.009  11.629
 2799SOL     OW 8420   1.434   3.050  11.213
 2799SOL    HW1 8421   1.466   2.974  11.270
 2799SOL    HW2 8422   1.342   3.077  11.243
 2800SOL     OW 8423   0.297   1.897  11.343
 2800SOL    HW1 8424   0.346   1.981  11.322
 2800SOL    HW2 8425   0.359   1.832  11.388
 2801SOL     OW 8426   0.935   2.098  11.652
 2801SOL    HW1 8427   0.887   2.139  11.574
 2801SOL    HW2 8428   1.034   2.096  11.633
 2802SOL     OW 8429   1.076   2.545  12.636
 2802SOL    HW1 8430   0.996   2.484  12.639
 2802SOL    HW2 8431   1.157   2.492  12.612
 2803SOL     OW 8432   1.227   3.432  11.965
 2803SOL    HW1 8433   1.248   3.506  11.900
 2803SOL    HW2 8434   1.295   3.432  12.038
 2804SOL     OW 8435   0.459   3.014  11.913
 2804SOL    HW1 8436   0.388   2.987  11.978
 2804SOL    HW2 8437   0.433   2.986  11.820
 2805SOL     OW 8438   1.271   3.659  11.763
 2805SOL    HW1 8439   1.315   3.723  11.699
 2805SOL    HW2 8440   1.221   3.711  11.833
 2806SOL     OW 8441   1.032   2.411  11.188
 2806SOL    HW1 8442   0.991   2.493  11.149
 2806SOL    HW2 8443   1.096   2.437  11.261
 2807SOL     OW 8444   0.078   2.418  12.558
 2807SOL    HW1 8445   0.170   2.417  12.517
 2807SOL    HW2 8446   0.072   2.492  12.625
 2808SOL     OW 8447   0.561   2.084  12.319
 2808SOL    HW1 8448   0.599   2.000  12.356
 2808SOL    HW2 8449   0.473   2.103  12.363
 2809SOL     OW 8450   0.866   2.316  11.814
 2809SOL    HW1 8451   0.834   2.388  11.752
 2809SOL    HW2 8452   0.890   2.235  11.761
 2810SOL     OW 8453   1.017   1.901  11.925
 2810SOL    HW1 8454   0.945   1.906  11.856
 2810SOL    HW2 8455   0.993   1.832  11.994
 2811SOL     OW 8456   1.429   3.035  12.039
 2811SOL    HW1 8457   1.374   2.951  12.032
 2811SOL    HW2 8458   1.455   3.064  11.947
 2812SOL     OW 8459   1.466   2.452  12.164
 2812SOL    HW1 8460   1.436   2.357  12.171
 2812SOL    HW2 8461   1.539   2.468  12.230
 2813SOL     OW 8462   1.857   2.695  11.549
 2813SOL    HW1 8463   1.899   2.631  11.613
 2813SOL    HW2 8464   1.819   2.644  11.471
 2814SOL     OW 8465   0.488   3.247  11.346
 2814SOL    HW1 8466   0.401   3.232  11.393
 2814SOL    HW2 8467   0.471   3.273  11.251
 2815SOL     OW 8468   1.664   3.142  11.829
 2815SOL    HW1 8469   1.763   3.150  11.843
 2815SOL    HW2 8470   1.619   3.226  11.860
 2816SOL     OW 8471   1.390   2.437  11.250
 2816SOL    HW1 8472   1.336   2.416  11.331
 2816SOL    HW2 8473   1.481   2.396  11.259
 2817SOL     OW 8474   0.527   2.118  11.500
 2817SOL    HW1 8475   0.554   2.059  11.425
 2817SOL    HW2 8476   0.527   2.213  11.469
 2818SOL     OW 8477   1.754   3.085  12.760
 2818SOL    HW1 8478   1.845   3.046  12.747
 2818SOL    HW2 8479   1.762   3.181  12.784
 2819SOL     OW 8480   1.064   3.209  12.512
 2819SOL    HW1 8481   0.984   3.186  12.567
 2819SOL    HW2 8482   1.147   3.183  12.561
 2820SOL     OW 8483   1.111   3.057  12.272
 2820SOL    HW1 8484   1.071   3.101  12.353
 2820SOL    HW2 8485   1.070   3.094  12.189
 2821SOL     OW 8486   1.638   2.961  12.251
 2821SOL    HW1 8487   1.643   3.042  12.310
 2821SOL    HW2 8488   1.552   2.963  12.200
 2822SOL     OW 8489   0.915   1.951  12.574
 2822SOL    HW1 8490   0.940   1.931  12.479
 2822SOL    HW2 8491   0.987   2.007  12.616
 2823SOL     OW 8492   0.705   2.912  11.540
 2823SOL    HW1 8493   0.691   2.919  11.639
 2823SOL    HW2 8494   0.789   2.861  11.522
 2824SOL     OW 8495   0.410   2.675  12.423
 2824SOL    HW1 8496   0.496   2.687  12.473
 2824SOL    HW2 8497   0.368   2.588  12.450
 2825SOL     OW 8498   1.274   2.248  12.434
 2825SOL    HW1 8499   1.295   2.322  12.498
 2825SOL    HW2 8500   1.185   2.265  12.391
 2826SOL     OW 8501   0.064   3.426  12.503
 2826SOL    HW1 8502   0.018   3.508  12.469
 2826SOL    HW2 8503   0.162   3.445  12.512
 2827SOL     OW 8504   0.367   2.962  11.673
 2827SOL    HW1 8505   0.360   3.045  11.617
 2827SOL    HW2 8506   0.371   2.882  11.613
 2828SOL     OW 8507   0.566   2.399  12.037
 2828SOL    HW1 8508   0.578   2.465  11.963
 2828SOL    HW2 8509   0.612   2.433  12.120
 2829SOL     OW 8510   1.252   3.210  11.560
 2829SOL    HW1 8511   1.302   3.287  11.600
 2829SOL    HW2 8512   1.157   3.212  11.592
 2830SOL     OW 8513   1.272   3.307  12.314
 2830SOL    HW1 8514   1.319   3.320  12.401
 2830SOL    HW2 8515   1.206   3.233  12.323
 2831SOL     OW 8516   1.582   2.501  11.644
 2831SOL    HW1 8517   1.551   2.562  11.717
 2831SOL    HW2 8518   1.632   2.553  11.575
 2832SOL     OW 8519   0.354   3.372  12.501
 2832SOL    HW1 8520   0.333   3.328  12.414
 2832SOL    HW2 8521   0.451   3.398  12.504
 2833SOL     OW 8522   0.402   2.613  12.770
 2833SOL    HW1 8523   0.470   2.668  12.723
 2833SOL    HW2 8524   0.442   2.525  12.797
 2834SOL     OW 8525   1.587   2.641  12.842
 2834SOL    HW1 8526   1.495   2.679  12.837
 2834SOL    HW2 8527   1.647   2.688  12.777
 2835SOL     OW 8528   0.573   2.732  12.201
 2835SOL    HW1 8529   0.617   2.821  12.192
 2835SOL    HW2 8530   0.510   2.732  12.278
 2836SOL     OW 8531   1.360   2.724  12.217
 2836SOL    HW1 8532   1.285   2.724  12.151
 2836SOL    HW2 8533   1.397   2.632  12.226
 2837SOL     OW 8534   1.209   2.387  11.447
 2837SOL    HW1 8535   1.222   2.303  11.501
 2837SOL    HW2 8536   1.180   2.461  11.507
 2838SOL     OW 8537   0.307   2.075  12.403
 2838SOL    HW1 8538   0.284   2.112  12.493
 2838SOL    HW2 8539   0.277   1.980  12.397
 2839SOL     OW 8540   0.037   3.172  12.454
 2839SOL    HW1 8541   0.090   3.123  12.522
 2839SOL    HW2 8542   0.059   3.270  12.459
 2840SOL     OW 8543   0.732   2.496  12.236
 2840SOL    HW1 8544   0.791   2.470  12.160
 2840SOL    HW2 8545   0.704   2.592  12.225
 2841SOL     OW 8546   0.307   1.925  11.790
 2841SOL    HW1 8547   0.296   2.019  11.823
 2841SOL    HW2 8548   0.302   1.862  11.867
 2842SOL     OW 8549   1.622   2.229  11.546
 2842SOL    HW1 8550   1.624   2.153  11.610
 2842SOL    HW2 8551   1.574   2.306  11.586
 2843SOL     OW 8552   1.023   2.628  12.138
 2843SOL    HW1 8553   1.038   2.649  12.234
 2843SOL    HW2 8554   0.993   2.533  12.129
 2844SOL     OW 8555   1.540   2.136  11.297
 2844SOL    HW1 8556   1.479   2.061  11.320
 2844SOL    HW2 8557   1.562   2.188  11.380
 2845SOL     OW 8558   1.303   2.700  11.214
 2845SOL    HW1 8559   1.337   2.607  11.229
 2845SOL    HW2 8560   1.321   2.727  11.119
 2846SOL     OW 8561   1.068   3.195  12.021
 2846SOL    HW1 8562   1.075   3.111  11.966
 2846SOL    HW2 8563   1.130   3.264  11.985
 2847SOL     OW 8564   0.319   2.672  12.121
 2847SOL    HW1 8565   0.412   2.708  12.126
 2847SOL    HW2 8566   0.313   2.587  12.173
 2848SOL     OW 8567   0.339   2.371  12.178
 2848SOL    HW1 8568   0.287   2.288  12.161
 2848SOL    HW2 8569   0.416   2.376  12.114
 2849SOL     OW 8570   1.160   2.069  12.649
 2849SOL    HW1 8571   1.160   2.133  12.726
 2849SOL    HW2 8572   1.188   2.117  12.566
 2850SOL     OW 8573   0.008   3.188  11.372
 2850SOL    HW1 8574  -0.085   3.209  11.341
 2850SOL    HW2 8575   0.018   3.089  11.385
 2851SOL     OW 8576   0.088   3.663  12.099
 2851SOL    HW1 8577   0.046   3.577  12.072
 2851SOL    HW2 8578   0.182   3.666  12.065
 2852SOL     OW 8579   0.504   3.430  12.082
 2852SOL    HW1 8580   0.570   3.504  12.091
 2852SOL    HW2 8581   0.548   3.351  12.040
 2853SOL     OW 8582   1.002   2.658  12.410
 2853SOL    HW1 8583   1.043   2.626  12.496
 2853SOL    HW2 8584   0.906   2.631  12.407
 2854SOL     OW 8585   0.040   2.406  12.286
 2854SOL    HW1 8586   0.125   2.373  12.245
 2854SOL    HW2 8587   0.053   2.421  12.384
 2855SOL     OW 8588   0.815   2.434  11.497
 2855SOL    HW1 8589   0.822   2.345  11.451
 2855SOL    HW2 8590   0.721   2.468  11.489
 2856SOL     OW 8591   1.657   2.466  12.378
 2856SOL    HW1 8592   1.619   2.397  12.440
 2856SOL    HW2 8593   1.739   2.430  12.334
 2857SOL     OW 8594   0.252   3.426  12.916
 2857SOL    HW1 8595   0.222   3.483  12.992
 2857SOL    HW2 8596   0.245   3.329  12.942
 2858SOL     OW 8597   0.671   2.326  12.441
 2858SOL    HW1 8598   0.637   2.237  12.411
 2858SOL    HW2 8599   0.697   2.380  12.361
 2859SOL     OW 8600   0.930   3.540  12.637
 2859SOL    HW1 8601   0.906   3.522  12.542
 2859SOL    HW2 8602   0.960   3.634  12.647
 2860SOL     OW 8603   0.473   2.362  11.363
 2860SOL    HW1 8604   0.534   2.442  11.367
 2860SOL    HW2 8605   0.378   2.393  11.370
 2861SOL     OW 8606   0.159   2.999  12.638
 2861SOL    HW1 8607   0.181   2.938  12.714
 2861SOL    HW2 8608   0.169   2.950  12.552
 2862SOL     OW 8609   1.347   2.921  12.406
 2862SOL    HW1 8610   1.371   2.858  12.332
 2862SOL    HW2 8611   1.257   2.961  12.388
 2863SOL     OW 8612   1.302   2.717  11.481
 2863SOL    HW1 8613   1.216   2.686  11.523
 2863SOL    HW2 8614   1.298   2.703  11.382
 2864SOL     OW 8615   1.759   3.609  12.326
 2864SOL    HW1 8616   1.820   3.639  12.253
 2864SOL    HW2 8617   1.721   3.520  12.304
 2865SOL     OW 8618   1.252   3.593  12.300
 2865SOL    HW1 8619   1.336   3.598  12.246
 2865SOL    HW2 8620   1.229   3.497  12.318
 2866SOL     OW 8621   0.083   3.120  12.194
 2866SOL    HW1 8622   0.078   3.119  12.294
 2866SOL    HW2 8623   0.000   3.079  12.156
 2867SOL     OW 8624   1.726   1.997  11.695
 2867SOL    HW1 8625   1.799   1.980  11.628
 2867SOL    HW2 8626   1.695   1.910  11.733
 2868SOL     OW 8627   1.388   3.435  11.649
 2868SOL    HW1 8628   1.455   3.447  11.575
 2868SOL    HW2 8629   1.348   3.524  11.672
 2869SOL     OW 8630   1.280   2.789  11.844
 2869SOL    HW1 8631   1.340   2.708  11.846
 2869SOL    HW2 8632   1.320   2.858  11.784
 2870SOL     OW 8633   0.830   3.135  12.594
 2870SOL    HW1 8634   0.825   3.168  12.689
 2870SOL    HW2 8635   0.744   3.154  12.548
 2871SOL     OW 8636   0.672   3.478  11.326
 2871SOL    HW1 8637   0.681   3.488  11.227
 2871SOL    HW2 8638   0.632   3.389  11.347
 2872SOL     OW 8639   1.650   3.582  12.566
 2872SOL    HW1 8640   1.703   3.592  12.482
 2872SOL    HW2 8641   1.623   3.672  12.600
 2873SOL     OW 8642   1.841   2.037  12.135
 2873SOL    HW1 8643   1.880   1.952  12.099
 2873SOL    HW2 8644   1.743   2.039  12.116
 2874SOL     OW 8645   0.263   2.188  11.892
 2874SOL    HW1 8646   0.184   2.239  11.858
 2874SOL    HW2 8647   0.254   2.173  11.990
 2875SOL     OW 8648   1.194   3.474  11.203
 2875SOL    HW1 8649   1.200   3.381  11.240
 2875SOL    HW2 8650   1.135   3.474  11.123
 2876SOL     OW 8651   0.822   2.864  12.544
 2876SOL    HW1 8652   0.862   2.863  12.452
 2876SOL    HW2 8653   0.832   2.956  12.584
 2877SOL     OW 8654   0.916   2.772  11.463
 2877SOL    HW1 8655   0.979   2.810  11.395
 2877SOL    HW2 8656   0.956   2.689  11.502
 2878SOL     OW 8657   1.504   3.469  11.216
 2878SOL    HW1 8658   1.412   3.506  11.223
 2878SOL    HW2 8659   1.542   3.489  11.126
 2879SOL     OW 8660   0.372   3.150  12.662
 2879SOL    HW1 8661   0.359   3.243  12.628
 2879SOL    HW2 8662   0.288   3.098  12.649
 2880SOL     OW 8663   1.614   3.154  12.461
 2880SOL    HW1 8664   1.674   3.157  12.541
 2880SOL    HW2 8665   1.539   3.218  12.474
 2881SOL     OW 8666   1.039   2.960  11.868
 2881SOL    HW1 8667   0.969   2.913  11.922
 2881SOL    HW2 8668   1.098   2.892  11.825
 2882SOL     OW 8669   1.014   2.098  12.143
 2882SOL    HW1 8670   1.006   2.062  12.050
 2882SOL    HW2 8671   1.012   2.022  12.208
 2883SOL     OW 8672   0.590   3.349  11.663
 2883SOL    HW1 8673   0.632   3.291  11.593
 2883SOL    HW2 8674   0.546   3.428  11.619
 2884SOL     OW 8675   1.709   2.247  12.553
 2884SOL    HW1 8676   1.782   2.316  12.557
 2884SOL    HW2 8677   1.737   2.172  12.494
 2885SOL     OW 8678   0.255   3.210  11.462
 2885SOL    HW1 8679   0.159   3.211  11.435
 2885SOL    HW2 8680   0.267   3.263  11.546
 2886SOL     OW 8681   0.105   2.875  12.898
 2886SOL    HW1 8682   0.028   2.842  12.952
 2886SOL    HW2 8683   0.190   2.845  12.940
 2887SOL     OW 8684   0.672   2.065  12.661
 2887SOL    HW1 8685   0.762   2.049  12.621
 2887SOL    HW2 8686   0.680   2.070  12.760
 2888SOL     OW 8687   0.075   2.207  11.205
 2888SOL    HW1 8688  -0.017   2.179  11.176
 2888SOL    HW2 8689   0.106   2.284  11.149
 2889SOL     OW 8690   1.440   2.718  12.570
 2889SOL    HW1 8691   1.383   2.770  12.507
 2889SOL    HW2 8692   1.536   2.730  12.546
 2890SOL     OW 8693   0.072   2.028  11.490
 2890SOL    HW1 8694   0.055   2.111  11.436
 2890SOL    HW2 8695   0.162   1.991  11.468
 2891SOL     OW 8696   1.183   3.197  11.291
 2891SOL    HW1 8697   1.084   3.186  11.293
 2891SOL    HW2 8698   1.217   3.212  11.384
 2892SOL     OW 8699   0.613   2.704  12.603
 2892SOL    HW1 8700   0.669   2.785  12.586
 2892SOL    HW2 8701   0.672   2.624  12.606
 2893SOL     OW 8702   1.493   3.629  12.131
 2893SOL    HW1 8703   1.526   3.693  12.062
 2893SOL    HW2 8704   1.559   3.623  12.206
 2894SOL     OW 8705   0.716   2.427  12.880
 2894SOL    HW1 8706   0.735   2.492  12.954
 2894SOL    HW2 8707   0.776   2.347  12.889
 2895SOL     OW 8708   0.390   3.603  12.732
 2895SOL    HW1 8709   0.299   3.644  12.730
 2895SOL    HW2 8710   0.383   3.509  12.764
 2896SOL     OW 8711   1.674   2.745  12.426
 2896SOL    HW1 8712   1.647   2.656  12.389
 2896SOL    HW2 8713   1.675   2.813  12.353
 2897SOL     OW 8714   1.225   2.187  11.621
 2897SOL    HW1 8715   1.290   2.113  11.610
 2897SOL    HW2 8716   1.245   2.237  11.705
 2898SOL     OW 8717   0.594   2.607  11.824
 2898SOL    HW1 8718   0.644   2.692  11.805
 2898SOL    HW2 8719   0.506   2.609  11.776
 2899SOL     OW 8720   1.777   2.204  12.814
 2899SOL    HW1 8721   1.760   2.235  12.720
 2899SOL    HW2 8722   1.693   2.167  12.852
 2900SOL     OW 8723   1.730   2.796  12.689
 2900SOL    HW1 8724   1.768   2.887  12.704
 2900SOL    HW2 8725   1.722   2.779  12.590
 2901SOL     OW 8726   0.859   3.236  11.188
 2901SOL    HW1 8727   0.813   3.251  11.276
 2901SOL    HW2 8728   0.903   3.321  11.158
 2902SOL     OW 8729   0.661   3.652  12.125
 2902SOL    HW1 8730   0.615   3.740  12.112
 2902SOL    HW2 8731   0.760   3.664  12.118
 2903SOL     OW 8732   0.859   2.818  12.033
 2903SOL    HW1 8733   0.913   2.749  12.081
 2903SOL    HW2 8734   0.827   2.887  12.099
 2904SOL     OW 8735   1.083   2.846  11.259
 2904SOL    HW1 8736   1.060   2.899  11.177
 2904SOL    HW2 8737   1.164   2.790  11.240
 2905SOL     OW 8738   1.861   3.431  12.023
 2905SOL    HW1 8739   1.790   3.419  11.953
 2905SOL    HW2 8740   1.862   3.352  12.083
 2906SOL     OW 8741   0.079   3.102  11.825
 2906SOL    HW1 8742   0.078   3.055  11.913
 2906SOL    HW2 8743   0.161   3.074  11.774
 2907SOL     OW 8744   0.672   3.253  12.796
 2907SOL    HW1 8745   0.594   3.203  12.834
 2907SOL    HW2 8746   0.669   3.348  12.827
 2908SOL     OW 8747   1.824   2.054  12.399
 2908SOL    HW1 8748   1.820   1.964  12.443
 2908SOL    HW2 8749   1.827   2.043  12.300
 2909SOL     OW 8750   0.428   2.286  11.692
 2909SOL    HW1 8751   0.458   2.214  11.630
 2909SOL    HW2 8752   0.389   2.246  11.775
 2910SOL     OW 8753   1.705   3.349  12.276
 2910SOL    HW1 8754   1.612   3.324  12.249
 2910SOL    HW2 8755   1.731   3.299  12.358
 2911SOL     OW 8756   0.317   2.409  12.452
 2911SOL    HW1 8757   0.355   2.350  12.524
 2911SOL    HW2 8758   0.357   2.383  12.364
 2912SOL     OW 8759   0.812   3.448  11.859
 2912SOL    HW1 8760   0.844   3.458  11.765
 2912SOL    HW2 8761   0.733   3.386  11.861
 2913SOL     OW 8762   1.424   2.076  12.284
 2913SOL    HW1 8763   1.476   2.011  12.339
 2913SOL    HW2 8764   1.375   2.139  12.345
 2914SOL     OW 8765   1.001   1.896  12.326
 2914SOL    HW1 8766   0.938   1.824  12.295
 2914SOL    HW2 8767   1.094   1.860  12.326
 2915SOL     OW 8768   0.770   3.192  11.473
 2915SOL    HW1 8769   0.724   3.105  11.490
 2915SOL    HW2 8770   0.861   3.189  11.514
 2916SOL     OW 8771   0.618   3.429  12.456
 2916SOL    HW1 8772   0.613   3.511  12.513
 2916SOL    HW2 8773   0.707   3.426  12.411
 2917SOL     OW 8774   1.352   1.914  11.340
 2917SOL    HW1 8775   1.387   1.873  11.256
 2917SOL    HW2 8776   1.262   1.876  11.360
 2918SOL     OW 8777   1.300   2.315  11.863
 2918SOL    HW1 8778   1.241   2.395  11.867
 2918SOL    HW2 8779   1.315   2.280  11.956
 2919SOL     OW 8780   1.593   2.083  12.054
 2919SOL    HW1 8781   1.509   2.082  12.108
 2919SOL    HW2 8782   1.595   2.166  11.998
 2920SOL     OW 8783   0.039   2.939  11.472
 2920SOL    HW1 8784   0.138   2.928  11.463
 2920SOL    HW2 8785  -0.001   2.853  11.504
 2921SOL     OW 8786   0.875   3.508  11.509
 2921SOL    HW1 8787   0.798   3.473  11.455
 2921SOL    HW2 8788   0.843   3.579  11.571
 2922SOL     OW 8789   0.230   4.352   0.113
 2922SOL    HW1 8790   0.137   4.350   0.150
 2922SOL    HW2 8791   0.231   4.313   0.021
 2923SOL     OW 8792   0.225   3.999   0.996
 2923SOL    HW1 8793   0.260   3.982   1.088
 2923SOL    HW2 8794   0.137   3.954   0.984
 2924SOL     OW 8795   0.019   4.092   0.647
 2924SOL    HW1 8796  -0.063   4.135   0.686
 2924SOL    HW2 8797  -0.009   4.019   0.584
 2925SOL     OW 8798   0.569   4.999   1.165
 2925SOL    HW1 8799   0.476   4.992   1.128
 2925SOL    HW2 8800   0.580   5.088   1.209
 2926SOL     OW 8801   1.555   5.235   0.703
 2926SOL    HW1 8802   1.498   5.219   0.784
 2926SOL    HW2 8803   1.496   5.245   0.623
 2927SOL     OW 8804   1.135   4.427   0.717
 2927SOL    HW1 8805   1.192   4.505   0.692
 2927SOL    HW2 8806   1.075   4.453   0.793
 2928SOL     OW 8807   1.755   4.331   0.231
 2928SOL    HW1 8808   1.743   4.318   0.132
 2928SOL    HW2 8809   1.725   4.250   0.280
 2929SOL     OW 8810   0.768   4.868   1.023
 2929SOL    HW1 8811   0.690   4.885   1.083
 2929SOL    HW2 8812   0.802   4.955   0.987
 2930SOL     OW 8813   0.850   4.522   1.823
 2930SOL    HW1 8814   0.846   4.598   1.888
 2930SOL    HW2 8815   0.872   4.558   1.732
 2931SOL     OW 8816   0.685   4.736   0.665
 2931SOL    HW1 8817   0.754   4.720   0.735
 2931SOL    HW2 8818   0.612   4.793   0.703
 2932SOL     OW 8819   0.686   4.885   1.803
 2932SOL    HW1 8820   0.746   4.964   1.817
 2932SOL    HW2 8821   0.600   4.916   1.762
 2933SOL     OW 8822   0.335   5.159   1.061
 2933SOL    HW1 8823   0.257   5.128   1.008
 2933SOL    HW2 8824   0.393   5.217   1.004
 2934SOL     OW 8825   1.460   5.229   1.339
 2934SOL    HW1 8826   1.484   5.323   1.365
 2934SOL    HW2 8827   1.444   5.175   1.421
 2935SOL     OW 8828   0.438   4.116   1.499
 2935SOL    HW1 8829   0.520   4.060   1.508
 2935SOL    HW2 8830   0.357   4.058   1.503
 2936SOL     OW 8831   1.603   4.171   0.737
 2936SOL    HW1 8832   1.529   4.217   0.687
 2936SOL    HW2 8833   1.654   4.239   0.790
 2937SOL     OW 8834   0.231   5.437   0.483
 2937SOL    HW1 8835   0.265   5.514   0.537
 2937SOL    HW2 8836   0.275   5.437   0.393
 2938SOL     OW 8837   1.127   5.065   1.690
 2938SOL    HW1 8838   1.174   5.065   1.778
 2938SOL    HW2 8839   1.079   4.978   1.679
 2939SOL     OW 8840   0.230   5.158   0.538
 2939SOL    HW1 8841   0.204   5.254   0.538
 2939SOL    HW2 8842   0.159   5.104   0.583
 2940SOL     OW 8843   0.240   4.815   0.886
 2940SOL    HW1 8844   0.254   4.731   0.938
 2940SOL    HW2 8845   0.185   4.879   0.941
 2941SOL     OW 8846   0.620   5.510   1.439
 2941SOL    HW1 8847   0.528   5.493   1.474
 2941SOL    HW2 8848   0.648   5.602   1.465
 2942SOL     OW 8849   0.606   4.688   0.123
 2942SOL    HW1 8850   0.613   4.772   0.069
 2942SOL    HW2 8851   0.652   4.701   0.211
 2943SOL     OW 8852   1.594   3.838   1.480
 2943SOL    HW1 8853   1.576   3.905   1.408
 2943SOL    HW2 8854   1.591   3.884   1.569
 2944SOL     OW 8855   0.122   4.367   0.563
 2944SOL    HW1 8856   0.077   4.279   0.580
 2944SOL    HW2 8857   0.121   4.421   0.647
 2945SOL     OW 8858   1.842   5.491   0.359
 2945SOL    HW1 8859   1.896   5.462   0.439
 2945SOL    HW2 8860   1.872   5.581   0.330
 2946SOL     OW 8861   0.027   5.320   0.117
 2946SOL    HW1 8862   0.008   5.224   0.138
 2946SOL    HW2 8863  -0.006   5.378   0.192
 2947SOL     OW 8864   1.689   4.646   0.612
 2947SOL    HW1 8865   1.784   4.617   0.620
 2947SOL    HW2 8866   1.681   4.711   0.537
 2948SOL     OW 8867   1.641   4.832   0.432
 2948SOL    HW1 8868   1.727   4.834   0.380
 2948SOL    HW2 8869   1.655   4.879   0.520
 2949SOL     OW 8870   0.113   4.461   1.597
 2949SOL    HW1 8871   0.201   4.448   1.642
 2949SOL    HW2 8872   0.100   4.558   1.575
 2950SOL     OW 8873   0.613   5.089   0.726
 2950SOL    HW1 8874   0.564   5.002   0.735
 2950SOL    HW2 8875   0.590   5.132   0.639
 2951SOL     OW 8876   1.293   4.952   1.423
 2951SOL    HW1 8877   1.330   4.879   1.365
 2951SOL    HW2 8878   1.345   4.957   1.508
 2952SOL     OW 8879   0.809   3.728   0.502
 2952SOL    HW1 8880   0.849   3.819   0.493
 2952SOL    HW2 8881   0.709   3.736   0.508
 2953SOL     OW 8882   0.197   4.700   1.264
 2953SOL    HW1 8883   0.286   4.655   1.250
 2953SOL    HW2 8884   0.124   4.635   1.245
 2954SOL     OW 8885   1.525   4.723   0.190
 2954SOL    HW1 8886   1.462   4.647   0.203
 2954SOL    HW2 8887   1.573   4.741   0.276
 2955SOL     OW 8888   1.187   5.516   1.616
 2955SOL    HW1 8889   1.211   5.576   1.540
 2955SOL    HW2 8890   1.194   5.421   1.586
 2956SOL     OW 8891   0.317   3.975   1.801
 2956SOL    HW1 8892   0.388   4.046   1.807
 2956SOL    HW2 8893   0.229   4.014   1.829
 2957SOL     OW 8894   1.466   5.141   0.953
 2957SOL    HW1 8895   1.407   5.147   1.033
 2957SOL    HW2 8896   1.451   5.053   0.907
 2958SOL     OW 8897   1.667   5.438   0.572
 2958SOL    HW1 8898   1.626   5.415   0.484
 2958SOL    HW2 8899   1.649   5.364   0.637
 2959SOL     OW 8900   0.598   4.453   0.270
 2959SOL    HW1 8901   0.622   4.522   0.202
 2959SOL    HW2 8902   0.520   4.486   0.324
 2960SOL     OW 8903   1.281   4.069   0.944
 2960SOL    HW1 8904   1.195   4.019   0.931
 2960SOL    HW2 8905   1.343   4.015   1.000
 2961SOL     OW 8906   1.576   5.386   0.307
 2961SOL    HW1 8907   1.665   5.432   0.310
 2961SOL    HW2 8908   1.555   5.362   0.212
 2962SOL     OW 8909   0.807   4.329   1.465
 2962SOL    HW1 8910   0.760   4.326   1.554
 2962SOL    HW2 8911   0.756   4.274   1.399
 2963SOL     OW 8912   1.394   4.193   1.674
 2963SOL    HW1 8913   1.374   4.236   1.762
 2963SOL    HW2 8914   1.472   4.131   1.683
 2964SOL     OW 8915   0.973   4.614   1.572
 2964SOL    HW1 8916   1.019   4.530   1.543
 2964SOL    HW2 8917   0.917   4.648   1.497
 2965SOL     OW 8918   0.991   4.134   1.242
 2965SOL    HW1 8919   0.914   4.168   1.296
 2965SOL    HW2 8920   0.957   4.083   1.163
 2966SOL     OW 8921   1.041   4.425   0.429
 2966SOL    HW1 8922   1.067   4.421   0.525
 2966SOL    HW2 8923   0.956   4.374   0.415
 2967SOL     OW 8924   0.076   4.535   0.789
 2967SOL    HW1 8925   0.175   4.523   0.798
 2967SOL    HW2 8926   0.052   4.630   0.810
 2968SOL     OW 8927   0.130   5.545   1.571
 2968SOL    HW1 8928   0.120   5.530   1.670
 2968SOL    HW2 8929   0.044   5.581   1.535
 2969SOL     OW 8930   0.865   4.072   0.195
 2969SOL    HW1 8931   0.924   4.135   0.146
 2969SOL    HW2 8932   0.884   3.978   0.166
 2970SOL     OW 8933   1.719   4.309   1.831
 2970SOL    HW1 8934   1.693   4.398   1.795
 2970SOL    HW2 8935   1.717   4.241   1.758
 2971SOL     OW 8936   1.362   4.868   0.545
 2971SOL    HW1 8937   1.445   4.839   0.497
 2971SOL    HW2 8938   1.313   4.935   0.489
 2972SOL     OW 8939   0.550   3.920   0.885
 2972SOL    HW1 8940   0.545   3.915   0.985
 2972SOL    HW2 8941   0.552   4.016   0.856
 2973SOL     OW 8942   1.008   5.180   0.477
 2973SOL    HW1 8943   0.962   5.252   0.425
 2973SOL    HW2 8944   1.004   5.200   0.575
 2974SOL     OW 8945   0.351   5.525   0.853
 2974SOL    HW1 8946   0.401   5.439   0.859
 2974SOL    HW2 8947   0.416   5.602   0.850
 2975SOL     OW 8948   1.795   4.790   0.873
 2975SOL    HW1 8949   1.733   4.775   0.797
 2975SOL    HW2 8950   1.743   4.801   0.958
 2976SOL     OW 8951   1.227   5.274   1.506
 2976SOL    HW1 8952   1.233   5.197   1.570
 2976SOL    HW2 8953   1.175   5.248   1.426
 2977SOL     OW 8954   0.321   4.667   0.242
 2977SOL    HW1 8955   0.403   4.706   0.200
 2977SOL    HW2 8956   0.294   4.585   0.193
 2978SOL     OW 8957   1.458   4.459   0.728
 2978SOL    HW1 8958   1.453   4.394   0.803
 2978SOL    HW2 8959   1.538   4.518   0.741
 2979SOL     OW 8960   0.461   4.990   1.727
 2979SOL    HW1 8961   0.411   4.991   1.641
 2979SOL    HW2 8962   0.398   4.972   1.803
 2980SOL     OW 8963   1.111   5.500   0.237
 2980SOL    HW1 8964   1.051   5.438   0.287
 2980SOL    HW2 8965   1.142   5.456   0.152
 2981SOL     OW 8966   0.202   4.009   1.498
 2981SOL    HW1 8967   0.122   4.069   1.485
 2981SOL    HW2 8968   0.192   3.960   1.584
 2982SOL     OW 8969   1.632   5.101   0.081
 2982SOL    HW1 8970   1.600   5.195   0.071
 2982SOL    HW2 8971   1.556   5.038   0.069
 2983SOL     OW 8972   0.464   5.467   0.323
 2983SOL    HW1 8973   0.497   5.506   0.409
 2983SOL    HW2 8974   0.540   5.460   0.258
 2984SOL     OW 8975   1.400   3.831   0.426
 2984SOL    HW1 8976   1.376   3.794   0.336
 2984SOL    HW2 8977   1.499   3.847   0.430
 2985SOL     OW 8978   0.249   5.509   1.241
 2985SOL    HW1 8979   0.306   5.444   1.291
 2985SOL    HW2 8980   0.233   5.476   1.148
 2986SOL     OW 8981   0.940   5.422   0.904
 2986SOL    HW1 8982   1.020   5.365   0.925
 2986SOL    HW2 8983   0.891   5.382   0.827
 2987SOL     OW 8984   0.382   4.424   0.480
 2987SOL    HW1 8985   0.427   4.334   0.477
 2987SOL    HW2 8986   0.288   4.413   0.513
 2988SOL     OW 8987   1.547   3.946   1.729
 2988SOL    HW1 8988   1.542   3.983   1.821
 2988SOL    HW2 8989   1.475   3.877   1.717
 2989SOL     OW 8990   0.614   3.846   0.117
 2989SOL    HW1 8991   0.712   3.824   0.124
 2989SOL    HW2 8992   0.583   3.829   0.024
 2990SOL     OW 8993   0.781   3.988   1.749
 2990SOL    HW1 8994   0.848   3.927   1.792
 2990SOL    HW2 8995   0.708   4.007   1.814
 2991SOL     OW 8996   0.888   5.238   1.195
 2991SOL    HW1 8997   0.865   5.213   1.101
 2991SOL    HW2 8998   0.949   5.169   1.234
 2992SOL     OW 8999   1.351   4.314   1.433
 2992SOL    HW1 9000   1.379   4.271   1.518
 2992SOL    HW2 9001   1.376   4.410   1.434
 2993SOL     OW 9002   0.803   5.126   0.924
 2993SOL    HW1 9003   0.893   5.140   0.882
 2993SOL    HW2 9004   0.732   5.128   0.853
 2994SOL     OW 9005   0.922   4.227   0.899
 2994SOL    HW1 9006   0.897   4.218   0.803
 2994SOL    HW2 9007   0.970   4.145   0.930
 2995SOL     OW 9008   0.539   3.788   0.512
 2995SOL    HW1 9009   0.458   3.789   0.570
 2995SOL    HW2 9010   0.542   3.871   0.457
 2996SOL     OW 9011   1.434   4.912   0.041
 2996SOL    HW1 9012   1.466   4.836   0.098
 2996SOL    HW2 9013   1.342   4.939   0.071
 2997SOL     OW 9014   0.297   3.759   0.171
 2997SOL    HW1 9015   0.346   3.843   0.150
 2997SOL    HW2 9016   0.359   3.694   0.216
 2998SOL     OW 9017   0.935   3.960   0.480
 2998SOL    HW1 9018   0.887   4.001   0.402
 2998SOL    HW2 9019   1.034   3.958   0.461
 2999SOL     OW 9020   1.076   4.407   1.464
 2999SOL    HW1 9021   0.996   4.346   1.467
 2999SOL    HW2 9022   1.157   4.354   1.440
 3000SOL     OW 9023   1.227   5.294   0.793
 3000SOL    HW1 9024   1.248   5.368   0.728
 3000SOL    HW2 9025   1.295   5.294   0.866
 3001SOL     OW 9026   0.459   4.876   0.741
 3001SOL    HW1 9027   0.388   4.849   0.806
 3001SOL    HW2 9028   0.433   4.848   0.648
 3002SOL     OW 9029   1.271   5.521   0.591
 3002SOL    HW1 9030   1.315   5.585   0.527
 3002SOL    HW2 9031   1.221   5.573   0.661
 3003SOL     OW 9032   1.032   4.273   0.016
 3003SOL    HW1 9033   0.991   4.355  -0.023
 3003SOL    HW2 9034   1.096   4.299   0.089
 3004SOL     OW 9035   0.078   4.280   1.386
 3004SOL    HW1 9036   0.170   4.279   1.345
 3004SOL    HW2 9037   0.072   4.354   1.453
 3005SOL     OW 9038   0.561   3.946   1.147
 3005SOL    HW1 9039   0.599   3.862   1.184
 3005SOL    HW2 9040   0.473   3.965   1.191
 3006SOL     OW 9041   0.866   4.178   0.642
 3006SOL    HW1 9042   0.834   4.250   0.580
 3006SOL    HW2 9043   0.890   4.097   0.589
 3007SOL     OW 9044   1.017   3.763   0.753
 3007SOL    HW1 9045   0.945   3.768   0.684
 3007SOL    HW2 9046   0.993   3.694   0.822
 3008SOL     OW 9047   1.429   4.897   0.867
 3008SOL    HW1 9048   1.374   4.813   0.860
 3008SOL    HW2 9049   1.455   4.926   0.775
 3009SOL     OW 9050   1.466   4.314   0.992
 3009SOL    HW1 9051   1.436   4.219   0.999
 3009SOL    HW2 9052   1.539   4.330   1.058
 3010SOL     OW 9053   1.857   4.557   0.377
 3010SOL    HW1 9054   1.899   4.493   0.441
 3010SOL    HW2 9055   1.819   4.506   0.299
 3011SOL     OW 9056   0.488   5.109   0.174
 3011SOL    HW1 9057   0.401   5.094   0.221
 3011SOL    HW2 9058   0.471   5.135   0.079
 3012SOL     OW 9059   1.664   5.004   0.657
 3012SOL    HW1 9060   1.763   5.012   0.671
 3012SOL    HW2 9061   1.619   5.088   0.688
 3013SOL     OW 9062   1.390   4.299   0.078
 3013SOL    HW1 9063   1.336   4.278   0.159
 3013SOL    HW2 9064   1.481   4.258   0.087
 3014SOL     OW 9065   0.527   3.980   0.328
 3014SOL    HW1 9066   0.554   3.921   0.253
 3014SOL    HW2 9067   0.527   4.075   0.297
 3015SOL     OW 9068   1.754   4.947   1.588
 3015SOL    HW1 9069   1.845   4.908   1.575
 3015SOL    HW2 9070   1.762   5.043   1.612
 3016SOL     OW 9071   1.064   5.071   1.340
 3016SOL    HW1 9072   0.984   5.048   1.395
 3016SOL    HW2 9073   1.147   5.045   1.389
 3017SOL     OW 9074   1.592   5.353   1.625
 3017SOL    HW1 9075   1.619   5.387   1.535
 3017SOL    HW2 9076   1.671   5.315   1.671
 3018SOL     OW 9077   1.111   4.919   1.100
 3018SOL    HW1 9078   1.071   4.963   1.181
 3018SOL    HW2 9079   1.070   4.956   1.017
 3019SOL     OW 9080   1.638   4.823   1.079
 3019SOL    HW1 9081   1.643   4.904   1.138
 3019SOL    HW2 9082   1.552   4.825   1.028
 3020SOL     OW 9083   0.915   3.813   1.402
 3020SOL    HW1 9084   0.940   3.793   1.307
 3020SOL    HW2 9085   0.987   3.869   1.444
 3021SOL     OW 9086   0.980   4.840   1.719
 3021SOL    HW1 9087   0.881   4.846   1.729
 3021SOL    HW2 9088   1.003   4.760   1.663
 3022SOL     OW 9089   0.705   4.774   0.368
 3022SOL    HW1 9090   0.691   4.781   0.467
 3022SOL    HW2 9091   0.789   4.723   0.350
 3023SOL     OW 9092   0.410   4.537   1.251
 3023SOL    HW1 9093   0.496   4.549   1.301
 3023SOL    HW2 9094   0.368   4.450   1.278
 3024SOL     OW 9095   1.274   4.110   1.262
 3024SOL    HW1 9096   1.295   4.184   1.326
 3024SOL    HW2 9097   1.185   4.127   1.219
 3025SOL     OW 9098   0.064   5.288   1.331
 3025SOL    HW1 9099   0.018   5.370   1.297
 3025SOL    HW2 9100   0.162   5.307   1.340
 3026SOL     OW 9101   0.367   4.824   0.501
 3026SOL    HW1 9102   0.360   4.907   0.445
 3026SOL    HW2 9103   0.371   4.744   0.441
 3027SOL     OW 9104   0.566   4.261   0.865
 3027SOL    HW1 9105   0.578   4.327   0.791
 3027SOL    HW2 9106   0.612   4.295   0.948
 3028SOL     OW 9107   1.252   5.072   0.388
 3028SOL    HW1 9108   1.302   5.149   0.428
 3028SOL    HW2 9109   1.157   5.074   0.420
 3029SOL     OW 9110   1.272   5.169   1.142
 3029SOL    HW1 9111   1.319   5.182   1.229
 3029SOL    HW2 9112   1.206   5.095   1.151
 3030SOL     OW 9113   1.582   4.363   0.472
 3030SOL    HW1 9114   1.551   4.424   0.545
 3030SOL    HW2 9115   1.632   4.415   0.403
 3031SOL     OW 9116   0.354   5.234   1.329
 3031SOL    HW1 9117   0.333   5.190   1.242
 3031SOL    HW2 9118   0.451   5.260   1.332
 3032SOL     OW 9119   0.402   4.475   1.598
 3032SOL    HW1 9120   0.470   4.530   1.551
 3032SOL    HW2 9121   0.442   4.387   1.625
 3033SOL     OW 9122   1.587   4.503   1.670
 3033SOL    HW1 9123   1.495   4.541   1.665
 3033SOL    HW2 9124   1.647   4.550   1.605
 3034SOL     OW 9125   1.013   3.829   1.770
 3034SOL    HW1 9126   1.019   3.914   1.718
 3034SOL    HW2 9127   1.045   3.753   1.713
 3035SOL     OW 9128   0.504   3.774   1.740
 3035SOL    HW1 9129   0.462   3.717   1.670
 3035SOL    HW2 9130   0.438   3.843   1.772
 3036SOL     OW 9131   0.573   4.594   1.029
 3036SOL    HW1 9132   0.617   4.683   1.020
 3036SOL    HW2 9133   0.510   4.594   1.106
 3037SOL     OW 9134   1.360   4.586   1.045
 3037SOL    HW1 9135   1.285   4.586   0.979
 3037SOL    HW2 9136   1.397   4.494   1.054
 3038SOL     OW 9137   1.209   4.249   0.275
 3038SOL    HW1 9138   1.222   4.165   0.329
 3038SOL    HW2 9139   1.180   4.323   0.335
 3039SOL     OW 9140   0.307   3.937   1.231
 3039SOL    HW1 9141   0.284   3.974   1.321
 3039SOL    HW2 9142   0.277   3.842   1.225
 3040SOL     OW 9143   0.037   5.034   1.282
 3040SOL    HW1 9144   0.090   4.985   1.350
 3040SOL    HW2 9145   0.059   5.132   1.287
 3041SOL     OW 9146   0.732   4.358   1.064
 3041SOL    HW1 9147   0.791   4.332   0.988
 3041SOL    HW2 9148   0.704   4.454   1.053
 3042SOL     OW 9149   1.728   4.659   1.854
 3042SOL    HW1 9150   1.682   4.652   1.765
 3042SOL    HW2 9151   1.666   4.703   1.920
 3043SOL     OW 9152   0.307   3.787   0.618
 3043SOL    HW1 9153   0.296   3.881   0.651
 3043SOL    HW2 9154   0.302   3.724   0.695
 3044SOL     OW 9155   1.622   4.091   0.374
 3044SOL    HW1 9156   1.624   4.015   0.438
 3044SOL    HW2 9157   1.574   4.168   0.414
 3045SOL     OW 9158   1.023   4.490   0.966
 3045SOL    HW1 9159   1.038   4.511   1.062
 3045SOL    HW2 9160   0.993   4.395   0.957
 3046SOL     OW 9161   0.980   5.297   1.700
 3046SOL    HW1 9162   0.960   5.341   1.612
 3046SOL    HW2 9163   1.019   5.206   1.684
 3047SOL     OW 9164   1.859   5.242   1.605
 3047SOL    HW1 9165   1.873   5.269   1.510
 3047SOL    HW2 9166   1.942   5.264   1.658
 3048SOL     OW 9167   0.350   4.622   1.804
 3048SOL    HW1 9168   0.426   4.666   1.852
 3048SOL    HW2 9169   0.385   4.575   1.722
 3049SOL     OW 9170   1.540   3.998   0.125
 3049SOL    HW1 9171   1.479   3.923   0.148
 3049SOL    HW2 9172   1.562   4.050   0.208
 3050SOL     OW 9173   1.303   4.562   0.042
 3050SOL    HW1 9174   1.337   4.469   0.057
 3050SOL    HW2 9175   1.321   4.589  -0.053
 3051SOL     OW 9176   1.068   5.057   0.849
 3051SOL    HW1 9177   1.075   4.973   0.794
 3051SOL    HW2 9178   1.130   5.126   0.813
 3052SOL     OW 9179   0.319   4.534   0.949
 3052SOL    HW1 9180   0.412   4.570   0.954
 3052SOL    HW2 9181   0.313   4.449   1.001
 3053SOL     OW 9182   0.339   4.233   1.006
 3053SOL    HW1 9183   0.287   4.150   0.989
 3053SOL    HW2 9184   0.416   4.238   0.942
 3054SOL     OW 9185   1.138   4.104   1.678
 3054SOL    HW1 9186   1.093   4.167   1.742
 3054SOL    HW2 9187   1.231   4.135   1.661
 3055SOL     OW 9188   1.160   3.931   1.477
 3055SOL    HW1 9189   1.160   3.995   1.554
 3055SOL    HW2 9190   1.188   3.979   1.394
 3056SOL     OW 9191   0.008   5.050   0.200
 3056SOL    HW1 9192  -0.085   5.071   0.169
 3056SOL    HW2 9193   0.018   4.951   0.213
 3057SOL     OW 9194   0.088   5.525   0.927
 3057SOL    HW1 9195   0.046   5.439   0.900
 3057SOL    HW2 9196   0.182   5.528   0.893
 3058SOL     OW 9197   0.504   5.292   0.910
 3058SOL    HW1 9198   0.570   5.366   0.919
 3058SOL    HW2 9199   0.548   5.213   0.868
 3059SOL     OW 9200   1.002   4.520   1.238
 3059SOL    HW1 9201   1.043   4.488   1.324
 3059SOL    HW2 9202   0.906   4.493   1.235
 3060SOL     OW 9203   0.040   4.268   1.114
 3060SOL    HW1 9204   0.125   4.235   1.073
 3060SOL    HW2 9205   0.053   4.283   1.212
 3061SOL     OW 9206   0.189   4.244   1.722
 3061SOL    HW1 9207   0.248   4.204   1.652
 3061SOL    HW2 9208   0.131   4.315   1.681
 3062SOL     OW 9209   1.369   4.674   1.660
 3062SOL    HW1 9210   1.408   4.763   1.680
 3062SOL    HW2 9211   1.379   4.654   1.563
 3063SOL     OW 9212   0.815   4.296   0.325
 3063SOL    HW1 9213   0.822   4.207   0.279
 3063SOL    HW2 9214   0.721   4.330   0.317
 3064SOL     OW 9215   1.657   4.328   1.206
 3064SOL    HW1 9216   1.619   4.259   1.268
 3064SOL    HW2 9217   1.739   4.292   1.162
 3065SOL     OW 9218   0.252   5.288   1.744
 3065SOL    HW1 9219   0.222   5.345   1.820
 3065SOL    HW2 9220   0.245   5.191   1.770
 3066SOL     OW 9221   0.671   4.188   1.269
 3066SOL    HW1 9222   0.637   4.099   1.239
 3066SOL    HW2 9223   0.697   4.242   1.189
 3067SOL     OW 9224   0.930   5.402   1.465
 3067SOL    HW1 9225   0.906   5.384   1.370
 3067SOL    HW2 9226   0.960   5.496   1.475
 3068SOL     OW 9227   0.473   4.224   0.191
 3068SOL    HW1 9228   0.534   4.304   0.195
 3068SOL    HW2 9229   0.378   4.255   0.198
 3069SOL     OW 9230   0.159   4.861   1.466
 3069SOL    HW1 9231   0.181   4.800   1.542
 3069SOL    HW2 9232   0.169   4.812   1.380
 3070SOL     OW 9233   1.347   4.783   1.234
 3070SOL    HW1 9234   1.371   4.720   1.160
 3070SOL    HW2 9235   1.257   4.823   1.216
 3071SOL     OW 9236   1.302   4.579   0.309
 3071SOL    HW1 9237   1.216   4.548   0.351
 3071SOL    HW2 9238   1.298   4.565   0.210
 3072SOL     OW 9239   1.759   5.471   1.154
 3072SOL    HW1 9240   1.820   5.501   1.081
 3072SOL    HW2 9241   1.721   5.382   1.132
 3073SOL     OW 9242   1.252   5.455   1.128
 3073SOL    HW1 9243   1.336   5.460   1.074
 3073SOL    HW2 9244   1.229   5.359   1.146
 3074SOL     OW 9245   0.083   4.982   1.022
 3074SOL    HW1 9246   0.078   4.981   1.122
 3074SOL    HW2 9247   0.000   4.941   0.984
 3075SOL     OW 9248   0.688   5.386   1.716
 3075SOL    HW1 9249   0.632   5.467   1.725
 3075SOL    HW2 9250   0.740   5.390   1.630
 3076SOL     OW 9251   0.903   3.810   0.133
 3076SOL    HW1 9252   0.954   3.811   0.047
 3076SOL    HW2 9253   0.959   3.768   0.204
 3077SOL     OW 9254   1.726   3.859   0.523
 3077SOL    HW1 9255   1.799   3.842   0.456
 3077SOL    HW2 9256   1.695   3.772   0.561
 3078SOL     OW 9257   1.388   5.297   0.477
 3078SOL    HW1 9258   1.455   5.309   0.403
 3078SOL    HW2 9259   1.348   5.386   0.500
 3079SOL     OW 9260   0.130   5.518   1.851
 3079SOL    HW1 9261   0.089   5.444   1.904
 3079SOL    HW2 9262   0.194   5.569   1.909
 3080SOL     OW 9263   1.280   4.651   0.672
 3080SOL    HW1 9264   1.340   4.570   0.674
 3080SOL    HW2 9265   1.320   4.720   0.612
 3081SOL     OW 9266   0.830   4.997   1.422
 3081SOL    HW1 9267   0.825   5.030   1.517
 3081SOL    HW2 9268   0.744   5.016   1.376
 3082SOL     OW 9269   0.672   5.340   0.154
 3082SOL    HW1 9270   0.681   5.350   0.055
 3082SOL    HW2 9271   0.632   5.251   0.175
 3083SOL     OW 9272   1.650   5.444   1.394
 3083SOL    HW1 9273   1.703   5.454   1.310
 3083SOL    HW2 9274   1.623   5.534   1.428
 3084SOL     OW 9275   1.841   3.899   0.963
 3084SOL    HW1 9276   1.880   3.814   0.927
 3084SOL    HW2 9277   1.743   3.901   0.944
 3085SOL     OW 9278   0.263   4.050   0.720
 3085SOL    HW1 9279   0.184   4.101   0.686
 3085SOL    HW2 9280   0.254   4.035   0.818
 3086SOL     OW 9281   1.194   5.336   0.031
 3086SOL    HW1 9282   1.200   5.243   0.068
 3086SOL    HW2 9283   1.135   5.336  -0.049
 3087SOL     OW 9284   0.822   4.726   1.372
 3087SOL    HW1 9285   0.862   4.725   1.280
 3087SOL    HW2 9286   0.832   4.818   1.412
 3088SOL     OW 9287   0.916   4.634   0.291
 3088SOL    HW1 9288   0.979   4.672   0.223
 3088SOL    HW2 9289   0.956   4.551   0.330
 3089SOL     OW 9290   1.504   5.331   0.044
 3089SOL    HW1 9291   1.412   5.368   0.051
 3089SOL    HW2 9292   1.542   5.351  -0.046
 3090SOL     OW 9293   0.372   5.012   1.490
 3090SOL    HW1 9294   0.359   5.105   1.456
 3090SOL    HW2 9295   0.288   4.960   1.477
 3091SOL     OW 9296   1.614   5.016   1.289
 3091SOL    HW1 9297   1.674   5.019   1.369
 3091SOL    HW2 9298   1.539   5.080   1.302
 3092SOL     OW 9299   1.039   4.822   0.696
 3092SOL    HW1 9300   0.969   4.775   0.750
 3092SOL    HW2 9301   1.098   4.754   0.653
 3093SOL     OW 9302   1.014   3.960   0.971
 3093SOL    HW1 9303   1.006   3.924   0.878
 3093SOL    HW2 9304   1.012   3.884   1.036
 3094SOL     OW 9305   0.590   5.211   0.491
 3094SOL    HW1 9306   0.632   5.153   0.421
 3094SOL    HW2 9307   0.546   5.290   0.447
 3095SOL     OW 9308   1.709   4.109   1.381
 3095SOL    HW1 9309   1.782   4.178   1.385
 3095SOL    HW2 9310   1.737   4.034   1.322
 3096SOL     OW 9311   0.255   5.072   0.290
 3096SOL    HW1 9312   0.159   5.073   0.263
 3096SOL    HW2 9313   0.267   5.125   0.374
 3097SOL     OW 9314   0.105   4.737   1.726
 3097SOL    HW1 9315   0.028   4.704   1.780
 3097SOL    HW2 9316   0.190   4.707   1.768
 3098SOL     OW 9317   0.672   3.927   1.489
 3098SOL    HW1 9318   0.762   3.911   1.449
 3098SOL    HW2 9319   0.680   3.932   1.588
 3099SOL     OW 9320   0.075   4.069   0.033
 3099SOL    HW1 9321  -0.017   4.041   0.004
 3099SOL    HW2 9322   0.106   4.146  -0.023
 3100SOL     OW 9323   1.440   4.580   1.398
 3100SOL    HW1 9324   1.383   4.632   1.335
 3100SOL    HW2 9325   1.536   4.592   1.374
 3101SOL     OW 9326   0.072   3.890   0.318
 3101SOL    HW1 9327   0.055   3.973   0.264
 3101SOL    HW2 9328   0.162   3.853   0.296
 3102SOL     OW 9329   1.183   5.059   0.119
 3102SOL    HW1 9330   1.084   5.048   0.121
 3102SOL    HW2 9331   1.217   5.074   0.212
 3103SOL     OW 9332   0.613   4.566   1.431
 3103SOL    HW1 9333   0.669   4.647   1.414
 3103SOL    HW2 9334   0.672   4.486   1.434
 3104SOL     OW 9335   1.493   5.491   0.959
 3104SOL    HW1 9336   1.526   5.555   0.890
 3104SOL    HW2 9337   1.559   5.485   1.034
 3105SOL     OW 9338   0.716   4.289   1.708
 3105SOL    HW1 9339   0.735   4.354   1.782
 3105SOL    HW2 9340   0.776   4.209   1.717
 3106SOL     OW 9341   1.450   4.944   1.633
 3106SOL    HW1 9342   1.441   4.934   1.732
 3106SOL    HW2 9343   1.546   4.937   1.607
 3107SOL     OW 9344   0.390   5.465   1.560
 3107SOL    HW1 9345   0.299   5.506   1.558
 3107SOL    HW2 9346   0.383   5.371   1.592
 3108SOL     OW 9347   1.674   4.607   1.254
 3108SOL    HW1 9348   1.647   4.518   1.217
 3108SOL    HW2 9349   1.675   4.675   1.181
 3109SOL     OW 9350   1.225   4.049   0.449
 3109SOL    HW1 9351   1.290   3.975   0.438
 3109SOL    HW2 9352   1.245   4.099   0.533
 3110SOL     OW 9353   0.594   4.469   0.652
 3110SOL    HW1 9354   0.644   4.554   0.633
 3110SOL    HW2 9355   0.506   4.471   0.604
 3111SOL     OW 9356   1.777   4.066   1.642
 3111SOL    HW1 9357   1.760   4.097   1.548
 3111SOL    HW2 9358   1.693   4.029   1.680
 3112SOL     OW 9359   1.730   4.658   1.517
 3112SOL    HW1 9360   1.768   4.749   1.532
 3112SOL    HW2 9361   1.722   4.641   1.418
 3113SOL     OW 9362   0.859   5.098   0.016
 3113SOL    HW1 9363   0.813   5.113   0.104
 3113SOL    HW2 9364   0.903   5.183  -0.014
 3114SOL     OW 9365   0.661   5.514   0.953
 3114SOL    HW1 9366   0.615   5.602   0.940
 3114SOL    HW2 9367   0.760   5.526   0.946
 3115SOL     OW 9368   0.859   4.680   0.861
 3115SOL    HW1 9369   0.913   4.611   0.909
 3115SOL    HW2 9370   0.827   4.749   0.927
 3116SOL     OW 9371   1.083   4.708   0.087
 3116SOL    HW1 9372   1.060   4.761   0.005
 3116SOL    HW2 9373   1.164   4.652   0.068
 3117SOL     OW 9374   1.861   5.293   0.851
 3117SOL    HW1 9375   1.790   5.281   0.781
 3117SOL    HW2 9376   1.862   5.214   0.911
 3118SOL     OW 9377   0.221   5.038   1.844
 3118SOL    HW1 9378   0.156   4.965   1.823
 3118SOL    HW2 9379   0.225   5.052   1.942
 3119SOL     OW 9380   0.079   4.964   0.653
 3119SOL    HW1 9381   0.078   4.917   0.741
 3119SOL    HW2 9382   0.161   4.936   0.602
 3120SOL     OW 9383   0.672   5.115   1.624
 3120SOL    HW1 9384   0.594   5.065   1.662
 3120SOL    HW2 9385   0.669   5.210   1.655
 3121SOL     OW 9386   1.824   3.916   1.227
 3121SOL    HW1 9387   1.820   3.826   1.271
 3121SOL    HW2 9388   1.827   3.905   1.128
 3122SOL     OW 9389   0.428   4.148   0.520
 3122SOL    HW1 9390   0.458   4.076   0.458
 3122SOL    HW2 9391   0.389   4.108   0.603
 3123SOL     OW 9392   1.705   5.211   1.104
 3123SOL    HW1 9393   1.612   5.186   1.077
 3123SOL    HW2 9394   1.731   5.161   1.186
 3124SOL     OW 9395   0.317   4.271   1.280
 3124SOL    HW1 9396   0.355   4.212   1.352
 3124SOL    HW2 9397   0.357   4.245   1.192
 3125SOL     OW 9398   0.812   5.310   0.687
 3125SOL    HW1 9399   0.844   5.320   0.593
 3125SOL    HW2 9400   0.733   5.248   0.689
 3126SOL     OW 9401   1.424   3.938   1.112
 3126SOL    HW1 9402   1.476   3.873   1.167
 3126SOL    HW2 9403   1.375   4.001   1.173
 3127SOL     OW 9404   1.001   3.758   1.154
 3127SOL    HW1 9405   0.938   3.686   1.123
 3127SOL    HW2 9406   1.094   3.722   1.154
 3128SOL     OW 9407   0.770   5.054   0.301
 3128SOL    HW1 9408   0.724   4.967   0.318
 3128SOL    HW2 9409   0.861   5.051   0.342
 3129SOL     OW 9410   0.618   5.291   1.284
 3129SOL    HW1 9411   0.613   5.373   1.341
 3129SOL    HW2 9412   0.707   5.288   1.239
 3130SOL     OW 9413   1.352   3.776   0.168
 3130SOL    HW1 9414   1.387   3.735   0.084
 3130SOL    HW2 9415   1.262   3.738   0.188
 3131SOL     OW 9416   1.300   4.177   0.691
 3131SOL    HW1 9417   1.241   4.257   0.695
 3131SOL    HW2 9418   1.315   4.142   0.784
 3132SOL     OW 9419   1.593   3.945   0.882
 3132SOL    HW1 9420   1.509   3.944   0.936
 3132SOL    HW2 9421   1.595   4.028   0.826
 3133SOL     OW 9422   0.039   4.801   0.300
 3133SOL    HW1 9423   0.138   4.790   0.291
 3133SOL    HW2 9424  -0.001   4.715   0.332
 3134SOL     OW 9425   0.875   5.370   0.337
 3134SOL    HW1 9426   0.798   5.335   0.283
 3134SOL    HW2 9427   0.843   5.441   0.399
 3135SOL     OW 9428   0.230   4.352   1.975
 3135SOL    HW1 9429   0.137   4.350   2.012
 3135SOL    HW2 9430   0.231   4.313   1.883
 3136SOL     OW 9431   0.225   3.999   2.858
 3136SOL    HW1 9432   0.260   3.982   2.950
 3136SOL    HW2 9433   0.137   3.954   2.846
 3137SOL     OW 9434   0.019   4.092   2.509
 3137SOL    HW1 9435  -0.063   4.135   2.548
 3137SOL    HW2 9436  -0.009   4.019   2.446
 3138SOL     OW 9437   0.569   4.999   3.027
 3138SOL    HW1 9438   0.476   4.992   2.990
 3138SOL    HW2 9439   0.580   5.088   3.071
 3139SOL     OW 9440   1.555   5.235   2.565
 3139SOL    HW1 9441   1.498   5.219   2.646
 3139SOL    HW2 9442   1.496   5.245   2.485
 3140SOL     OW 9443   1.135   4.427   2.579
 3140SOL    HW1 9444   1.192   4.505   2.554
 3140SOL    HW2 9445   1.075   4.453   2.655
 3141SOL     OW 9446   1.755   4.331   2.093
 3141SOL    HW1 9447   1.743   4.318   1.994
 3141SOL    HW2 9448   1.725   4.250   2.142
 3142SOL     OW 9449   0.768   4.868   2.885
 3142SOL    HW1 9450   0.690   4.885   2.945
 3142SOL    HW2 9451   0.802   4.955   2.849
 3143SOL     OW 9452   0.850   4.522   3.685
 3143SOL    HW1 9453   0.846   4.598   3.750
 3143SOL    HW2 9454   0.872   4.558   3.594
 3144SOL     OW 9455   0.685   4.736   2.527
 3144SOL    HW1 9456   0.754   4.720   2.597
 3144SOL    HW2 9457   0.612   4.793   2.565
 3145SOL     OW 9458   0.686   4.885   3.665
 3145SOL    HW1 9459   0.746   4.964   3.679
 3145SOL    HW2 9460   0.600   4.916   3.624
 3146SOL     OW 9461   0.335   5.159   2.923
 3146SOL    HW1 9462   0.257   5.128   2.870
 3146SOL    HW2 9463   0.393   5.217   2.866
 3147SOL     OW 9464   1.460   5.229   3.201
 3147SOL    HW1 9465   1.484   5.323   3.227
 3147SOL    HW2 9466   1.444   5.175   3.283
 3148SOL     OW 9467   0.438   4.116   3.361
 3148SOL    HW1 9468   0.520   4.060   3.370
 3148SOL    HW2 9469   0.357   4.058   3.365
 3149SOL     OW 9470   1.603   4.171   2.599
 3149SOL    HW1 9471   1.529   4.217   2.549
 3149SOL    HW2 9472   1.654   4.239   2.652
 3150SOL     OW 9473   0.231   5.437   2.345
 3150SOL    HW1 9474   0.265   5.514   2.399
 3150SOL    HW2 9475   0.275   5.437   2.255
 3151SOL     OW 9476   1.127   5.065   3.552
 3151SOL    HW1 9477   1.174   5.065   3.640
 3151SOL    HW2 9478   1.079   4.978   3.541
 3152SOL     OW 9479   0.230   5.158   2.400
 3152SOL    HW1 9480   0.204   5.254   2.400
 3152SOL    HW2 9481   0.159   5.104   2.445
 3153SOL     OW 9482   0.240   4.815   2.748
 3153SOL    HW1 9483   0.254   4.731   2.800
 3153SOL    HW2 9484   0.185   4.879   2.803
 3154SOL     OW 9485   0.620   5.510   3.301
 3154SOL    HW1 9486   0.528   5.493   3.336
 3154SOL    HW2 9487   0.648   5.602   3.327
 3155SOL     OW 9488   0.606   4.688   1.985
 3155SOL    HW1 9489   0.613   4.772   1.931
 3155SOL    HW2 9490   0.652   4.701   2.073
 3156SOL     OW 9491   1.594   3.838   3.342
 3156SOL    HW1 9492   1.576   3.905   3.270
 3156SOL    HW2 9493   1.591   3.884   3.431
 3157SOL     OW 9494   0.122   4.367   2.425
 3157SOL    HW1 9495   0.077   4.279   2.442
 3157SOL    HW2 9496   0.121   4.421   2.509
 3158SOL     OW 9497   1.842   5.491   2.221
 3158SOL    HW1 9498   1.896   5.462   2.301
 3158SOL    HW2 9499   1.872   5.581   2.192
 3159SOL     OW 9500   0.027   5.320   1.979
 3159SOL    HW1 9501   0.008   5.224   2.000
 3159SOL    HW2 9502  -0.006   5.378   2.054
 3160SOL     OW 9503   1.689   4.646   2.474
 3160SOL    HW1 9504   1.784   4.617   2.482
 3160SOL    HW2 9505   1.681   4.711   2.399
 3161SOL     OW 9506   1.641   4.832   2.294
 3161SOL    HW1 9507   1.727   4.834   2.242
 3161SOL    HW2 9508   1.655   4.879   2.382
 3162SOL     OW 9509   0.113   4.461   3.459
 3162SOL    HW1 9510   0.201   4.448   3.504
 3162SOL    HW2 9511   0.100   4.558   3.437
 3163SOL     OW 9512   0.613   5.089   2.588
 3163SOL    HW1 9513   0.564   5.002   2.597
 3163SOL    HW2 9514   0.590   5.132   2.501
 3164SOL     OW 9515   1.293   4.952   3.285
 3164SOL    HW1 9516   1.330   4.879   3.227
 3164SOL    HW2 9517   1.345   4.957   3.370
 3165SOL     OW 9518   0.809   3.728   2.364
 3165SOL    HW1 9519   0.849   3.819   2.355
 3165SOL    HW2 9520   0.709   3.736   2.370
 3166SOL     OW 9521   0.197   4.700   3.126
 3166SOL    HW1 9522   0.286   4.655   3.112
 3166SOL    HW2 9523   0.124   4.635   3.107
 3167SOL     OW 9524   1.525   4.723   2.052
 3167SOL    HW1 9525   1.462   4.647   2.065
 3167SOL    HW2 9526   1.573   4.741   2.138
 3168SOL     OW 9527   1.187   5.516   3.478
 3168SOL    HW1 9528   1.211   5.576   3.402
 3168SOL    HW2 9529   1.194   5.421   3.448
 3169SOL     OW 9530   0.317   3.975   3.663
 3169SOL    HW1 9531   0.388   4.046   3.669
 3169SOL    HW2 9532   0.229   4.014   3.691
 3170SOL     OW 9533   1.466   5.141   2.815
 3170SOL    HW1 9534   1.407   5.147   2.895
 3170SOL    HW2 9535   1.451   5.053   2.769
 3171SOL     OW 9536   1.667   5.438   2.434
 3171SOL    HW1 9537   1.626   5.415   2.346
 3171SOL    HW2 9538   1.649   5.364   2.499
 3172SOL     OW 9539   0.598   4.453   2.132
 3172SOL    HW1 9540   0.622   4.522   2.064
 3172SOL    HW2 9541   0.520   4.486   2.186
 3173SOL     OW 9542   1.281   4.069   2.806
 3173SOL    HW1 9543   1.195   4.019   2.793
 3173SOL    HW2 9544   1.343   4.015   2.862
 3174SOL     OW 9545   1.576   5.386   2.169
 3174SOL    HW1 9546   1.665   5.432   2.172
 3174SOL    HW2 9547   1.555   5.362   2.074
 3175SOL     OW 9548   0.807   4.329   3.327
 3175SOL    HW1 9549   0.760   4.326   3.416
 3175SOL    HW2 9550   0.756   4.274   3.261
 3176SOL     OW 9551   1.394   4.193   3.536
 3176SOL    HW1 9552   1.374   4.236   3.624
 3176SOL    HW2 9553   1.472   4.131   3.545
 3177SOL     OW 9554   0.973   4.614   3.434
 3177SOL    HW1 9555   1.019   4.530   3.405
 3177SOL    HW2 9556   0.917   4.648   3.359
 3178SOL     OW 9557   0.991   4.134   3.104
 3178SOL    HW1 9558   0.914   4.168   3.158
 3178SOL    HW2 9559   0.957   4.083   3.025
 3179SOL     OW 9560   1.041   4.425   2.291
 3179SOL    HW1 9561   1.067   4.421   2.387
 3179SOL    HW2 9562   0.956   4.374   2.277
 3180SOL     OW 9563   0.076   4.535   2.651
 3180SOL    HW1 9564   0.175   4.523   2.660
 3180SOL    HW2 9565   0.052   4.630   2.672
 3181SOL     OW 9566   0.130   5.545   3.433
 3181SOL    HW1 9567   0.120   5.530   3.532
 3181SOL    HW2 9568   0.044   5.581   3.397
 3182SOL     OW 9569   0.865   4.072   2.057
 3182SOL    HW1 9570   0.924   4.135   2.008
 3182SOL    HW2 9571   0.884   3.978   2.028
 3183SOL     OW 9572   1.719   4.309   3.693
 3183SOL    HW1 9573   1.693   4.398   3.657
 3183SOL    HW2 9574   1.717   4.241   3.620
 3184SOL     OW 9575   1.362   4.868   2.407
 3184SOL    HW1 9576   1.445   4.839   2.359
 3184SOL    HW2 9577   1.313   4.935   2.351
 3185SOL     OW 9578   0.550   3.920   2.747
 3185SOL    HW1 9579   0.545   3.915   2.847
 3185SOL    HW2 9580   0.552   4.016   2.718
 3186SOL     OW 9581   1.008   5.180   2.339
 3186SOL    HW1 9582   0.962   5.252   2.287
 3186SOL    HW2 9583   1.004   5.200   2.437
 3187SOL     OW 9584   0.351   5.525   2.715
 3187SOL    HW1 9585   0.401   5.439   2.721
 3187SOL    HW2 9586   0.416   5.602   2.712
 3188SOL     OW 9587   1.795   4.790   2.735
 3188SOL    HW1 9588   1.733   4.775   2.659
 3188SOL    HW2 9589   1.743   4.801   2.820
 3189SOL     OW 9590   1.227   5.274   3.368
 3189SOL    HW1 9591   1.233   5.197   3.432
 3189SOL    HW2 9592   1.175   5.248   3.288
 3190SOL     OW 9593   0.321   4.667   2.104
 3190SOL    HW1 9594   0.403   4.706   2.062
 3190SOL    HW2 9595   0.294   4.585   2.055
 3191SOL     OW 9596   1.458   4.459   2.590
 3191SOL    HW1 9597   1.453   4.394   2.665
 3191SOL    HW2 9598   1.538   4.518   2.603
 3192SOL     OW 9599   0.461   4.990   3.589
 3192SOL    HW1 9600   0.411   4.991   3.503
 3192SOL    HW2 9601   0.398   4.972   3.665
 3193SOL     OW 9602   1.111   5.500   2.099
 3193SOL    HW1 9603   1.051   5.438   2.149
 3193SOL    HW2 9604   1.142   5.456   2.014
 3194SOL     OW 9605   0.202   4.009   3.360
 3194SOL    HW1 9606   0.122   4.069   3.347
 3194SOL    HW2 9607   0.192   3.960   3.446
 3195SOL     OW 9608   1.632   5.101   1.943
 3195SOL    HW1 9609   1.600   5.195   1.933
 3195SOL    HW2 9610   1.556   5.038   1.931
 3196SOL     OW 9611   0.464   5.467   2.185
 3196SOL    HW1 9612   0.497   5.506   2.271
 3196SOL    HW2 9613   0.540   5.460   2.120
 3197SOL     OW 9614   1.400   3.831   2.288
 3197SOL    HW1 9615   1.376   3.794   2.198
 3197SOL    HW2 9616   1.499   3.847   2.292
 3198SOL     OW 9617   0.249   5.509   3.103
 3198SOL    HW1 9618   0.306   5.444   3.153
 3198SOL    HW2 9619   0.233   5.476   3.010
 3199SOL     OW 9620   0.940   5.422   2.766
 3199SOL    HW1 9621   1.020   5.365   2.787
 3199SOL    HW2 9622   0.891   5.382   2.689
 3200SOL     OW 9623   0.382   4.424   2.342
 3200SOL    HW1 9624   0.427   4.334   2.339
 3200SOL    HW2 9625   0.288   4.413   2.375
 3201SOL     OW 9626   1.547   3.946   3.591
 3201SOL    HW1 9627   1.542   3.983   3.683
 3201SOL    HW2 9628   1.475   3.877   3.579
 3202SOL     OW 9629   0.614   3.846   1.979
 3202SOL    HW1 9630   0.712   3.824   1.986
 3202SOL    HW2 9631   0.583   3.829   1.886
 3203SOL     OW 9632   0.781   3.988   3.611
 3203SOL    HW1 9633   0.848   3.927   3.654
 3203SOL    HW2 9634   0.708   4.007   3.676
 3204SOL     OW 9635   0.888   5.238   3.057
 3204SOL    HW1 9636   0.865   5.213   2.963
 3204SOL    HW2 9637   0.949   5.169   3.096
 3205SOL     OW 9638   1.351   4.314   3.295
 3205SOL    HW1 9639   1.379   4.271   3.380
 3205SOL    HW2 9640   1.376   4.410   3.296
 3206SOL     OW 9641   0.803   5.126   2.786
 3206SOL    HW1 9642   0.893   5.140   2.744
 3206SOL    HW2 9643   0.732   5.128   2.715
 3207SOL     OW 9644   0.922   4.227   2.761
 3207SOL    HW1 9645   0.897   4.218   2.665
 3207SOL    HW2 9646   0.970   4.145   2.792
 3208SOL     OW 9647   0.539   3.788   2.374
 3208SOL    HW1 9648   0.458   3.789   2.432
 3208SOL    HW2 9649   0.542   3.871   2.319
 3209SOL     OW 9650   1.434   4.912   1.903
 3209SOL    HW1 9651   1.466   4.836   1.960
 3209SOL    HW2 9652   1.342   4.939   1.933
 3210SOL     OW 9653   0.297   3.759   2.033
 3210SOL    HW1 9654   0.346   3.843   2.012
 3210SOL    HW2 9655   0.359   3.694   2.078
 3211SOL     OW 9656   0.935   3.960   2.342
 3211SOL    HW1 9657   0.887   4.001   2.264
 3211SOL    HW2 9658   1.034   3.958   2.323
 3212SOL     OW 9659   1.076   4.407   3.326
 3212SOL    HW1 9660   0.996   4.346   3.329
 3212SOL    HW2 9661   1.157   4.354   3.302
 3213SOL     OW 9662   1.227   5.294   2.655
 3213SOL    HW1 9663   1.248   5.368   2.590
 3213SOL    HW2 9664   1.295   5.294   2.728
 3214SOL     OW 9665   0.459   4.876   2.603
 3214SOL    HW1 9666   0.388   4.849   2.668
 3214SOL    HW2 9667   0.433   4.848   2.510
 3215SOL     OW 9668   1.271   5.521   2.453
 3215SOL    HW1 9669   1.315   5.585   2.389
 3215SOL    HW2 9670   1.221   5.573   2.523
 3216SOL     OW 9671   1.032   4.273   1.878
 3216SOL    HW1 9672   0.991   4.355   1.839
 3216SOL    HW2 9673   1.096   4.299   1.951
 3217SOL     OW 9674   0.078   4.280   3.248
 3217SOL    HW1 9675   0.170   4.279   3.207
 3217SOL    HW2 9676   0.072   4.354   3.315
 3218SOL     OW 9677   0.561   3.946   3.009
 3218SOL    HW1 9678   0.599   3.862   3.046
 3218SOL    HW2 9679   0.473   3.965   3.053
 3219SOL     OW 9680   0.866   4.178   2.504
 3219SOL    HW1 9681   0.834   4.250   2.442
 3219SOL    HW2 9682   0.890   4.097   2.451
 3220SOL     OW 9683   1.017   3.763   2.615
 3220SOL    HW1 9684   0.945   3.768   2.546
 3220SOL    HW2 9685   0.993   3.694   2.684
 3221SOL     OW 9686   1.429   4.897   2.729
 3221SOL    HW1 9687   1.374   4.813   2.722
 3221SOL    HW2 9688   1.455   4.926   2.637
 3222SOL     OW 9689   1.466   4.314   2.854
 3222SOL    HW1 9690   1.436   4.219   2.861
 3222SOL    HW2 9691   1.539   4.330   2.920
 3223SOL     OW 9692   1.857   4.557   2.239
 3223SOL    HW1 9693   1.899   4.493   2.303
 3223SOL    HW2 9694   1.819   4.506   2.161
 3224SOL     OW 9695   0.488   5.109   2.036
 3224SOL    HW1 9696   0.401   5.094   2.083
 3224SOL    HW2 9697   0.471   5.135   1.941
 3225SOL     OW 9698   1.664   5.004   2.519
 3225SOL    HW1 9699   1.763   5.012   2.533
 3225SOL    HW2 9700   1.619   5.088   2.550
 3226SOL     OW 9701   1.390   4.299   1.940
 3226SOL    HW1 9702   1.336   4.278   2.021
 3226SOL    HW2 9703   1.481   4.258   1.949
 3227SOL     OW 9704   0.527   3.980   2.190
 3227SOL    HW1 9705   0.554   3.921   2.115
 3227SOL    HW2 9706   0.527   4.075   2.159
 3228SOL     OW 9707   1.754   4.947   3.450
 3228SOL    HW1 9708   1.845   4.908   3.437
 3228SOL    HW2 9709   1.762   5.043   3.474
 3229SOL     OW 9710   1.064   5.071   3.202
 3229SOL    HW1 9711   0.984   5.048   3.257
 3229SOL    HW2 9712   1.147   5.045   3.251
 3230SOL     OW 9713   1.592   5.353   3.487
 3230SOL    HW1 9714   1.619   5.387   3.397
 3230SOL    HW2 9715   1.671   5.315   3.533
 3231SOL     OW 9716   1.111   4.919   2.962
 3231SOL    HW1 9717   1.071   4.963   3.043
 3231SOL    HW2 9718   1.070   4.956   2.879
 3232SOL     OW 9719   1.638   4.823   2.941
 3232SOL    HW1 9720   1.643   4.904   3.000
 3232SOL    HW2 9721   1.552   4.825   2.890
 3233SOL     OW 9722   0.915   3.813   3.264
 3233SOL    HW1 9723   0.940   3.793   3.169
 3233SOL    HW2 9724   0.987   3.869   3.306
 3234SOL     OW 9725   0.980   4.840   3.581
 3234SOL    HW1 9726   0.881   4.846   3.591
 3234SOL    HW2 9727   1.003   4.760   3.525
 3235SOL     OW 9728   0.705   4.774   2.230
 3235SOL    HW1 9729   0.691   4.781   2.329
 3235SOL    HW2 9730   0.789   4.723   2.212
 3236SOL     OW 9731   0.410   4.537   3.113
 3236SOL    HW1 9732   0.496   4.549   3.163
 3236SOL    HW2 9733   0.368   4.450   3.140
 3237SOL     OW 9734   1.274   4.110   3.124
 3237SOL    HW1 9735   1.295   4.184   3.188
 3237SOL    HW2 9736   1.185   4.127   3.081
 3238SOL     OW 9737   0.064   5.288   3.193
 3238SOL    HW1 9738   0.018   5.370   3.159
 3238SOL    HW2 9739   0.162   5.307   3.202
 3239SOL     OW 9740   0.367   4.824   2.363
 3239SOL    HW1 9741   0.360   4.907   2.307
 3239SOL    HW2 9742   0.371   4.744   2.303
 3240SOL     OW 9743   0.566   4.261   2.727
 3240SOL    HW1 9744   0.578   4.327   2.653
 3240SOL    HW2 9745   0.612   4.295   2.810
 3241SOL     OW 9746   1.252   5.072   2.250
 3241SOL    HW1 9747   1.302   5.149   2.290
 3241SOL    HW2 9748   1.157   5.074   2.282
 3242SOL     OW 9749   1.272   5.169   3.004
 3242SOL    HW1 9750   1.319   5.182   3.091
 3242SOL    HW2 9751   1.206   5.095   3.013
 3243SOL     OW 9752   1.582   4.363   2.334
 3243SOL    HW1 9753   1.551   4.424   2.407
 3243SOL    HW2 9754   1.632   4.415   2.265
 3244SOL     OW 9755   0.354   5.234   3.191
 3244SOL    HW1 9756   0.333   5.190   3.104
 3244SOL    HW2 9757   0.451   5.260   3.194
 3245SOL     OW 9758   0.402   4.475   3.460
 3245SOL    HW1 9759   0.470   4.530   3.413
 3245SOL    HW2 9760   0.442   4.387   3.487
 3246SOL     OW 9761   1.587   4.503   3.532
 3246SOL    HW1 9762   1.495   4.541   3.527
 3246SOL    HW2 9763   1.647   4.550   3.467
 3247SOL     OW 9764   1.013   3.829   3.632
 3247SOL    HW1 9765   1.019   3.914   3.580
 3247SOL    HW2 9766   1.045   3.753   3.575
 3248SOL     OW 9767   0.504   3.774   3.602
 3248SOL    HW1 9768   0.462   3.717   3.532
 3248SOL    HW2 9769   0.438   3.843   3.634
 3249SOL     OW 9770   0.573   4.594   2.891
 3249SOL    HW1 9771   0.617   4.683   2.882
 3249SOL    HW2 9772   0.510   4.594   2.968
 3250SOL     OW 9773   1.360   4.586   2.907
 3250SOL    HW1 9774   1.285   4.586   2.841
 3250SOL    HW2 9775   1.397   4.494   2.916
 3251SOL     OW 9776   1.209   4.249   2.137
 3251SOL    HW1 9777   1.222   4.165   2.191
 3251SOL    HW2 9778   1.180   4.323   2.197
 3252SOL     OW 9779   0.307   3.937   3.093
 3252SOL    HW1 9780   0.284   3.974   3.183
 3252SOL    HW2 9781   0.277   3.842   3.087
 3253SOL     OW 9782   0.037   5.034   3.144
 3253SOL    HW1 9783   0.090   4.985   3.212
 3253SOL    HW2 9784   0.059   5.132   3.149
 3254SOL     OW 9785   0.732   4.358   2.926
 3254SOL    HW1 9786   0.791   4.332   2.850
 3254SOL    HW2 9787   0.704   4.454   2.915
 3255SOL     OW 9788   1.728   4.659   3.716
 3255SOL    HW1 9789   1.682   4.652   3.627
 3255SOL    HW2 9790   1.666   4.703   3.782
 3256SOL     OW 9791   0.307   3.787   2.480
 3256SOL    HW1 9792   0.296   3.881   2.513
 3256SOL    HW2 9793   0.302   3.724   2.557
 3257SOL     OW 9794   1.622   4.091   2.236
 3257SOL    HW1 9795   1.624   4.015   2.300
 3257SOL    HW2 9796   1.574   4.168   2.276
 3258SOL     OW 9797   1.023   4.490   2.828
 3258SOL    HW1 9798   1.038   4.511   2.924
 3258SOL    HW2 9799   0.993   4.395   2.819
 3259SOL     OW 9800   0.980   5.297   3.562
 3259SOL    HW1 9801   0.960   5.341   3.474
 3259SOL    HW2 9802   1.019   5.206   3.546
 3260SOL     OW 9803   1.859   5.242   3.467
 3260SOL    HW1 9804   1.873   5.269   3.372
 3260SOL    HW2 9805   1.942   5.264   3.520
 3261SOL     OW 9806   0.350   4.622   3.666
 3261SOL    HW1 9807   0.426   4.666   3.714
 3261SOL    HW2 9808   0.385   4.575   3.584
 3262SOL     OW 9809   1.540   3.998   1.987
 3262SOL    HW1 9810   1.479   3.923   2.010
 3262SOL    HW2 9811   1.562   4.050   2.070
 3263SOL     OW 9812   1.303   4.562   1.904
 3263SOL    HW1 9813   1.337   4.469   1.919
 3263SOL    HW2 9814   1.321   4.589   1.809
 3264SOL     OW 9815   1.068   5.057   2.711
 3264SOL    HW1 9816   1.075   4.973   2.656
 3264SOL    HW2 9817   1.130   5.126   2.675
 3265SOL     OW 9818   0.319   4.534   2.811
 3265SOL    HW1 9819   0.412   4.570   2.816
 3265SOL    HW2 9820   0.313   4.449   2.863
 3266SOL     OW 9821   0.339   4.233   2.868
 3266SOL    HW1 9822   0.287   4.150   2.851
 3266SOL    HW2 9823   0.416   4.238   2.804
 3267SOL     OW 9824   1.138   4.104   3.540
 3267SOL    HW1 9825   1.093   4.167   3.604
 3267SOL    HW2 9826   1.231   4.135   3.523
 3268SOL     OW 9827   1.160   3.931   3.339
 3268SOL    HW1 9828   1.160   3.995   3.416
 3268SOL    HW2 9829   1.188   3.979   3.256
 3269SOL     OW 9830   0.008   5.050   2.062
 3269SOL    HW1 9831  -0.085   5.071   2.031
 3269SOL    HW2 9832   0.018   4.951   2.075
 3270SOL     OW 9833   0.088   5.525   2.789
 3270SOL    HW1 9834   0.046   5.439   2.762
 3270SOL    HW2 9835   0.182   5.528   2.755
 3271SOL     OW 9836   0.504   5.292   2.772
 3271SOL    HW1 9837   0.570   5.366   2.781
 3271SOL    HW2 9838   0.548   5.213   2.730
 3272SOL     OW 9839   1.002   4.520   3.100
 3272SOL    HW1 9840   1.043   4.488   3.186
 3272SOL    HW2 9841   0.906   4.493   3.097
 3273SOL     OW 9842   0.040   4.268   2.976
 3273SOL    HW1 9843   0.125   4.235   2.935
 3273SOL    HW2 9844   0.053   4.283   3.074
 3274SOL     OW 9845   0.189   4.244   3.584
 3274SOL    HW1 9846   0.248   4.204   3.514
 3274SOL    HW2 9847   0.131   4.315   3.543
 3275SOL     OW 9848   1.369   4.674   3.522
 3275SOL    HW1 9849   1.408   4.763   3.542
 3275SOL    HW2 9850   1.379   4.654   3.425
 3276SOL     OW 9851   0.815   4.296   2.187
 3276SOL    HW1 9852   0.822   4.207   2.141
 3276SOL    HW2 9853   0.721   4.330   2.179
 3277SOL     OW 9854   1.657   4.328   3.068
 3277SOL    HW1 9855   1.619   4.259   3.130
 3277SOL    HW2 9856   1.739   4.292   3.024
 3278SOL     OW 9857   0.252   5.288   3.606
 3278SOL    HW1 9858   0.222   5.345   3.682
 3278SOL    HW2 9859   0.245   5.191   3.632
 3279SOL     OW 9860   0.671   4.188   3.131
 3279SOL    HW1 9861   0.637   4.099   3.101
 3279SOL    HW2 9862   0.697   4.242   3.051
 3280SOL     OW 9863   0.930   5.402   3.327
 3280SOL    HW1 9864   0.906   5.384   3.232
 3280SOL    HW2 9865   0.960   5.496   3.337
 3281SOL     OW 9866   0.473   4.224   2.053
 3281SOL    HW1 9867   0.534   4.304   2.057
 3281SOL    HW2 9868   0.378   4.255   2.060
 3282SOL     OW 9869   0.159   4.861   3.328
 3282SOL    HW1 9870   0.181   4.800   3.404
 3282SOL    HW2 9871   0.169   4.812   3.242
 3283SOL     OW 9872   1.347   4.783   3.096
 3283SOL    HW1 9873   1.371   4.720   3.022
 3283SOL    HW2 9874   1.257   4.823   3.078
 3284SOL     OW 9875   1.302   4.579   2.171
 3284SOL    HW1 9876   1.216   4.548   2.213
 3284SOL    HW2 9877   1.298   4.565   2.072
 3285SOL     OW 9878   1.759   5.471   3.016
 3285SOL    HW1 9879   1.820   5.501   2.943
 3285SOL    HW2 9880   1.721   5.382   2.994
 3286SOL     OW 9881   1.252   5.455   2.990
 3286SOL    HW1 9882   1.336   5.460   2.936
 3286SOL    HW2 9883   1.229   5.359   3.008
 3287SOL     OW 9884   0.083   4.982   2.884
 3287SOL    HW1 9885   0.078   4.981   2.984
 3287SOL    HW2 9886   0.000   4.941   2.846
 3288SOL     OW 9887   0.688   5.386   3.578
 3288SOL    HW1 9888   0.632   5.467   3.587
 3288SOL    HW2 9889   0.740   5.390   3.492
 3289SOL     OW 9890   1.726   3.859   2.385
 3289SOL    HW1 9891   1.799   3.842   2.318
 3289SOL    HW2 9892   1.695   3.772   2.423
 3290SOL     OW 9893   1.388   5.297   2.339
 3290SOL    HW1 9894   1.455   5.309   2.265
 3290SOL    HW2 9895   1.348   5.386   2.362
 3291SOL     OW 9896   0.130   5.518   3.713
 3291SOL    HW1 9897   0.089   5.444   3.766
 3291SOL    HW2 9898   0.194   5.569   3.771
 3292SOL     OW 9899   1.280   4.651   2.534
 3292SOL    HW1 9900   1.340   4.570   2.536
 3292SOL    HW2 9901   1.320   4.720   2.474
 3293SOL     OW 9902   0.830   4.997   3.284
 3293SOL    HW1 9903   0.825   5.030   3.379
 3293SOL    HW2 9904   0.744   5.016   3.238
 3294SOL     OW 9905   0.672   5.340   2.016
 3294SOL    HW1 9906   0.681   5.350   1.917
 3294SOL    HW2 9907   0.632   5.251   2.037
 3295SOL     OW 9908   1.650   5.444   3.256
 3295SOL    HW1 9909   1.703   5.454   3.172
 3295SOL    HW2 9910   1.623   5.534   3.290
 3296SOL     OW 9911   1.841   3.899   2.825
 3296SOL    HW1 9912   1.880   3.814   2.789
 3296SOL    HW2 9913   1.743   3.901   2.806
 3297SOL     OW 9914   0.263   4.050   2.582
 3297SOL    HW1 9915   0.184   4.101   2.548
 3297SOL    HW2 9916   0.254   4.035   2.680
 3298SOL     OW 9917   1.194   5.336   1.893
 3298SOL    HW1 9918   1.200   5.243   1.930
 3298SOL    HW2 9919   1.135   5.336   1.813
 3299SOL     OW 9920   0.822   4.726   3.234
 3299SOL    HW1 9921   0.862   4.725   3.142
 3299SOL    HW2 9922   0.832   4.818   3.274
 3300SOL     OW 9923   0.916   4.634   2.153
 3300SOL    HW1 9924   0.979   4.672   2.085
 3300SOL    HW2 9925   0.956   4.551   2.192
 3301SOL     OW 9926   1.504   5.331   1.906
 3301SOL    HW1 9927   1.412   5.368   1.913
 3301SOL    HW2 9928   1.542   5.351   1.816
 3302SOL     OW 9929   0.372   5.012   3.352
 3302SOL    HW1 9930   0.359   5.105   3.318
 3302SOL    HW2 9931   0.288   4.960   3.339
 3303SOL     OW 9932   1.614   5.016   3.151
 3303SOL    HW1 9933   1.674   5.019   3.231
 3303SOL    HW2 9934   1.539   5.080   3.164
 3304SOL     OW 9935   1.039   4.822   2.558
 3304SOL    HW1 9936   0.969   4.775   2.612
 3304SOL    HW2 9937   1.098   4.754   2.515
 3305SOL     OW 9938   1.014   3.960   2.833
 3305SOL    HW1 9939   1.006   3.924   2.740
 3305SOL    HW2 9940   1.012   3.884   2.898
 3306SOL     OW 9941   0.590   5.211   2.353
 3306SOL    HW1 9942   0.632   5.153   2.283
 3306SOL    HW2 9943   0.546   5.290   2.309
 3307SOL     OW 9944   1.709   4.109   3.243
 3307SOL    HW1 9945   1.782   4.178   3.247
 3307SOL    HW2 9946   1.737   4.034   3.184
 3308SOL     OW 9947   0.255   5.072   2.152
 3308SOL    HW1 9948   0.159   5.073   2.125
 3308SOL    HW2 9949   0.267   5.125   2.236
 3309SOL     OW 9950   0.105   4.737   3.588
 3309SOL    HW1 9951   0.028   4.704   3.642
 3309SOL    HW2 9952   0.190   4.707   3.630
 3310SOL     OW 9953   0.672   3.927   3.351
 3310SOL    HW1 9954   0.762   3.911   3.311
 3310SOL    HW2 9955   0.680   3.932   3.450
 3311SOL     OW 9956   0.075   4.069   1.895
 3311SOL    HW1 9957  -0.017   4.041   1.866
 3311SOL    HW2 9958   0.106   4.146   1.839
 3312SOL     OW 9959   1.440   4.580   3.260
 3312SOL    HW1 9960   1.383   4.632   3.197
 3312SOL    HW2 9961   1.536   4.592   3.236
 3313SOL     OW 9962   0.072   3.890   2.180
 3313SOL    HW1 9963   0.055   3.973   2.126
 3313SOL    HW2 9964   0.162   3.853   2.158
 3314SOL     OW 9965   1.183   5.059   1.981
 3314SOL    HW1 9966   1.084   5.048   1.983
 3314SOL    HW2 9967   1.217   5.074   2.074
 3315SOL     OW 9968   0.613   4.566   3.293
 3315SOL    HW1 9969   0.669   4.647   3.276
 3315SOL    HW2 9970   0.672   4.486   3.296
 3316SOL     OW 9971   1.493   5.491   2.821
 3316SOL    HW1 9972   1.526   5.555   2.752
 3316SOL    HW2 9973   1.559   5.485   2.896
 3317SOL     OW 9974   0.716   4.289   3.570
 3317SOL    HW1 9975   0.735   4.354   3.644
 3317SOL    HW2 9976   0.776   4.209   3.579
 3318SOL     OW 9977   1.450   4.944   3.495
 3318SOL    HW1 9978   1.441   4.934   3.594
 3318SOL    HW2 9979   1.546   4.937   3.469
 3319SOL     OW 9980   0.390   5.465   3.422
 3319SOL    HW1 9981   0.299   5.506   3.420
 3319SOL    HW2 9982   0.383   5.371   3.454
 3320SOL     OW 9983   1.674   4.607   3.116
 3320SOL    HW1 9984   1.647   4.518   3.079
 3320SOL    HW2 9985   1.675   4.675   3.043
 3321SOL     OW 9986   1.225   4.049   2.311
 3321SOL    HW1 9987   1.290   3.975   2.300
 3321SOL    HW2 9988   1.245   4.099   2.395
 3322SOL     OW 9989   0.594   4.469   2.514
 3322SOL    HW1 9990   0.644   4.554   2.495
 3322SOL    HW2 9991   0.506   4.471   2.466
 3323SOL     OW 9992   1.777   4.066   3.504
 3323SOL    HW1 9993   1.760   4.097   3.410
 3323SOL    HW2 9994   1.693   4.029   3.542
 3324SOL     OW 9995   1.730   4.658   3.379
 3324SOL    HW1 9996   1.768   4.749   3.394
 3324SOL    HW2 9997   1.722   4.641   3.280
 3325SOL     OW 9998   0.859   5.098   1.878
 3325SOL    HW1 9999   0.813   5.113   1.966
 3325SOL    HW210000   0.903   5.183   1.848
 3326SOL     OW10001   0.661   5.514   2.815
 3326SOL    HW110002   0.615   5.602   2.802
 3326SOL    HW210003   0.760   5.526   2.808
 3327SOL     OW10004   0.859   4.680   2.723
 3327SOL    HW110005   0.913   4.611   2.771
 3327SOL    HW210006   0.827   4.749   2.789
 3328SOL     OW10007   1.083   4.708   1.949
 3328SOL    HW110008   1.060   4.761   1.867
 3328SOL    HW210009   1.164   4.652   1.930
 3329SOL     OW10010   1.861   5.293   2.713
 3329SOL    HW110011   1.790   5.281   2.643
 3329SOL    HW210012   1.862   5.214   2.773
 3330SOL     OW10013   0.221   5.038   3.706
 3330SOL    HW110014   0.156   4.965   3.685
 3330SOL    HW210015   0.225   5.052   3.804
 3331SOL     OW10016   0.079   4.964   2.515
 3331SOL    HW110017   0.078   4.917   2.603
 3331SOL    HW210018   0.161   4.936   2.464
 3332SOL     OW10019   0.672   5.115   3.486
 3332SOL    HW110020   0.594   5.065   3.524
 3332SOL    HW210021   0.669   5.210   3.517
 3333SOL     OW10022   1.824   3.916   3.089
 3333SOL    HW110023   1.820   3.826   3.133
 3333SOL    HW210024   1.827   3.905   2.990
 3334SOL     OW10025   0.428   4.148   2.382
 3334SOL    HW110026   0.458   4.076   2.320
 3334SOL    HW210027   0.389   4.108   2.465
 3335SOL     OW10028   1.705   5.211   2.966
 3335SOL    HW110029   1.612   5.186   2.939
 3335SOL    HW210030   1.731   5.161   3.048
 3336SOL     OW10031   0.317   4.271   3.142
 3336SOL    HW110032   0.355   4.212   3.214
 3336SOL    HW210033   0.357   4.245   3.054
 3337SOL     OW10034   0.812   5.310   2.549
 3337SOL    HW110035   0.844   5.320   2.455
 3337SOL    HW210036   0.733   5.248   2.551
 3338SOL     OW10037   1.424   3.938   2.974
 3338SOL    HW110038   1.476   3.873   3.029
 3338SOL    HW210039   1.375   4.001   3.035
 3339SOL     OW10040   1.001   3.758   3.016
 3339SOL    HW110041   0.938   3.686   2.985
 3339SOL    HW210042   1.094   3.722   3.016
 3340SOL     OW10043   0.770   5.054   2.163
 3340SOL    HW110044   0.724   4.967   2.180
 3340SOL    HW210045   0.861   5.051   2.204
 3341SOL     OW10046   0.618   5.291   3.146
 3341SOL    HW110047   0.613   5.373   3.203
 3341SOL    HW210048   0.707   5.288   3.101
 3342SOL     OW10049   1.352   3.776   2.030
 3342SOL    HW110050   1.387   3.735   1.946
 3342SOL    HW210051   1.262   3.738   2.050
 3343SOL     OW10052   1.300   4.177   2.553
 3343SOL    HW110053   1.241   4.257   2.557
 3343SOL    HW210054   1.315   4.142   2.646
 3344SOL     OW10055   1.593   3.945   2.744
 3344SOL    HW110056   1.509   3.944   2.798
 3344SOL    HW210057   1.595   4.028   2.688
 3345SOL     OW10058   0.039   4.801   2.162
 3345SOL    HW110059   0.138   4.790   2.153
 3345SOL    HW210060  -0.001   4.715   2.194
 3346SOL     OW10061   0.875   5.370   2.199
 3346SOL    HW110062   0.798   5.335   2.145
 3346SOL    HW210063   0.843   5.441   2.261
 3347SOL     OW10064   0.230   4.352   3.837
 3347SOL    HW110065   0.137   4.350   3.874
 3347SOL    HW210066   0.231   4.313   3.745
 3348SOL     OW10067   0.225   3.999   4.720
 3348SOL    HW110068   0.260   3.982   4.812
 3348SOL    HW210069   0.137   3.954   4.708
 3349SOL     OW10070   0.019   4.092   4.371
 3349SOL    HW110071  -0.063   4.135   4.410
 3349SOL    HW210072  -0.009   4.019   4.308
 3350SOL     OW10073   0.569   4.999   4.889
 3350SOL    HW110074   0.476   4.992   4.852
 3350SOL    HW210075   0.580   5.088   4.933
 3351SOL     OW10076   1.555   5.235   4.427
 3351SOL    HW110077   1.498   5.219   4.508
 3351SOL    HW210078   1.496   5.245   4.347
 3352SOL     OW10079   1.135   4.427   4.441
 3352SOL    HW110080   1.192   4.505   4.416
 3352SOL    HW210081   1.075   4.453   4.517
 3353SOL     OW10082   1.755   4.331   3.955
 3353SOL    HW110083   1.743   4.318   3.856
 3353SOL    HW210084   1.725   4.250   4.004
 3354SOL     OW10085   0.768   4.868   4.747
 3354SOL    HW110086   0.690   4.885   4.807
 3354SOL    HW210087   0.802   4.955   4.711
 3355SOL     OW10088   0.850   4.522   5.547
 3355SOL    HW110089   0.846   4.598   5.612
 3355SOL    HW210090   0.872   4.558   5.456
 3356SOL     OW10091   0.685   4.736   4.389
 3356SOL    HW110092   0.754   4.720   4.459
 3356SOL    HW210093   0.612   4.793   4.427
 3357SOL     OW10094   0.686   4.885   5.527
 3357SOL    HW110095   0.746   4.964   5.541
 3357SOL    HW210096   0.600   4.916   5.486
 3358SOL     OW10097   0.335   5.159   4.785
 3358SOL    HW110098   0.257   5.128   4.732
 3358SOL    HW210099   0.393   5.217   4.728
 3359SOL     OW10100   1.460   5.229   5.063
 3359SOL    HW110101   1.484   5.323   5.089
 3359SOL    HW210102   1.444   5.175   5.145
 3360SOL     OW10103   0.438   4.116   5.223
 3360SOL    HW110104   0.520   4.060   5.232
 3360SOL    HW210105   0.357   4.058   5.227
 3361SOL     OW10106   1.603   4.171   4.461
 3361SOL    HW110107   1.529   4.217   4.411
 3361SOL    HW210108   1.654   4.239   4.514
 3362SOL     OW10109   0.231   5.437   4.207
 3362SOL    HW110110   0.265   5.514   4.261
 3362SOL    HW210111   0.275   5.437   4.117
 3363SOL     OW10112   1.127   5.065   5.414
 3363SOL    HW110113   1.174   5.065   5.502
 3363SOL    HW210114   1.079   4.978   5.403
 3364SOL     OW10115   0.230   5.158   4.262
 3364SOL    HW110116   0.204   5.254   4.262
 3364SOL    HW210117   0.159   5.104   4.307
 3365SOL     OW10118   0.240   4.815   4.610
 3365SOL    HW110119   0.254   4.731   4.662
 3365SOL    HW210120   0.185   4.879   4.665
 3366SOL     OW10121   0.620   5.510   5.163
 3366SOL    HW110122   0.528   5.493   5.198
 3366SOL    HW210123   0.648   5.602   5.189
 3367SOL     OW10124   0.606   4.688   3.847
 3367SOL    HW110125   0.613   4.772   3.793
 3367SOL    HW210126   0.652   4.701   3.935
 3368SOL     OW10127   1.594   3.838   5.204
 3368SOL    HW110128   1.576   3.905   5.132
 3368SOL    HW210129   1.591   3.884   5.293
 3369SOL     OW10130   0.122   4.367   4.287
 3369SOL    HW110131   0.077   4.279   4.304
 3369SOL    HW210132   0.121   4.421   4.371
 3370SOL     OW10133   1.842   5.491   4.083
 3370SOL    HW110134   1.896   5.462   4.163
 3370SOL    HW210135   1.872   5.581   4.054
 3371SOL     OW10136   0.027   5.320   3.841
 3371SOL    HW110137   0.008   5.224   3.862
 3371SOL    HW210138  -0.006   5.378   3.916
 3372SOL     OW10139   1.689   4.646   4.336
 3372SOL    HW110140   1.784   4.617   4.344
 3372SOL    HW210141   1.681   4.711   4.261
 3373SOL     OW10142   1.641   4.832   4.156
 3373SOL    HW110143   1.727   4.834   4.104
 3373SOL    HW210144   1.655   4.879   4.244
 3374SOL     OW10145   0.113   4.461   5.321
 3374SOL    HW110146   0.201   4.448   5.366
 3374SOL    HW210147   0.100   4.558   5.299
 3375SOL     OW10148   0.613   5.089   4.450
 3375SOL    HW110149   0.564   5.002   4.459
 3375SOL    HW210150   0.590   5.132   4.363
 3376SOL     OW10151   1.293   4.952   5.147
 3376SOL    HW110152   1.330   4.879   5.089
 3376SOL    HW210153   1.345   4.957   5.232
 3377SOL     OW10154   0.809   3.728   4.226
 3377SOL    HW110155   0.849   3.819   4.217
 3377SOL    HW210156   0.709   3.736   4.232
 3378SOL     OW10157   0.197   4.700   4.988
 3378SOL    HW110158   0.286   4.655   4.974
 3378SOL    HW210159   0.124   4.635   4.969
 3379SOL     OW10160   1.525   4.723   3.914
 3379SOL    HW110161   1.462   4.647   3.927
 3379SOL    HW210162   1.573   4.741   4.000
 3380SOL     OW10163   1.187   5.516   5.340
 3380SOL    HW110164   1.211   5.576   5.264
 3380SOL    HW210165   1.194   5.421   5.310
 3381SOL     OW10166   0.317   3.975   5.525
 3381SOL    HW110167   0.388   4.046   5.531
 3381SOL    HW210168   0.229   4.014   5.553
 3382SOL     OW10169   1.466   5.141   4.677
 3382SOL    HW110170   1.407   5.147   4.757
 3382SOL    HW210171   1.451   5.053   4.631
 3383SOL     OW10172   1.667   5.438   4.296
 3383SOL    HW110173   1.626   5.415   4.208
 3383SOL    HW210174   1.649   5.364   4.361
 3384SOL     OW10175   0.598   4.453   3.994
 3384SOL    HW110176   0.622   4.522   3.926
 3384SOL    HW210177   0.520   4.486   4.048
 3385SOL     OW10178   1.281   4.069   4.668
 3385SOL    HW110179   1.195   4.019   4.655
 3385SOL    HW210180   1.343   4.015   4.724
 3386SOL     OW10181   1.576   5.386   4.031
 3386SOL    HW110182   1.665   5.432   4.034
 3386SOL    HW210183   1.555   5.362   3.936
 3387SOL     OW10184   0.807   4.329   5.189
 3387SOL    HW110185   0.760   4.326   5.278
 3387SOL    HW210186   0.756   4.274   5.123
 3388SOL     OW10187   1.394   4.193   5.398
 3388SOL    HW110188   1.374   4.236   5.486
 3388SOL    HW210189   1.472   4.131   5.407
 3389SOL     OW10190   0.973   4.614   5.296
 3389SOL    HW110191   1.019   4.530   5.267
 3389SOL    HW210192   0.917   4.648   5.221
 3390SOL     OW10193   0.991   4.134   4.966
 3390SOL    HW110194   0.914   4.168   5.020
 3390SOL    HW210195   0.957   4.083   4.887
 3391SOL     OW10196   1.041   4.425   4.153
 3391SOL    HW110197   1.067   4.421   4.249
 3391SOL    HW210198   0.956   4.374   4.139
 3392SOL     OW10199   0.076   4.535   4.513
 3392SOL    HW110200   0.175   4.523   4.522
 3392SOL    HW210201   0.052   4.630   4.534
 3393SOL     OW10202   0.130   5.545   5.295
 3393SOL    HW110203   0.120   5.530   5.394
 3393SOL    HW210204   0.044   5.581   5.259
 3394SOL     OW10205   0.865   4.072   3.919
 3394SOL    HW110206   0.924   4.135   3.870
 3394SOL    HW210207   0.884   3.978   3.890
 3395SOL     OW10208   1.719   4.309   5.555
 3395SOL    HW110209   1.693   4.398   5.519
 3395SOL    HW210210   1.717   4.241   5.482
 3396SOL     OW10211   1.362   4.868   4.269
 3396SOL    HW110212   1.445   4.839   4.221
 3396SOL    HW210213   1.313   4.935   4.213
 3397SOL     OW10214   0.550   3.920   4.609
 3397SOL    HW110215   0.545   3.915   4.709
 3397SOL    HW210216   0.552   4.016   4.580
 3398SOL     OW10217   1.008   5.180   4.201
 3398SOL    HW110218   0.962   5.252   4.149
 3398SOL    HW210219   1.004   5.200   4.299
 3399SOL     OW10220   0.351   5.525   4.577
 3399SOL    HW110221   0.401   5.439   4.583
 3399SOL    HW210222   0.416   5.602   4.574
 3400SOL     OW10223   1.795   4.790   4.597
 3400SOL    HW110224   1.733   4.775   4.521
 3400SOL    HW210225   1.743   4.801   4.682
 3401SOL     OW10226   1.227   5.274   5.230
 3401SOL    HW110227   1.233   5.197   5.294
 3401SOL    HW210228   1.175   5.248   5.150
 3402SOL     OW10229   0.321   4.667   3.966
 3402SOL    HW110230   0.403   4.706   3.924
 3402SOL    HW210231   0.294   4.585   3.917
 3403SOL     OW10232   1.458   4.459   4.452
 3403SOL    HW110233   1.453   4.394   4.527
 3403SOL    HW210234   1.538   4.518   4.465
 3404SOL     OW10235   0.461   4.990   5.451
 3404SOL    HW110236   0.411   4.991   5.365
 3404SOL    HW210237   0.398   4.972   5.527
 3405SOL     OW10238   1.111   5.500   3.961
 3405SOL    HW110239   1.051   5.438   4.011
 3405SOL    HW210240   1.142   5.456   3.876
 3406SOL     OW10241   0.202   4.009   5.222
 3406SOL    HW110242   0.122   4.069   5.209
 3406SOL    HW210243   0.192   3.960   5.308
 3407SOL     OW10244   1.632   5.101   3.805
 3407SOL    HW110245   1.600   5.195   3.795
 3407SOL    HW210246   1.556   5.038   3.793
 3408SOL     OW10247   0.464   5.467   4.047
 3408SOL    HW110248   0.497   5.506   4.133
 3408SOL    HW210249   0.540   5.460   3.982
 3409SOL     OW10250   1.400   3.831   4.150
 3409SOL    HW110251   1.376   3.794   4.060
 3409SOL    HW210252   1.499   3.847   4.154
 3410SOL     OW10253   0.249   5.509   4.965
 3410SOL    HW110254   0.306   5.444   5.015
 3410SOL    HW210255   0.233   5.476   4.872
 3411SOL     OW10256   0.940   5.422   4.628
 3411SOL    HW110257   1.020   5.365   4.649
 3411SOL    HW210258   0.891   5.382   4.551
 3412SOL     OW10259   0.382   4.424   4.204
 3412SOL    HW110260   0.427   4.334   4.201
 3412SOL    HW210261   0.288   4.413   4.237
 3413SOL     OW10262   1.547   3.946   5.453
 3413SOL    HW110263   1.542   3.983   5.545
 3413SOL    HW210264   1.475   3.877   5.441
 3414SOL     OW10265   0.614   3.846   3.841
 3414SOL    HW110266   0.712   3.824   3.848
 3414SOL    HW210267   0.583   3.829   3.748
 3415SOL     OW10268   0.781   3.988   5.473
 3415SOL    HW110269   0.848   3.927   5.516
 3415SOL    HW210270   0.708   4.007   5.538
 3416SOL     OW10271   0.888   5.238   4.919
 3416SOL    HW110272   0.865   5.213   4.825
 3416SOL    HW210273   0.949   5.169   4.958
 3417SOL     OW10274   1.351   4.314   5.157
 3417SOL    HW110275   1.379   4.271   5.242
 3417SOL    HW210276   1.376   4.410   5.158
 3418SOL     OW10277   0.803   5.126   4.648
 3418SOL    HW110278   0.893   5.140   4.606
 3418SOL    HW210279   0.732   5.128   4.577
 3419SOL     OW10280   0.922   4.227   4.623
 3419SOL    HW110281   0.897   4.218   4.527
 3419SOL    HW210282   0.970   4.145   4.654
 3420SOL     OW10283   0.539   3.788   4.236
 3420SOL    HW110284   0.458   3.789   4.294
 3420SOL    HW210285   0.542   3.871   4.181
 3421SOL     OW10286   1.434   4.912   3.765
 3421SOL    HW110287   1.466   4.836   3.822
 3421SOL    HW210288   1.342   4.939   3.795
 3422SOL     OW10289   0.297   3.759   3.895
 3422SOL    HW110290   0.346   3.843   3.874
 3422SOL    HW210291   0.359   3.694   3.940
 3423SOL     OW10292   0.935   3.960   4.204
 3423SOL    HW110293   0.887   4.001   4.126
 3423SOL    HW210294   1.034   3.958   4.185
 3424SOL     OW10295   1.076   4.407   5.188
 3424SOL    HW110296   0.996   4.346   5.191
 3424SOL    HW210297   1.157   4.354   5.164
 3425SOL     OW10298   1.227   5.294   4.517
 3425SOL    HW110299   1.248   5.368   4.452
 3425SOL    HW210300   1.295   5.294   4.590
 3426SOL     OW10301   0.459   4.876   4.465
 3426SOL    HW110302   0.388   4.849   4.530
 3426SOL    HW210303   0.433   4.848   4.372
 3427SOL     OW10304   1.271   5.521   4.315
 3427SOL    HW110305   1.315   5.585   4.251
 3427SOL    HW210306   1.221   5.573   4.385
 3428SOL     OW10307   1.032   4.273   3.740
 3428SOL    HW110308   0.991   4.355   3.701
 3428SOL    HW210309   1.096   4.299   3.813
 3429SOL     OW10310   0.078   4.280   5.110
 3429SOL    HW110311   0.170   4.279   5.069
 3429SOL    HW210312   0.072   4.354   5.177
 3430SOL     OW10313   0.561   3.946   4.871
 3430SOL    HW110314   0.599   3.862   4.908
 3430SOL    HW210315   0.473   3.965   4.915
 3431SOL     OW10316   0.866   4.178   4.366
 3431SOL    HW110317   0.834   4.250   4.304
 3431SOL    HW210318   0.890   4.097   4.313
 3432SOL     OW10319   1.017   3.763   4.477
 3432SOL    HW110320   0.945   3.768   4.408
 3432SOL    HW210321   0.993   3.694   4.546
 3433SOL     OW10322   1.429   4.897   4.591
 3433SOL    HW110323   1.374   4.813   4.584
 3433SOL    HW210324   1.455   4.926   4.499
 3434SOL     OW10325   1.466   4.314   4.716
 3434SOL    HW110326   1.436   4.219   4.723
 3434SOL    HW210327   1.539   4.330   4.782
 3435SOL     OW10328   1.857   4.557   4.101
 3435SOL    HW110329   1.899   4.493   4.165
 3435SOL    HW210330   1.819   4.506   4.023
 3436SOL     OW10331   0.488   5.109   3.898
 3436SOL    HW110332   0.401   5.094   3.945
 3436SOL    HW210333   0.471   5.135   3.803
 3437SOL     OW10334   1.664   5.004   4.381
 3437SOL    HW110335   1.763   5.012   4.395
 3437SOL    HW210336   1.619   5.088   4.412
 3438SOL     OW10337   1.390   4.299   3.802
 3438SOL    HW110338   1.336   4.278   3.883
 3438SOL    HW210339   1.481   4.258   3.811
 3439SOL     OW10340   0.527   3.980   4.052
 3439SOL    HW110341   0.554   3.921   3.977
 3439SOL    HW210342   0.527   4.075   4.021
 3440SOL     OW10343   1.754   4.947   5.312
 3440SOL    HW110344   1.845   4.908   5.299
 3440SOL    HW210345   1.762   5.043   5.336
 3441SOL     OW10346   1.064   5.071   5.064
 3441SOL    HW110347   0.984   5.048   5.119
 3441SOL    HW210348   1.147   5.045   5.113
 3442SOL     OW10349   1.592   5.353   5.349
 3442SOL    HW110350   1.619   5.387   5.259
 3442SOL    HW210351   1.671   5.315   5.395
 3443SOL     OW10352   1.111   4.919   4.824
 3443SOL    HW110353   1.071   4.963   4.905
 3443SOL    HW210354   1.070   4.956   4.741
 3444SOL     OW10355   1.638   4.823   4.803
 3444SOL    HW110356   1.643   4.904   4.862
 3444SOL    HW210357   1.552   4.825   4.752
 3445SOL     OW10358   0.915   3.813   5.126
 3445SOL    HW110359   0.940   3.793   5.031
 3445SOL    HW210360   0.987   3.869   5.168
 3446SOL     OW10361   0.980   4.840   5.443
 3446SOL    HW110362   0.881   4.846   5.453
 3446SOL    HW210363   1.003   4.760   5.387
 3447SOL     OW10364   0.705   4.774   4.092
 3447SOL    HW110365   0.691   4.781   4.191
 3447SOL    HW210366   0.789   4.723   4.074
 3448SOL     OW10367   0.410   4.537   4.975
 3448SOL    HW110368   0.496   4.549   5.025
 3448SOL    HW210369   0.368   4.450   5.002
 3449SOL     OW10370   1.274   4.110   4.986
 3449SOL    HW110371   1.295   4.184   5.050
 3449SOL    HW210372   1.185   4.127   4.943
 3450SOL     OW10373   0.064   5.288   5.055
 3450SOL    HW110374   0.018   5.370   5.021
 3450SOL    HW210375   0.162   5.307   5.064
 3451SOL     OW10376   0.367   4.824   4.225
 3451SOL    HW110377   0.360   4.907   4.169
 3451SOL    HW210378   0.371   4.744   4.165
 3452SOL     OW10379   0.566   4.261   4.589
 3452SOL    HW110380   0.578   4.327   4.515
 3452SOL    HW210381   0.612   4.295   4.672
 3453SOL     OW10382   1.252   5.072   4.112
 3453SOL    HW110383   1.302   5.149   4.152
 3453SOL    HW210384   1.157   5.074   4.144
 3454SOL     OW10385   1.272   5.169   4.866
 3454SOL    HW110386   1.319   5.182   4.953
 3454SOL    HW210387   1.206   5.095   4.875
 3455SOL     OW10388   1.582   4.363   4.196
 3455SOL    HW110389   1.551   4.424   4.269
 3455SOL    HW210390   1.632   4.415   4.127
 3456SOL     OW10391   0.354   5.234   5.053
 3456SOL    HW110392   0.333   5.190   4.966
 3456SOL    HW210393   0.451   5.260   5.056
 3457SOL     OW10394   0.402   4.475   5.322
 3457SOL    HW110395   0.470   4.530   5.275
 3457SOL    HW210396   0.442   4.387   5.349
 3458SOL     OW10397   1.587   4.503   5.394
 3458SOL    HW110398   1.495   4.541   5.389
 3458SOL    HW210399   1.647   4.550   5.329
 3459SOL     OW10400   1.013   3.829   5.494
 3459SOL    HW110401   1.019   3.914   5.442
 3459SOL    HW210402   1.045   3.753   5.437
 3460SOL     OW10403   0.504   3.774   5.464
 3460SOL    HW110404   0.462   3.717   5.394
 3460SOL    HW210405   0.438   3.843   5.496
 3461SOL     OW10406   0.573   4.594   4.753
 3461SOL    HW110407   0.617   4.683   4.744
 3461SOL    HW210408   0.510   4.594   4.830
 3462SOL     OW10409   1.360   4.586   4.769
 3462SOL    HW110410   1.285   4.586   4.703
 3462SOL    HW210411   1.397   4.494   4.778
 3463SOL     OW10412   1.209   4.249   3.999
 3463SOL    HW110413   1.222   4.165   4.053
 3463SOL    HW210414   1.180   4.323   4.059
 3464SOL     OW10415   0.307   3.937   4.955
 3464SOL    HW110416   0.284   3.974   5.045
 3464SOL    HW210417   0.277   3.842   4.949
 3465SOL     OW10418   0.037   5.034   5.006
 3465SOL    HW110419   0.090   4.985   5.074
 3465SOL    HW210420   0.059   5.132   5.011
 3466SOL     OW10421   0.732   4.358   4.788
 3466SOL    HW110422   0.791   4.332   4.712
 3466SOL    HW210423   0.704   4.454   4.777
 3467SOL     OW10424   1.728   4.659   5.578
 3467SOL    HW110425   1.682   4.652   5.489
 3467SOL    HW210426   1.666   4.703   5.644
 3468SOL     OW10427   0.307   3.787   4.342
 3468SOL    HW110428   0.296   3.881   4.375
 3468SOL    HW210429   0.302   3.724   4.419
 3469SOL     OW10430   1.622   4.091   4.098
 3469SOL    HW110431   1.624   4.015   4.162
 3469SOL    HW210432   1.574   4.168   4.138
 3470SOL     OW10433   1.023   4.490   4.690
 3470SOL    HW110434   1.038   4.511   4.786
 3470SOL    HW210435   0.993   4.395   4.681
 3471SOL     OW10436   0.980   5.297   5.424
 3471SOL    HW110437   0.960   5.341   5.336
 3471SOL    HW210438   1.019   5.206   5.408
 3472SOL     OW10439   1.859   5.242   5.329
 3472SOL    HW110440   1.873   5.269   5.234
 3472SOL    HW210441   1.942   5.264   5.382
 3473SOL     OW10442   0.350   4.622   5.528
 3473SOL    HW110443   0.426   4.666   5.576
 3473SOL    HW210444   0.385   4.575   5.446
 3474SOL     OW10445   1.540   3.998   3.849
 3474SOL    HW110446   1.479   3.923   3.872
 3474SOL    HW210447   1.562   4.050   3.932
 3475SOL     OW10448   1.303   4.562   3.766
 3475SOL    HW110449   1.337   4.469   3.781
 3475SOL    HW210450   1.321   4.589   3.671
 3476SOL     OW10451   1.068   5.057   4.573
 3476SOL    HW110452   1.075   4.973   4.518
 3476SOL    HW210453   1.130   5.126   4.537
 3477SOL     OW10454   0.319   4.534   4.673
 3477SOL    HW110455   0.412   4.570   4.678
 3477SOL    HW210456   0.313   4.449   4.725
 3478SOL     OW10457   0.339   4.233   4.730
 3478SOL    HW110458   0.287   4.150   4.713
 3478SOL    HW210459   0.416   4.238   4.666
 3479SOL     OW10460   1.138   4.104   5.402
 3479SOL    HW110461   1.093   4.167   5.466
 3479SOL    HW210462   1.231   4.135   5.385
 3480SOL     OW10463   1.160   3.931   5.201
 3480SOL    HW110464   1.160   3.995   5.278
 3480SOL    HW210465   1.188   3.979   5.118
 3481SOL     OW10466   0.008   5.050   3.924
 3481SOL    HW110467  -0.085   5.071   3.893
 3481SOL    HW210468   0.018   4.951   3.937
 3482SOL     OW10469   0.088   5.525   4.651
 3482SOL    HW110470   0.046   5.439   4.624
 3482SOL    HW210471   0.182   5.528   4.617
 3483SOL     OW10472   0.504   5.292   4.634
 3483SOL    HW110473   0.570   5.366   4.643
 3483SOL    HW210474   0.548   5.213   4.592
 3484SOL     OW10475   1.002   4.520   4.962
 3484SOL    HW110476   1.043   4.488   5.048
 3484SOL    HW210477   0.906   4.493   4.959
 3485SOL     OW10478   0.040   4.268   4.838
 3485SOL    HW110479   0.125   4.235   4.797
 3485SOL    HW210480   0.053   4.283   4.936
 3486SOL     OW10481   0.189   4.244   5.446
 3486SOL    HW110482   0.248   4.204   5.376
 3486SOL    HW210483   0.131   4.315   5.405
 3487SOL     OW10484   1.369   4.674   5.384
 3487SOL    HW110485   1.408   4.763   5.404
 3487SOL    HW210486   1.379   4.654   5.287
 3488SOL     OW10487   0.815   4.296   4.049
 3488SOL    HW110488   0.822   4.207   4.003
 3488SOL    HW210489   0.721   4.330   4.041
 3489SOL     OW10490   1.657   4.328   4.930
 3489SOL    HW110491   1.619   4.259   4.992
 3489SOL    HW210492   1.739   4.292   4.886
 3490SOL     OW10493   0.252   5.288   5.468
 3490SOL    HW110494   0.222   5.345   5.544
 3490SOL    HW210495   0.245   5.191   5.494
 3491SOL     OW10496   0.671   4.188   4.993
 3491SOL    HW110497   0.637   4.099   4.963
 3491SOL    HW210498   0.697   4.242   4.913
 3492SOL     OW10499   0.930   5.402   5.189
 3492SOL    HW110500   0.906   5.384   5.094
 3492SOL    HW210501   0.960   5.496   5.199
 3493SOL     OW10502   0.473   4.224   3.915
 3493SOL    HW110503   0.534   4.304   3.919
 3493SOL    HW210504   0.378   4.255   3.922
 3494SOL     OW10505   0.159   4.861   5.190
 3494SOL    HW110506   0.181   4.800   5.266
 3494SOL    HW210507   0.169   4.812   5.104
 3495SOL     OW10508   1.347   4.783   4.958
 3495SOL    HW110509   1.371   4.720   4.884
 3495SOL    HW210510   1.257   4.823   4.940
 3496SOL     OW10511   1.302   4.579   4.033
 3496SOL    HW110512   1.216   4.548   4.075
 3496SOL    HW210513   1.298   4.565   3.934
 3497SOL     OW10514   1.759   5.471   4.878
 3497SOL    HW110515   1.820   5.501   4.805
 3497SOL    HW210516   1.721   5.382   4.856
 3498SOL     OW10517   1.252   5.455   4.852
 3498SOL    HW110518   1.336   5.460   4.798
 3498SOL    HW210519   1.229   5.359   4.870
 3499SOL     OW10520   0.083   4.982   4.746
 3499SOL    HW110521   0.078   4.981   4.846
 3499SOL    HW210522   0.000   4.941   4.708
 3500SOL     OW10523   0.688   5.386   5.440
 3500SOL    HW110524   0.632   5.467   5.449
 3500SOL    HW210525   0.740   5.390   5.354
 3501SOL     OW10526   1.726   3.859   4.247
 3501SOL    HW110527   1.799   3.842   4.180
 3501SOL    HW210528   1.695   3.772   4.285
 3502SOL     OW10529   1.388   5.297   4.201
 3502SOL    HW110530   1.455   5.309   4.127
 3502SOL    HW210531   1.348   5.386   4.224
 3503SOL     OW10532   0.130   5.518   5.575
 3503SOL    HW110533   0.089   5.444   5.628
 3503SOL    HW210534   0.194   5.569   5.633
 3504SOL     OW10535   1.280   4.651   4.396
 3504SOL    HW110536   1.340   4.570   4.398
 3504SOL    HW210537   1.320   4.720   4.336
 3505SOL     OW10538   0.830   4.997   5.146
 3505SOL    HW110539   0.825   5.030   5.241
 3505SOL    HW210540   0.744   5.016   5.100
 3506SOL     OW10541   0.672   5.340   3.878
 3506SOL    HW110542   0.681   5.350   3.779
 3506SOL    HW210543   0.632   5.251   3.899
 3507SOL     OW10544   1.650   5.444   5.118
 3507SOL    HW110545   1.703   5.454   5.034
 3507SOL    HW210546   1.623   5.534   5.152
 3508SOL     OW10547   1.841   3.899   4.687
 3508SOL    HW110548   1.880   3.814   4.651
 3508SOL    HW210549   1.743   3.901   4.668
 3509SOL     OW10550   0.263   4.050   4.444
 3509SOL    HW110551   0.184   4.101   4.410
 3509SOL    HW210552   0.254   4.035   4.542
 3510SOL     OW10553   1.194   5.336   3.755
 3510SOL    HW110554   1.200   5.243   3.792
 3510SOL    HW210555   1.135   5.336   3.675
 3511SOL     OW10556   0.822   4.726   5.096
 3511SOL    HW110557   0.862   4.725   5.004
 3511SOL    HW210558   0.832   4.818   5.136
 3512SOL     OW10559   0.916   4.634   4.015
 3512SOL    HW110560   0.979   4.672   3.947
 3512SOL    HW210561   0.956   4.551   4.054
 3513SOL     OW10562   1.504   5.331   3.768
 3513SOL    HW110563   1.412   5.368   3.775
 3513SOL    HW210564   1.542   5.351   3.678
 3514SOL     OW10565   0.372   5.012   5.214
 3514SOL    HW110566   0.359   5.105   5.180
 3514SOL    HW210567   0.288   4.960   5.201
 3515SOL     OW10568   1.614   5.016   5.013
 3515SOL    HW110569   1.674   5.019   5.093
 3515SOL    HW210570   1.539   5.080   5.026
 3516SOL     OW10571   1.039   4.822   4.420
 3516SOL    HW110572   0.969   4.775   4.474
 3516SOL    HW210573   1.098   4.754   4.377
 3517SOL     OW10574   1.014   3.960   4.695
 3517SOL    HW110575   1.006   3.924   4.602
 3517SOL    HW210576   1.012   3.884   4.760
 3518SOL     OW10577   0.590   5.211   4.215
 3518SOL    HW110578   0.632   5.153   4.145
 3518SOL    HW210579   0.546   5.290   4.171
 3519SOL     OW10580   1.709   4.109   5.105
 3519SOL    HW110581   1.782   4.178   5.109
 3519SOL    HW210582   1.737   4.034   5.046
 3520SOL     OW10583   0.255   5.072   4.014
 3520SOL    HW110584   0.159   5.073   3.987
 3520SOL    HW210585   0.267   5.125   4.098
 3521SOL     OW10586   0.105   4.737   5.450
 3521SOL    HW110587   0.028   4.704   5.504
 3521SOL    HW210588   0.190   4.707   5.492
 3522SOL     OW10589   0.672   3.927   5.213
 3522SOL    HW110590   0.762   3.911   5.173
 3522SOL    HW210591   0.680   3.932   5.312
 3523SOL     OW10592   0.075   4.069   3.757
 3523SOL    HW110593  -0.017   4.041   3.728
 3523SOL    HW210594   0.106   4.146   3.701
 3524SOL     OW10595   1.440   4.580   5.122
 3524SOL    HW110596   1.383   4.632   5.059
 3524SOL    HW210597   1.536   4.592   5.098
 3525SOL     OW10598   0.072   3.890   4.042
 3525SOL    HW110599   0.055   3.973   3.988
 3525SOL    HW210600   0.162   3.853   4.020
 3526SOL     OW10601   1.183   5.059   3.843
 3526SOL    HW110602   1.084   5.048   3.845
 3526SOL    HW210603   1.217   5.074   3.936
 3527SOL     OW10604   0.613   4.566   5.155
 3527SOL    HW110605   0.669   4.647   5.138
 3527SOL    HW210606   0.672   4.486   5.158
 3528SOL     OW10607   1.493   5.491   4.683
 3528SOL    HW110608   1.526   5.555   4.614
 3528SOL    HW210609   1.559   5.485   4.758
 3529SOL     OW10610   0.716   4.289   5.432
 3529SOL    HW110611   0.735   4.354   5.506
 3529SOL    HW210612   0.776   4.209   5.441
 3530SOL     OW10613   1.450   4.944   5.357
 3530SOL    HW110614   1.441   4.934   5.456
 3530SOL    HW210615   1.546   4.937   5.331
 3531SOL     OW10616   0.390   5.465   5.284
 3531SOL    HW110617   0.299   5.506   5.282
 3531SOL    HW210618   0.383   5.371   5.316
 3532SOL     OW10619   1.674   4.607   4.978
 3532SOL    HW110620   1.647   4.518   4.941
 3532SOL    HW210621   1.675   4.675   4.905
 3533SOL     OW10622   1.225   4.049   4.173
 3533SOL    HW110623   1.290   3.975   4.162
 3533SOL    HW210624   1.245   4.099   4.257
 3534SOL     OW10625   0.594   4.469   4.376
 3534SOL    HW110626   0.644   4.554   4.357
 3534SOL    HW210627   0.506   4.471   4.328
 3535SOL     OW10628   1.777   4.066   5.366
 3535SOL    HW110629   1.760   4.097   5.272
 3535SOL    HW210630   1.693   4.029   5.404
 3536SOL     OW10631   1.730   4.658   5.241
 3536SOL    HW110632   1.768   4.749   5.256
 3536SOL    HW210633   1.722   4.641   5.142
 3537SOL     OW10634   0.859   5.098   3.740
 3537SOL    HW110635   0.813   5.113   3.828
 3537SOL    HW210636   0.903   5.183   3.710
 3538SOL     OW10637   0.661   5.514   4.677
 3538SOL    HW110638   0.615   5.602   4.664
 3538SOL    HW210639   0.760   5.526   4.670
 3539SOL     OW10640   0.859   4.680   4.585
 3539SOL    HW110641   0.913   4.611   4.633
 3539SOL    HW210642   0.827   4.749   4.651
 3540SOL     OW10643   1.083   4.708   3.811
 3540SOL    HW110644   1.060   4.761   3.729
 3540SOL    HW210645   1.164   4.652   3.792
 3541SOL     OW10646   1.861   5.293   4.575
 3541SOL    HW110647   1.790   5.281   4.505
 3541SOL    HW210648   1.862   5.214   4.635
 3542SOL     OW10649   0.221   5.038   5.568
 3542SOL    HW110650   0.156   4.965   5.547
 3542SOL    HW210651   0.225   5.052   5.666
 3543SOL     OW10652   0.079   4.964   4.377
 3543SOL    HW110653   0.078   4.917   4.465
 3543SOL    HW210654   0.161   4.936   4.326
 3544SOL     OW10655   0.672   5.115   5.348
 3544SOL    HW110656   0.594   5.065   5.386
 3544SOL    HW210657   0.669   5.210   5.379
 3545SOL     OW10658   1.824   3.916   4.951
 3545SOL    HW110659   1.820   3.826   4.995
 3545SOL    HW210660   1.827   3.905   4.852
 3546SOL     OW10661   0.428   4.148   4.244
 3546SOL    HW110662   0.458   4.076   4.182
 3546SOL    HW210663   0.389   4.108   4.327
 3547SOL     OW10664   1.705   5.211   4.828
 3547SOL    HW110665   1.612   5.186   4.801
 3547SOL    HW210666   1.731   5.161   4.910
 3548SOL     OW10667   0.317   4.271   5.004
 3548SOL    HW110668   0.355   4.212   5.076
 3548SOL    HW210669   0.357   4.245   4.916
 3549SOL     OW10670   0.812   5.310   4.411
 3549SOL    HW110671   0.844   5.320   4.317
 3549SOL    HW210672   0.733   5.248   4.413
 3550SOL     OW10673   1.424   3.938   4.836
 3550SOL    HW110674   1.476   3.873   4.891
 3550SOL    HW210675   1.375   4.001   4.897
 3551SOL     OW10676   1.001   3.758   4.878
 3551SOL    HW110677   0.938   3.686   4.847
 3551SOL    HW210678   1.094   3.722   4.878
 3552SOL     OW10679   0.770   5.054   4.025
 3552SOL    HW110680   0.724   4.967   4.042
 3552SOL    HW210681   0.861   5.051   4.066
 3553SOL     OW10682   0.618   5.291   5.008
 3553SOL    HW110683   0.613   5.373   5.065
 3553SOL    HW210684   0.707   5.288   4.963
 3554SOL     OW10685   1.352   3.776   3.892
 3554SOL    HW110686   1.387   3.735   3.808
 3554SOL    HW210687   1.262   3.738   3.912
 3555SOL     OW10688   1.300   4.177   4.415
 3555SOL    HW110689   1.241   4.257   4.419
 3555SOL    HW210690   1.315   4.142   4.508
 3556SOL     OW10691   1.593   3.945   4.606
 3556SOL    HW110692   1.509   3.944   4.660
 3556SOL    HW210693   1.595   4.028   4.550
 3557SOL     OW10694   0.039   4.801   4.024
 3557SOL    HW110695   0.138   4.790   4.015
 3557SOL    HW210696  -0.001   4.715   4.056
 3558SOL     OW10697   0.875   5.370   4.061
 3558SOL    HW110698   0.798   5.335   4.007
 3558SOL    HW210699   0.843   5.441   4.123
 3559SOL     OW10700   0.230   4.352   5.699
 3559SOL    HW110701   0.137   4.350   5.736
 3559SOL    HW210702   0.231   4.313   5.607
 3560SOL     OW10703   0.225   3.999   6.582
 3560SOL    HW110704   0.260   3.982   6.674
 3560SOL    HW210705   0.137   3.954   6.570
 3561SOL     OW10706   0.019   4.092   6.233
 3561SOL    HW110707  -0.063   4.135   6.272
 3561SOL    HW210708  -0.009   4.019   6.170
 3562SOL     OW10709   0.569   4.999   6.751
 3562SOL    HW110710   0.476   4.992   6.714
 3562SOL    HW210711   0.580   5.088   6.795
 3563SOL     OW10712   1.555   5.235   6.289
 3563SOL    HW110713   1.498   5.219   6.370
 3563SOL    HW210714   1.496   5.245   6.209
 3564SOL     OW10715   1.135   4.427   6.303
 3564SOL    HW110716   1.192   4.505   6.278
 3564SOL    HW210717   1.075   4.453   6.379
 3565SOL     OW10718   1.755   4.331   5.817
 3565SOL    HW110719   1.743   4.318   5.718
 3565SOL    HW210720   1.725   4.250   5.866
 3566SOL     OW10721   0.768   4.868   6.609
 3566SOL    HW110722   0.690   4.885   6.669
 3566SOL    HW210723   0.802   4.955   6.573
 3567SOL     OW10724   0.850   4.522   7.409
 3567SOL    HW110725   0.846   4.598   7.474
 3567SOL    HW210726   0.872   4.558   7.318
 3568SOL     OW10727   0.685   4.736   6.251
 3568SOL    HW110728   0.754   4.720   6.321
 3568SOL    HW210729   0.612   4.793   6.289
 3569SOL     OW10730   0.686   4.885   7.389
 3569SOL    HW110731   0.746   4.964   7.403
 3569SOL    HW210732   0.600   4.916   7.348
 3570SOL     OW10733   0.335   5.159   6.647
 3570SOL    HW110734   0.257   5.128   6.594
 3570SOL    HW210735   0.393   5.217   6.590
 3571SOL     OW10736   1.460   5.229   6.925
 3571SOL    HW110737   1.484   5.323   6.951
 3571SOL    HW210738   1.444   5.175   7.007
 3572SOL     OW10739   0.438   4.116   7.085
 3572SOL    HW110740   0.520   4.060   7.094
 3572SOL    HW210741   0.357   4.058   7.089
 3573SOL     OW10742   1.603   4.171   6.323
 3573SOL    HW110743   1.529   4.217   6.273
 3573SOL    HW210744   1.654   4.239   6.376
 3574SOL     OW10745   0.231   5.437   6.069
 3574SOL    HW110746   0.265   5.514   6.123
 3574SOL    HW210747   0.275   5.437   5.979
 3575SOL     OW10748   1.127   5.065   7.276
 3575SOL    HW110749   1.174   5.065   7.364
 3575SOL    HW210750   1.079   4.978   7.265
 3576SOL     OW10751   0.230   5.158   6.124
 3576SOL    HW110752   0.204   5.254   6.124
 3576SOL    HW210753   0.159   5.104   6.169
 3577SOL     OW10754   0.240   4.815   6.472
 3577SOL    HW110755   0.254   4.731   6.524
 3577SOL    HW210756   0.185   4.879   6.527
 3578SOL     OW10757   0.620   5.510   7.025
 3578SOL    HW110758   0.528   5.493   7.060
 3578SOL    HW210759   0.648   5.602   7.051
 3579SOL     OW10760   0.606   4.688   5.709
 3579SOL    HW110761   0.613   4.772   5.655
 3579SOL    HW210762   0.652   4.701   5.797
 3580SOL     OW10763   1.594   3.838   7.066
 3580SOL    HW110764   1.576   3.905   6.994
 3580SOL    HW210765   1.591   3.884   7.155
 3581SOL     OW10766   0.122   4.367   6.149
 3581SOL    HW110767   0.077   4.279   6.166
 3581SOL    HW210768   0.121   4.421   6.233
 3582SOL     OW10769   1.842   5.491   5.945
 3582SOL    HW110770   1.896   5.462   6.025
 3582SOL    HW210771   1.872   5.581   5.916
 3583SOL     OW10772   0.027   5.320   5.703
 3583SOL    HW110773   0.008   5.224   5.724
 3583SOL    HW210774  -0.006   5.378   5.778
 3584SOL     OW10775   1.689   4.646   6.198
 3584SOL    HW110776   1.784   4.617   6.206
 3584SOL    HW210777   1.681   4.711   6.123
 3585SOL     OW10778   1.641   4.832   6.018
 3585SOL    HW110779   1.727   4.834   5.966
 3585SOL    HW210780   1.655   4.879   6.106
 3586SOL     OW10781   0.113   4.461   7.183
 3586SOL    HW110782   0.201   4.448   7.228
 3586SOL    HW210783   0.100   4.558   7.161
 3587SOL     OW10784   0.613   5.089   6.312
 3587SOL    HW110785   0.564   5.002   6.321
 3587SOL    HW210786   0.590   5.132   6.225
 3588SOL     OW10787   1.293   4.952   7.009
 3588SOL    HW110788   1.330   4.879   6.951
 3588SOL    HW210789   1.345   4.957   7.094
 3589SOL     OW10790   0.809   3.728   6.088
 3589SOL    HW110791   0.849   3.819   6.079
 3589SOL    HW210792   0.709   3.736   6.094
 3590SOL     OW10793   0.197   4.700   6.850
 3590SOL    HW110794   0.286   4.655   6.836
 3590SOL    HW210795   0.124   4.635   6.831
 3591SOL     OW10796   1.525   4.723   5.776
 3591SOL    HW110797   1.462   4.647   5.789
 3591SOL    HW210798   1.573   4.741   5.862
 3592SOL     OW10799   1.187   5.516   7.202
 3592SOL    HW110800   1.211   5.576   7.126
 3592SOL    HW210801   1.194   5.421   7.172
 3593SOL     OW10802   0.317   3.975   7.387
 3593SOL    HW110803   0.388   4.046   7.393
 3593SOL    HW210804   0.229   4.014   7.415
 3594SOL     OW10805   1.466   5.141   6.539
 3594SOL    HW110806   1.407   5.147   6.619
 3594SOL    HW210807   1.451   5.053   6.493
 3595SOL     OW10808   1.667   5.438   6.158
 3595SOL    HW110809   1.626   5.415   6.070
 3595SOL    HW210810   1.649   5.364   6.223
 3596SOL     OW10811   0.598   4.453   5.856
 3596SOL    HW110812   0.622   4.522   5.788
 3596SOL    HW210813   0.520   4.486   5.910
 3597SOL     OW10814   1.281   4.069   6.530
 3597SOL    HW110815   1.195   4.019   6.517
 3597SOL    HW210816   1.343   4.015   6.586
 3598SOL     OW10817   1.576   5.386   5.893
 3598SOL    HW110818   1.665   5.432   5.896
 3598SOL    HW210819   1.555   5.362   5.798
 3599SOL     OW10820   0.807   4.329   7.051
 3599SOL    HW110821   0.760   4.326   7.140
 3599SOL    HW210822   0.756   4.274   6.985
 3600SOL     OW10823   1.394   4.193   7.260
 3600SOL    HW110824   1.374   4.236   7.348
 3600SOL    HW210825   1.472   4.131   7.269
 3601SOL     OW10826   0.973   4.614   7.158
 3601SOL    HW110827   1.019   4.530   7.129
 3601SOL    HW210828   0.917   4.648   7.083
 3602SOL     OW10829   0.991   4.134   6.828
 3602SOL    HW110830   0.914   4.168   6.882
 3602SOL    HW210831   0.957   4.083   6.749
 3603SOL     OW10832   1.041   4.425   6.015
 3603SOL    HW110833   1.067   4.421   6.111
 3603SOL    HW210834   0.956   4.374   6.001
 3604SOL     OW10835   0.076   4.535   6.375
 3604SOL    HW110836   0.175   4.523   6.384
 3604SOL    HW210837   0.052   4.630   6.396
 3605SOL     OW10838   0.130   5.545   7.157
 3605SOL    HW110839   0.120   5.530   7.256
 3605SOL    HW210840   0.044   5.581   7.121
 3606SOL     OW10841   0.865   4.072   5.781
 3606SOL    HW110842   0.924   4.135   5.732
 3606SOL    HW210843   0.884   3.978   5.752
 3607SOL     OW10844   1.719   4.309   7.417
 3607SOL    HW110845   1.693   4.398   7.381
 3607SOL    HW210846   1.717   4.241   7.344
 3608SOL     OW10847   1.362   4.868   6.131
 3608SOL    HW110848   1.445   4.839   6.083
 3608SOL    HW210849   1.313   4.935   6.075
 3609SOL     OW10850   0.550   3.920   6.471
 3609SOL    HW110851   0.545   3.915   6.571
 3609SOL    HW210852   0.552   4.016   6.442
 3610SOL     OW10853   1.008   5.180   6.063
 3610SOL    HW110854   0.962   5.252   6.011
 3610SOL    HW210855   1.004   5.200   6.161
 3611SOL     OW10856   0.351   5.525   6.439
 3611SOL    HW110857   0.401   5.439   6.445
 3611SOL    HW210858   0.416   5.602   6.436
 3612SOL     OW10859   1.795   4.790   6.459
 3612SOL    HW110860   1.733   4.775   6.383
 3612SOL    HW210861   1.743   4.801   6.544
 3613SOL     OW10862   1.227   5.274   7.092
 3613SOL    HW110863   1.233   5.197   7.156
 3613SOL    HW210864   1.175   5.248   7.012
 3614SOL     OW10865   0.321   4.667   5.828
 3614SOL    HW110866   0.403   4.706   5.786
 3614SOL    HW210867   0.294   4.585   5.779
 3615SOL     OW10868   1.458   4.459   6.314
 3615SOL    HW110869   1.453   4.394   6.389
 3615SOL    HW210870   1.538   4.518   6.327
 3616SOL     OW10871   0.461   4.990   7.313
 3616SOL    HW110872   0.411   4.991   7.227
 3616SOL    HW210873   0.398   4.972   7.389
 3617SOL     OW10874   1.111   5.500   5.823
 3617SOL    HW110875   1.051   5.438   5.873
 3617SOL    HW210876   1.142   5.456   5.738
 3618SOL     OW10877   0.202   4.009   7.084
 3618SOL    HW110878   0.122   4.069   7.071
 3618SOL    HW210879   0.192   3.960   7.170
 3619SOL     OW10880   1.632   5.101   5.667
 3619SOL    HW110881   1.600   5.195   5.657
 3619SOL    HW210882   1.556   5.038   5.655
 3620SOL     OW10883   0.464   5.467   5.909
 3620SOL    HW110884   0.497   5.506   5.995
 3620SOL    HW210885   0.540   5.460   5.844
 3621SOL     OW10886   1.400   3.831   6.012
 3621SOL    HW110887   1.376   3.794   5.922
 3621SOL    HW210888   1.499   3.847   6.016
 3622SOL     OW10889   0.249   5.509   6.827
 3622SOL    HW110890   0.306   5.444   6.877
 3622SOL    HW210891   0.233   5.476   6.734
 3623SOL     OW10892   0.940   5.422   6.490
 3623SOL    HW110893   1.020   5.365   6.511
 3623SOL    HW210894   0.891   5.382   6.413
 3624SOL     OW10895   0.382   4.424   6.066
 3624SOL    HW110896   0.427   4.334   6.063
 3624SOL    HW210897   0.288   4.413   6.099
 3625SOL     OW10898   1.547   3.946   7.315
 3625SOL    HW110899   1.542   3.983   7.407
 3625SOL    HW210900   1.475   3.877   7.303
 3626SOL     OW10901   0.614   3.846   5.703
 3626SOL    HW110902   0.712   3.824   5.710
 3626SOL    HW210903   0.583   3.829   5.610
 3627SOL     OW10904   0.781   3.988   7.335
 3627SOL    HW110905   0.848   3.927   7.378
 3627SOL    HW210906   0.708   4.007   7.400
 3628SOL     OW10907   0.888   5.238   6.781
 3628SOL    HW110908   0.865   5.213   6.687
 3628SOL    HW210909   0.949   5.169   6.820
 3629SOL     OW10910   1.351   4.314   7.019
 3629SOL    HW110911   1.379   4.271   7.104
 3629SOL    HW210912   1.376   4.410   7.020
 3630SOL     OW10913   0.803   5.126   6.510
 3630SOL    HW110914   0.893   5.140   6.468
 3630SOL    HW210915   0.732   5.128   6.439
 3631SOL     OW10916   0.922   4.227   6.485
 3631SOL    HW110917   0.897   4.218   6.389
 3631SOL    HW210918   0.970   4.145   6.516
 3632SOL     OW10919   0.539   3.788   6.098
 3632SOL    HW110920   0.458   3.789   6.156
 3632SOL    HW210921   0.542   3.871   6.043
 3633SOL     OW10922   1.434   4.912   5.627
 3633SOL    HW110923   1.466   4.836   5.684
 3633SOL    HW210924   1.342   4.939   5.657
 3634SOL     OW10925   0.297   3.759   5.757
 3634SOL    HW110926   0.346   3.843   5.736
 3634SOL    HW210927   0.359   3.694   5.802
 3635SOL     OW10928   0.935   3.960   6.066
 3635SOL    HW110929   0.887   4.001   5.988
 3635SOL    HW210930   1.034   3.958   6.047
 3636SOL     OW10931   1.076   4.407   7.050
 3636SOL    HW110932   0.996   4.346   7.053
 3636SOL    HW210933   1.157   4.354   7.026
 3637SOL     OW10934   1.227   5.294   6.379
 3637SOL    HW110935   1.248   5.368   6.314
 3637SOL    HW210936   1.295   5.294   6.452
 3638SOL     OW10937   0.459   4.876   6.327
 3638SOL    HW110938   0.388   4.849   6.392
 3638SOL    HW210939   0.433   4.848   6.234
 3639SOL     OW10940   1.271   5.521   6.177
 3639SOL    HW110941   1.315   5.585   6.113
 3639SOL    HW210942   1.221   5.573   6.247
 3640SOL     OW10943   1.032   4.273   5.602
 3640SOL    HW110944   0.991   4.355   5.563
 3640SOL    HW210945   1.096   4.299   5.675
 3641SOL     OW10946   0.078   4.280   6.972
 3641SOL    HW110947   0.170   4.279   6.931
 3641SOL    HW210948   0.072   4.354   7.039
 3642SOL     OW10949   0.561   3.946   6.733
 3642SOL    HW110950   0.599   3.862   6.770
 3642SOL    HW210951   0.473   3.965   6.777
 3643SOL     OW10952   0.866   4.178   6.228
 3643SOL    HW110953   0.834   4.250   6.166
 3643SOL    HW210954   0.890   4.097   6.175
 3644SOL     OW10955   1.017   3.763   6.339
 3644SOL    HW110956   0.945   3.768   6.270
 3644SOL    HW210957   0.993   3.694   6.408
 3645SOL     OW10958   1.429   4.897   6.453
 3645SOL    HW110959   1.374   4.813   6.446
 3645SOL    HW210960   1.455   4.926   6.361
 3646SOL     OW10961   1.466   4.314   6.578
 3646SOL    HW110962   1.436   4.219   6.585
 3646SOL    HW210963   1.539   4.330   6.644
 3647SOL     OW10964   1.857   4.557   5.963
 3647SOL    HW110965   1.899   4.493   6.027
 3647SOL    HW210966   1.819   4.506   5.885
 3648SOL     OW10967   0.488   5.109   5.760
 3648SOL    HW110968   0.401   5.094   5.807
 3648SOL    HW210969   0.471   5.135   5.665
 3649SOL     OW10970   1.664   5.004   6.243
 3649SOL    HW110971   1.763   5.012   6.257
 3649SOL    HW210972   1.619   5.088   6.274
 3650SOL     OW10973   1.390   4.299   5.664
 3650SOL    HW110974   1.336   4.278   5.745
 3650SOL    HW210975   1.481   4.258   5.673
 3651SOL     OW10976   0.527   3.980   5.914
 3651SOL    HW110977   0.554   3.921   5.839
 3651SOL    HW210978   0.527   4.075   5.883
 3652SOL     OW10979   1.754   4.947   7.174
 3652SOL    HW110980   1.845   4.908   7.161
 3652SOL    HW210981   1.762   5.043   7.198
 3653SOL     OW10982   1.064   5.071   6.926
 3653SOL    HW110983   0.984   5.048   6.981
 3653SOL    HW210984   1.147   5.045   6.975
 3654SOL     OW10985   1.592   5.353   7.211
 3654SOL    HW110986   1.619   5.387   7.121
 3654SOL    HW210987   1.671   5.315   7.257
 3655SOL     OW10988   1.111   4.919   6.686
 3655SOL    HW110989   1.071   4.963   6.767
 3655SOL    HW210990   1.070   4.956   6.603
 3656SOL     OW10991   1.638   4.823   6.665
 3656SOL    HW110992   1.643   4.904   6.724
 3656SOL    HW210993   1.552   4.825   6.614
 3657SOL     OW10994   0.915   3.813   6.988
 3657SOL    HW110995   0.940   3.793   6.893
 3657SOL    HW210996   0.987   3.869   7.030
 3658SOL     OW10997   0.980   4.840   7.305
 3658SOL    HW110998   0.881   4.846   7.315
 3658SOL    HW210999   1.003   4.760   7.249
 3659SOL     OW11000   0.705   4.774   5.954
 3659SOL    HW111001   0.691   4.781   6.053
 3659SOL    HW211002   0.789   4.723   5.936
 3660SOL     OW11003   0.410   4.537   6.837
 3660SOL    HW111004   0.496   4.549   6.887
 3660SOL    HW211005   0.368   4.450   6.864
 3661SOL     OW11006   1.274   4.110   6.848
 3661SOL    HW111007   1.295   4.184   6.912
 3661SOL    HW211008   1.185   4.127   6.805
 3662SOL     OW11009   0.064   5.288   6.917
 3662SOL    HW111010   0.018   5.370   6.883
 3662SOL    HW211011   0.162   5.307   6.926
 3663SOL     OW11012   0.367   4.824   6.087
 3663SOL    HW111013   0.360   4.907   6.031
 3663SOL    HW211014   0.371   4.744   6.027
 3664SOL     OW11015   0.566   4.261   6.451
 3664SOL    HW111016   0.578   4.327   6.377
 3664SOL    HW211017   0.612   4.295   6.534
 3665SOL     OW11018   1.252   5.072   5.974
 3665SOL    HW111019   1.302   5.149   6.014
 3665SOL    HW211020   1.157   5.074   6.006
 3666SOL     OW11021   1.272   5.169   6.728
 3666SOL    HW111022   1.319   5.182   6.815
 3666SOL    HW211023   1.206   5.095   6.737
 3667SOL     OW11024   1.582   4.363   6.058
 3667SOL    HW111025   1.551   4.424   6.131
 3667SOL    HW211026   1.632   4.415   5.989
 3668SOL     OW11027   0.354   5.234   6.915
 3668SOL    HW111028   0.333   5.190   6.828
 3668SOL    HW211029   0.451   5.260   6.918
 3669SOL     OW11030   0.402   4.475   7.184
 3669SOL    HW111031   0.470   4.530   7.137
 3669SOL    HW211032   0.442   4.387   7.211
 3670SOL     OW11033   1.587   4.503   7.256
 3670SOL    HW111034   1.495   4.541   7.251
 3670SOL    HW211035   1.647   4.550   7.191
 3671SOL     OW11036   1.013   3.829   7.356
 3671SOL    HW111037   1.019   3.914   7.304
 3671SOL    HW211038   1.045   3.753   7.299
 3672SOL     OW11039   0.504   3.774   7.326
 3672SOL    HW111040   0.462   3.717   7.256
 3672SOL    HW211041   0.438   3.843   7.358
 3673SOL     OW11042   0.573   4.594   6.615
 3673SOL    HW111043   0.617   4.683   6.606
 3673SOL    HW211044   0.510   4.594   6.692
 3674SOL     OW11045   1.360   4.586   6.631
 3674SOL    HW111046   1.285   4.586   6.565
 3674SOL    HW211047   1.397   4.494   6.640
 3675SOL     OW11048   1.209   4.249   5.861
 3675SOL    HW111049   1.222   4.165   5.915
 3675SOL    HW211050   1.180   4.323   5.921
 3676SOL     OW11051   0.307   3.937   6.817
 3676SOL    HW111052   0.284   3.974   6.907
 3676SOL    HW211053   0.277   3.842   6.811
 3677SOL     OW11054   0.037   5.034   6.868
 3677SOL    HW111055   0.090   4.985   6.936
 3677SOL    HW211056   0.059   5.132   6.873
 3678SOL     OW11057   0.732   4.358   6.650
 3678SOL    HW111058   0.791   4.332   6.574
 3678SOL    HW211059   0.704   4.454   6.639
 3679SOL     OW11060   1.728   4.659   7.440
 3679SOL    HW111061   1.682   4.652   7.351
 3679SOL    HW211062   1.666   4.703   7.506
 3680SOL     OW11063   0.307   3.787   6.204
 3680SOL    HW111064   0.296   3.881   6.237
 3680SOL    HW211065   0.302   3.724   6.281
 3681SOL     OW11066   1.622   4.091   5.960
 3681SOL    HW111067   1.624   4.015   6.024
 3681SOL    HW211068   1.574   4.168   6.000
 3682SOL     OW11069   1.023   4.490   6.552
 3682SOL    HW111070   1.038   4.511   6.648
 3682SOL    HW211071   0.993   4.395   6.543
 3683SOL     OW11072   0.980   5.297   7.286
 3683SOL    HW111073   0.960   5.341   7.198
 3683SOL    HW211074   1.019   5.206   7.270
 3684SOL     OW11075   1.859   5.242   7.191
 3684SOL    HW111076   1.873   5.269   7.096
 3684SOL    HW211077   1.942   5.264   7.244
 3685SOL     OW11078   0.350   4.622   7.390
 3685SOL    HW111079   0.426   4.666   7.438
 3685SOL    HW211080   0.385   4.575   7.308
 3686SOL     OW11081   1.540   3.998   5.711
 3686SOL    HW111082   1.479   3.923   5.734
 3686SOL    HW211083   1.562   4.050   5.794
 3687SOL     OW11084   1.303   4.562   5.628
 3687SOL    HW111085   1.337   4.469   5.643
 3687SOL    HW211086   1.321   4.589   5.533
 3688SOL     OW11087   1.068   5.057   6.435
 3688SOL    HW111088   1.075   4.973   6.380
 3688SOL    HW211089   1.130   5.126   6.399
 3689SOL     OW11090   0.319   4.534   6.535
 3689SOL    HW111091   0.412   4.570   6.540
 3689SOL    HW211092   0.313   4.449   6.587
 3690SOL     OW11093   0.339   4.233   6.592
 3690SOL    HW111094   0.287   4.150   6.575
 3690SOL    HW211095   0.416   4.238   6.528
 3691SOL     OW11096   1.138   4.104   7.264
 3691SOL    HW111097   1.093   4.167   7.328
 3691SOL    HW211098   1.231   4.135   7.247
 3692SOL     OW11099   1.160   3.931   7.063
 3692SOL    HW111100   1.160   3.995   7.140
 3692SOL    HW211101   1.188   3.979   6.980
 3693SOL     OW11102   0.008   5.050   5.786
 3693SOL    HW111103  -0.085   5.071   5.755
 3693SOL    HW211104   0.018   4.951   5.799
 3694SOL     OW11105   0.088   5.525   6.513
 3694SOL    HW111106   0.046   5.439   6.486
 3694SOL    HW211107   0.182   5.528   6.479
 3695SOL     OW11108   0.504   5.292   6.496
 3695SOL    HW111109   0.570   5.366   6.505
 3695SOL    HW211110   0.548   5.213   6.454
 3696SOL     OW11111   1.002   4.520   6.824
 3696SOL    HW111112   1.043   4.488   6.910
 3696SOL    HW211113   0.906   4.493   6.821
 3697SOL     OW11114   0.040   4.268   6.700
 3697SOL    HW111115   0.125   4.235   6.659
 3697SOL    HW211116   0.053   4.283   6.798
 3698SOL     OW11117   0.189   4.244   7.308
 3698SOL    HW111118   0.248   4.204   7.238
 3698SOL    HW211119   0.131   4.315   7.267
 3699SOL     OW11120   1.369   4.674   7.246
 3699SOL    HW111121   1.408   4.763   7.266
 3699SOL    HW211122   1.379   4.654   7.149
 3700SOL     OW11123   0.815   4.296   5.911
 3700SOL    HW111124   0.822   4.207   5.865
 3700SOL    HW211125   0.721   4.330   5.903
 3701SOL     OW11126   1.657   4.328   6.792
 3701SOL    HW111127   1.619   4.259   6.854
 3701SOL    HW211128   1.739   4.292   6.748
 3702SOL     OW11129   0.252   5.288   7.330
 3702SOL    HW111130   0.222   5.345   7.406
 3702SOL    HW211131   0.245   5.191   7.356
 3703SOL     OW11132   0.671   4.188   6.855
 3703SOL    HW111133   0.637   4.099   6.825
 3703SOL    HW211134   0.697   4.242   6.775
 3704SOL     OW11135   0.930   5.402   7.051
 3704SOL    HW111136   0.906   5.384   6.956
 3704SOL    HW211137   0.960   5.496   7.061
 3705SOL     OW11138   0.473   4.224   5.777
 3705SOL    HW111139   0.534   4.304   5.781
 3705SOL    HW211140   0.378   4.255   5.784
 3706SOL     OW11141   0.159   4.861   7.052
 3706SOL    HW111142   0.181   4.800   7.128
 3706SOL    HW211143   0.169   4.812   6.966
 3707SOL     OW11144   1.347   4.783   6.820
 3707SOL    HW111145   1.371   4.720   6.746
 3707SOL    HW211146   1.257   4.823   6.802
 3708SOL     OW11147   1.302   4.579   5.895
 3708SOL    HW111148   1.216   4.548   5.937
 3708SOL    HW211149   1.298   4.565   5.796
 3709SOL     OW11150   1.759   5.471   6.740
 3709SOL    HW111151   1.820   5.501   6.667
 3709SOL    HW211152   1.721   5.382   6.718
 3710SOL     OW11153   1.252   5.455   6.714
 3710SOL    HW111154   1.336   5.460   6.660
 3710SOL    HW211155   1.229   5.359   6.732
 3711SOL     OW11156   0.083   4.982   6.608
 3711SOL    HW111157   0.078   4.981   6.708
 3711SOL    HW211158   0.000   4.941   6.570
 3712SOL     OW11159   0.688   5.386   7.302
 3712SOL    HW111160   0.632   5.467   7.311
 3712SOL    HW211161   0.740   5.390   7.216
 3713SOL     OW11162   1.726   3.859   6.109
 3713SOL    HW111163   1.799   3.842   6.042
 3713SOL    HW211164   1.695   3.772   6.147
 3714SOL     OW11165   1.388   5.297   6.063
 3714SOL    HW111166   1.455   5.309   5.989
 3714SOL    HW211167   1.348   5.386   6.086
 3715SOL     OW11168   0.130   5.518   7.437
 3715SOL    HW111169   0.089   5.444   7.490
 3715SOL    HW211170   0.194   5.569   7.495
 3716SOL     OW11171   1.280   4.651   6.258
 3716SOL    HW111172   1.340   4.570   6.260
 3716SOL    HW211173   1.320   4.720   6.198
 3717SOL     OW11174   0.830   4.997   7.008
 3717SOL    HW111175   0.825   5.030   7.103
 3717SOL    HW211176   0.744   5.016   6.962
 3718SOL     OW11177   0.672   5.340   5.740
 3718SOL    HW111178   0.681   5.350   5.641
 3718SOL    HW211179   0.632   5.251   5.761
 3719SOL     OW11180   1.650   5.444   6.980
 3719SOL    HW111181   1.703   5.454   6.896
 3719SOL    HW211182   1.623   5.534   7.014
 3720SOL     OW11183   1.841   3.899   6.549
 3720SOL    HW111184   1.880   3.814   6.513
 3720SOL    HW211185   1.743   3.901   6.530
 3721SOL     OW11186   0.263   4.050   6.306
 3721SOL    HW111187   0.184   4.101   6.272
 3721SOL    HW211188   0.254   4.035   6.404
 3722SOL     OW11189   1.194   5.336   5.617
 3722SOL    HW111190   1.200   5.243   5.654
 3722SOL    HW211191   1.135   5.336   5.537
 3723SOL     OW11192   0.822   4.726   6.958
 3723SOL    HW111193   0.862   4.725   6.866
 3723SOL    HW211194   0.832   4.818   6.998
 3724SOL     OW11195   0.916   4.634   5.877
 3724SOL    HW111196   0.979   4.672   5.809
 3724SOL    HW211197   0.956   4.551   5.916
 3725SOL     OW11198   1.504   5.331   5.630
 3725SOL    HW111199   1.412   5.368   5.637
 3725SOL    HW211200   1.542   5.351   5.540
 3726SOL     OW11201   0.372   5.012   7.076
 3726SOL    HW111202   0.359   5.105   7.042
 3726SOL    HW211203   0.288   4.960   7.063
 3727SOL     OW11204   1.614   5.016   6.875
 3727SOL    HW111205   1.674   5.019   6.955
 3727SOL    HW211206   1.539   5.080   6.888
 3728SOL     OW11207   1.039   4.822   6.282
 3728SOL    HW111208   0.969   4.775   6.336
 3728SOL    HW211209   1.098   4.754   6.239
 3729SOL     OW11210   1.014   3.960   6.557
 3729SOL    HW111211   1.006   3.924   6.464
 3729SOL    HW211212   1.012   3.884   6.622
 3730SOL     OW11213   0.590   5.211   6.077
 3730SOL    HW111214   0.632   5.153   6.007
 3730SOL    HW211215   0.546   5.290   6.033
 3731SOL     OW11216   1.709   4.109   6.967
 3731SOL    HW111217   1.782   4.178   6.971
 3731SOL    HW211218   1.737   4.034   6.908
 3732SOL     OW11219   0.255   5.072   5.876
 3732SOL    HW111220   0.159   5.073   5.849
 3732SOL    HW211221   0.267   5.125   5.960
 3733SOL     OW11222   0.105   4.737   7.312
 3733SOL    HW111223   0.028   4.704   7.366
 3733SOL    HW211224   0.190   4.707   7.354
 3734SOL     OW11225   0.672   3.927   7.075
 3734SOL    HW111226   0.762   3.911   7.035
 3734SOL    HW211227   0.680   3.932   7.174
 3735SOL     OW11228   0.075   4.069   5.619
 3735SOL    HW111229  -0.017   4.041   5.590
 3735SOL    HW211230   0.106   4.146   5.563
 3736SOL     OW11231   1.440   4.580   6.984
 3736SOL    HW111232   1.383   4.632   6.921
 3736SOL    HW211233   1.536   4.592   6.960
 3737SOL     OW11234   0.072   3.890   5.904
 3737SOL    HW111235   0.055   3.973   5.850
 3737SOL    HW211236   0.162   3.853   5.882
 3738SOL     OW11237   1.183   5.059   5.705
 3738SOL    HW111238   1.084   5.048   5.707
 3738SOL    HW211239   1.217   5.074   5.798
 3739SOL     OW11240   0.613   4.566   7.017
 3739SOL    HW111241   0.669   4.647   7.000
 3739SOL    HW211242   0.672   4.486   7.020
 3740SOL     OW11243   1.493   5.491   6.545
 3740SOL    HW111244   1.526   5.555   6.476
 3740SOL    HW211245   1.559   5.485   6.620
 3741SOL     OW11246   0.716   4.289   7.294
 3741SOL    HW111247   0.735   4.354   7.368
 3741SOL    HW211248   0.776   4.209   7.303
 3742SOL     OW11249   1.450   4.944   7.219
 3742SOL    HW111250   1.441   4.934   7.318
 3742SOL    HW211251   1.546   4.937   7.193
 3743SOL     OW11252   0.390   5.465   7.146
 3743SOL    HW111253   0.299   5.506   7.144
 3743SOL    HW211254   0.383   5.371   7.178
 3744SOL     OW11255   1.674   4.607   6.840
 3744SOL    HW111256   1.647   4.518   6.803
 3744SOL    HW211257   1.675   4.675   6.767
 3745SOL     OW11258   1.225   4.049   6.035
 3745SOL    HW111259   1.290   3.975   6.024
 3745SOL    HW211260   1.245   4.099   6.119
 3746SOL     OW11261   0.594   4.469   6.238
 3746SOL    HW111262   0.644   4.554   6.219
 3746SOL    HW211263   0.506   4.471   6.190
 3747SOL     OW11264   1.777   4.066   7.228
 3747SOL    HW111265   1.760   4.097   7.134
 3747SOL    HW211266   1.693   4.029   7.266
 3748SOL     OW11267   1.730   4.658   7.103
 3748SOL    HW111268   1.768   4.749   7.118
 3748SOL    HW211269   1.722   4.641   7.004
 3749SOL     OW11270   0.859   5.098   5.602
 3749SOL    HW111271   0.813   5.113   5.690
 3749SOL    HW211272   0.903   5.183   5.572
 3750SOL     OW11273   0.661   5.514   6.539
 3750SOL    HW111274   0.615   5.602   6.526
 3750SOL    HW211275   0.760   5.526   6.532
 3751SOL     OW11276   0.859   4.680   6.447
 3751SOL    HW111277   0.913   4.611   6.495
 3751SOL    HW211278   0.827   4.749   6.513
 3752SOL     OW11279   1.083   4.708   5.673
 3752SOL    HW111280   1.060   4.761   5.591
 3752SOL    HW211281   1.164   4.652   5.654
 3753SOL     OW11282   1.861   5.293   6.437
 3753SOL    HW111283   1.790   5.281   6.367
 3753SOL    HW211284   1.862   5.214   6.497
 3754SOL     OW11285   0.221   5.038   7.430
 3754SOL    HW111286   0.156   4.965   7.409
 3754SOL    HW211287   0.225   5.052   7.528
 3755SOL     OW11288   0.079   4.964   6.239
 3755SOL    HW111289   0.078   4.917   6.327
 3755SOL    HW211290   0.161   4.936   6.188
 3756SOL     OW11291   0.672   5.115   7.210
 3756SOL    HW111292   0.594   5.065   7.248
 3756SOL    HW211293   0.669   5.210   7.241
 3757SOL     OW11294   1.824   3.916   6.813
 3757SOL    HW111295   1.820   3.826   6.857
 3757SOL    HW211296   1.827   3.905   6.714
 3758SOL     OW11297   0.428   4.148   6.106
 3758SOL    HW111298   0.458   4.076   6.044
 3758SOL    HW211299   0.389   4.108   6.189
 3759SOL     OW11300   1.705   5.211   6.690
 3759SOL    HW111301   1.612   5.186   6.663
 3759SOL    HW211302   1.731   5.161   6.772
 3760SOL     OW11303   0.317   4.271   6.866
 3760SOL    HW111304   0.355   4.212   6.938
 3760SOL    HW211305   0.357   4.245   6.778
 3761SOL     OW11306   0.812   5.310   6.273
 3761SOL    HW111307   0.844   5.320   6.179
 3761SOL    HW211308   0.733   5.248   6.275
 3762SOL     OW11309   1.424   3.938   6.698
 3762SOL    HW111310   1.476   3.873   6.753
 3762SOL    HW211311   1.375   4.001   6.759
 3763SOL     OW11312   1.001   3.758   6.740
 3763SOL    HW111313   0.938   3.686   6.709
 3763SOL    HW211314   1.094   3.722   6.740
 3764SOL     OW11315   0.770   5.054   5.887
 3764SOL    HW111316   0.724   4.967   5.904
 3764SOL    HW211317   0.861   5.051   5.928
 3765SOL     OW11318   0.618   5.291   6.870
 3765SOL    HW111319   0.613   5.373   6.927
 3765SOL    HW211320   0.707   5.288   6.825
 3766SOL     OW11321   1.352   3.776   5.754
 3766SOL    HW111322   1.387   3.735   5.670
 3766SOL    HW211323   1.262   3.738   5.774
 3767SOL     OW11324   1.300   4.177   6.277
 3767SOL    HW111325   1.241   4.257   6.281
 3767SOL    HW211326   1.315   4.142   6.370
 3768SOL     OW11327   1.593   3.945   6.468
 3768SOL    HW111328   1.509   3.944   6.522
 3768SOL    HW211329   1.595   4.028   6.412
 3769SOL     OW11330   0.039   4.801   5.886
 3769SOL    HW111331   0.138   4.790   5.877
 3769SOL    HW211332  -0.001   4.715   5.918
 3770SOL     OW11333   0.875   5.370   5.923
 3770SOL    HW111334   0.798   5.335   5.869
 3770SOL    HW211335   0.843   5.441   5.985
 3771SOL     OW11336   0.230   4.352   7.561
 3771SOL    HW111337   0.137   4.350   7.598
 3771SOL    HW211338   0.231   4.313   7.469
 3772SOL     OW11339   0.225   3.999   8.444
 3772SOL    HW111340   0.260   3.982   8.536
 3772SOL    HW211341   0.137   3.954   8.432
 3773SOL     OW11342   0.019   4.092   8.095
 3773SOL    HW111343  -0.063   4.135   8.134
 3773SOL    HW211344  -0.009   4.019   8.032
 3774SOL     OW11345   0.569   4.999   8.613
 3774SOL    HW111346   0.476   4.992   8.576
 3774SOL    HW211347   0.580   5.088   8.657
 3775SOL     OW11348   1.555   5.235   8.151
 3775SOL    HW111349   1.498   5.219   8.232
 3775SOL    HW211350   1.496   5.245   8.071
 3776SOL     OW11351   1.135   4.427   8.165
 3776SOL    HW111352   1.192   4.505   8.140
 3776SOL    HW211353   1.075   4.453   8.241
 3777SOL     OW11354   1.755   4.331   7.679
 3777SOL    HW111355   1.743   4.318   7.580
 3777SOL    HW211356   1.725   4.250   7.728
 3778SOL     OW11357   0.768   4.868   8.471
 3778SOL    HW111358   0.690   4.885   8.531
 3778SOL    HW211359   0.802   4.955   8.435
 3779SOL     OW11360   0.850   4.522   9.271
 3779SOL    HW111361   0.846   4.598   9.336
 3779SOL    HW211362   0.872   4.558   9.180
 3780SOL     OW11363   0.685   4.736   8.113
 3780SOL    HW111364   0.754   4.720   8.183
 3780SOL    HW211365   0.612   4.793   8.151
 3781SOL     OW11366   0.686   4.885   9.251
 3781SOL    HW111367   0.746   4.964   9.265
 3781SOL    HW211368   0.600   4.916   9.210
 3782SOL     OW11369   0.335   5.159   8.509
 3782SOL    HW111370   0.257   5.128   8.456
 3782SOL    HW211371   0.393   5.217   8.452
 3783SOL     OW11372   1.460   5.229   8.787
 3783SOL    HW111373   1.484   5.323   8.813
 3783SOL    HW211374   1.444   5.175   8.869
 3784SOL     OW11375   0.438   4.116   8.947
 3784SOL    HW111376   0.520   4.060   8.956
 3784SOL    HW211377   0.357   4.058   8.951
 3785SOL     OW11378   1.603   4.171   8.185
 3785SOL    HW111379   1.529   4.217   8.135
 3785SOL    HW211380   1.654   4.239   8.238
 3786SOL     OW11381   0.231   5.437   7.931
 3786SOL    HW111382   0.265   5.514   7.985
 3786SOL    HW211383   0.275   5.437   7.841
 3787SOL     OW11384   1.127   5.065   9.138
 3787SOL    HW111385   1.174   5.065   9.226
 3787SOL    HW211386   1.079   4.978   9.127
 3788SOL     OW11387   0.230   5.158   7.986
 3788SOL    HW111388   0.204   5.254   7.986
 3788SOL    HW211389   0.159   5.104   8.031
 3789SOL     OW11390   0.240   4.815   8.334
 3789SOL    HW111391   0.254   4.731   8.386
 3789SOL    HW211392   0.185   4.879   8.389
 3790SOL     OW11393   0.620   5.510   8.887
 3790SOL    HW111394   0.528   5.493   8.922
 3790SOL    HW211395   0.648   5.602   8.913
 3791SOL     OW11396   0.606   4.688   7.571
 3791SOL    HW111397   0.613   4.772   7.517
 3791SOL    HW211398   0.652   4.701   7.659
 3792SOL     OW11399   1.594   3.838   8.928
 3792SOL    HW111400   1.576   3.905   8.856
 3792SOL    HW211401   1.591   3.884   9.017
 3793SOL     OW11402   0.122   4.367   8.011
 3793SOL    HW111403   0.077   4.279   8.028
 3793SOL    HW211404   0.121   4.421   8.095
 3794SOL     OW11405   1.842   5.491   7.807
 3794SOL    HW111406   1.896   5.462   7.887
 3794SOL    HW211407   1.872   5.581   7.778
 3795SOL     OW11408   0.027   5.320   7.565
 3795SOL    HW111409   0.008   5.224   7.586
 3795SOL    HW211410  -0.006   5.378   7.640
 3796SOL     OW11411   1.689   4.646   8.060
 3796SOL    HW111412   1.784   4.617   8.068
 3796SOL    HW211413   1.681   4.711   7.985
 3797SOL     OW11414   1.641   4.832   7.880
 3797SOL    HW111415   1.727   4.834   7.828
 3797SOL    HW211416   1.655   4.879   7.968
 3798SOL     OW11417   0.113   4.461   9.045
 3798SOL    HW111418   0.201   4.448   9.090
 3798SOL    HW211419   0.100   4.558   9.023
 3799SOL     OW11420   0.613   5.089   8.174
 3799SOL    HW111421   0.564   5.002   8.183
 3799SOL    HW211422   0.590   5.132   8.087
 3800SOL     OW11423   1.293   4.952   8.871
 3800SOL    HW111424   1.330   4.879   8.813
 3800SOL    HW211425   1.345   4.957   8.956
 3801SOL     OW11426   0.809   3.728   7.950
 3801SOL    HW111427   0.849   3.819   7.941
 3801SOL    HW211428   0.709   3.736   7.956
 3802SOL     OW11429   0.197   4.700   8.712
 3802SOL    HW111430   0.286   4.655   8.698
 3802SOL    HW211431   0.124   4.635   8.693
 3803SOL     OW11432   1.525   4.723   7.638
 3803SOL    HW111433   1.462   4.647   7.651
 3803SOL    HW211434   1.573   4.741   7.724
 3804SOL     OW11435   1.187   5.516   9.064
 3804SOL    HW111436   1.211   5.576   8.988
 3804SOL    HW211437   1.194   5.421   9.034
 3805SOL     OW11438   0.317   3.975   9.249
 3805SOL    HW111439   0.388   4.046   9.255
 3805SOL    HW211440   0.229   4.014   9.277
 3806SOL     OW11441   1.466   5.141   8.401
 3806SOL    HW111442   1.407   5.147   8.481
 3806SOL    HW211443   1.451   5.053   8.355
 3807SOL     OW11444   1.667   5.438   8.020
 3807SOL    HW111445   1.626   5.415   7.932
 3807SOL    HW211446   1.649   5.364   8.085
 3808SOL     OW11447   0.598   4.453   7.718
 3808SOL    HW111448   0.622   4.522   7.650
 3808SOL    HW211449   0.520   4.486   7.772
 3809SOL     OW11450   1.281   4.069   8.392
 3809SOL    HW111451   1.195   4.019   8.379
 3809SOL    HW211452   1.343   4.015   8.448
 3810SOL     OW11453   1.576   5.386   7.755
 3810SOL    HW111454   1.665   5.432   7.758
 3810SOL    HW211455   1.555   5.362   7.660
 3811SOL     OW11456   0.807   4.329   8.913
 3811SOL    HW111457   0.760   4.326   9.002
 3811SOL    HW211458   0.756   4.274   8.847
 3812SOL     OW11459   1.394   4.193   9.122
 3812SOL    HW111460   1.374   4.236   9.210
 3812SOL    HW211461   1.472   4.131   9.131
 3813SOL     OW11462   0.973   4.614   9.020
 3813SOL    HW111463   1.019   4.530   8.991
 3813SOL    HW211464   0.917   4.648   8.945
 3814SOL     OW11465   0.991   4.134   8.690
 3814SOL    HW111466   0.914   4.168   8.744
 3814SOL    HW211467   0.957   4.083   8.611
 3815SOL     OW11468   1.041   4.425   7.877
 3815SOL    HW111469   1.067   4.421   7.973
 3815SOL    HW211470   0.956   4.374   7.863
 3816SOL     OW11471   0.076   4.535   8.237
 3816SOL    HW111472   0.175   4.523   8.246
 3816SOL    HW211473   0.052   4.630   8.258
 3817SOL     OW11474   0.130   5.545   9.019
 3817SOL    HW111475   0.120   5.530   9.118
 3817SOL    HW211476   0.044   5.581   8.983
 3818SOL     OW11477   0.865   4.072   7.643
 3818SOL    HW111478   0.924   4.135   7.594
 3818SOL    HW211479   0.884   3.978   7.614
 3819SOL     OW11480   1.719   4.309   9.279
 3819SOL    HW111481   1.693   4.398   9.243
 3819SOL    HW211482   1.717   4.241   9.206
 3820SOL     OW11483   1.362   4.868   7.993
 3820SOL    HW111484   1.445   4.839   7.945
 3820SOL    HW211485   1.313   4.935   7.937
 3821SOL     OW11486   0.550   3.920   8.333
 3821SOL    HW111487   0.545   3.915   8.433
 3821SOL    HW211488   0.552   4.016   8.304
 3822SOL     OW11489   1.008   5.180   7.925
 3822SOL    HW111490   0.962   5.252   7.873
 3822SOL    HW211491   1.004   5.200   8.023
 3823SOL     OW11492   0.351   5.525   8.301
 3823SOL    HW111493   0.401   5.439   8.307
 3823SOL    HW211494   0.416   5.602   8.298
 3824SOL     OW11495   1.795   4.790   8.321
 3824SOL    HW111496   1.733   4.775   8.245
 3824SOL    HW211497   1.743   4.801   8.406
 3825SOL     OW11498   1.227   5.274   8.954
 3825SOL    HW111499   1.233   5.197   9.018
 3825SOL    HW211500   1.175   5.248   8.874
 3826SOL     OW11501   0.321   4.667   7.690
 3826SOL    HW111502   0.403   4.706   7.648
 3826SOL    HW211503   0.294   4.585   7.641
 3827SOL     OW11504   1.458   4.459   8.176
 3827SOL    HW111505   1.453   4.394   8.251
 3827SOL    HW211506   1.538   4.518   8.189
 3828SOL     OW11507   0.461   4.990   9.175
 3828SOL    HW111508   0.411   4.991   9.089
 3828SOL    HW211509   0.398   4.972   9.251
 3829SOL     OW11510   1.111   5.500   7.685
 3829SOL    HW111511   1.051   5.438   7.735
 3829SOL    HW211512   1.142   5.456   7.600
 3830SOL     OW11513   0.202   4.009   8.946
 3830SOL    HW111514   0.122   4.069   8.933
 3830SOL    HW211515   0.192   3.960   9.032
 3831SOL     OW11516   1.632   5.101   7.529
 3831SOL    HW111517   1.600   5.195   7.519
 3831SOL    HW211518   1.556   5.038   7.517
 3832SOL     OW11519   0.464   5.467   7.771
 3832SOL    HW111520   0.497   5.506   7.857
 3832SOL    HW211521   0.540   5.460   7.706
 3833SOL     OW11522   1.400   3.831   7.874
 3833SOL    HW111523   1.376   3.794   7.784
 3833SOL    HW211524   1.499   3.847   7.878
 3834SOL     OW11525   0.249   5.509   8.689
 3834SOL    HW111526   0.306   5.444   8.739
 3834SOL    HW211527   0.233   5.476   8.596
 3835SOL     OW11528   0.940   5.422   8.352
 3835SOL    HW111529   1.020   5.365   8.373
 3835SOL    HW211530   0.891   5.382   8.275
 3836SOL     OW11531   0.382   4.424   7.928
 3836SOL    HW111532   0.427   4.334   7.925
 3836SOL    HW211533   0.288   4.413   7.961
 3837SOL     OW11534   1.547   3.946   9.177
 3837SOL    HW111535   1.542   3.983   9.269
 3837SOL    HW211536   1.475   3.877   9.165
 3838SOL     OW11537   0.614   3.846   7.565
 3838SOL    HW111538   0.712   3.824   7.572
 3838SOL    HW211539   0.583   3.829   7.472
 3839SOL     OW11540   0.781   3.988   9.197
 3839SOL    HW111541   0.848   3.927   9.240
 3839SOL    HW211542   0.708   4.007   9.262
 3840SOL     OW11543   0.888   5.238   8.643
 3840SOL    HW111544   0.865   5.213   8.549
 3840SOL    HW211545   0.949   5.169   8.682
 3841SOL     OW11546   1.351   4.314   8.881
 3841SOL    HW111547   1.379   4.271   8.966
 3841SOL    HW211548   1.376   4.410   8.882
 3842SOL     OW11549   0.803   5.126   8.372
 3842SOL    HW111550   0.893   5.140   8.330
 3842SOL    HW211551   0.732   5.128   8.301
 3843SOL     OW11552   0.922   4.227   8.347
 3843SOL    HW111553   0.897   4.218   8.251
 3843SOL    HW211554   0.970   4.145   8.378
 3844SOL     OW11555   0.539   3.788   7.960
 3844SOL    HW111556   0.458   3.789   8.018
 3844SOL    HW211557   0.542   3.871   7.905
 3845SOL     OW11558   1.434   4.912   7.489
 3845SOL    HW111559   1.466   4.836   7.546
 3845SOL    HW211560   1.342   4.939   7.519
 3846SOL     OW11561   0.297   3.759   7.619
 3846SOL    HW111562   0.346   3.843   7.598
 3846SOL    HW211563   0.359   3.694   7.664
 3847SOL     OW11564   0.935   3.960   7.928
 3847SOL    HW111565   0.887   4.001   7.850
 3847SOL    HW211566   1.034   3.958   7.909
 3848SOL     OW11567   1.076   4.407   8.912
 3848SOL    HW111568   0.996   4.346   8.915
 3848SOL    HW211569   1.157   4.354   8.888
 3849SOL     OW11570   1.227   5.294   8.241
 3849SOL    HW111571   1.248   5.368   8.176
 3849SOL    HW211572   1.295   5.294   8.314
 3850SOL     OW11573   0.459   4.876   8.189
 3850SOL    HW111574   0.388   4.849   8.254
 3850SOL    HW211575   0.433   4.848   8.096
 3851SOL     OW11576   1.271   5.521   8.039
 3851SOL    HW111577   1.315   5.585   7.975
 3851SOL    HW211578   1.221   5.573   8.109
 3852SOL     OW11579   1.032   4.273   7.464
 3852SOL    HW111580   0.991   4.355   7.425
 3852SOL    HW211581   1.096   4.299   7.537
 3853SOL     OW11582   0.078   4.280   8.834
 3853SOL    HW111583   0.170   4.279   8.793
 3853SOL    HW211584   0.072   4.354   8.901
 3854SOL     OW11585   0.561   3.946   8.595
 3854SOL    HW111586   0.599   3.862   8.632
 3854SOL    HW211587   0.473   3.965   8.639
 3855SOL     OW11588   0.866   4.178   8.090
 3855SOL    HW111589   0.834   4.250   8.028
 3855SOL    HW211590   0.890   4.097   8.037
 3856SOL     OW11591   1.017   3.763   8.201
 3856SOL    HW111592   0.945   3.768   8.132
 3856SOL    HW211593   0.993   3.694   8.270
 3857SOL     OW11594   1.429   4.897   8.315
 3857SOL    HW111595   1.374   4.813   8.308
 3857SOL    HW211596   1.455   4.926   8.223
 3858SOL     OW11597   1.466   4.314   8.440
 3858SOL    HW111598   1.436   4.219   8.447
 3858SOL    HW211599   1.539   4.330   8.506
 3859SOL     OW11600   1.857   4.557   7.825
 3859SOL    HW111601   1.899   4.493   7.889
 3859SOL    HW211602   1.819   4.506   7.747
 3860SOL     OW11603   0.488   5.109   7.622
 3860SOL    HW111604   0.401   5.094   7.669
 3860SOL    HW211605   0.471   5.135   7.527
 3861SOL     OW11606   1.664   5.004   8.105
 3861SOL    HW111607   1.763   5.012   8.119
 3861SOL    HW211608   1.619   5.088   8.136
 3862SOL     OW11609   1.390   4.299   7.526
 3862SOL    HW111610   1.336   4.278   7.607
 3862SOL    HW211611   1.481   4.258   7.535
 3863SOL     OW11612   0.527   3.980   7.776
 3863SOL    HW111613   0.554   3.921   7.701
 3863SOL    HW211614   0.527   4.075   7.745
 3864SOL     OW11615   1.754   4.947   9.036
 3864SOL    HW111616   1.845   4.908   9.023
 3864SOL    HW211617   1.762   5.043   9.060
 3865SOL     OW11618   1.064   5.071   8.788
 3865SOL    HW111619   0.984   5.048   8.843
 3865SOL    HW211620   1.147   5.045   8.837
 3866SOL     OW11621   1.592   5.353   9.073
 3866SOL    HW111622   1.619   5.387   8.983
 3866SOL    HW211623   1.671   5.315   9.119
 3867SOL     OW11624   1.111   4.919   8.548
 3867SOL    HW111625   1.071   4.963   8.629
 3867SOL    HW211626   1.070   4.956   8.465
 3868SOL     OW11627   1.638   4.823   8.527
 3868SOL    HW111628   1.643   4.904   8.586
 3868SOL    HW211629   1.552   4.825   8.476
 3869SOL     OW11630   0.915   3.813   8.850
 3869SOL    HW111631   0.940   3.793   8.755
 3869SOL    HW211632   0.987   3.869   8.892
 3870SOL     OW11633   0.980   4.840   9.167
 3870SOL    HW111634   0.881   4.846   9.177
 3870SOL    HW211635   1.003   4.760   9.111
 3871SOL     OW11636   0.705   4.774   7.816
 3871SOL    HW111637   0.691   4.781   7.915
 3871SOL    HW211638   0.789   4.723   7.798
 3872SOL     OW11639   0.410   4.537   8.699
 3872SOL    HW111640   0.496   4.549   8.749
 3872SOL    HW211641   0.368   4.450   8.726
 3873SOL     OW11642   1.274   4.110   8.710
 3873SOL    HW111643   1.295   4.184   8.774
 3873SOL    HW211644   1.185   4.127   8.667
 3874SOL     OW11645   0.064   5.288   8.779
 3874SOL    HW111646   0.018   5.370   8.745
 3874SOL    HW211647   0.162   5.307   8.788
 3875SOL     OW11648   0.367   4.824   7.949
 3875SOL    HW111649   0.360   4.907   7.893
 3875SOL    HW211650   0.371   4.744   7.889
 3876SOL     OW11651   0.566   4.261   8.313
 3876SOL    HW111652   0.578   4.327   8.239
 3876SOL    HW211653   0.612   4.295   8.396
 3877SOL     OW11654   1.252   5.072   7.836
 3877SOL    HW111655   1.302   5.149   7.876
 3877SOL    HW211656   1.157   5.074   7.868
 3878SOL     OW11657   1.272   5.169   8.590
 3878SOL    HW111658   1.319   5.182   8.677
 3878SOL    HW211659   1.206   5.095   8.599
 3879SOL     OW11660   1.582   4.363   7.920
 3879SOL    HW111661   1.551   4.424   7.993
 3879SOL    HW211662   1.632   4.415   7.851
 3880SOL     OW11663   0.354   5.234   8.777
 3880SOL    HW111664   0.333   5.190   8.690
 3880SOL    HW211665   0.451   5.260   8.780
 3881SOL     OW11666   0.402   4.475   9.046
 3881SOL    HW111667   0.470   4.530   8.999
 3881SOL    HW211668   0.442   4.387   9.073
 3882SOL     OW11669   1.587   4.503   9.118
 3882SOL    HW111670   1.495   4.541   9.113
 3882SOL    HW211671   1.647   4.550   9.053
 3883SOL     OW11672   1.013   3.829   9.218
 3883SOL    HW111673   1.019   3.914   9.166
 3883SOL    HW211674   1.045   3.753   9.161
 3884SOL     OW11675   0.504   3.774   9.188
 3884SOL    HW111676   0.462   3.717   9.118
 3884SOL    HW211677   0.438   3.843   9.220
 3885SOL     OW11678   0.573   4.594   8.477
 3885SOL    HW111679   0.617   4.683   8.468
 3885SOL    HW211680   0.510   4.594   8.554
 3886SOL     OW11681   1.360   4.586   8.493
 3886SOL    HW111682   1.285   4.586   8.427
 3886SOL    HW211683   1.397   4.494   8.502
 3887SOL     OW11684   1.209   4.249   7.723
 3887SOL    HW111685   1.222   4.165   7.777
 3887SOL    HW211686   1.180   4.323   7.783
 3888SOL     OW11687   0.307   3.937   8.679
 3888SOL    HW111688   0.284   3.974   8.769
 3888SOL    HW211689   0.277   3.842   8.673
 3889SOL     OW11690   0.037   5.034   8.730
 3889SOL    HW111691   0.090   4.985   8.798
 3889SOL    HW211692   0.059   5.132   8.735
 3890SOL     OW11693   0.732   4.358   8.512
 3890SOL    HW111694   0.791   4.332   8.436
 3890SOL    HW211695   0.704   4.454   8.501
 3891SOL     OW11696   1.728   4.659   9.302
 3891SOL    HW111697   1.682   4.652   9.213
 3891SOL    HW211698   1.666   4.703   9.368
 3892SOL     OW11699   0.307   3.787   8.066
 3892SOL    HW111700   0.296   3.881   8.099
 3892SOL    HW211701   0.302   3.724   8.143
 3893SOL     OW11702   1.622   4.091   7.822
 3893SOL    HW111703   1.624   4.015   7.886
 3893SOL    HW211704   1.574   4.168   7.862
 3894SOL     OW11705   1.023   4.490   8.414
 3894SOL    HW111706   1.038   4.511   8.510
 3894SOL    HW211707   0.993   4.395   8.405
 3895SOL     OW11708   0.980   5.297   9.148
 3895SOL    HW111709   0.960   5.341   9.060
 3895SOL    HW211710   1.019   5.206   9.132
 3896SOL     OW11711   1.859   5.242   9.053
 3896SOL    HW111712   1.873   5.269   8.958
 3896SOL    HW211713   1.942   5.264   9.106
 3897SOL     OW11714   0.350   4.622   9.252
 3897SOL    HW111715   0.426   4.666   9.300
 3897SOL    HW211716   0.385   4.575   9.170
 3898SOL     OW11717   1.540   3.998   7.573
 3898SOL    HW111718   1.479   3.923   7.596
 3898SOL    HW211719   1.562   4.050   7.656
 3899SOL     OW11720   1.303   4.562   7.490
 3899SOL    HW111721   1.337   4.469   7.505
 3899SOL    HW211722   1.321   4.589   7.395
 3900SOL     OW11723   1.068   5.057   8.297
 3900SOL    HW111724   1.075   4.973   8.242
 3900SOL    HW211725   1.130   5.126   8.261
 3901SOL     OW11726   0.319   4.534   8.397
 3901SOL    HW111727   0.412   4.570   8.402
 3901SOL    HW211728   0.313   4.449   8.449
 3902SOL     OW11729   0.339   4.233   8.454
 3902SOL    HW111730   0.287   4.150   8.437
 3902SOL    HW211731   0.416   4.238   8.390
 3903SOL     OW11732   1.138   4.104   9.126
 3903SOL    HW111733   1.093   4.167   9.190
 3903SOL    HW211734   1.231   4.135   9.109
 3904SOL     OW11735   1.160   3.931   8.925
 3904SOL    HW111736   1.160   3.995   9.002
 3904SOL    HW211737   1.188   3.979   8.842
 3905SOL     OW11738   0.008   5.050   7.648
 3905SOL    HW111739  -0.085   5.071   7.617
 3905SOL    HW211740   0.018   4.951   7.661
 3906SOL     OW11741   0.088   5.525   8.375
 3906SOL    HW111742   0.046   5.439   8.348
 3906SOL    HW211743   0.182   5.528   8.341
 3907SOL     OW11744   0.504   5.292   8.358
 3907SOL    HW111745   0.570   5.366   8.367
 3907SOL    HW211746   0.548   5.213   8.316
 3908SOL     OW11747   1.002   4.520   8.686
 3908SOL    HW111748   1.043   4.488   8.772
 3908SOL    HW211749   0.906   4.493   8.683
 3909SOL     OW11750   0.040   4.268   8.562
 3909SOL    HW111751   0.125   4.235   8.521
 3909SOL    HW211752   0.053   4.283   8.660
 3910SOL     OW11753   0.189   4.244   9.170
 3910SOL    HW111754   0.248   4.204   9.100
 3910SOL    HW211755   0.131   4.315   9.129
 3911SOL     OW11756   1.369   4.674   9.108
 3911SOL    HW111757   1.408   4.763   9.128
 3911SOL    HW211758   1.379   4.654   9.011
 3912SOL     OW11759   0.815   4.296   7.773
 3912SOL    HW111760   0.822   4.207   7.727
 3912SOL    HW211761   0.721   4.330   7.765
 3913SOL     OW11762   1.657   4.328   8.654
 3913SOL    HW111763   1.619   4.259   8.716
 3913SOL    HW211764   1.739   4.292   8.610
 3914SOL     OW11765   0.252   5.288   9.192
 3914SOL    HW111766   0.222   5.345   9.268
 3914SOL    HW211767   0.245   5.191   9.218
 3915SOL     OW11768   0.671   4.188   8.717
 3915SOL    HW111769   0.637   4.099   8.687
 3915SOL    HW211770   0.697   4.242   8.637
 3916SOL     OW11771   0.930   5.402   8.913
 3916SOL    HW111772   0.906   5.384   8.818
 3916SOL    HW211773   0.960   5.496   8.923
 3917SOL     OW11774   0.473   4.224   7.639
 3917SOL    HW111775   0.534   4.304   7.643
 3917SOL    HW211776   0.378   4.255   7.646
 3918SOL     OW11777   0.159   4.861   8.914
 3918SOL    HW111778   0.181   4.800   8.990
 3918SOL    HW211779   0.169   4.812   8.828
 3919SOL     OW11780   1.347   4.783   8.682
 3919SOL    HW111781   1.371   4.720   8.608
 3919SOL    HW211782   1.257   4.823   8.664
 3920SOL     OW11783   1.302   4.579   7.757
 3920SOL    HW111784   1.216   4.548   7.799
 3920SOL    HW211785   1.298   4.565   7.658
 3921SOL     OW11786   1.759   5.471   8.602
 3921SOL    HW111787   1.820   5.501   8.529
 3921SOL    HW211788   1.721   5.382   8.580
 3922SOL     OW11789   1.252   5.455   8.576
 3922SOL    HW111790   1.336   5.460   8.522
 3922SOL    HW211791   1.229   5.359   8.594
 3923SOL     OW11792   0.083   4.982   8.470
 3923SOL    HW111793   0.078   4.981   8.570
 3923SOL    HW211794   0.000   4.941   8.432
 3924SOL     OW11795   0.688   5.386   9.164
 3924SOL    HW111796   0.632   5.467   9.173
 3924SOL    HW211797   0.740   5.390   9.078
 3925SOL     OW11798   1.726   3.859   7.971
 3925SOL    HW111799   1.799   3.842   7.904
 3925SOL    HW211800   1.695   3.772   8.009
 3926SOL     OW11801   1.388   5.297   7.925
 3926SOL    HW111802   1.455   5.309   7.851
 3926SOL    HW211803   1.348   5.386   7.948
 3927SOL     OW11804   0.130   5.518   9.299
 3927SOL    HW111805   0.089   5.444   9.352
 3927SOL    HW211806   0.194   5.569   9.357
 3928SOL     OW11807   1.280   4.651   8.120
 3928SOL    HW111808   1.340   4.570   8.122
 3928SOL    HW211809   1.320   4.720   8.060
 3929SOL     OW11810   0.830   4.997   8.870
 3929SOL    HW111811   0.825   5.030   8.965
 3929SOL    HW211812   0.744   5.016   8.824
 3930SOL     OW11813   0.672   5.340   7.602
 3930SOL    HW111814   0.681   5.350   7.503
 3930SOL    HW211815   0.632   5.251   7.623
 3931SOL     OW11816   1.650   5.444   8.842
 3931SOL    HW111817   1.703   5.454   8.758
 3931SOL    HW211818   1.623   5.534   8.876
 3932SOL     OW11819   1.841   3.899   8.411
 3932SOL    HW111820   1.880   3.814   8.375
 3932SOL    HW211821   1.743   3.901   8.392
 3933SOL     OW11822   0.263   4.050   8.168
 3933SOL    HW111823   0.184   4.101   8.134
 3933SOL    HW211824   0.254   4.035   8.266
 3934SOL     OW11825   1.194   5.336   7.479
 3934SOL    HW111826   1.200   5.243   7.516
 3934SOL    HW211827   1.135   5.336   7.399
 3935SOL     OW11828   0.822   4.726   8.820
 3935SOL    HW111829   0.862   4.725   8.728
 3935SOL    HW211830   0.832   4.818   8.860
 3936SOL     OW11831   0.916   4.634   7.739
 3936SOL    HW111832   0.979   4.672   7.671
 3936SOL    HW211833   0.956   4.551   7.778
 3937SOL     OW11834   1.504   5.331   7.492
 3937SOL    HW111835   1.412   5.368   7.499
 3937SOL    HW211836   1.542   5.351   7.402
 3938SOL     OW11837   0.372   5.012   8.938
 3938SOL    HW111838   0.359   5.105   8.904
 3938SOL    HW211839   0.288   4.960   8.925
 3939SOL     OW11840   1.614   5.016   8.737
 3939SOL    HW111841   1.674   5.019   8.817
 3939SOL    HW211842   1.539   5.080   8.750
 3940SOL     OW11843   1.039   4.822   8.144
 3940SOL    HW111844   0.969   4.775   8.198
 3940SOL    HW211845   1.098   4.754   8.101
 3941SOL     OW11846   1.014   3.960   8.419
 3941SOL    HW111847   1.006   3.924   8.326
 3941SOL    HW211848   1.012   3.884   8.484
 3942SOL     OW11849   0.590   5.211   7.939
 3942SOL    HW111850   0.632   5.153   7.869
 3942SOL    HW211851   0.546   5.290   7.895
 3943SOL     OW11852   1.709   4.109   8.829
 3943SOL    HW111853   1.782   4.178   8.833
 3943SOL    HW211854   1.737   4.034   8.770
 3944SOL     OW11855   0.255   5.072   7.738
 3944SOL    HW111856   0.159   5.073   7.711
 3944SOL    HW211857   0.267   5.125   7.822
 3945SOL     OW11858   0.105   4.737   9.174
 3945SOL    HW111859   0.028   4.704   9.228
 3945SOL    HW211860   0.190   4.707   9.216
 3946SOL     OW11861   0.672   3.927   8.937
 3946SOL    HW111862   0.762   3.911   8.897
 3946SOL    HW211863   0.680   3.932   9.036
 3947SOL     OW11864   0.075   4.069   7.481
 3947SOL    HW111865  -0.017   4.041   7.452
 3947SOL    HW211866   0.106   4.146   7.425
 3948SOL     OW11867   1.440   4.580   8.846
 3948SOL    HW111868   1.383   4.632   8.783
 3948SOL    HW211869   1.536   4.592   8.822
 3949SOL     OW11870   0.072   3.890   7.766
 3949SOL    HW111871   0.055   3.973   7.712
 3949SOL    HW211872   0.162   3.853   7.744
 3950SOL     OW11873   1.183   5.059   7.567
 3950SOL    HW111874   1.084   5.048   7.569
 3950SOL    HW211875   1.217   5.074   7.660
 3951SOL     OW11876   0.613   4.566   8.879
 3951SOL    HW111877   0.669   4.647   8.862
 3951SOL    HW211878   0.672   4.486   8.882
 3952SOL     OW11879   1.493   5.491   8.407
 3952SOL    HW111880   1.526   5.555   8.338
 3952SOL    HW211881   1.559   5.485   8.482
 3953SOL     OW11882   0.716   4.289   9.156
 3953SOL    HW111883   0.735   4.354   9.230
 3953SOL    HW211884   0.776   4.209   9.165
 3954SOL     OW11885   1.450   4.944   9.081
 3954SOL    HW111886   1.441   4.934   9.180
 3954SOL    HW211887   1.546   4.937   9.055
 3955SOL     OW11888   0.390   5.465   9.008
 3955SOL    HW111889   0.299   5.506   9.006
 3955SOL    HW211890   0.383   5.371   9.040
 3956SOL     OW11891   1.674   4.607   8.702
 3956SOL    HW111892   1.647   4.518   8.665
 3956SOL    HW211893   1.675   4.675   8.629
 3957SOL     OW11894   1.225   4.049   7.897
 3957SOL    HW111895   1.290   3.975   7.886
 3957SOL    HW211896   1.245   4.099   7.981
 3958SOL     OW11897   0.594   4.469   8.100
 3958SOL    HW111898   0.644   4.554   8.081
 3958SOL    HW211899   0.506   4.471   8.052
 3959SOL     OW11900   1.777   4.066   9.090
 3959SOL    HW111901   1.760   4.097   8.996
 3959SOL    HW211902   1.693   4.029   9.128
 3960SOL     OW11903   1.730   4.658   8.965
 3960SOL    HW111904   1.768   4.749   8.980
 3960SOL    HW211905   1.722   4.641   8.866
 3961SOL     OW11906   0.859   5.098   7.464
 3961SOL    HW111907   0.813   5.113   7.552
 3961SOL    HW211908   0.903   5.183   7.434
 3962SOL     OW11909   0.661   5.514   8.401
 3962SOL    HW111910   0.615   5.602   8.388
 3962SOL    HW211911   0.760   5.526   8.394
 3963SOL     OW11912   0.859   4.680   8.309
 3963SOL    HW111913   0.913   4.611   8.357
 3963SOL    HW211914   0.827   4.749   8.375
 3964SOL     OW11915   1.083   4.708   7.535
 3964SOL    HW111916   1.060   4.761   7.453
 3964SOL    HW211917   1.164   4.652   7.516
 3965SOL     OW11918   1.861   5.293   8.299
 3965SOL    HW111919   1.790   5.281   8.229
 3965SOL    HW211920   1.862   5.214   8.359
 3966SOL     OW11921   0.221   5.038   9.292
 3966SOL    HW111922   0.156   4.965   9.271
 3966SOL    HW211923   0.225   5.052   9.390
 3967SOL     OW11924   0.079   4.964   8.101
 3967SOL    HW111925   0.078   4.917   8.189
 3967SOL    HW211926   0.161   4.936   8.050
 3968SOL     OW11927   0.672   5.115   9.072
 3968SOL    HW111928   0.594   5.065   9.110
 3968SOL    HW211929   0.669   5.210   9.103
 3969SOL     OW11930   1.824   3.916   8.675
 3969SOL    HW111931   1.820   3.826   8.719
 3969SOL    HW211932   1.827   3.905   8.576
 3970SOL     OW11933   0.428   4.148   7.968
 3970SOL    HW111934   0.458   4.076   7.906
 3970SOL    HW211935   0.389   4.108   8.051
 3971SOL     OW11936   1.705   5.211   8.552
 3971SOL    HW111937   1.612   5.186   8.525
 3971SOL    HW211938   1.731   5.161   8.634
 3972SOL     OW11939   0.317   4.271   8.728
 3972SOL    HW111940   0.355   4.212   8.800
 3972SOL    HW211941   0.357   4.245   8.640
 3973SOL     OW11942   0.812   5.310   8.135
 3973SOL    HW111943   0.844   5.320   8.041
 3973SOL    HW211944   0.733   5.248   8.137
 3974SOL     OW11945   1.424   3.938   8.560
 3974SOL    HW111946   1.476   3.873   8.615
 3974SOL    HW211947   1.375   4.001   8.621
 3975SOL     OW11948   1.001   3.758   8.602
 3975SOL    HW111949   0.938   3.686   8.571
 3975SOL    HW211950   1.094   3.722   8.602
 3976SOL     OW11951   0.770   5.054   7.749
 3976SOL    HW111952   0.724   4.967   7.766
 3976SOL    HW211953   0.861   5.051   7.790
 3977SOL     OW11954   0.618   5.291   8.732
 3977SOL    HW111955   0.613   5.373   8.789
 3977SOL    HW211956   0.707   5.288   8.687
 3978SOL     OW11957   1.352   3.776   7.616
 3978SOL    HW111958   1.387   3.735   7.532
 3978SOL    HW211959   1.262   3.738   7.636
 3979SOL     OW11960   1.300   4.177   8.139
 3979SOL    HW111961   1.241   4.257   8.143
 3979SOL    HW211962   1.315   4.142   8.232
 3980SOL     OW11963   1.593   3.945   8.330
 3980SOL    HW111964   1.509   3.944   8.384
 3980SOL    HW211965   1.595   4.028   8.274
 3981SOL     OW11966   0.039   4.801   7.748
 3981SOL    HW111967   0.138   4.790   7.739
 3981SOL    HW211968  -0.001   4.715   7.780
 3982SOL     OW11969   0.875   5.370   7.785
 3982SOL    HW111970   0.798   5.335   7.731
 3982SOL    HW211971   0.843   5.441   7.847
 3983SOL     OW11972   0.230   4.352   9.423
 3983SOL    HW111973   0.137   4.350   9.460
 3983SOL    HW211974   0.231   4.313   9.331
 3984SOL     OW11975   0.225   3.999  10.306
 3984SOL    HW111976   0.260   3.982  10.398
 3984SOL    HW211977   0.137   3.954  10.294
 3985SOL     OW11978   0.019   4.092   9.957
 3985SOL    HW111979  -0.063   4.135   9.996
 3985SOL    HW211980  -0.009   4.019   9.894
 3986SOL     OW11981   0.569   4.999  10.475
 3986SOL    HW111982   0.476   4.992  10.438
 3986SOL    HW211983   0.580   5.088  10.519
 3987SOL     OW11984   1.555   5.235  10.013
 3987SOL    HW111985   1.498   5.219  10.094
 3987SOL    HW211986   1.496   5.245   9.933
 3988SOL     OW11987   1.135   4.427  10.027
 3988SOL    HW111988   1.192   4.505  10.002
 3988SOL    HW211989   1.075   4.453  10.103
 3989SOL     OW11990   1.755   4.331   9.541
 3989SOL    HW111991   1.743   4.318   9.442
 3989SOL    HW211992   1.725   4.250   9.590
 3990SOL     OW11993   0.768   4.868  10.333
 3990SOL    HW111994   0.690   4.885  10.393
 3990SOL    HW211995   0.802   4.955  10.297
 3991SOL     OW11996   0.850   4.522  11.133
 3991SOL    HW111997   0.846   4.598  11.198
 3991SOL    HW211998   0.872   4.558  11.042
 3992SOL     OW11999   0.685   4.736   9.975
 3992SOL    HW112000   0.754   4.720  10.045
 3992SOL    HW212001   0.612   4.793  10.013
 3993SOL     OW12002   0.686   4.885  11.113
 3993SOL    HW112003   0.746   4.964  11.127
 3993SOL    HW212004   0.600   4.916  11.072
 3994SOL     OW12005   0.335   5.159  10.371
 3994SOL    HW112006   0.257   5.128  10.318
 3994SOL    HW212007   0.393   5.217  10.314
 3995SOL     OW12008   1.460   5.229  10.649
 3995SOL    HW112009   1.484   5.323  10.675
 3995SOL    HW212010   1.444   5.175  10.731
 3996SOL     OW12011   0.438   4.116  10.809
 3996SOL    HW112012   0.520   4.060  10.818
 3996SOL    HW212013   0.357   4.058  10.813
 3997SOL     OW12014   1.603   4.171  10.047
 3997SOL    HW112015   1.529   4.217   9.997
 3997SOL    HW212016   1.654   4.239  10.100
 3998SOL     OW12017   0.231   5.437   9.793
 3998SOL    HW112018   0.265   5.514   9.847
 3998SOL    HW212019   0.275   5.437   9.703
 3999SOL     OW12020   1.127   5.065  11.000
 3999SOL    HW112021   1.174   5.065  11.088
 3999SOL    HW212022   1.079   4.978  10.989
 4000SOL     OW12023   0.230   5.158   9.848
 4000SOL    HW112024   0.204   5.254   9.848
 4000SOL    HW212025   0.159   5.104   9.893
 4001SOL     OW12026   0.240   4.815  10.196
 4001SOL    HW112027   0.254   4.731  10.248
 4001SOL    HW212028   0.185   4.879  10.251
 4002SOL     OW12029   0.620   5.510  10.749
 4002SOL    HW112030   0.528   5.493  10.784
 4002SOL    HW212031   0.648   5.602  10.775
 4003SOL     OW12032   0.606   4.688   9.433
 4003SOL    HW112033   0.613   4.772   9.379
 4003SOL    HW212034   0.652   4.701   9.521
 4004SOL     OW12035   1.594   3.838  10.790
 4004SOL    HW112036   1.576   3.905  10.718
 4004SOL    HW212037   1.591   3.884  10.879
 4005SOL     OW12038   0.122   4.367   9.873
 4005SOL    HW112039   0.077   4.279   9.890
 4005SOL    HW212040   0.121   4.421   9.957
 4006SOL     OW12041   1.842   5.491   9.669
 4006SOL    HW112042   1.896   5.462   9.749
 4006SOL    HW212043   1.872   5.581   9.640
 4007SOL     OW12044   0.027   5.320   9.427
 4007SOL    HW112045   0.008   5.224   9.448
 4007SOL    HW212046  -0.006   5.378   9.502
 4008SOL     OW12047   1.689   4.646   9.922
 4008SOL    HW112048   1.784   4.617   9.930
 4008SOL    HW212049   1.681   4.711   9.847
 4009SOL     OW12050   1.641   4.832   9.742
 4009SOL    HW112051   1.727   4.834   9.690
 4009SOL    HW212052   1.655   4.879   9.830
 4010SOL     OW12053   0.113   4.461  10.907
 4010SOL    HW112054   0.201   4.448  10.952
 4010SOL    HW212055   0.100   4.558  10.885
 4011SOL     OW12056   0.613   5.089  10.036
 4011SOL    HW112057   0.564   5.002  10.045
 4011SOL    HW212058   0.590   5.132   9.949
 4012SOL     OW12059   1.293   4.952  10.733
 4012SOL    HW112060   1.330   4.879  10.675
 4012SOL    HW212061   1.345   4.957  10.818
 4013SOL     OW12062   0.809   3.728   9.812
 4013SOL    HW112063   0.849   3.819   9.803
 4013SOL    HW212064   0.709   3.736   9.818
 4014SOL     OW12065   0.197   4.700  10.574
 4014SOL    HW112066   0.286   4.655  10.560
 4014SOL    HW212067   0.124   4.635  10.555
 4015SOL     OW12068   1.525   4.723   9.500
 4015SOL    HW112069   1.462   4.647   9.513
 4015SOL    HW212070   1.573   4.741   9.586
 4016SOL     OW12071   1.187   5.516  10.926
 4016SOL    HW112072   1.211   5.576  10.850
 4016SOL    HW212073   1.194   5.421  10.896
 4017SOL     OW12074   0.317   3.975  11.111
 4017SOL    HW112075   0.388   4.046  11.117
 4017SOL    HW212076   0.229   4.014  11.139
 4018SOL     OW12077   1.466   5.141  10.263
 4018SOL    HW112078   1.407   5.147  10.343
 4018SOL    HW212079   1.451   5.053  10.217
 4019SOL     OW12080   1.667   5.438   9.882
 4019SOL    HW112081   1.626   5.415   9.794
 4019SOL    HW212082   1.649   5.364   9.947
 4020SOL     OW12083   0.598   4.453   9.580
 4020SOL    HW112084   0.622   4.522   9.512
 4020SOL    HW212085   0.520   4.486   9.634
 4021SOL     OW12086   1.281   4.069  10.254
 4021SOL    HW112087   1.195   4.019  10.241
 4021SOL    HW212088   1.343   4.015  10.310
 4022SOL     OW12089   1.576   5.386   9.617
 4022SOL    HW112090   1.665   5.432   9.620
 4022SOL    HW212091   1.555   5.362   9.522
 4023SOL     OW12092   0.807   4.329  10.775
 4023SOL    HW112093   0.760   4.326  10.864
 4023SOL    HW212094   0.756   4.274  10.709
 4024SOL     OW12095   1.394   4.193  10.984
 4024SOL    HW112096   1.374   4.236  11.072
 4024SOL    HW212097   1.472   4.131  10.993
 4025SOL     OW12098   0.973   4.614  10.882
 4025SOL    HW112099   1.019   4.530  10.853
 4025SOL    HW212100   0.917   4.648  10.807
 4026SOL     OW12101   0.991   4.134  10.552
 4026SOL    HW112102   0.914   4.168  10.606
 4026SOL    HW212103   0.957   4.083  10.473
 4027SOL     OW12104   1.041   4.425   9.739
 4027SOL    HW112105   1.067   4.421   9.835
 4027SOL    HW212106   0.956   4.374   9.725
 4028SOL     OW12107   0.076   4.535  10.099
 4028SOL    HW112108   0.175   4.523  10.108
 4028SOL    HW212109   0.052   4.630  10.120
 4029SOL     OW12110   0.130   5.545  10.881
 4029SOL    HW112111   0.120   5.530  10.980
 4029SOL    HW212112   0.044   5.581  10.845
 4030SOL     OW12113   0.865   4.072   9.505
 4030SOL    HW112114   0.924   4.135   9.456
 4030SOL    HW212115   0.884   3.978   9.476
 4031SOL     OW12116   1.719   4.309  11.141
 4031SOL    HW112117   1.693   4.398  11.105
 4031SOL    HW212118   1.717   4.241  11.068
 4032SOL     OW12119   1.362   4.868   9.855
 4032SOL    HW112120   1.445   4.839   9.807
 4032SOL    HW212121   1.313   4.935   9.799
 4033SOL     OW12122   0.550   3.920  10.195
 4033SOL    HW112123   0.545   3.915  10.295
 4033SOL    HW212124   0.552   4.016  10.166
 4034SOL     OW12125   1.008   5.180   9.787
 4034SOL    HW112126   0.962   5.252   9.735
 4034SOL    HW212127   1.004   5.200   9.885
 4035SOL     OW12128   0.351   5.525  10.163
 4035SOL    HW112129   0.401   5.439  10.169
 4035SOL    HW212130   0.416   5.602  10.160
 4036SOL     OW12131   1.795   4.790  10.183
 4036SOL    HW112132   1.733   4.775  10.107
 4036SOL    HW212133   1.743   4.801  10.268
 4037SOL     OW12134   1.227   5.274  10.816
 4037SOL    HW112135   1.233   5.197  10.880
 4037SOL    HW212136   1.175   5.248  10.736
 4038SOL     OW12137   0.321   4.667   9.552
 4038SOL    HW112138   0.403   4.706   9.510
 4038SOL    HW212139   0.294   4.585   9.503
 4039SOL     OW12140   1.458   4.459  10.038
 4039SOL    HW112141   1.453   4.394  10.113
 4039SOL    HW212142   1.538   4.518  10.051
 4040SOL     OW12143   0.461   4.990  11.037
 4040SOL    HW112144   0.411   4.991  10.951
 4040SOL    HW212145   0.398   4.972  11.113
 4041SOL     OW12146   1.111   5.500   9.547
 4041SOL    HW112147   1.051   5.438   9.597
 4041SOL    HW212148   1.142   5.456   9.462
 4042SOL     OW12149   0.202   4.009  10.808
 4042SOL    HW112150   0.122   4.069  10.795
 4042SOL    HW212151   0.192   3.960  10.894
 4043SOL     OW12152   1.632   5.101   9.391
 4043SOL    HW112153   1.600   5.195   9.381
 4043SOL    HW212154   1.556   5.038   9.379
 4044SOL     OW12155   0.464   5.467   9.633
 4044SOL    HW112156   0.497   5.506   9.719
 4044SOL    HW212157   0.540   5.460   9.568
 4045SOL     OW12158   1.400   3.831   9.736
 4045SOL    HW112159   1.376   3.794   9.646
 4045SOL    HW212160   1.499   3.847   9.740
 4046SOL     OW12161   0.249   5.509  10.551
 4046SOL    HW112162   0.306   5.444  10.601
 4046SOL    HW212163   0.233   5.476  10.458
 4047SOL     OW12164   0.940   5.422  10.214
 4047SOL    HW112165   1.020   5.365  10.235
 4047SOL    HW212166   0.891   5.382  10.137
 4048SOL     OW12167   0.382   4.424   9.790
 4048SOL    HW112168   0.427   4.334   9.787
 4048SOL    HW212169   0.288   4.413   9.823
 4049SOL     OW12170   1.547   3.946  11.039
 4049SOL    HW112171   1.542   3.983  11.131
 4049SOL    HW212172   1.475   3.877  11.027
 4050SOL     OW12173   0.614   3.846   9.427
 4050SOL    HW112174   0.712   3.824   9.434
 4050SOL    HW212175   0.583   3.829   9.334
 4051SOL     OW12176   0.781   3.988  11.059
 4051SOL    HW112177   0.848   3.927  11.102
 4051SOL    HW212178   0.708   4.007  11.124
 4052SOL     OW12179   0.888   5.238  10.505
 4052SOL    HW112180   0.865   5.213  10.411
 4052SOL    HW212181   0.949   5.169  10.544
 4053SOL     OW12182   1.351   4.314  10.743
 4053SOL    HW112183   1.379   4.271  10.828
 4053SOL    HW212184   1.376   4.410  10.744
 4054SOL     OW12185   0.803   5.126  10.234
 4054SOL    HW112186   0.893   5.140  10.192
 4054SOL    HW212187   0.732   5.128  10.163
 4055SOL     OW12188   0.922   4.227  10.209
 4055SOL    HW112189   0.897   4.218  10.113
 4055SOL    HW212190   0.970   4.145  10.240
 4056SOL     OW12191   0.539   3.788   9.822
 4056SOL    HW112192   0.458   3.789   9.880
 4056SOL    HW212193   0.542   3.871   9.767
 4057SOL     OW12194   1.434   4.912   9.351
 4057SOL    HW112195   1.466   4.836   9.408
 4057SOL    HW212196   1.342   4.939   9.381
 4058SOL     OW12197   0.297   3.759   9.481
 4058SOL    HW112198   0.346   3.843   9.460
 4058SOL    HW212199   0.359   3.694   9.526
 4059SOL     OW12200   0.935   3.960   9.790
 4059SOL    HW112201   0.887   4.001   9.712
 4059SOL    HW212202   1.034   3.958   9.771
 4060SOL     OW12203   1.076   4.407  10.774
 4060SOL    HW112204   0.996   4.346  10.777
 4060SOL    HW212205   1.157   4.354  10.750
 4061SOL     OW12206   1.227   5.294  10.103
 4061SOL    HW112207   1.248   5.368  10.038
 4061SOL    HW212208   1.295   5.294  10.176
 4062SOL     OW12209   0.459   4.876  10.051
 4062SOL    HW112210   0.388   4.849  10.116
 4062SOL    HW212211   0.433   4.848   9.958
 4063SOL     OW12212   1.271   5.521   9.901
 4063SOL    HW112213   1.315   5.585   9.837
 4063SOL    HW212214   1.221   5.573   9.971
 4064SOL     OW12215   1.032   4.273   9.326
 4064SOL    HW112216   0.991   4.355   9.287
 4064SOL    HW212217   1.096   4.299   9.399
 4065SOL     OW12218   0.078   4.280  10.696
 4065SOL    HW112219   0.170   4.279  10.655
 4065SOL    HW212220   0.072   4.354  10.763
 4066SOL     OW12221   0.561   3.946  10.457
 4066SOL    HW112222   0.599   3.862  10.494
 4066SOL    HW212223   0.473   3.965  10.501
 4067SOL     OW12224   0.866   4.178   9.952
 4067SOL    HW112225   0.834   4.250   9.890
 4067SOL    HW212226   0.890   4.097   9.899
 4068SOL     OW12227   1.017   3.763  10.063
 4068SOL    HW112228   0.945   3.768   9.994
 4068SOL    HW212229   0.993   3.694  10.132
 4069SOL     OW12230   1.429   4.897  10.177
 4069SOL    HW112231   1.374   4.813  10.170
 4069SOL    HW212232   1.455   4.926  10.085
 4070SOL     OW12233   1.466   4.314  10.302
 4070SOL    HW112234   1.436   4.219  10.309
 4070SOL    HW212235   1.539   4.330  10.368
 4071SOL     OW12236   1.857   4.557   9.687
 4071SOL    HW112237   1.899   4.493   9.751
 4071SOL    HW212238   1.819   4.506   9.609
 4072SOL     OW12239   0.488   5.109   9.484
 4072SOL    HW112240   0.401   5.094   9.531
 4072SOL    HW212241   0.471   5.135   9.389
 4073SOL     OW12242   1.664   5.004   9.967
 4073SOL    HW112243   1.763   5.012   9.981
 4073SOL    HW212244   1.619   5.088   9.998
 4074SOL     OW12245   1.390   4.299   9.388
 4074SOL    HW112246   1.336   4.278   9.469
 4074SOL    HW212247   1.481   4.258   9.397
 4075SOL     OW12248   0.527   3.980   9.638
 4075SOL    HW112249   0.554   3.921   9.563
 4075SOL    HW212250   0.527   4.075   9.607
 4076SOL     OW12251   1.754   4.947  10.898
 4076SOL    HW112252   1.845   4.908  10.885
 4076SOL    HW212253   1.762   5.043  10.922
 4077SOL     OW12254   1.064   5.071  10.650
 4077SOL    HW112255   0.984   5.048  10.705
 4077SOL    HW212256   1.147   5.045  10.699
 4078SOL     OW12257   1.592   5.353  10.935
 4078SOL    HW112258   1.619   5.387  10.845
 4078SOL    HW212259   1.671   5.315  10.981
 4079SOL     OW12260   1.111   4.919  10.410
 4079SOL    HW112261   1.071   4.963  10.491
 4079SOL    HW212262   1.070   4.956  10.327
 4080SOL     OW12263   1.638   4.823  10.389
 4080SOL    HW112264   1.643   4.904  10.448
 4080SOL    HW212265   1.552   4.825  10.338
 4081SOL     OW12266   0.915   3.813  10.712
 4081SOL    HW112267   0.940   3.793  10.617
 4081SOL    HW212268   0.987   3.869  10.754
 4082SOL     OW12269   0.980   4.840  11.029
 4082SOL    HW112270   0.881   4.846  11.039
 4082SOL    HW212271   1.003   4.760  10.973
 4083SOL     OW12272   0.705   4.774   9.678
 4083SOL    HW112273   0.691   4.781   9.777
 4083SOL    HW212274   0.789   4.723   9.660
 4084SOL     OW12275   0.410   4.537  10.561
 4084SOL    HW112276   0.496   4.549  10.611
 4084SOL    HW212277   0.368   4.450  10.588
 4085SOL     OW12278   1.274   4.110  10.572
 4085SOL    HW112279   1.295   4.184  10.636
 4085SOL    HW212280   1.185   4.127  10.529
 4086SOL     OW12281   0.064   5.288  10.641
 4086SOL    HW112282   0.018   5.370  10.607
 4086SOL    HW212283   0.162   5.307  10.650
 4087SOL     OW12284   0.367   4.824   9.811
 4087SOL    HW112285   0.360   4.907   9.755
 4087SOL    HW212286   0.371   4.744   9.751
 4088SOL     OW12287   0.566   4.261  10.175
 4088SOL    HW112288   0.578   4.327  10.101
 4088SOL    HW212289   0.612   4.295  10.258
 4089SOL     OW12290   1.252   5.072   9.698
 4089SOL    HW112291   1.302   5.149   9.738
 4089SOL    HW212292   1.157   5.074   9.730
 4090SOL     OW12293   1.272   5.169  10.452
 4090SOL    HW112294   1.319   5.182  10.539
 4090SOL    HW212295   1.206   5.095  10.461
 4091SOL     OW12296   1.582   4.363   9.782
 4091SOL    HW112297   1.551   4.424   9.855
 4091SOL    HW212298   1.632   4.415   9.713
 4092SOL     OW12299   0.354   5.234  10.639
 4092SOL    HW112300   0.333   5.190  10.552
 4092SOL    HW212301   0.451   5.260  10.642
 4093SOL     OW12302   0.402   4.475  10.908
 4093SOL    HW112303   0.470   4.530  10.861
 4093SOL    HW212304   0.442   4.387  10.935
 4094SOL     OW12305   1.587   4.503  10.980
 4094SOL    HW112306   1.495   4.541  10.975
 4094SOL    HW212307   1.647   4.550  10.915
 4095SOL     OW12308   1.013   3.829  11.080
 4095SOL    HW112309   1.019   3.914  11.028
 4095SOL    HW212310   1.045   3.753  11.023
 4096SOL     OW12311   0.504   3.774  11.050
 4096SOL    HW112312   0.462   3.717  10.980
 4096SOL    HW212313   0.438   3.843  11.082
 4097SOL     OW12314   0.573   4.594  10.339
 4097SOL    HW112315   0.617   4.683  10.330
 4097SOL    HW212316   0.510   4.594  10.416
 4098SOL     OW12317   1.360   4.586  10.355
 4098SOL    HW112318   1.285   4.586  10.289
 4098SOL    HW212319   1.397   4.494  10.364
 4099SOL     OW12320   1.209   4.249   9.585
 4099SOL    HW112321   1.222   4.165   9.639
 4099SOL    HW212322   1.180   4.323   9.645
 4100SOL     OW12323   0.307   3.937  10.541
 4100SOL    HW112324   0.284   3.974  10.631
 4100SOL    HW212325   0.277   3.842  10.535
 4101SOL     OW12326   0.037   5.034  10.592
 4101SOL    HW112327   0.090   4.985  10.660
 4101SOL    HW212328   0.059   5.132  10.597
 4102SOL     OW12329   0.732   4.358  10.374
 4102SOL    HW112330   0.791   4.332  10.298
 4102SOL    HW212331   0.704   4.454  10.363
 4103SOL     OW12332   1.728   4.659  11.164
 4103SOL    HW112333   1.682   4.652  11.075
 4103SOL    HW212334   1.666   4.703  11.230
 4104SOL     OW12335   0.307   3.787   9.928
 4104SOL    HW112336   0.296   3.881   9.961
 4104SOL    HW212337   0.302   3.724  10.005
 4105SOL     OW12338   1.622   4.091   9.684
 4105SOL    HW112339   1.624   4.015   9.748
 4105SOL    HW212340   1.574   4.168   9.724
 4106SOL     OW12341   1.023   4.490  10.276
 4106SOL    HW112342   1.038   4.511  10.372
 4106SOL    HW212343   0.993   4.395  10.267
 4107SOL     OW12344   0.980   5.297  11.010
 4107SOL    HW112345   0.960   5.341  10.922
 4107SOL    HW212346   1.019   5.206  10.994
 4108SOL     OW12347   1.859   5.242  10.915
 4108SOL    HW112348   1.873   5.269  10.820
 4108SOL    HW212349   1.942   5.264  10.968
 4109SOL     OW12350   0.350   4.622  11.114
 4109SOL    HW112351   0.426   4.666  11.162
 4109SOL    HW212352   0.385   4.575  11.032
 4110SOL     OW12353   1.540   3.998   9.435
 4110SOL    HW112354   1.479   3.923   9.458
 4110SOL    HW212355   1.562   4.050   9.518
 4111SOL     OW12356   1.303   4.562   9.352
 4111SOL    HW112357   1.337   4.469   9.367
 4111SOL    HW212358   1.321   4.589   9.257
 4112SOL     OW12359   1.068   5.057  10.159
 4112SOL    HW112360   1.075   4.973  10.104
 4112SOL    HW212361   1.130   5.126  10.123
 4113SOL     OW12362   0.319   4.534  10.259
 4113SOL    HW112363   0.412   4.570  10.264
 4113SOL    HW212364   0.313   4.449  10.311
 4114SOL     OW12365   0.339   4.233  10.316
 4114SOL    HW112366   0.287   4.150  10.299
 4114SOL    HW212367   0.416   4.238  10.252
 4115SOL     OW12368   1.138   4.104  10.988
 4115SOL    HW112369   1.093   4.167  11.052
 4115SOL    HW212370   1.231   4.135  10.971
 4116SOL     OW12371   1.160   3.931  10.787
 4116SOL    HW112372   1.160   3.995  10.864
 4116SOL    HW212373   1.188   3.979  10.704
 4117SOL     OW12374   0.008   5.050   9.510
 4117SOL    HW112375  -0.085   5.071   9.479
 4117SOL    HW212376   0.018   4.951   9.523
 4118SOL     OW12377   0.088   5.525  10.237
 4118SOL    HW112378   0.046   5.439  10.210
 4118SOL    HW212379   0.182   5.528  10.203
 4119SOL     OW12380   0.504   5.292  10.220
 4119SOL    HW112381   0.570   5.366  10.229
 4119SOL    HW212382   0.548   5.213  10.178
 4120SOL     OW12383   1.002   4.520  10.548
 4120SOL    HW112384   1.043   4.488  10.634
 4120SOL    HW212385   0.906   4.493  10.545
 4121SOL     OW12386   0.040   4.268  10.424
 4121SOL    HW112387   0.125   4.235  10.383
 4121SOL    HW212388   0.053   4.283  10.522
 4122SOL     OW12389   0.189   4.244  11.032
 4122SOL    HW112390   0.248   4.204  10.962
 4122SOL    HW212391   0.131   4.315  10.991
 4123SOL     OW12392   1.369   4.674  10.970
 4123SOL    HW112393   1.408   4.763  10.990
 4123SOL    HW212394   1.379   4.654  10.873
 4124SOL     OW12395   0.815   4.296   9.635
 4124SOL    HW112396   0.822   4.207   9.589
 4124SOL    HW212397   0.721   4.330   9.627
 4125SOL     OW12398   1.657   4.328  10.516
 4125SOL    HW112399   1.619   4.259  10.578
 4125SOL    HW212400   1.739   4.292  10.472
 4126SOL     OW12401   0.252   5.288  11.054
 4126SOL    HW112402   0.222   5.345  11.130
 4126SOL    HW212403   0.245   5.191  11.080
 4127SOL     OW12404   0.671   4.188  10.579
 4127SOL    HW112405   0.637   4.099  10.549
 4127SOL    HW212406   0.697   4.242  10.499
 4128SOL     OW12407   0.930   5.402  10.775
 4128SOL    HW112408   0.906   5.384  10.680
 4128SOL    HW212409   0.960   5.496  10.785
 4129SOL     OW12410   0.473   4.224   9.501
 4129SOL    HW112411   0.534   4.304   9.505
 4129SOL    HW212412   0.378   4.255   9.508
 4130SOL     OW12413   0.159   4.861  10.776
 4130SOL    HW112414   0.181   4.800  10.852
 4130SOL    HW212415   0.169   4.812  10.690
 4131SOL     OW12416   1.347   4.783  10.544
 4131SOL    HW112417   1.371   4.720  10.470
 4131SOL    HW212418   1.257   4.823  10.526
 4132SOL     OW12419   1.302   4.579   9.619
 4132SOL    HW112420   1.216   4.548   9.661
 4132SOL    HW212421   1.298   4.565   9.520
 4133SOL     OW12422   1.759   5.471  10.464
 4133SOL    HW112423   1.820   5.501  10.391
 4133SOL    HW212424   1.721   5.382  10.442
 4134SOL     OW12425   1.252   5.455  10.438
 4134SOL    HW112426   1.336   5.460  10.384
 4134SOL    HW212427   1.229   5.359  10.456
 4135SOL     OW12428   0.083   4.982  10.332
 4135SOL    HW112429   0.078   4.981  10.432
 4135SOL    HW212430   0.000   4.941  10.294
 4136SOL     OW12431   0.688   5.386  11.026
 4136SOL    HW112432   0.632   5.467  11.035
 4136SOL    HW212433   0.740   5.390  10.940
 4137SOL     OW12434   1.726   3.859   9.833
 4137SOL    HW112435   1.799   3.842   9.766
 4137SOL    HW212436   1.695   3.772   9.871
 4138SOL     OW12437   1.388   5.297   9.787
 4138SOL    HW112438   1.455   5.309   9.713
 4138SOL    HW212439   1.348   5.386   9.810
 4139SOL     OW12440   0.130   5.518  11.161
 4139SOL    HW112441   0.089   5.444  11.214
 4139SOL    HW212442   0.194   5.569  11.219
 4140SOL     OW12443   1.280   4.651   9.982
 4140SOL    HW112444   1.340   4.570   9.984
 4140SOL    HW212445   1.320   4.720   9.922
 4141SOL     OW12446   0.830   4.997  10.732
 4141SOL    HW112447   0.825   5.030  10.827
 4141SOL    HW212448   0.744   5.016  10.686
 4142SOL     OW12449   0.672   5.340   9.464
 4142SOL    HW112450   0.681   5.350   9.365
 4142SOL    HW212451   0.632   5.251   9.485
 4143SOL     OW12452   1.650   5.444  10.704
 4143SOL    HW112453   1.703   5.454  10.620
 4143SOL    HW212454   1.623   5.534  10.738
 4144SOL     OW12455   1.841   3.899  10.273
 4144SOL    HW112456   1.880   3.814  10.237
 4144SOL    HW212457   1.743   3.901  10.254
 4145SOL     OW12458   0.263   4.050  10.030
 4145SOL    HW112459   0.184   4.101   9.996
 4145SOL    HW212460   0.254   4.035  10.128
 4146SOL     OW12461   1.194   5.336   9.341
 4146SOL    HW112462   1.200   5.243   9.378
 4146SOL    HW212463   1.135   5.336   9.261
 4147SOL     OW12464   0.822   4.726  10.682
 4147SOL    HW112465   0.862   4.725  10.590
 4147SOL    HW212466   0.832   4.818  10.722
 4148SOL     OW12467   0.916   4.634   9.601
 4148SOL    HW112468   0.979   4.672   9.533
 4148SOL    HW212469   0.956   4.551   9.640
 4149SOL     OW12470   1.504   5.331   9.354
 4149SOL    HW112471   1.412   5.368   9.361
 4149SOL    HW212472   1.542   5.351   9.264
 4150SOL     OW12473   0.372   5.012  10.800
 4150SOL    HW112474   0.359   5.105  10.766
 4150SOL    HW212475   0.288   4.960  10.787
 4151SOL     OW12476   1.614   5.016  10.599
 4151SOL    HW112477   1.674   5.019  10.679
 4151SOL    HW212478   1.539   5.080  10.612
 4152SOL     OW12479   1.039   4.822  10.006
 4152SOL    HW112480   0.969   4.775  10.060
 4152SOL    HW212481   1.098   4.754   9.963
 4153SOL     OW12482   1.014   3.960  10.281
 4153SOL    HW112483   1.006   3.924  10.188
 4153SOL    HW212484   1.012   3.884  10.346
 4154SOL     OW12485   0.590   5.211   9.801
 4154SOL    HW112486   0.632   5.153   9.731
 4154SOL    HW212487   0.546   5.290   9.757
 4155SOL     OW12488   1.709   4.109  10.691
 4155SOL    HW112489   1.782   4.178  10.695
 4155SOL    HW212490   1.737   4.034  10.632
 4156SOL     OW12491   0.255   5.072   9.600
 4156SOL    HW112492   0.159   5.073   9.573
 4156SOL    HW212493   0.267   5.125   9.684
 4157SOL     OW12494   0.105   4.737  11.036
 4157SOL    HW112495   0.028   4.704  11.090
 4157SOL    HW212496   0.190   4.707  11.078
 4158SOL     OW12497   0.672   3.927  10.799
 4158SOL    HW112498   0.762   3.911  10.759
 4158SOL    HW212499   0.680   3.932  10.898
 4159SOL     OW12500   0.075   4.069   9.343
 4159SOL    HW112501  -0.017   4.041   9.314
 4159SOL    HW212502   0.106   4.146   9.287
 4160SOL     OW12503   1.440   4.580  10.708
 4160SOL    HW112504   1.383   4.632  10.645
 4160SOL    HW212505   1.536   4.592  10.684
 4161SOL     OW12506   0.072   3.890   9.628
 4161SOL    HW112507   0.055   3.973   9.574
 4161SOL    HW212508   0.162   3.853   9.606
 4162SOL     OW12509   1.183   5.059   9.429
 4162SOL    HW112510   1.084   5.048   9.431
 4162SOL    HW212511   1.217   5.074   9.522
 4163SOL     OW12512   0.613   4.566  10.741
 4163SOL    HW112513   0.669   4.647  10.724
 4163SOL    HW212514   0.672   4.486  10.744
 4164SOL     OW12515   1.493   5.491  10.269
 4164SOL    HW112516   1.526   5.555  10.200
 4164SOL    HW212517   1.559   5.485  10.344
 4165SOL     OW12518   0.716   4.289  11.018
 4165SOL    HW112519   0.735   4.354  11.092
 4165SOL    HW212520   0.776   4.209  11.027
 4166SOL     OW12521   1.450   4.944  10.943
 4166SOL    HW112522   1.441   4.934  11.042
 4166SOL    HW212523   1.546   4.937  10.917
 4167SOL     OW12524   0.390   5.465  10.870
 4167SOL    HW112525   0.299   5.506  10.868
 4167SOL    HW212526   0.383   5.371  10.902
 4168SOL     OW12527   1.674   4.607  10.564
 4168SOL    HW112528   1.647   4.518  10.527
 4168SOL    HW212529   1.675   4.675  10.491
 4169SOL     OW12530   1.225   4.049   9.759
 4169SOL    HW112531   1.290   3.975   9.748
 4169SOL    HW212532   1.245   4.099   9.843
 4170SOL     OW12533   0.594   4.469   9.962
 4170SOL    HW112534   0.644   4.554   9.943
 4170SOL    HW212535   0.506   4.471   9.914
 4171SOL     OW12536   1.777   4.066  10.952
 4171SOL    HW112537   1.760   4.097  10.858
 4171SOL    HW212538   1.693   4.029  10.990
 4172SOL     OW12539   1.730   4.658  10.827
 4172SOL    HW112540   1.768   4.749  10.842
 4172SOL    HW212541   1.722   4.641  10.728
 4173SOL     OW12542   0.859   5.098   9.326
 4173SOL    HW112543   0.813   5.113   9.414
 4173SOL    HW212544   0.903   5.183   9.296
 4174SOL     OW12545   0.661   5.514  10.263
 4174SOL    HW112546   0.615   5.602  10.250
 4174SOL    HW212547   0.760   5.526  10.256
 4175SOL     OW12548   0.859   4.680  10.171
 4175SOL    HW112549   0.913   4.611  10.219
 4175SOL    HW212550   0.827   4.749  10.237
 4176SOL     OW12551   1.083   4.708   9.397
 4176SOL    HW112552   1.060   4.761   9.315
 4176SOL    HW212553   1.164   4.652   9.378
 4177SOL     OW12554   1.861   5.293  10.161
 4177SOL    HW112555   1.790   5.281  10.091
 4177SOL    HW212556   1.862   5.214  10.221
 4178SOL     OW12557   0.221   5.038  11.154
 4178SOL    HW112558   0.156   4.965  11.133
 4178SOL    HW212559   0.225   5.052  11.252
 4179SOL     OW12560   0.079   4.964   9.963
 4179SOL    HW112561   0.078   4.917  10.051
 4179SOL    HW212562   0.161   4.936   9.912
 4180SOL     OW12563   0.672   5.115  10.934
 4180SOL    HW112564   0.594   5.065  10.972
 4180SOL    HW212565   0.669   5.210  10.965
 4181SOL     OW12566   1.824   3.916  10.537
 4181SOL    HW112567   1.820   3.826  10.581
 4181SOL    HW212568   1.827   3.905  10.438
 4182SOL     OW12569   0.428   4.148   9.830
 4182SOL    HW112570   0.458   4.076   9.768
 4182SOL    HW212571   0.389   4.108   9.913
 4183SOL     OW12572   1.705   5.211  10.414
 4183SOL    HW112573   1.612   5.186  10.387
 4183SOL    HW212574   1.731   5.161  10.496
 4184SOL     OW12575   0.317   4.271  10.590
 4184SOL    HW112576   0.355   4.212  10.662
 4184SOL    HW212577   0.357   4.245  10.502
 4185SOL     OW12578   0.812   5.310   9.997
 4185SOL    HW112579   0.844   5.320   9.903
 4185SOL    HW212580   0.733   5.248   9.999
 4186SOL     OW12581   1.424   3.938  10.422
 4186SOL    HW112582   1.476   3.873  10.477
 4186SOL    HW212583   1.375   4.001  10.483
 4187SOL     OW12584   1.001   3.758  10.464
 4187SOL    HW112585   0.938   3.686  10.433
 4187SOL    HW212586   1.094   3.722  10.464
 4188SOL     OW12587   0.770   5.054   9.611
 4188SOL    HW112588   0.724   4.967   9.628
 4188SOL    HW212589   0.861   5.051   9.652
 4189SOL     OW12590   0.618   5.291  10.594
 4189SOL    HW112591   0.613   5.373  10.651
 4189SOL    HW212592   0.707   5.288  10.549
 4190SOL     OW12593   1.352   3.776   9.478
 4190SOL    HW112594   1.387   3.735   9.394
 4190SOL    HW212595   1.262   3.738   9.498
 4191SOL     OW12596   1.300   4.177  10.001
 4191SOL    HW112597   1.241   4.257  10.005
 4191SOL    HW212598   1.315   4.142  10.094
 4192SOL     OW12599   1.593   3.945  10.192
 4192SOL    HW112600   1.509   3.944  10.246
 4192SOL    HW212601   1.595   4.028  10.136
 4193SOL     OW12602   0.039   4.801   9.610
 4193SOL    HW112603   0.138   4.790   9.601
 4193SOL    HW212604  -0.001   4.715   9.642
 4194SOL     OW12605   0.875   5.370   9.647
 4194SOL    HW112606   0.798   5.335   9.593
 4194SOL    HW212607   0.843   5.441   9.709
 4195SOL     OW12608   0.230   4.352  11.285
 4195SOL    HW112609   0.137   4.350  11.322
 4195SOL    HW212610   0.231   4.313  11.193
 4196SOL     OW12611   0.225   3.999  12.168
 4196SOL    HW112612   0.260   3.982  12.260
 4196SOL    HW212613   0.137   3.954  12.156
 4197SOL     OW12614   0.019   4.092  11.819
 4197SOL    HW112615  -0.063   4.135  11.858
 4197SOL    HW212616  -0.009   4.019  11.756
 4198SOL     OW12617   0.569   4.999  12.337
 4198SOL    HW112618   0.476   4.992  12.300
 4198SOL    HW212619   0.580   5.088  12.381
 4199SOL     OW12620   1.555   5.235  11.875
 4199SOL    HW112621   1.498   5.219  11.956
 4199SOL    HW212622   1.496   5.245  11.795
 4200SOL     OW12623   1.135   4.427  11.889
 4200SOL    HW112624   1.192   4.505  11.864
 4200SOL    HW212625   1.075   4.453  11.965
 4201SOL     OW12626   1.755   4.331  11.403
 4201SOL    HW112627   1.743   4.318  11.304
 4201SOL    HW212628   1.725   4.250  11.452
 4202SOL     OW12629   0.768   4.868  12.195
 4202SOL    HW112630   0.690   4.885  12.255
 4202SOL    HW212631   0.802   4.955  12.159
 4203SOL     OW12632   0.685   4.736  11.837
 4203SOL    HW112633   0.754   4.720  11.907
 4203SOL    HW212634   0.612   4.793  11.875
 4204SOL     OW12635   0.335   5.159  12.233
 4204SOL    HW112636   0.257   5.128  12.180
 4204SOL    HW212637   0.393   5.217  12.176
 4205SOL     OW12638   1.460   5.229  12.511
 4205SOL    HW112639   1.484   5.323  12.537
 4205SOL    HW212640   1.444   5.175  12.593
 4206SOL     OW12641   0.438   4.116  12.671
 4206SOL    HW112642   0.520   4.060  12.680
 4206SOL    HW212643   0.357   4.058  12.675
 4207SOL     OW12644   1.603   4.171  11.909
 4207SOL    HW112645   1.529   4.217  11.859
 4207SOL    HW212646   1.654   4.239  11.962
 4208SOL     OW12647   0.231   5.437  11.655
 4208SOL    HW112648   0.265   5.514  11.709
 4208SOL    HW212649   0.275   5.437  11.565
 4209SOL     OW12650   0.230   5.158  11.710
 4209SOL    HW112651   0.204   5.254  11.710
 4209SOL    HW212652   0.159   5.104  11.755
 4210SOL     OW12653   0.240   4.815  12.058
 4210SOL    HW112654   0.254   4.731  12.110
 4210SOL    HW212655   0.185   4.879  12.113
 4211SOL     OW12656   0.620   5.510  12.611
 4211SOL    HW112657   0.528   5.493  12.646
 4211SOL    HW212658   0.648   5.602  12.637
 4212SOL     OW12659   0.606   4.688  11.295
 4212SOL    HW112660   0.613   4.772  11.241
 4212SOL    HW212661   0.652   4.701  11.383
 4213SOL     OW12662   1.594   3.838  12.652
 4213SOL    HW112663   1.576   3.905  12.580
 4213SOL    HW212664   1.591   3.884  12.741
 4214SOL     OW12665   0.122   4.367  11.735
 4214SOL    HW112666   0.077   4.279  11.752
 4214SOL    HW212667   0.121   4.421  11.819
 4215SOL     OW12668   1.842   5.491  11.531
 4215SOL    HW112669   1.896   5.462  11.611
 4215SOL    HW212670   1.872   5.581  11.502
 4216SOL     OW12671   0.027   5.320  11.289
 4216SOL    HW112672   0.008   5.224  11.310
 4216SOL    HW212673  -0.006   5.378  11.364
 4217SOL     OW12674   1.689   4.646  11.784
 4217SOL    HW112675   1.784   4.617  11.792
 4217SOL    HW212676   1.681   4.711  11.709
 4218SOL     OW12677   1.641   4.832  11.604
 4218SOL    HW112678   1.727   4.834  11.552
 4218SOL    HW212679   1.655   4.879  11.692
 4219SOL     OW12680   0.113   4.461  12.769
 4219SOL    HW112681   0.201   4.448  12.814
 4219SOL    HW212682   0.100   4.558  12.747
 4220SOL     OW12683   0.613   5.089  11.898
 4220SOL    HW112684   0.564   5.002  11.907
 4220SOL    HW212685   0.590   5.132  11.811
 4221SOL     OW12686   1.293   4.952  12.595
 4221SOL    HW112687   1.330   4.879  12.537
 4221SOL    HW212688   1.345   4.957  12.680
 4222SOL     OW12689   0.809   3.728  11.674
 4222SOL    HW112690   0.849   3.819  11.665
 4222SOL    HW212691   0.709   3.736  11.680
 4223SOL     OW12692   0.197   4.700  12.436
 4223SOL    HW112693   0.286   4.655  12.422
 4223SOL    HW212694   0.124   4.635  12.417
 4224SOL     OW12695   1.525   4.723  11.362
 4224SOL    HW112696   1.462   4.647  11.375
 4224SOL    HW212697   1.573   4.741  11.448
 4225SOL     OW12698   1.466   5.141  12.125
 4225SOL    HW112699   1.407   5.147  12.205
 4225SOL    HW212700   1.451   5.053  12.079
 4226SOL     OW12701   1.667   5.438  11.744
 4226SOL    HW112702   1.626   5.415  11.656
 4226SOL    HW212703   1.649   5.364  11.809
 4227SOL     OW12704   0.598   4.453  11.442
 4227SOL    HW112705   0.622   4.522  11.374
 4227SOL    HW212706   0.520   4.486  11.496
 4228SOL     OW12707   1.281   4.069  12.116
 4228SOL    HW112708   1.195   4.019  12.103
 4228SOL    HW212709   1.343   4.015  12.172
 4229SOL     OW12710   1.576   5.386  11.479
 4229SOL    HW112711   1.665   5.432  11.482
 4229SOL    HW212712   1.555   5.362  11.384
 4230SOL     OW12713   0.807   4.329  12.637
 4230SOL    HW112714   0.760   4.326  12.726
 4230SOL    HW212715   0.756   4.274  12.571
 4231SOL     OW12716   0.973   4.614  12.744
 4231SOL    HW112717   1.019   4.530  12.715
 4231SOL    HW212718   0.917   4.648  12.669
 4232SOL     OW12719   0.991   4.134  12.414
 4232SOL    HW112720   0.914   4.168  12.468
 4232SOL    HW212721   0.957   4.083  12.335
 4233SOL     OW12722   1.041   4.425  11.601
 4233SOL    HW112723   1.067   4.421  11.697
 4233SOL    HW212724   0.956   4.374  11.587
 4234SOL     OW12725   0.076   4.535  11.961
 4234SOL    HW112726   0.175   4.523  11.970
 4234SOL    HW212727   0.052   4.630  11.982
 4235SOL     OW12728   0.130   5.545  12.743
 4235SOL    HW112729   0.120   5.530  12.842
 4235SOL    HW212730   0.044   5.581  12.707
 4236SOL     OW12731   0.865   4.072  11.367
 4236SOL    HW112732   0.924   4.135  11.318
 4236SOL    HW212733   0.884   3.978  11.338
 4237SOL     OW12734   1.362   4.868  11.717
 4237SOL    HW112735   1.445   4.839  11.669
 4237SOL    HW212736   1.313   4.935  11.661
 4238SOL     OW12737   0.550   3.920  12.057
 4238SOL    HW112738   0.545   3.915  12.157
 4238SOL    HW212739   0.552   4.016  12.028
 4239SOL     OW12740   1.008   5.180  11.649
 4239SOL    HW112741   0.962   5.252  11.597
 4239SOL    HW212742   1.004   5.200  11.747
 4240SOL     OW12743   0.351   5.525  12.025
 4240SOL    HW112744   0.401   5.439  12.031
 4240SOL    HW212745   0.416   5.602  12.022
 4241SOL     OW12746   1.795   4.790  12.045
 4241SOL    HW112747   1.733   4.775  11.969
 4241SOL    HW212748   1.743   4.801  12.130
 4242SOL     OW12749   1.227   5.274  12.678
 4242SOL    HW112750   1.233   5.197  12.742
 4242SOL    HW212751   1.175   5.248  12.598
 4243SOL     OW12752   0.321   4.667  11.414
 4243SOL    HW112753   0.403   4.706  11.372
 4243SOL    HW212754   0.294   4.585  11.365
 4244SOL     OW12755   1.458   4.459  11.900
 4244SOL    HW112756   1.453   4.394  11.975
 4244SOL    HW212757   1.538   4.518  11.913
 4245SOL     OW12758   1.111   5.500  11.409
 4245SOL    HW112759   1.051   5.438  11.459
 4245SOL    HW212760   1.142   5.456  11.324
 4246SOL     OW12761   0.202   4.009  12.670
 4246SOL    HW112762   0.122   4.069  12.657
 4246SOL    HW212763   0.192   3.960  12.756
 4247SOL     OW12764   1.632   5.101  11.253
 4247SOL    HW112765   1.600   5.195  11.243
 4247SOL    HW212766   1.556   5.038  11.241
 4248SOL     OW12767   0.464   5.467  11.495
 4248SOL    HW112768   0.497   5.506  11.581
 4248SOL    HW212769   0.540   5.460  11.430
 4249SOL     OW12770   1.400   3.831  11.598
 4249SOL    HW112771   1.376   3.794  11.508
 4249SOL    HW212772   1.499   3.847  11.602
 4250SOL     OW12773   0.249   5.509  12.413
 4250SOL    HW112774   0.306   5.444  12.463
 4250SOL    HW212775   0.233   5.476  12.320
 4251SOL     OW12776   0.940   5.422  12.076
 4251SOL    HW112777   1.020   5.365  12.097
 4251SOL    HW212778   0.891   5.382  11.999
 4252SOL     OW12779   0.382   4.424  11.652
 4252SOL    HW112780   0.427   4.334  11.649
 4252SOL    HW212781   0.288   4.413  11.685
 4253SOL     OW12782   0.614   3.846  11.289
 4253SOL    HW112783   0.712   3.824  11.296
 4253SOL    HW212784   0.583   3.829  11.196
 4254SOL     OW12785   0.888   5.238  12.367
 4254SOL    HW112786   0.865   5.213  12.273
 4254SOL    HW212787   0.949   5.169  12.406
 4255SOL     OW12788   1.351   4.314  12.605
 4255SOL    HW112789   1.379   4.271  12.690
 4255SOL    HW212790   1.376   4.410  12.606
 4256SOL     OW12791   0.803   5.126  12.096
 4256SOL    HW112792   0.893   5.140  12.054
 4256SOL    HW212793   0.732   5.128  12.025
 4257SOL     OW12794   0.922   4.227  12.071
 4257SOL    HW112795   0.897   4.218  11.975
 4257SOL    HW212796   0.970   4.145  12.102
 4258SOL     OW12797   0.539   3.788  11.684
 4258SOL    HW112798   0.458   3.789  11.742
 4258SOL    HW212799   0.542   3.871  11.629
 4259SOL     OW12800   1.434   4.912  11.213
 4259SOL    HW112801   1.466   4.836  11.270
 4259SOL    HW212802   1.342   4.939  11.243
 4260SOL     OW12803   0.297   3.759  11.343
 4260SOL    HW112804   0.346   3.843  11.322
 4260SOL    HW212805   0.359   3.694  11.388
 4261SOL     OW12806   0.935   3.960  11.652
 4261SOL    HW112807   0.887   4.001  11.574
 4261SOL    HW212808   1.034   3.958  11.633
 4262SOL     OW12809   1.076   4.407  12.636
 4262SOL    HW112810   0.996   4.346  12.639
 4262SOL    HW212811   1.157   4.354  12.612
 4263SOL     OW12812   1.227   5.294  11.965
 4263SOL    HW112813   1.248   5.368  11.900
 4263SOL    HW212814   1.295   5.294  12.038
 4264SOL     OW12815   0.459   4.876  11.913
 4264SOL    HW112816   0.388   4.849  11.978
 4264SOL    HW212817   0.433   4.848  11.820
 4265SOL     OW12818   1.271   5.521  11.763
 4265SOL    HW112819   1.315   5.585  11.699
 4265SOL    HW212820   1.221   5.573  11.833
 4266SOL     OW12821   1.032   4.273  11.188
 4266SOL    HW112822   0.991   4.355  11.149
 4266SOL    HW212823   1.096   4.299  11.261
 4267SOL     OW12824   0.078   4.280  12.558
 4267SOL    HW112825   0.170   4.279  12.517
 4267SOL    HW212826   0.072   4.354  12.625
 4268SOL     OW12827   0.561   3.946  12.319
 4268SOL    HW112828   0.599   3.862  12.356
 4268SOL    HW212829   0.473   3.965  12.363
 4269SOL     OW12830   0.866   4.178  11.814
 4269SOL    HW112831   0.834   4.250  11.752
 4269SOL    HW212832   0.890   4.097  11.761
 4270SOL     OW12833   1.017   3.763  11.925
 4270SOL    HW112834   0.945   3.768  11.856
 4270SOL    HW212835   0.993   3.694  11.994
 4271SOL     OW12836   1.429   4.897  12.039
 4271SOL    HW112837   1.374   4.813  12.032
 4271SOL    HW212838   1.455   4.926  11.947
 4272SOL     OW12839   1.466   4.314  12.164
 4272SOL    HW112840   1.436   4.219  12.171
 4272SOL    HW212841   1.539   4.330  12.230
 4273SOL     OW12842   1.857   4.557  11.549
 4273SOL    HW112843   1.899   4.493  11.613
 4273SOL    HW212844   1.819   4.506  11.471
 4274SOL     OW12845   0.488   5.109  11.346
 4274SOL    HW112846   0.401   5.094  11.393
 4274SOL    HW212847   0.471   5.135  11.251
 4275SOL     OW12848   1.664   5.004  11.829
 4275SOL    HW112849   1.763   5.012  11.843
 4275SOL    HW212850   1.619   5.088  11.860
 4276SOL     OW12851   1.390   4.299  11.250
 4276SOL    HW112852   1.336   4.278  11.331
 4276SOL    HW212853   1.481   4.258  11.259
 4277SOL     OW12854   0.527   3.980  11.500
 4277SOL    HW112855   0.554   3.921  11.425
 4277SOL    HW212856   0.527   4.075  11.469
 4278SOL     OW12857   1.754   4.947  12.760
 4278SOL    HW112858   1.845   4.908  12.747
 4278SOL    HW212859   1.762   5.043  12.784
 4279SOL     OW12860   1.064   5.071  12.512
 4279SOL    HW112861   0.984   5.048  12.567
 4279SOL    HW212862   1.147   5.045  12.561
 4280SOL     OW12863   1.111   4.919  12.272
 4280SOL    HW112864   1.071   4.963  12.353
 4280SOL    HW212865   1.070   4.956  12.189
 4281SOL     OW12866   1.638   4.823  12.251
 4281SOL    HW112867   1.643   4.904  12.310
 4281SOL    HW212868   1.552   4.825  12.200
 4282SOL     OW12869   0.915   3.813  12.574
 4282SOL    HW112870   0.940   3.793  12.479
 4282SOL    HW212871   0.987   3.869  12.616
 4283SOL     OW12872   0.705   4.774  11.540
 4283SOL    HW112873   0.691   4.781  11.639
 4283SOL    HW212874   0.789   4.723  11.522
 4284SOL     OW12875   0.410   4.537  12.423
 4284SOL    HW112876   0.496   4.549  12.473
 4284SOL    HW212877   0.368   4.450  12.450
 4285SOL     OW12878   1.274   4.110  12.434
 4285SOL    HW112879   1.295   4.184  12.498
 4285SOL    HW212880   1.185   4.127  12.391
 4286SOL     OW12881   0.064   5.288  12.503
 4286SOL    HW112882   0.018   5.370  12.469
 4286SOL    HW212883   0.162   5.307  12.512
 4287SOL     OW12884   0.367   4.824  11.673
 4287SOL    HW112885   0.360   4.907  11.617
 4287SOL    HW212886   0.371   4.744  11.613
 4288SOL     OW12887   0.566   4.261  12.037
 4288SOL    HW112888   0.578   4.327  11.963
 4288SOL    HW212889   0.612   4.295  12.120
 4289SOL     OW12890   1.252   5.072  11.560
 4289SOL    HW112891   1.302   5.149  11.600
 4289SOL    HW212892   1.157   5.074  11.592
 4290SOL     OW12893   1.272   5.169  12.314
 4290SOL    HW112894   1.319   5.182  12.401
 4290SOL    HW212895   1.206   5.095  12.323
 4291SOL     OW12896   1.582   4.363  11.644
 4291SOL    HW112897   1.551   4.424  11.717
 4291SOL    HW212898   1.632   4.415  11.575
 4292SOL     OW12899   0.354   5.234  12.501
 4292SOL    HW112900   0.333   5.190  12.414
 4292SOL    HW212901   0.451   5.260  12.504
 4293SOL     OW12902   0.402   4.475  12.770
 4293SOL    HW112903   0.470   4.530  12.723
 4293SOL    HW212904   0.442   4.387  12.797
 4294SOL     OW12905   1.587   4.503  12.842
 4294SOL    HW112906   1.495   4.541  12.837
 4294SOL    HW212907   1.647   4.550  12.777
 4295SOL     OW12908   0.573   4.594  12.201
 4295SOL    HW112909   0.617   4.683  12.192
 4295SOL    HW212910   0.510   4.594  12.278
 4296SOL     OW12911   1.360   4.586  12.217
 4296SOL    HW112912   1.285   4.586  12.151
 4296SOL    HW212913   1.397   4.494  12.226
 4297SOL     OW12914   1.209   4.249  11.447
 4297SOL    HW112915   1.222   4.165  11.501
 4297SOL    HW212916   1.180   4.323  11.507
 4298SOL     OW12917   0.307   3.937  12.403
 4298SOL    HW112918   0.284   3.974  12.493
 4298SOL    HW212919   0.277   3.842  12.397
 4299SOL     OW12920   0.037   5.034  12.454
 4299SOL    HW112921   0.090   4.985  12.522
 4299SOL    HW212922   0.059   5.132  12.459
 4300SOL     OW12923   0.732   4.358  12.236
 4300SOL    HW112924   0.791   4.332  12.160
 4300SOL    HW212925   0.704   4.454  12.225
 4301SOL     OW12926   0.307   3.787  11.790
 4301SOL    HW112927   0.296   3.881  11.823
 4301SOL    HW212928   0.302   3.724  11.867
 4302SOL     OW12929   1.622   4.091  11.546
 4302SOL    HW112930   1.624   4.015  11.610
 4302SOL    HW212931   1.574   4.168  11.586
 4303SOL     OW12932   1.023   4.490  12.138
 4303SOL    HW112933   1.038   4.511  12.234
 4303SOL    HW212934   0.993   4.395  12.129
 4304SOL     OW12935   1.540   3.998  11.297
 4304SOL    HW112936   1.479   3.923  11.320
 4304SOL    HW212937   1.562   4.050  11.380
 4305SOL     OW12938   1.303   4.562  11.214
 4305SOL    HW112939   1.337   4.469  11.229
 4305SOL    HW212940   1.321   4.589  11.119
 4306SOL     OW12941   1.068   5.057  12.021
 4306SOL    HW112942   1.075   4.973  11.966
 4306SOL    HW212943   1.130   5.126  11.985
 4307SOL     OW12944   0.319   4.534  12.121
 4307SOL    HW112945   0.412   4.570  12.126
 4307SOL    HW212946   0.313   4.449  12.173
 4308SOL     OW12947   0.339   4.233  12.178
 4308SOL    HW112948   0.287   4.150  12.161
 4308SOL    HW212949   0.416   4.238  12.114
 4309SOL     OW12950   1.160   3.931  12.649
 4309SOL    HW112951   1.160   3.995  12.726
 4309SOL    HW212952   1.188   3.979  12.566
 4310SOL     OW12953   0.008   5.050  11.372
 4310SOL    HW112954  -0.085   5.071  11.341
 4310SOL    HW212955   0.018   4.951  11.385
 4311SOL     OW12956   0.088   5.525  12.099
 4311SOL    HW112957   0.046   5.439  12.072
 4311SOL    HW212958   0.182   5.528  12.065
 4312SOL     OW12959   0.504   5.292  12.082
 4312SOL    HW112960   0.570   5.366  12.091
 4312SOL    HW212961   0.548   5.213  12.040
 4313SOL     OW12962   1.002   4.520  12.410
 4313SOL    HW112963   1.043   4.488  12.496
 4313SOL    HW212964   0.906   4.493  12.407
 4314SOL     OW12965   0.040   4.268  12.286
 4314SOL    HW112966   0.125   4.235  12.245
 4314SOL    HW212967   0.053   4.283  12.384
 4315SOL     OW12968   0.815   4.296  11.497
 4315SOL    HW112969   0.822   4.207  11.451
 4315SOL    HW212970   0.721   4.330  11.489
 4316SOL     OW12971   1.657   4.328  12.378
 4316SOL    HW112972   1.619   4.259  12.440
 4316SOL    HW212973   1.739   4.292  12.334
 4317SOL     OW12974   0.252   5.288  12.916
 4317SOL    HW112975   0.222   5.345  12.992
 4317SOL    HW212976   0.245   5.191  12.942
 4318SOL     OW12977   0.671   4.188  12.441
 4318SOL    HW112978   0.637   4.099  12.411
 4318SOL    HW212979   0.697   4.242  12.361
 4319SOL     OW12980   0.930   5.402  12.637
 4319SOL    HW112981   0.906   5.384  12.542
 4319SOL    HW212982   0.960   5.496  12.647
 4320SOL     OW12983   0.473   4.224  11.363
 4320SOL    HW112984   0.534   4.304  11.367
 4320SOL    HW212985   0.378   4.255  11.370
 4321SOL     OW12986   0.159   4.861  12.638
 4321SOL    HW112987   0.181   4.800  12.714
 4321SOL    HW212988   0.169   4.812  12.552
 4322SOL     OW12989   1.347   4.783  12.406
 4322SOL    HW112990   1.371   4.720  12.332
 4322SOL    HW212991   1.257   4.823  12.388
 4323SOL     OW12992   1.302   4.579  11.481
 4323SOL    HW112993   1.216   4.548  11.523
 4323SOL    HW212994   1.298   4.565  11.382
 4324SOL     OW12995   1.759   5.471  12.326
 4324SOL    HW112996   1.820   5.501  12.253
 4324SOL    HW212997   1.721   5.382  12.304
 4325SOL     OW12998   1.252   5.455  12.300
 4325SOL    HW112999   1.336   5.460  12.246
 4325SOL    HW213000   1.229   5.359  12.318
 4326SOL     OW13001   0.083   4.982  12.194
 4326SOL    HW113002   0.078   4.981  12.294
 4326SOL    HW213003   0.000   4.941  12.156
 4327SOL     OW13004   1.726   3.859  11.695
 4327SOL    HW113005   1.799   3.842  11.628
 4327SOL    HW213006   1.695   3.772  11.733
 4328SOL     OW13007   1.388   5.297  11.649
 4328SOL    HW113008   1.455   5.309  11.575
 4328SOL    HW213009   1.348   5.386  11.672
 4329SOL     OW13010   1.280   4.651  11.844
 4329SOL    HW113011   1.340   4.570  11.846
 4329SOL    HW213012   1.320   4.720  11.784
 4330SOL     OW13013   0.830   4.997  12.594
 4330SOL    HW113014   0.825   5.030  12.689
 4330SOL    HW213015   0.744   5.016  12.548
 4331SOL     OW13016   0.672   5.340  11.326
 4331SOL    HW113017   0.681   5.350  11.227
 4331SOL    HW213018   0.632   5.251  11.347
 4332SOL     OW13019   1.650   5.444  12.566
 4332SOL    HW113020   1.703   5.454  12.482
 4332SOL    HW213021   1.623   5.534  12.600
 4333SOL     OW13022   1.841   3.899  12.135
 4333SOL    HW113023   1.880   3.814  12.099
 4333SOL    HW213024   1.743   3.901  12.116
 4334SOL     OW13025   0.263   4.050  11.892
 4334SOL    HW113026   0.184   4.101  11.858
 4334SOL    HW213027   0.254   4.035  11.990
 4335SOL     OW13028   1.194   5.336  11.203
 4335SOL    HW113029   1.200   5.243  11.240
 4335SOL    HW213030   1.135   5.336  11.123
 4336SOL     OW13031   0.822   4.726  12.544
 4336SOL    HW113032   0.862   4.725  12.452
 4336SOL    HW213033   0.832   4.818  12.584
 4337SOL     OW13034   0.916   4.634  11.463
 4337SOL    HW113035   0.979   4.672  11.395
 4337SOL    HW213036   0.956   4.551  11.502
 4338SOL     OW13037   1.504   5.331  11.216
 4338SOL    HW113038   1.412   5.368  11.223
 4338SOL    HW213039   1.542   5.351  11.126
 4339SOL     OW13040   0.372   5.012  12.662
 4339SOL    HW113041   0.359   5.105  12.628
 4339SOL    HW213042   0.288   4.960  12.649
 4340SOL     OW13043   1.614   5.016  12.461
 4340SOL    HW113044   1.674   5.019  12.541
 4340SOL    HW213045   1.539   5.080  12.474
 4341SOL     OW13046   1.039   4.822  11.868
 4341SOL    HW113047   0.969   4.775  11.922
 4341SOL    HW213048   1.098   4.754  11.825
 4342SOL     OW13049   1.014   3.960  12.143
 4342SOL    HW113050   1.006   3.924  12.050
 4342SOL    HW213051   1.012   3.884  12.208
 4343SOL     OW13052   0.590   5.211  11.663
 4343SOL    HW113053   0.632   5.153  11.593
 4343SOL    HW213054   0.546   5.290  11.619
 4344SOL     OW13055   1.709   4.109  12.553
 4344SOL    HW113056   1.782   4.178  12.557
 4344SOL    HW213057   1.737   4.034  12.494
 4345SOL     OW13058   0.255   5.072  11.462
 4345SOL    HW113059   0.159   5.073  11.435
 4345SOL    HW213060   0.267   5.125  11.546
 4346SOL     OW13061   0.105   4.737  12.898
 4346SOL    HW113062   0.028   4.704  12.952
 4346SOL    HW213063   0.190   4.707  12.940
 4347SOL     OW13064   0.672   3.927  12.661
 4347SOL    HW113065   0.762   3.911  12.621
 4347SOL    HW213066   0.680   3.932  12.760
 4348SOL     OW13067   0.075   4.069  11.205
 4348SOL    HW113068  -0.017   4.041  11.176
 4348SOL    HW213069   0.106   4.146  11.149
 4349SOL     OW13070   1.440   4.580  12.570
 4349SOL    HW113071   1.383   4.632  12.507
 4349SOL    HW213072   1.536   4.592  12.546
 4350SOL     OW13073   0.072   3.890  11.490
 4350SOL    HW113074   0.055   3.973  11.436
 4350SOL    HW213075   0.162   3.853  11.468
 4351SOL     OW13076   1.183   5.059  11.291
 4351SOL    HW113077   1.084   5.048  11.293
 4351SOL    HW213078   1.217   5.074  11.384
 4352SOL     OW13079   0.613   4.566  12.603
 4352SOL    HW113080   0.669   4.647  12.586
 4352SOL    HW213081   0.672   4.486  12.606
 4353SOL     OW13082   1.493   5.491  12.131
 4353SOL    HW113083   1.526   5.555  12.062
 4353SOL    HW213084   1.559   5.485  12.206
 4354SOL     OW13085   0.716   4.289  12.880
 4354SOL    HW113086   0.735   4.354  12.954
 4354SOL    HW213087   0.776   4.209  12.889
 4355SOL     OW13088   0.390   5.465  12.732
 4355SOL    HW113089   0.299   5.506  12.730
 4355SOL    HW213090   0.383   5.371  12.764
 4356SOL     OW13091   1.674   4.607  12.426
 4356SOL    HW113092   1.647   4.518  12.389
 4356SOL    HW213093   1.675   4.675  12.353
 4357SOL     OW13094   1.225   4.049  11.621
 4357SOL    HW113095   1.290   3.975  11.610
 4357SOL    HW213096   1.245   4.099  11.705
 4358SOL     OW13097   0.594   4.469  11.824
 4358SOL    HW113098   0.644   4.554  11.805
 4358SOL    HW213099   0.506   4.471  11.776
 4359SOL     OW13100   1.777   4.066  12.814
 4359SOL    HW113101   1.760   4.097  12.720
 4359SOL    HW213102   1.693   4.029  12.852
 4360SOL     OW13103   1.730   4.658  12.689
 4360SOL    HW113104   1.768   4.749  12.704
 4360SOL    HW213105   1.722   4.641  12.590
 4361SOL     OW13106   0.859   5.098  11.188
 4361SOL    HW113107   0.813   5.113  11.276
 4361SOL    HW213108   0.903   5.183  11.158
 4362SOL     OW13109   0.661   5.514  12.125
 4362SOL    HW113110   0.615   5.602  12.112
 4362SOL    HW213111   0.760   5.526  12.118
 4363SOL     OW13112   0.859   4.680  12.033
 4363SOL    HW113113   0.913   4.611  12.081
 4363SOL    HW213114   0.827   4.749  12.099
 4364SOL     OW13115   1.083   4.708  11.259
 4364SOL    HW113116   1.060   4.761  11.177
 4364SOL    HW213117   1.164   4.652  11.240
 4365SOL     OW13118   1.861   5.293  12.023
 4365SOL    HW113119   1.790   5.281  11.953
 4365SOL    HW213120   1.862   5.214  12.083
 4366SOL     OW13121   0.079   4.964  11.825
 4366SOL    HW113122   0.078   4.917  11.913
 4366SOL    HW213123   0.161   4.936  11.774
 4367SOL     OW13124   0.672   5.115  12.796
 4367SOL    HW113125   0.594   5.065  12.834
 4367SOL    HW213126   0.669   5.210  12.827
 4368SOL     OW13127   1.824   3.916  12.399
 4368SOL    HW113128   1.820   3.826  12.443
 4368SOL    HW213129   1.827   3.905  12.300
 4369SOL     OW13130   0.428   4.148  11.692
 4369SOL    HW113131   0.458   4.076  11.630
 4369SOL    HW213132   0.389   4.108  11.775
 4370SOL     OW13133   1.705   5.211  12.276
 4370SOL    HW113134   1.612   5.186  12.249
 4370SOL    HW213135   1.731   5.161  12.358
 4371SOL     OW13136   0.317   4.271  12.452
 4371SOL    HW113137   0.355   4.212  12.524
 4371SOL    HW213138   0.357   4.245  12.364
 4372SOL     OW13139   0.812   5.310  11.859
 4372SOL    HW113140   0.844   5.320  11.765
 4372SOL    HW213141   0.733   5.248  11.861
 4373SOL     OW13142   1.424   3.938  12.284
 4373SOL    HW113143   1.476   3.873  12.339
 4373SOL    HW213144   1.375   4.001  12.345
 4374SOL     OW13145   1.001   3.758  12.326
 4374SOL    HW113146   0.938   3.686  12.295
 4374SOL    HW213147   1.094   3.722  12.326
 4375SOL     OW13148   0.770   5.054  11.473
 4375SOL    HW113149   0.724   4.967  11.490
 4375SOL    HW213150   0.861   5.051  11.514
 4376SOL     OW13151   0.618   5.291  12.456
 4376SOL    HW113152   0.613   5.373  12.513
 4376SOL    HW213153   0.707   5.288  12.411
 4377SOL     OW13154   1.352   3.776  11.340
 4377SOL    HW113155   1.387   3.735  11.256
 4377SOL    HW213156   1.262   3.738  11.360
 4378SOL     OW13157   1.300   4.177  11.863
 4378SOL    HW113158   1.241   4.257  11.867
 4378SOL    HW213159   1.315   4.142  11.956
 4379SOL     OW13160   1.593   3.945  12.054
 4379SOL    HW113161   1.509   3.944  12.108
 4379SOL    HW213162   1.595   4.028  11.998
 4380SOL     OW13163   0.039   4.801  11.472
 4380SOL    HW113164   0.138   4.790  11.463
 4380SOL    HW213165  -0.001   4.715  11.504
 4381SOL     OW13166   0.875   5.370  11.509
 4381SOL    HW113167   0.798   5.335  11.455
 4381SOL    HW213168   0.843   5.441  11.571
 4382SOL     OW13169   0.230   6.214   0.113
 4382SOL    HW113170   0.137   6.212   0.150
 4382SOL    HW213171   0.231   6.175   0.021
 4383SOL     OW13172   0.225   5.861   0.996
 4383SOL    HW113173   0.260   5.844   1.088
 4383SOL    HW213174   0.137   5.816   0.984
 4384SOL     OW13175   0.019   5.954   0.647
 4384SOL    HW113176  -0.063   5.997   0.686
 4384SOL    HW213177  -0.009   5.881   0.584
 4385SOL     OW13178   0.569   6.861   1.165
 4385SOL    HW113179   0.476   6.854   1.128
 4385SOL    HW213180   0.580   6.950   1.209
 4386SOL     OW13181   1.555   7.097   0.703
 4386SOL    HW113182   1.498   7.081   0.784
 4386SOL    HW213183   1.496   7.107   0.623
 4387SOL     OW13184   1.135   6.289   0.717
 4387SOL    HW113185   1.192   6.367   0.692
 4387SOL    HW213186   1.075   6.315   0.793
 4388SOL     OW13187   1.755   6.193   0.231
 4388SOL    HW113188   1.743   6.180   0.132
 4388SOL    HW213189   1.725   6.112   0.280
 4389SOL     OW13190   0.768   6.730   1.023
 4389SOL    HW113191   0.690   6.747   1.083
 4389SOL    HW213192   0.802   6.817   0.987
 4390SOL     OW13193   0.850   6.384   1.823
 4390SOL    HW113194   0.846   6.460   1.888
 4390SOL    HW213195   0.872   6.420   1.732
 4391SOL     OW13196   0.685   6.598   0.665
 4391SOL    HW113197   0.754   6.582   0.735
 4391SOL    HW213198   0.612   6.655   0.703
 4392SOL     OW13199   0.686   6.747   1.803
 4392SOL    HW113200   0.746   6.826   1.817
 4392SOL    HW213201   0.600   6.778   1.762
 4393SOL     OW13202   0.335   7.021   1.061
 4393SOL    HW113203   0.257   6.990   1.008
 4393SOL    HW213204   0.393   7.079   1.004
 4394SOL     OW13205   1.460   7.091   1.339
 4394SOL    HW113206   1.484   7.185   1.365
 4394SOL    HW213207   1.444   7.037   1.421
 4395SOL     OW13208   0.438   5.978   1.499
 4395SOL    HW113209   0.520   5.922   1.508
 4395SOL    HW213210   0.357   5.920   1.503
 4396SOL     OW13211   1.603   6.033   0.737
 4396SOL    HW113212   1.529   6.079   0.687
 4396SOL    HW213213   1.654   6.101   0.790
 4397SOL     OW13214   0.231   7.299   0.483
 4397SOL    HW113215   0.265   7.376   0.537
 4397SOL    HW213216   0.275   7.299   0.393
 4398SOL     OW13217   1.127   6.927   1.690
 4398SOL    HW113218   1.174   6.927   1.778
 4398SOL    HW213219   1.079   6.840   1.679
 4399SOL     OW13220   0.230   7.020   0.538
 4399SOL    HW113221   0.204   7.116   0.538
 4399SOL    HW213222   0.159   6.966   0.583
 4400SOL     OW13223   0.240   6.677   0.886
 4400SOL    HW113224   0.254   6.593   0.938
 4400SOL    HW213225   0.185   6.741   0.941
 4401SOL     OW13226   0.620   7.372   1.439
 4401SOL    HW113227   0.528   7.355   1.474
 4401SOL    HW213228   0.648   7.464   1.465
 4402SOL     OW13229   0.606   6.550   0.123
 4402SOL    HW113230   0.613   6.634   0.069
 4402SOL    HW213231   0.652   6.563   0.211
 4403SOL     OW13232   1.594   5.700   1.480
 4403SOL    HW113233   1.576   5.767   1.408
 4403SOL    HW213234   1.591   5.746   1.569
 4404SOL     OW13235   0.122   6.229   0.563
 4404SOL    HW113236   0.077   6.141   0.580
 4404SOL    HW213237   0.121   6.283   0.647
 4405SOL     OW13238   1.842   7.353   0.359
 4405SOL    HW113239   1.896   7.324   0.439
 4405SOL    HW213240   1.872   7.443   0.330
 4406SOL     OW13241   0.027   7.182   0.117
 4406SOL    HW113242   0.008   7.086   0.138
 4406SOL    HW213243  -0.006   7.240   0.192
 4407SOL     OW13244   1.689   6.508   0.612
 4407SOL    HW113245   1.784   6.479   0.620
 4407SOL    HW213246   1.681   6.573   0.537
 4408SOL     OW13247   1.641   6.694   0.432
 4408SOL    HW113248   1.727   6.696   0.380
 4408SOL    HW213249   1.655   6.741   0.520
 4409SOL     OW13250   0.113   6.323   1.597
 4409SOL    HW113251   0.201   6.310   1.642
 4409SOL    HW213252   0.100   6.420   1.575
 4410SOL     OW13253   0.613   6.951   0.726
 4410SOL    HW113254   0.564   6.864   0.735
 4410SOL    HW213255   0.590   6.994   0.639
 4411SOL     OW13256   1.293   6.814   1.423
 4411SOL    HW113257   1.330   6.741   1.365
 4411SOL    HW213258   1.345   6.819   1.508
 4412SOL     OW13259   0.809   5.590   0.502
 4412SOL    HW113260   0.849   5.681   0.493
 4412SOL    HW213261   0.709   5.598   0.508
 4413SOL     OW13262   0.197   6.562   1.264
 4413SOL    HW113263   0.286   6.517   1.250
 4413SOL    HW213264   0.124   6.497   1.245
 4414SOL     OW13265   1.525   6.585   0.190
 4414SOL    HW113266   1.462   6.509   0.203
 4414SOL    HW213267   1.573   6.603   0.276
 4415SOL     OW13268   1.187   7.378   1.616
 4415SOL    HW113269   1.211   7.438   1.540
 4415SOL    HW213270   1.194   7.283   1.586
 4416SOL     OW13271   0.317   5.837   1.801
 4416SOL    HW113272   0.388   5.908   1.807
 4416SOL    HW213273   0.229   5.876   1.829
 4417SOL     OW13274   1.466   7.003   0.953
 4417SOL    HW113275   1.407   7.009   1.033
 4417SOL    HW213276   1.451   6.915   0.907
 4418SOL     OW13277   1.667   7.300   0.572
 4418SOL    HW113278   1.626   7.277   0.484
 4418SOL    HW213279   1.649   7.226   0.637
 4419SOL     OW13280   0.598   6.315   0.270
 4419SOL    HW113281   0.622   6.384   0.202
 4419SOL    HW213282   0.520   6.348   0.324
 4420SOL     OW13283   1.281   5.931   0.944
 4420SOL    HW113284   1.195   5.881   0.931
 4420SOL    HW213285   1.343   5.877   1.000
 4421SOL     OW13286   1.576   7.248   0.307
 4421SOL    HW113287   1.665   7.294   0.310
 4421SOL    HW213288   1.555   7.224   0.212
 4422SOL     OW13289   0.807   6.191   1.465
 4422SOL    HW113290   0.760   6.188   1.554
 4422SOL    HW213291   0.756   6.136   1.399
 4423SOL     OW13292   1.394   6.055   1.674
 4423SOL    HW113293   1.374   6.098   1.762
 4423SOL    HW213294   1.472   5.993   1.683
 4424SOL     OW13295   0.973   6.476   1.572
 4424SOL    HW113296   1.019   6.392   1.543
 4424SOL    HW213297   0.917   6.510   1.497
 4425SOL     OW13298   0.991   5.996   1.242
 4425SOL    HW113299   0.914   6.030   1.296
 4425SOL    HW213300   0.957   5.945   1.163
 4426SOL     OW13301   1.041   6.287   0.429
 4426SOL    HW113302   1.067   6.283   0.525
 4426SOL    HW213303   0.956   6.236   0.415
 4427SOL     OW13304   0.076   6.397   0.789
 4427SOL    HW113305   0.175   6.385   0.798
 4427SOL    HW213306   0.052   6.492   0.810
 4428SOL     OW13307   0.130   7.407   1.571
 4428SOL    HW113308   0.120   7.392   1.670
 4428SOL    HW213309   0.044   7.443   1.535
 4429SOL     OW13310   0.865   5.934   0.195
 4429SOL    HW113311   0.924   5.997   0.146
 4429SOL    HW213312   0.884   5.840   0.166
 4430SOL     OW13313   1.719   6.171   1.831
 4430SOL    HW113314   1.693   6.260   1.795
 4430SOL    HW213315   1.717   6.103   1.758
 4431SOL     OW13316   1.362   6.730   0.545
 4431SOL    HW113317   1.445   6.701   0.497
 4431SOL    HW213318   1.313   6.797   0.489
 4432SOL     OW13319   0.550   5.782   0.885
 4432SOL    HW113320   0.545   5.777   0.985
 4432SOL    HW213321   0.552   5.878   0.856
 4433SOL     OW13322   1.008   7.042   0.477
 4433SOL    HW113323   0.962   7.114   0.425
 4433SOL    HW213324   1.004   7.062   0.575
 4434SOL     OW13325   0.351   7.387   0.853
 4434SOL    HW113326   0.401   7.301   0.859
 4434SOL    HW213327   0.416   7.464   0.850
 4435SOL     OW13328   1.795   6.652   0.873
 4435SOL    HW113329   1.733   6.637   0.797
 4435SOL    HW213330   1.743   6.663   0.958
 4436SOL     OW13331   1.227   7.136   1.506
 4436SOL    HW113332   1.233   7.059   1.570
 4436SOL    HW213333   1.175   7.110   1.426
 4437SOL     OW13334   0.321   6.529   0.242
 4437SOL    HW113335   0.403   6.568   0.200
 4437SOL    HW213336   0.294   6.447   0.193
 4438SOL     OW13337   1.458   6.321   0.728
 4438SOL    HW113338   1.453   6.256   0.803
 4438SOL    HW213339   1.538   6.380   0.741
 4439SOL     OW13340   0.461   6.852   1.727
 4439SOL    HW113341   0.411   6.853   1.641
 4439SOL    HW213342   0.398   6.834   1.803
 4440SOL     OW13343   1.111   7.362   0.237
 4440SOL    HW113344   1.051   7.300   0.287
 4440SOL    HW213345   1.142   7.318   0.152
 4441SOL     OW13346   0.202   5.871   1.498
 4441SOL    HW113347   0.122   5.931   1.485
 4441SOL    HW213348   0.192   5.822   1.584
 4442SOL     OW13349   1.632   6.963   0.081
 4442SOL    HW113350   1.600   7.057   0.071
 4442SOL    HW213351   1.556   6.900   0.069
 4443SOL     OW13352   0.464   7.329   0.323
 4443SOL    HW113353   0.497   7.368   0.409
 4443SOL    HW213354   0.540   7.322   0.258
 4444SOL     OW13355   1.400   5.693   0.426
 4444SOL    HW113356   1.376   5.656   0.336
 4444SOL    HW213357   1.499   5.709   0.430
 4445SOL     OW13358   0.249   7.371   1.241
 4445SOL    HW113359   0.306   7.306   1.291
 4445SOL    HW213360   0.233   7.338   1.148
 4446SOL     OW13361   0.940   7.284   0.904
 4446SOL    HW113362   1.020   7.227   0.925
 4446SOL    HW213363   0.891   7.244   0.827
 4447SOL     OW13364   0.382   6.286   0.480
 4447SOL    HW113365   0.427   6.196   0.477
 4447SOL    HW213366   0.288   6.275   0.513
 4448SOL     OW13367   1.547   5.808   1.729
 4448SOL    HW113368   1.542   5.845   1.821
 4448SOL    HW213369   1.475   5.739   1.717
 4449SOL     OW13370   0.614   5.708   0.117
 4449SOL    HW113371   0.712   5.686   0.124
 4449SOL    HW213372   0.583   5.691   0.024
 4450SOL     OW13373   0.781   5.850   1.749
 4450SOL    HW113374   0.848   5.789   1.792
 4450SOL    HW213375   0.708   5.869   1.814
 4451SOL     OW13376   0.888   7.100   1.195
 4451SOL    HW113377   0.865   7.075   1.101
 4451SOL    HW213378   0.949   7.031   1.234
 4452SOL     OW13379   1.351   6.176   1.433
 4452SOL    HW113380   1.379   6.133   1.518
 4452SOL    HW213381   1.376   6.272   1.434
 4453SOL     OW13382   0.803   6.988   0.924
 4453SOL    HW113383   0.893   7.002   0.882
 4453SOL    HW213384   0.732   6.990   0.853
 4454SOL     OW13385   0.922   6.089   0.899
 4454SOL    HW113386   0.897   6.080   0.803
 4454SOL    HW213387   0.970   6.007   0.930
 4455SOL     OW13388   0.539   5.650   0.512
 4455SOL    HW113389   0.458   5.651   0.570
 4455SOL    HW213390   0.542   5.733   0.457
 4456SOL     OW13391   1.434   6.774   0.041
 4456SOL    HW113392   1.466   6.698   0.098
 4456SOL    HW213393   1.342   6.801   0.071
 4457SOL     OW13394   0.297   5.621   0.171
 4457SOL    HW113395   0.346   5.705   0.150
 4457SOL    HW213396   0.359   5.556   0.216
 4458SOL     OW13397   0.935   5.822   0.480
 4458SOL    HW113398   0.887   5.863   0.402
 4458SOL    HW213399   1.034   5.820   0.461
 4459SOL     OW13400   1.076   6.269   1.464
 4459SOL    HW113401   0.996   6.208   1.467
 4459SOL    HW213402   1.157   6.216   1.440
 4460SOL     OW13403   1.227   7.156   0.793
 4460SOL    HW113404   1.248   7.230   0.728
 4460SOL    HW213405   1.295   7.156   0.866
 4461SOL     OW13406   0.459   6.738   0.741
 4461SOL    HW113407   0.388   6.711   0.806
 4461SOL    HW213408   0.433   6.710   0.648
 4462SOL     OW13409   1.271   7.383   0.591
 4462SOL    HW113410   1.315   7.447   0.527
 4462SOL    HW213411   1.221   7.435   0.661
 4463SOL     OW13412   1.032   6.135   0.016
 4463SOL    HW113413   0.991   6.217  -0.023
 4463SOL    HW213414   1.096   6.161   0.089
 4464SOL     OW13415   0.078   6.142   1.386
 4464SOL    HW113416   0.170   6.141   1.345
 4464SOL    HW213417   0.072   6.216   1.453
 4465SOL     OW13418   0.561   5.808   1.147
 4465SOL    HW113419   0.599   5.724   1.184
 4465SOL    HW213420   0.473   5.827   1.191
 4466SOL     OW13421   0.866   6.040   0.642
 4466SOL    HW113422   0.834   6.112   0.580
 4466SOL    HW213423   0.890   5.959   0.589
 4467SOL     OW13424   1.017   5.625   0.753
 4467SOL    HW113425   0.945   5.630   0.684
 4467SOL    HW213426   0.993   5.556   0.822
 4468SOL     OW13427   1.429   6.759   0.867
 4468SOL    HW113428   1.374   6.675   0.860
 4468SOL    HW213429   1.455   6.788   0.775
 4469SOL     OW13430   1.466   6.176   0.992
 4469SOL    HW113431   1.436   6.081   0.999
 4469SOL    HW213432   1.539   6.192   1.058
 4470SOL     OW13433   1.857   6.419   0.377
 4470SOL    HW113434   1.899   6.355   0.441
 4470SOL    HW213435   1.819   6.368   0.299
 4471SOL     OW13436   0.488   6.971   0.174
 4471SOL    HW113437   0.401   6.956   0.221
 4471SOL    HW213438   0.471   6.997   0.079
 4472SOL     OW13439   1.664   6.866   0.657
 4472SOL    HW113440   1.763   6.874   0.671
 4472SOL    HW213441   1.619   6.950   0.688
 4473SOL     OW13442   1.390   6.161   0.078
 4473SOL    HW113443   1.336   6.140   0.159
 4473SOL    HW213444   1.481   6.120   0.087
 4474SOL     OW13445   0.527   5.842   0.328
 4474SOL    HW113446   0.554   5.783   0.253
 4474SOL    HW213447   0.527   5.937   0.297
 4475SOL     OW13448   1.754   6.809   1.588
 4475SOL    HW113449   1.845   6.770   1.575
 4475SOL    HW213450   1.762   6.905   1.612
 4476SOL     OW13451   1.064   6.933   1.340
 4476SOL    HW113452   0.984   6.910   1.395
 4476SOL    HW213453   1.147   6.907   1.389
 4477SOL     OW13454   1.592   7.215   1.625
 4477SOL    HW113455   1.619   7.249   1.535
 4477SOL    HW213456   1.671   7.177   1.671
 4478SOL     OW13457   1.111   6.781   1.100
 4478SOL    HW113458   1.071   6.825   1.181
 4478SOL    HW213459   1.070   6.818   1.017
 4479SOL     OW13460   1.638   6.685   1.079
 4479SOL    HW113461   1.643   6.766   1.138
 4479SOL    HW213462   1.552   6.687   1.028
 4480SOL     OW13463   0.915   5.675   1.402
 4480SOL    HW113464   0.940   5.655   1.307
 4480SOL    HW213465   0.987   5.731   1.444
 4481SOL     OW13466   0.980   6.702   1.719
 4481SOL    HW113467   0.881   6.708   1.729
 4481SOL    HW213468   1.003   6.622   1.663
 4482SOL     OW13469   0.705   6.636   0.368
 4482SOL    HW113470   0.691   6.643   0.467
 4482SOL    HW213471   0.789   6.585   0.350
 4483SOL     OW13472   0.410   6.399   1.251
 4483SOL    HW113473   0.496   6.411   1.301
 4483SOL    HW213474   0.368   6.312   1.278
 4484SOL     OW13475   1.274   5.972   1.262
 4484SOL    HW113476   1.295   6.046   1.326
 4484SOL    HW213477   1.185   5.989   1.219
 4485SOL     OW13478   0.064   7.150   1.331
 4485SOL    HW113479   0.018   7.232   1.297
 4485SOL    HW213480   0.162   7.169   1.340
 4486SOL     OW13481   0.367   6.686   0.501
 4486SOL    HW113482   0.360   6.769   0.445
 4486SOL    HW213483   0.371   6.606   0.441
 4487SOL     OW13484   0.566   6.123   0.865
 4487SOL    HW113485   0.578   6.189   0.791
 4487SOL    HW213486   0.612   6.157   0.948
 4488SOL     OW13487   1.252   6.934   0.388
 4488SOL    HW113488   1.302   7.011   0.428
 4488SOL    HW213489   1.157   6.936   0.420
 4489SOL     OW13490   1.272   7.031   1.142
 4489SOL    HW113491   1.319   7.044   1.229
 4489SOL    HW213492   1.206   6.957   1.151
 4490SOL     OW13493   1.582   6.225   0.472
 4490SOL    HW113494   1.551   6.286   0.545
 4490SOL    HW213495   1.632   6.277   0.403
 4491SOL     OW13496   0.354   7.096   1.329
 4491SOL    HW113497   0.333   7.052   1.242
 4491SOL    HW213498   0.451   7.122   1.332
 4492SOL     OW13499   0.402   6.337   1.598
 4492SOL    HW113500   0.470   6.392   1.551
 4492SOL    HW213501   0.442   6.249   1.625
 4493SOL     OW13502   1.587   6.365   1.670
 4493SOL    HW113503   1.495   6.403   1.665
 4493SOL    HW213504   1.647   6.412   1.605
 4494SOL     OW13505   1.013   5.691   1.770
 4494SOL    HW113506   1.019   5.776   1.718
 4494SOL    HW213507   1.045   5.615   1.713
 4495SOL     OW13508   0.504   5.636   1.740
 4495SOL    HW113509   0.462   5.579   1.670
 4495SOL    HW213510   0.438   5.705   1.772
 4496SOL     OW13511   0.573   6.456   1.029
 4496SOL    HW113512   0.617   6.545   1.020
 4496SOL    HW213513   0.510   6.456   1.106
 4497SOL     OW13514   1.360   6.448   1.045
 4497SOL    HW113515   1.285   6.448   0.979
 4497SOL    HW213516   1.397   6.356   1.054
 4498SOL     OW13517   1.209   6.111   0.275
 4498SOL    HW113518   1.222   6.027   0.329
 4498SOL    HW213519   1.180   6.185   0.335
 4499SOL     OW13520   0.307   5.799   1.231
 4499SOL    HW113521   0.284   5.836   1.321
 4499SOL    HW213522   0.277   5.704   1.225
 4500SOL     OW13523   0.037   6.896   1.282
 4500SOL    HW113524   0.090   6.847   1.350
 4500SOL    HW213525   0.059   6.994   1.287
 4501SOL     OW13526   0.732   6.220   1.064
 4501SOL    HW113527   0.791   6.194   0.988
 4501SOL    HW213528   0.704   6.316   1.053
 4502SOL     OW13529   1.728   6.521   1.854
 4502SOL    HW113530   1.682   6.514   1.765
 4502SOL    HW213531   1.666   6.565   1.920
 4503SOL     OW13532   0.307   5.649   0.618
 4503SOL    HW113533   0.296   5.743   0.651
 4503SOL    HW213534   0.302   5.586   0.695
 4504SOL     OW13535   1.622   5.953   0.374
 4504SOL    HW113536   1.624   5.877   0.438
 4504SOL    HW213537   1.574   6.030   0.414
 4505SOL     OW13538   1.023   6.352   0.966
 4505SOL    HW113539   1.038   6.373   1.062
 4505SOL    HW213540   0.993   6.257   0.957
 4506SOL     OW13541   0.980   7.159   1.700
 4506SOL    HW113542   0.960   7.203   1.612
 4506SOL    HW213543   1.019   7.068   1.684
 4507SOL     OW13544   1.859   7.104   1.605
 4507SOL    HW113545   1.873   7.131   1.510
 4507SOL    HW213546   1.942   7.126   1.658
 4508SOL     OW13547   0.350   6.484   1.804
 4508SOL    HW113548   0.426   6.528   1.852
 4508SOL    HW213549   0.385   6.437   1.722
 4509SOL     OW13550   1.540   5.860   0.125
 4509SOL    HW113551   1.479   5.785   0.148
 4509SOL    HW213552   1.562   5.912   0.208
 4510SOL     OW13553   1.303   6.424   0.042
 4510SOL    HW113554   1.337   6.331   0.057
 4510SOL    HW213555   1.321   6.451  -0.053
 4511SOL     OW13556   1.068   6.919   0.849
 4511SOL    HW113557   1.075   6.835   0.794
 4511SOL    HW213558   1.130   6.988   0.813
 4512SOL     OW13559   0.319   6.396   0.949
 4512SOL    HW113560   0.412   6.432   0.954
 4512SOL    HW213561   0.313   6.311   1.001
 4513SOL     OW13562   0.339   6.095   1.006
 4513SOL    HW113563   0.287   6.012   0.989
 4513SOL    HW213564   0.416   6.100   0.942
 4514SOL     OW13565   1.138   5.966   1.678
 4514SOL    HW113566   1.093   6.029   1.742
 4514SOL    HW213567   1.231   5.997   1.661
 4515SOL     OW13568   1.160   5.793   1.477
 4515SOL    HW113569   1.160   5.857   1.554
 4515SOL    HW213570   1.188   5.841   1.394
 4516SOL     OW13571   0.008   6.912   0.200
 4516SOL    HW113572  -0.085   6.933   0.169
 4516SOL    HW213573   0.018   6.813   0.213
 4517SOL     OW13574   0.088   7.387   0.927
 4517SOL    HW113575   0.046   7.301   0.900
 4517SOL    HW213576   0.182   7.390   0.893
 4518SOL     OW13577   0.504   7.154   0.910
 4518SOL    HW113578   0.570   7.228   0.919
 4518SOL    HW213579   0.548   7.075   0.868
 4519SOL     OW13580   1.002   6.382   1.238
 4519SOL    HW113581   1.043   6.350   1.324
 4519SOL    HW213582   0.906   6.355   1.235
 4520SOL     OW13583   0.040   6.130   1.114
 4520SOL    HW113584   0.125   6.097   1.073
 4520SOL    HW213585   0.053   6.145   1.212
 4521SOL     OW13586   0.189   6.106   1.722
 4521SOL    HW113587   0.248   6.066   1.652
 4521SOL    HW213588   0.131   6.177   1.681
 4522SOL     OW13589   1.369   6.536   1.660
 4522SOL    HW113590   1.408   6.625   1.680
 4522SOL    HW213591   1.379   6.516   1.563
 4523SOL     OW13592   0.815   6.158   0.325
 4523SOL    HW113593   0.822   6.069   0.279
 4523SOL    HW213594   0.721   6.192   0.317
 4524SOL     OW13595   1.657   6.190   1.206
 4524SOL    HW113596   1.619   6.121   1.268
 4524SOL    HW213597   1.739   6.154   1.162
 4525SOL     OW13598   0.252   7.150   1.744
 4525SOL    HW113599   0.222   7.207   1.820
 4525SOL    HW213600   0.245   7.053   1.770
 4526SOL     OW13601   0.671   6.050   1.269
 4526SOL    HW113602   0.637   5.961   1.239
 4526SOL    HW213603   0.697   6.104   1.189
 4527SOL     OW13604   0.930   7.264   1.465
 4527SOL    HW113605   0.906   7.246   1.370
 4527SOL    HW213606   0.960   7.358   1.475
 4528SOL     OW13607   0.473   6.086   0.191
 4528SOL    HW113608   0.534   6.166   0.195
 4528SOL    HW213609   0.378   6.117   0.198
 4529SOL     OW13610   0.159   6.723   1.466
 4529SOL    HW113611   0.181   6.662   1.542
 4529SOL    HW213612   0.169   6.674   1.380
 4530SOL     OW13613   1.347   6.645   1.234
 4530SOL    HW113614   1.371   6.582   1.160
 4530SOL    HW213615   1.257   6.685   1.216
 4531SOL     OW13616   1.302   6.441   0.309
 4531SOL    HW113617   1.216   6.410   0.351
 4531SOL    HW213618   1.298   6.427   0.210
 4532SOL     OW13619   1.759   7.333   1.154
 4532SOL    HW113620   1.820   7.363   1.081
 4532SOL    HW213621   1.721   7.244   1.132
 4533SOL     OW13622   1.252   7.317   1.128
 4533SOL    HW113623   1.336   7.322   1.074
 4533SOL    HW213624   1.229   7.221   1.146
 4534SOL     OW13625   0.083   6.844   1.022
 4534SOL    HW113626   0.078   6.843   1.122
 4534SOL    HW213627   0.000   6.803   0.984
 4535SOL     OW13628   0.688   7.248   1.716
 4535SOL    HW113629   0.632   7.329   1.725
 4535SOL    HW213630   0.740   7.252   1.630
 4536SOL     OW13631   0.903   5.672   0.133
 4536SOL    HW113632   0.954   5.673   0.047
 4536SOL    HW213633   0.959   5.630   0.204
 4537SOL     OW13634   1.726   5.721   0.523
 4537SOL    HW113635   1.799   5.704   0.456
 4537SOL    HW213636   1.695   5.634   0.561
 4538SOL     OW13637   1.388   7.159   0.477
 4538SOL    HW113638   1.455   7.171   0.403
 4538SOL    HW213639   1.348   7.248   0.500
 4539SOL     OW13640   0.130   7.380   1.851
 4539SOL    HW113641   0.089   7.306   1.904
 4539SOL    HW213642   0.194   7.431   1.909
 4540SOL     OW13643   1.280   6.513   0.672
 4540SOL    HW113644   1.340   6.432   0.674
 4540SOL    HW213645   1.320   6.582   0.612
 4541SOL     OW13646   0.830   6.859   1.422
 4541SOL    HW113647   0.825   6.892   1.517
 4541SOL    HW213648   0.744   6.878   1.376
 4542SOL     OW13649   0.672   7.202   0.154
 4542SOL    HW113650   0.681   7.212   0.055
 4542SOL    HW213651   0.632   7.113   0.175
 4543SOL     OW13652   1.650   7.306   1.394
 4543SOL    HW113653   1.703   7.316   1.310
 4543SOL    HW213654   1.623   7.396   1.428
 4544SOL     OW13655   1.841   5.761   0.963
 4544SOL    HW113656   1.880   5.676   0.927
 4544SOL    HW213657   1.743   5.763   0.944
 4545SOL     OW13658   0.263   5.912   0.720
 4545SOL    HW113659   0.184   5.963   0.686
 4545SOL    HW213660   0.254   5.897   0.818
 4546SOL     OW13661   1.194   7.198   0.031
 4546SOL    HW113662   1.200   7.105   0.068
 4546SOL    HW213663   1.135   7.198  -0.049
 4547SOL     OW13664   0.822   6.588   1.372
 4547SOL    HW113665   0.862   6.587   1.280
 4547SOL    HW213666   0.832   6.680   1.412
 4548SOL     OW13667   0.916   6.496   0.291
 4548SOL    HW113668   0.979   6.534   0.223
 4548SOL    HW213669   0.956   6.413   0.330
 4549SOL     OW13670   1.504   7.193   0.044
 4549SOL    HW113671   1.412   7.230   0.051
 4549SOL    HW213672   1.542   7.213  -0.046
 4550SOL     OW13673   0.372   6.874   1.490
 4550SOL    HW113674   0.359   6.967   1.456
 4550SOL    HW213675   0.288   6.822   1.477
 4551SOL     OW13676   1.614   6.878   1.289
 4551SOL    HW113677   1.674   6.881   1.369
 4551SOL    HW213678   1.539   6.942   1.302
 4552SOL     OW13679   1.039   6.684   0.696
 4552SOL    HW113680   0.969   6.637   0.750
 4552SOL    HW213681   1.098   6.616   0.653
 4553SOL     OW13682   1.014   5.822   0.971
 4553SOL    HW113683   1.006   5.786   0.878
 4553SOL    HW213684   1.012   5.746   1.036
 4554SOL     OW13685   0.590   7.073   0.491
 4554SOL    HW113686   0.632   7.015   0.421
 4554SOL    HW213687   0.546   7.152   0.447
 4555SOL     OW13688   1.709   5.971   1.381
 4555SOL    HW113689   1.782   6.040   1.385
 4555SOL    HW213690   1.737   5.896   1.322
 4556SOL     OW13691   0.255   6.934   0.290
 4556SOL    HW113692   0.159   6.935   0.263
 4556SOL    HW213693   0.267   6.987   0.374
 4557SOL     OW13694   0.105   6.599   1.726
 4557SOL    HW113695   0.028   6.566   1.780
 4557SOL    HW213696   0.190   6.569   1.768
 4558SOL     OW13697   0.672   5.789   1.489
 4558SOL    HW113698   0.762   5.773   1.449
 4558SOL    HW213699   0.680   5.794   1.588
 4559SOL     OW13700   0.075   5.931   0.033
 4559SOL    HW113701  -0.017   5.903   0.004
 4559SOL    HW213702   0.106   6.008  -0.023
 4560SOL     OW13703   1.440   6.442   1.398
 4560SOL    HW113704   1.383   6.494   1.335
 4560SOL    HW213705   1.536   6.454   1.374
 4561SOL     OW13706   0.072   5.752   0.318
 4561SOL    HW113707   0.055   5.835   0.264
 4561SOL    HW213708   0.162   5.715   0.296
 4562SOL     OW13709   1.183   6.921   0.119
 4562SOL    HW113710   1.084   6.910   0.121
 4562SOL    HW213711   1.217   6.936   0.212
 4563SOL     OW13712   0.613   6.428   1.431
 4563SOL    HW113713   0.669   6.509   1.414
 4563SOL    HW213714   0.672   6.348   1.434
 4564SOL     OW13715   1.493   7.353   0.959
 4564SOL    HW113716   1.526   7.417   0.890
 4564SOL    HW213717   1.559   7.347   1.034
 4565SOL     OW13718   0.716   6.151   1.708
 4565SOL    HW113719   0.735   6.216   1.782
 4565SOL    HW213720   0.776   6.071   1.717
 4566SOL     OW13721   1.450   6.806   1.633
 4566SOL    HW113722   1.441   6.796   1.732
 4566SOL    HW213723   1.546   6.799   1.607
 4567SOL     OW13724   0.390   7.327   1.560
 4567SOL    HW113725   0.299   7.368   1.558
 4567SOL    HW213726   0.383   7.233   1.592
 4568SOL     OW13727   1.674   6.469   1.254
 4568SOL    HW113728   1.647   6.380   1.217
 4568SOL    HW213729   1.675   6.537   1.181
 4569SOL     OW13730   1.225   5.911   0.449
 4569SOL    HW113731   1.290   5.837   0.438
 4569SOL    HW213732   1.245   5.961   0.533
 4570SOL     OW13733   0.594   6.331   0.652
 4570SOL    HW113734   0.644   6.416   0.633
 4570SOL    HW213735   0.506   6.333   0.604
 4571SOL     OW13736   1.777   5.928   1.642
 4571SOL    HW113737   1.760   5.959   1.548
 4571SOL    HW213738   1.693   5.891   1.680
 4572SOL     OW13739   1.730   6.520   1.517
 4572SOL    HW113740   1.768   6.611   1.532
 4572SOL    HW213741   1.722   6.503   1.418
 4573SOL     OW13742   0.859   6.960   0.016
 4573SOL    HW113743   0.813   6.975   0.104
 4573SOL    HW213744   0.903   7.045  -0.014
 4574SOL     OW13745   0.661   7.376   0.953
 4574SOL    HW113746   0.615   7.464   0.940
 4574SOL    HW213747   0.760   7.388   0.946
 4575SOL     OW13748   0.859   6.542   0.861
 4575SOL    HW113749   0.913   6.473   0.909
 4575SOL    HW213750   0.827   6.611   0.927
 4576SOL     OW13751   1.083   6.570   0.087
 4576SOL    HW113752   1.060   6.623   0.005
 4576SOL    HW213753   1.164   6.514   0.068
 4577SOL     OW13754   1.861   7.155   0.851
 4577SOL    HW113755   1.790   7.143   0.781
 4577SOL    HW213756   1.862   7.076   0.911
 4578SOL     OW13757   0.221   6.900   1.844
 4578SOL    HW113758   0.156   6.827   1.823
 4578SOL    HW213759   0.225   6.914   1.942
 4579SOL     OW13760   0.079   6.826   0.653
 4579SOL    HW113761   0.078   6.779   0.741
 4579SOL    HW213762   0.161   6.798   0.602
 4580SOL     OW13763   0.672   6.977   1.624
 4580SOL    HW113764   0.594   6.927   1.662
 4580SOL    HW213765   0.669   7.072   1.655
 4581SOL     OW13766   1.824   5.778   1.227
 4581SOL    HW113767   1.820   5.688   1.271
 4581SOL    HW213768   1.827   5.767   1.128
 4582SOL     OW13769   0.428   6.010   0.520
 4582SOL    HW113770   0.458   5.938   0.458
 4582SOL    HW213771   0.389   5.970   0.603
 4583SOL     OW13772   1.705   7.073   1.104
 4583SOL    HW113773   1.612   7.048   1.077
 4583SOL    HW213774   1.731   7.023   1.186
 4584SOL     OW13775   0.317   6.133   1.280
 4584SOL    HW113776   0.355   6.074   1.352
 4584SOL    HW213777   0.357   6.107   1.192
 4585SOL     OW13778   0.812   7.172   0.687
 4585SOL    HW113779   0.844   7.182   0.593
 4585SOL    HW213780   0.733   7.110   0.689
 4586SOL     OW13781   1.424   5.800   1.112
 4586SOL    HW113782   1.476   5.735   1.167
 4586SOL    HW213783   1.375   5.863   1.173
 4587SOL     OW13784   1.001   5.620   1.154
 4587SOL    HW113785   0.938   5.548   1.123
 4587SOL    HW213786   1.094   5.584   1.154
 4588SOL     OW13787   0.770   6.916   0.301
 4588SOL    HW113788   0.724   6.829   0.318
 4588SOL    HW213789   0.861   6.913   0.342
 4589SOL     OW13790   0.618   7.153   1.284
 4589SOL    HW113791   0.613   7.235   1.341
 4589SOL    HW213792   0.707   7.150   1.239
 4590SOL     OW13793   1.352   5.638   0.168
 4590SOL    HW113794   1.387   5.597   0.084
 4590SOL    HW213795   1.262   5.600   0.188
 4591SOL     OW13796   1.300   6.039   0.691
 4591SOL    HW113797   1.241   6.119   0.695
 4591SOL    HW213798   1.315   6.004   0.784
 4592SOL     OW13799   1.593   5.807   0.882
 4592SOL    HW113800   1.509   5.806   0.936
 4592SOL    HW213801   1.595   5.890   0.826
 4593SOL     OW13802   0.039   6.663   0.300
 4593SOL    HW113803   0.138   6.652   0.291
 4593SOL    HW213804  -0.001   6.577   0.332
 4594SOL     OW13805   0.875   7.232   0.337
 4594SOL    HW113806   0.798   7.197   0.283
 4594SOL    HW213807   0.843   7.303   0.399
 4595SOL     OW13808   0.230   6.214   1.975
 4595SOL    HW113809   0.137   6.212   2.012
 4595SOL    HW213810   0.231   6.175   1.883
 4596SOL     OW13811   0.225   5.861   2.858
 4596SOL    HW113812   0.260   5.844   2.950
 4596SOL    HW213813   0.137   5.816   2.846
 4597SOL     OW13814   0.019   5.954   2.509
 4597SOL    HW113815  -0.063   5.997   2.548
 4597SOL    HW213816  -0.009   5.881   2.446
 4598SOL     OW13817   0.569   6.861   3.027
 4598SOL    HW113818   0.476   6.854   2.990
 4598SOL    HW213819   0.580   6.950   3.071
 4599SOL     OW13820   1.555   7.097   2.565
 4599SOL    HW113821   1.498   7.081   2.646
 4599SOL    HW213822   1.496   7.107   2.485
 4600SOL     OW13823   1.135   6.289   2.579
 4600SOL    HW113824   1.192   6.367   2.554
 4600SOL    HW213825   1.075   6.315   2.655
 4601SOL     OW13826   1.755   6.193   2.093
 4601SOL    HW113827   1.743   6.180   1.994
 4601SOL    HW213828   1.725   6.112   2.142
 4602SOL     OW13829   0.768   6.730   2.885
 4602SOL    HW113830   0.690   6.747   2.945
 4602SOL    HW213831   0.802   6.817   2.849
 4603SOL     OW13832   0.850   6.384   3.685
 4603SOL    HW113833   0.846   6.460   3.750
 4603SOL    HW213834   0.872   6.420   3.594
 4604SOL     OW13835   0.685   6.598   2.527
 4604SOL    HW113836   0.754   6.582   2.597
 4604SOL    HW213837   0.612   6.655   2.565
 4605SOL     OW13838   0.686   6.747   3.665
 4605SOL    HW113839   0.746   6.826   3.679
 4605SOL    HW213840   0.600   6.778   3.624
 4606SOL     OW13841   0.335   7.021   2.923
 4606SOL    HW113842   0.257   6.990   2.870
 4606SOL    HW213843   0.393   7.079   2.866
 4607SOL     OW13844   1.460   7.091   3.201
 4607SOL    HW113845   1.484   7.185   3.227
 4607SOL    HW213846   1.444   7.037   3.283
 4608SOL     OW13847   0.438   5.978   3.361
 4608SOL    HW113848   0.520   5.922   3.370
 4608SOL    HW213849   0.357   5.920   3.365
 4609SOL     OW13850   1.603   6.033   2.599
 4609SOL    HW113851   1.529   6.079   2.549
 4609SOL    HW213852   1.654   6.101   2.652
 4610SOL     OW13853   0.231   7.299   2.345
 4610SOL    HW113854   0.265   7.376   2.399
 4610SOL    HW213855   0.275   7.299   2.255
 4611SOL     OW13856   1.127   6.927   3.552
 4611SOL    HW113857   1.174   6.927   3.640
 4611SOL    HW213858   1.079   6.840   3.541
 4612SOL     OW13859   0.230   7.020   2.400
 4612SOL    HW113860   0.204   7.116   2.400
 4612SOL    HW213861   0.159   6.966   2.445
 4613SOL     OW13862   0.240   6.677   2.748
 4613SOL    HW113863   0.254   6.593   2.800
 4613SOL    HW213864   0.185   6.741   2.803
 4614SOL     OW13865   0.620   7.372   3.301
 4614SOL    HW113866   0.528   7.355   3.336
 4614SOL    HW213867   0.648   7.464   3.327
 4615SOL     OW13868   0.606   6.550   1.985
 4615SOL    HW113869   0.613   6.634   1.931
 4615SOL    HW213870   0.652   6.563   2.073
 4616SOL     OW13871   1.594   5.700   3.342
 4616SOL    HW113872   1.576   5.767   3.270
 4616SOL    HW213873   1.591   5.746   3.431
 4617SOL     OW13874   0.122   6.229   2.425
 4617SOL    HW113875   0.077   6.141   2.442
 4617SOL    HW213876   0.121   6.283   2.509
 4618SOL     OW13877   1.842   7.353   2.221
 4618SOL    HW113878   1.896   7.324   2.301
 4618SOL    HW213879   1.872   7.443   2.192
 4619SOL     OW13880   0.027   7.182   1.979
 4619SOL    HW113881   0.008   7.086   2.000
 4619SOL    HW213882  -0.006   7.240   2.054
 4620SOL     OW13883   1.689   6.508   2.474
 4620SOL    HW113884   1.784   6.479   2.482
 4620SOL    HW213885   1.681   6.573   2.399
 4621SOL     OW13886   1.641   6.694   2.294
 4621SOL    HW113887   1.727   6.696   2.242
 4621SOL    HW213888   1.655   6.741   2.382
 4622SOL     OW13889   0.113   6.323   3.459
 4622SOL    HW113890   0.201   6.310   3.504
 4622SOL    HW213891   0.100   6.420   3.437
 4623SOL     OW13892   0.613   6.951   2.588
 4623SOL    HW113893   0.564   6.864   2.597
 4623SOL    HW213894   0.590   6.994   2.501
 4624SOL     OW13895   1.293   6.814   3.285
 4624SOL    HW113896   1.330   6.741   3.227
 4624SOL    HW213897   1.345   6.819   3.370
 4625SOL     OW13898   0.809   5.590   2.364
 4625SOL    HW113899   0.849   5.681   2.355
 4625SOL    HW213900   0.709   5.598   2.370
 4626SOL     OW13901   0.197   6.562   3.126
 4626SOL    HW113902   0.286   6.517   3.112
 4626SOL    HW213903   0.124   6.497   3.107
 4627SOL     OW13904   1.525   6.585   2.052
 4627SOL    HW113905   1.462   6.509   2.065
 4627SOL    HW213906   1.573   6.603   2.138
 4628SOL     OW13907   1.187   7.378   3.478
 4628SOL    HW113908   1.211   7.438   3.402
 4628SOL    HW213909   1.194   7.283   3.448
 4629SOL     OW13910   0.317   5.837   3.663
 4629SOL    HW113911   0.388   5.908   3.669
 4629SOL    HW213912   0.229   5.876   3.691
 4630SOL     OW13913   1.466   7.003   2.815
 4630SOL    HW113914   1.407   7.009   2.895
 4630SOL    HW213915   1.451   6.915   2.769
 4631SOL     OW13916   1.667   7.300   2.434
 4631SOL    HW113917   1.626   7.277   2.346
 4631SOL    HW213918   1.649   7.226   2.499
 4632SOL     OW13919   0.598   6.315   2.132
 4632SOL    HW113920   0.622   6.384   2.064
 4632SOL    HW213921   0.520   6.348   2.186
 4633SOL     OW13922   1.281   5.931   2.806
 4633SOL    HW113923   1.195   5.881   2.793
 4633SOL    HW213924   1.343   5.877   2.862
 4634SOL     OW13925   1.576   7.248   2.169
 4634SOL    HW113926   1.665   7.294   2.172
 4634SOL    HW213927   1.555   7.224   2.074
 4635SOL     OW13928   0.807   6.191   3.327
 4635SOL    HW113929   0.760   6.188   3.416
 4635SOL    HW213930   0.756   6.136   3.261
 4636SOL     OW13931   1.394   6.055   3.536
 4636SOL    HW113932   1.374   6.098   3.624
 4636SOL    HW213933   1.472   5.993   3.545
 4637SOL     OW13934   0.973   6.476   3.434
 4637SOL    HW113935   1.019   6.392   3.405
 4637SOL    HW213936   0.917   6.510   3.359
 4638SOL     OW13937   0.991   5.996   3.104
 4638SOL    HW113938   0.914   6.030   3.158
 4638SOL    HW213939   0.957   5.945   3.025
 4639SOL     OW13940   1.041   6.287   2.291
 4639SOL    HW113941   1.067   6.283   2.387
 4639SOL    HW213942   0.956   6.236   2.277
 4640SOL     OW13943   0.076   6.397   2.651
 4640SOL    HW113944   0.175   6.385   2.660
 4640SOL    HW213945   0.052   6.492   2.672
 4641SOL     OW13946   0.130   7.407   3.433
 4641SOL    HW113947   0.120   7.392   3.532
 4641SOL    HW213948   0.044   7.443   3.397
 4642SOL     OW13949   0.865   5.934   2.057
 4642SOL    HW113950   0.924   5.997   2.008
 4642SOL    HW213951   0.884   5.840   2.028
 4643SOL     OW13952   1.719   6.171   3.693
 4643SOL    HW113953   1.693   6.260   3.657
 4643SOL    HW213954   1.717   6.103   3.620
 4644SOL     OW13955   1.362   6.730   2.407
 4644SOL    HW113956   1.445   6.701   2.359
 4644SOL    HW213957   1.313   6.797   2.351
 4645SOL     OW13958   0.550   5.782   2.747
 4645SOL    HW113959   0.545   5.777   2.847
 4645SOL    HW213960   0.552   5.878   2.718
 4646SOL     OW13961   1.008   7.042   2.339
 4646SOL    HW113962   0.962   7.114   2.287
 4646SOL    HW213963   1.004   7.062   2.437
 4647SOL     OW13964   0.351   7.387   2.715
 4647SOL    HW113965   0.401   7.301   2.721
 4647SOL    HW213966   0.416   7.464   2.712
 4648SOL     OW13967   1.795   6.652   2.735
 4648SOL    HW113968   1.733   6.637   2.659
 4648SOL    HW213969   1.743   6.663   2.820
 4649SOL     OW13970   1.227   7.136   3.368
 4649SOL    HW113971   1.233   7.059   3.432
 4649SOL    HW213972   1.175   7.110   3.288
 4650SOL     OW13973   0.321   6.529   2.104
 4650SOL    HW113974   0.403   6.568   2.062
 4650SOL    HW213975   0.294   6.447   2.055
 4651SOL     OW13976   1.458   6.321   2.590
 4651SOL    HW113977   1.453   6.256   2.665
 4651SOL    HW213978   1.538   6.380   2.603
 4652SOL     OW13979   0.461   6.852   3.589
 4652SOL    HW113980   0.411   6.853   3.503
 4652SOL    HW213981   0.398   6.834   3.665
 4653SOL     OW13982   1.111   7.362   2.099
 4653SOL    HW113983   1.051   7.300   2.149
 4653SOL    HW213984   1.142   7.318   2.014
 4654SOL     OW13985   0.202   5.871   3.360
 4654SOL    HW113986   0.122   5.931   3.347
 4654SOL    HW213987   0.192   5.822   3.446
 4655SOL     OW13988   1.632   6.963   1.943
 4655SOL    HW113989   1.600   7.057   1.933
 4655SOL    HW213990   1.556   6.900   1.931
 4656SOL     OW13991   0.464   7.329   2.185
 4656SOL    HW113992   0.497   7.368   2.271
 4656SOL    HW213993   0.540   7.322   2.120
 4657SOL     OW13994   1.400   5.693   2.288
 4657SOL    HW113995   1.376   5.656   2.198
 4657SOL    HW213996   1.499   5.709   2.292
 4658SOL     OW13997   0.249   7.371   3.103
 4658SOL    HW113998   0.306   7.306   3.153
 4658SOL    HW213999   0.233   7.338   3.010
 4659SOL     OW14000   0.940   7.284   2.766
 4659SOL    HW114001   1.020   7.227   2.787
 4659SOL    HW214002   0.891   7.244   2.689
 4660SOL     OW14003   0.382   6.286   2.342
 4660SOL    HW114004   0.427   6.196   2.339
 4660SOL    HW214005   0.288   6.275   2.375
 4661SOL     OW14006   1.547   5.808   3.591
 4661SOL    HW114007   1.542   5.845   3.683
 4661SOL    HW214008   1.475   5.739   3.579
 4662SOL     OW14009   0.614   5.708   1.979
 4662SOL    HW114010   0.712   5.686   1.986
 4662SOL    HW214011   0.583   5.691   1.886
 4663SOL     OW14012   0.781   5.850   3.611
 4663SOL    HW114013   0.848   5.789   3.654
 4663SOL    HW214014   0.708   5.869   3.676
 4664SOL     OW14015   0.888   7.100   3.057
 4664SOL    HW114016   0.865   7.075   2.963
 4664SOL    HW214017   0.949   7.031   3.096
 4665SOL     OW14018   1.351   6.176   3.295
 4665SOL    HW114019   1.379   6.133   3.380
 4665SOL    HW214020   1.376   6.272   3.296
 4666SOL     OW14021   0.803   6.988   2.786
 4666SOL    HW114022   0.893   7.002   2.744
 4666SOL    HW214023   0.732   6.990   2.715
 4667SOL     OW14024   0.922   6.089   2.761
 4667SOL    HW114025   0.897   6.080   2.665
 4667SOL    HW214026   0.970   6.007   2.792
 4668SOL     OW14027   0.539   5.650   2.374
 4668SOL    HW114028   0.458   5.651   2.432
 4668SOL    HW214029   0.542   5.733   2.319
 4669SOL     OW14030   1.434   6.774   1.903
 4669SOL    HW114031   1.466   6.698   1.960
 4669SOL    HW214032   1.342   6.801   1.933
 4670SOL     OW14033   0.297   5.621   2.033
 4670SOL    HW114034   0.346   5.705   2.012
 4670SOL    HW214035   0.359   5.556   2.078
 4671SOL     OW14036   0.935   5.822   2.342
 4671SOL    HW114037   0.887   5.863   2.264
 4671SOL    HW214038   1.034   5.820   2.323
 4672SOL     OW14039   1.076   6.269   3.326
 4672SOL    HW114040   0.996   6.208   3.329
 4672SOL    HW214041   1.157   6.216   3.302
 4673SOL     OW14042   1.227   7.156   2.655
 4673SOL    HW114043   1.248   7.230   2.590
 4673SOL    HW214044   1.295   7.156   2.728
 4674SOL     OW14045   0.459   6.738   2.603
 4674SOL    HW114046   0.388   6.711   2.668
 4674SOL    HW214047   0.433   6.710   2.510
 4675SOL     OW14048   1.271   7.383   2.453
 4675SOL    HW114049   1.315   7.447   2.389
 4675SOL    HW214050   1.221   7.435   2.523
 4676SOL     OW14051   1.032   6.135   1.878
 4676SOL    HW114052   0.991   6.217   1.839
 4676SOL    HW214053   1.096   6.161   1.951
 4677SOL     OW14054   0.078   6.142   3.248
 4677SOL    HW114055   0.170   6.141   3.207
 4677SOL    HW214056   0.072   6.216   3.315
 4678SOL     OW14057   0.561   5.808   3.009
 4678SOL    HW114058   0.599   5.724   3.046
 4678SOL    HW214059   0.473   5.827   3.053
 4679SOL     OW14060   0.866   6.040   2.504
 4679SOL    HW114061   0.834   6.112   2.442
 4679SOL    HW214062   0.890   5.959   2.451
 4680SOL     OW14063   1.017   5.625   2.615
 4680SOL    HW114064   0.945   5.630   2.546
 4680SOL    HW214065   0.993   5.556   2.684
 4681SOL     OW14066   1.429   6.759   2.729
 4681SOL    HW114067   1.374   6.675   2.722
 4681SOL    HW214068   1.455   6.788   2.637
 4682SOL     OW14069   1.466   6.176   2.854
 4682SOL    HW114070   1.436   6.081   2.861
 4682SOL    HW214071   1.539   6.192   2.920
 4683SOL     OW14072   1.857   6.419   2.239
 4683SOL    HW114073   1.899   6.355   2.303
 4683SOL    HW214074   1.819   6.368   2.161
 4684SOL     OW14075   0.488   6.971   2.036
 4684SOL    HW114076   0.401   6.956   2.083
 4684SOL    HW214077   0.471   6.997   1.941
 4685SOL     OW14078   1.664   6.866   2.519
 4685SOL    HW114079   1.763   6.874   2.533
 4685SOL    HW214080   1.619   6.950   2.550
 4686SOL     OW14081   1.390   6.161   1.940
 4686SOL    HW114082   1.336   6.140   2.021
 4686SOL    HW214083   1.481   6.120   1.949
 4687SOL     OW14084   0.527   5.842   2.190
 4687SOL    HW114085   0.554   5.783   2.115
 4687SOL    HW214086   0.527   5.937   2.159
 4688SOL     OW14087   1.754   6.809   3.450
 4688SOL    HW114088   1.845   6.770   3.437
 4688SOL    HW214089   1.762   6.905   3.474
 4689SOL     OW14090   1.064   6.933   3.202
 4689SOL    HW114091   0.984   6.910   3.257
 4689SOL    HW214092   1.147   6.907   3.251
 4690SOL     OW14093   1.592   7.215   3.487
 4690SOL    HW114094   1.619   7.249   3.397
 4690SOL    HW214095   1.671   7.177   3.533
 4691SOL     OW14096   1.111   6.781   2.962
 4691SOL    HW114097   1.071   6.825   3.043
 4691SOL    HW214098   1.070   6.818   2.879
 4692SOL     OW14099   1.638   6.685   2.941
 4692SOL    HW114100   1.643   6.766   3.000
 4692SOL    HW214101   1.552   6.687   2.890
 4693SOL     OW14102   0.915   5.675   3.264
 4693SOL    HW114103   0.940   5.655   3.169
 4693SOL    HW214104   0.987   5.731   3.306
 4694SOL     OW14105   0.980   6.702   3.581
 4694SOL    HW114106   0.881   6.708   3.591
 4694SOL    HW214107   1.003   6.622   3.525
 4695SOL     OW14108   0.705   6.636   2.230
 4695SOL    HW114109   0.691   6.643   2.329
 4695SOL    HW214110   0.789   6.585   2.212
 4696SOL     OW14111   0.410   6.399   3.113
 4696SOL    HW114112   0.496   6.411   3.163
 4696SOL    HW214113   0.368   6.312   3.140
 4697SOL     OW14114   1.274   5.972   3.124
 4697SOL    HW114115   1.295   6.046   3.188
 4697SOL    HW214116   1.185   5.989   3.081
 4698SOL     OW14117   0.064   7.150   3.193
 4698SOL    HW114118   0.018   7.232   3.159
 4698SOL    HW214119   0.162   7.169   3.202
 4699SOL     OW14120   0.367   6.686   2.363
 4699SOL    HW114121   0.360   6.769   2.307
 4699SOL    HW214122   0.371   6.606   2.303
 4700SOL     OW14123   0.566   6.123   2.727
 4700SOL    HW114124   0.578   6.189   2.653
 4700SOL    HW214125   0.612   6.157   2.810
 4701SOL     OW14126   1.252   6.934   2.250
 4701SOL    HW114127   1.302   7.011   2.290
 4701SOL    HW214128   1.157   6.936   2.282
 4702SOL     OW14129   1.272   7.031   3.004
 4702SOL    HW114130   1.319   7.044   3.091
 4702SOL    HW214131   1.206   6.957   3.013
 4703SOL     OW14132   1.582   6.225   2.334
 4703SOL    HW114133   1.551   6.286   2.407
 4703SOL    HW214134   1.632   6.277   2.265
 4704SOL     OW14135   0.354   7.096   3.191
 4704SOL    HW114136   0.333   7.052   3.104
 4704SOL    HW214137   0.451   7.122   3.194
 4705SOL     OW14138   0.402   6.337   3.460
 4705SOL    HW114139   0.470   6.392   3.413
 4705SOL    HW214140   0.442   6.249   3.487
 4706SOL     OW14141   1.587   6.365   3.532
 4706SOL    HW114142   1.495   6.403   3.527
 4706SOL    HW214143   1.647   6.412   3.467
 4707SOL     OW14144   1.013   5.691   3.632
 4707SOL    HW114145   1.019   5.776   3.580
 4707SOL    HW214146   1.045   5.615   3.575
 4708SOL     OW14147   0.504   5.636   3.602
 4708SOL    HW114148   0.462   5.579   3.532
 4708SOL    HW214149   0.438   5.705   3.634
 4709SOL     OW14150   0.573   6.456   2.891
 4709SOL    HW114151   0.617   6.545   2.882
 4709SOL    HW214152   0.510   6.456   2.968
 4710SOL     OW14153   1.360   6.448   2.907
 4710SOL    HW114154   1.285   6.448   2.841
 4710SOL    HW214155   1.397   6.356   2.916
 4711SOL     OW14156   1.209   6.111   2.137
 4711SOL    HW114157   1.222   6.027   2.191
 4711SOL    HW214158   1.180   6.185   2.197
 4712SOL     OW14159   0.307   5.799   3.093
 4712SOL    HW114160   0.284   5.836   3.183
 4712SOL    HW214161   0.277   5.704   3.087
 4713SOL     OW14162   0.037   6.896   3.144
 4713SOL    HW114163   0.090   6.847   3.212
 4713SOL    HW214164   0.059   6.994   3.149
 4714SOL     OW14165   0.732   6.220   2.926
 4714SOL    HW114166   0.791   6.194   2.850
 4714SOL    HW214167   0.704   6.316   2.915
 4715SOL     OW14168   1.728   6.521   3.716
 4715SOL    HW114169   1.682   6.514   3.627
 4715SOL    HW214170   1.666   6.565   3.782
 4716SOL     OW14171   0.307   5.649   2.480
 4716SOL    HW114172   0.296   5.743   2.513
 4716SOL    HW214173   0.302   5.586   2.557
 4717SOL     OW14174   1.622   5.953   2.236
 4717SOL    HW114175   1.624   5.877   2.300
 4717SOL    HW214176   1.574   6.030   2.276
 4718SOL     OW14177   1.023   6.352   2.828
 4718SOL    HW114178   1.038   6.373   2.924
 4718SOL    HW214179   0.993   6.257   2.819
 4719SOL     OW14180   0.980   7.159   3.562
 4719SOL    HW114181   0.960   7.203   3.474
 4719SOL    HW214182   1.019   7.068   3.546
 4720SOL     OW14183   1.859   7.104   3.467
 4720SOL    HW114184   1.873   7.131   3.372
 4720SOL    HW214185   1.942   7.126   3.520
 4721SOL     OW14186   0.350   6.484   3.666
 4721SOL    HW114187   0.426   6.528   3.714
 4721SOL    HW214188   0.385   6.437   3.584
 4722SOL     OW14189   1.540   5.860   1.987
 4722SOL    HW114190   1.479   5.785   2.010
 4722SOL    HW214191   1.562   5.912   2.070
 4723SOL     OW14192   1.303   6.424   1.904
 4723SOL    HW114193   1.337   6.331   1.919
 4723SOL    HW214194   1.321   6.451   1.809
 4724SOL     OW14195   1.068   6.919   2.711
 4724SOL    HW114196   1.075   6.835   2.656
 4724SOL    HW214197   1.130   6.988   2.675
 4725SOL     OW14198   0.319   6.396   2.811
 4725SOL    HW114199   0.412   6.432   2.816
 4725SOL    HW214200   0.313   6.311   2.863
 4726SOL     OW14201   0.339   6.095   2.868
 4726SOL    HW114202   0.287   6.012   2.851
 4726SOL    HW214203   0.416   6.100   2.804
 4727SOL     OW14204   1.138   5.966   3.540
 4727SOL    HW114205   1.093   6.029   3.604
 4727SOL    HW214206   1.231   5.997   3.523
 4728SOL     OW14207   1.160   5.793   3.339
 4728SOL    HW114208   1.160   5.857   3.416
 4728SOL    HW214209   1.188   5.841   3.256
 4729SOL     OW14210   0.008   6.912   2.062
 4729SOL    HW114211  -0.085   6.933   2.031
 4729SOL    HW214212   0.018   6.813   2.075
 4730SOL     OW14213   0.088   7.387   2.789
 4730SOL    HW114214   0.046   7.301   2.762
 4730SOL    HW214215   0.182   7.390   2.755
 4731SOL     OW14216   0.504   7.154   2.772
 4731SOL    HW114217   0.570   7.228   2.781
 4731SOL    HW214218   0.548   7.075   2.730
 4732SOL     OW14219   1.002   6.382   3.100
 4732SOL    HW114220   1.043   6.350   3.186
 4732SOL    HW214221   0.906   6.355   3.097
 4733SOL     OW14222   0.040   6.130   2.976
 4733SOL    HW114223   0.125   6.097   2.935
 4733SOL    HW214224   0.053   6.145   3.074
 4734SOL     OW14225   0.189   6.106   3.584
 4734SOL    HW114226   0.248   6.066   3.514
 4734SOL    HW214227   0.131   6.177   3.543
 4735SOL     OW14228   1.369   6.536   3.522
 4735SOL    HW114229   1.408   6.625   3.542
 4735SOL    HW214230   1.379   6.516   3.425
 4736SOL     OW14231   0.815   6.158   2.187
 4736SOL    HW114232   0.822   6.069   2.141
 4736SOL    HW214233   0.721   6.192   2.179
 4737SOL     OW14234   1.657   6.190   3.068
 4737SOL    HW114235   1.619   6.121   3.130
 4737SOL    HW214236   1.739   6.154   3.024
 4738SOL     OW14237   0.252   7.150   3.606
 4738SOL    HW114238   0.222   7.207   3.682
 4738SOL    HW214239   0.245   7.053   3.632
 4739SOL     OW14240   0.671   6.050   3.131
 4739SOL    HW114241   0.637   5.961   3.101
 4739SOL    HW214242   0.697   6.104   3.051
 4740SOL     OW14243   0.930   7.264   3.327
 4740SOL    HW114244   0.906   7.246   3.232
 4740SOL    HW214245   0.960   7.358   3.337
 4741SOL     OW14246   0.473   6.086   2.053
 4741SOL    HW114247   0.534   6.166   2.057
 4741SOL    HW214248   0.378   6.117   2.060
 4742SOL     OW14249   0.159   6.723   3.328
 4742SOL    HW114250   0.181   6.662   3.404
 4742SOL    HW214251   0.169   6.674   3.242
 4743SOL     OW14252   1.347   6.645   3.096
 4743SOL    HW114253   1.371   6.582   3.022
 4743SOL    HW214254   1.257   6.685   3.078
 4744SOL     OW14255   1.302   6.441   2.171
 4744SOL    HW114256   1.216   6.410   2.213
 4744SOL    HW214257   1.298   6.427   2.072
 4745SOL     OW14258   1.759   7.333   3.016
 4745SOL    HW114259   1.820   7.363   2.943
 4745SOL    HW214260   1.721   7.244   2.994
 4746SOL     OW14261   1.252   7.317   2.990
 4746SOL    HW114262   1.336   7.322   2.936
 4746SOL    HW214263   1.229   7.221   3.008
 4747SOL     OW14264   0.083   6.844   2.884
 4747SOL    HW114265   0.078   6.843   2.984
 4747SOL    HW214266   0.000   6.803   2.846
 4748SOL     OW14267   0.688   7.248   3.578
 4748SOL    HW114268   0.632   7.329   3.587
 4748SOL    HW214269   0.740   7.252   3.492
 4749SOL     OW14270   1.726   5.721   2.385
 4749SOL    HW114271   1.799   5.704   2.318
 4749SOL    HW214272   1.695   5.634   2.423
 4750SOL     OW14273   1.388   7.159   2.339
 4750SOL    HW114274   1.455   7.171   2.265
 4750SOL    HW214275   1.348   7.248   2.362
 4751SOL     OW14276   0.130   7.380   3.713
 4751SOL    HW114277   0.089   7.306   3.766
 4751SOL    HW214278   0.194   7.431   3.771
 4752SOL     OW14279   1.280   6.513   2.534
 4752SOL    HW114280   1.340   6.432   2.536
 4752SOL    HW214281   1.320   6.582   2.474
 4753SOL     OW14282   0.830   6.859   3.284
 4753SOL    HW114283   0.825   6.892   3.379
 4753SOL    HW214284   0.744   6.878   3.238
 4754SOL     OW14285   0.672   7.202   2.016
 4754SOL    HW114286   0.681   7.212   1.917
 4754SOL    HW214287   0.632   7.113   2.037
 4755SOL     OW14288   1.650   7.306   3.256
 4755SOL    HW114289   1.703   7.316   3.172
 4755SOL    HW214290   1.623   7.396   3.290
 4756SOL     OW14291   1.841   5.761   2.825
 4756SOL    HW114292   1.880   5.676   2.789
 4756SOL    HW214293   1.743   5.763   2.806
 4757SOL     OW14294   0.263   5.912   2.582
 4757SOL    HW114295   0.184   5.963   2.548
 4757SOL    HW214296   0.254   5.897   2.680
 4758SOL     OW14297   1.194   7.198   1.893
 4758SOL    HW114298   1.200   7.105   1.930
 4758SOL    HW214299   1.135   7.198   1.813
 4759SOL     OW14300   0.822   6.588   3.234
 4759SOL    HW114301   0.862   6.587   3.142
 4759SOL    HW214302   0.832   6.680   3.274
 4760SOL     OW14303   0.916   6.496   2.153
 4760SOL    HW114304   0.979   6.534   2.085
 4760SOL    HW214305   0.956   6.413   2.192
 4761SOL     OW14306   1.504   7.193   1.906
 4761SOL    HW114307   1.412   7.230   1.913
 4761SOL    HW214308   1.542   7.213   1.816
 4762SOL     OW14309   0.372   6.874   3.352
 4762SOL    HW114310   0.359   6.967   3.318
 4762SOL    HW214311   0.288   6.822   3.339
 4763SOL     OW14312   1.614   6.878   3.151
 4763SOL    HW114313   1.674   6.881   3.231
 4763SOL    HW214314   1.539   6.942   3.164
 4764SOL     OW14315   1.039   6.684   2.558
 4764SOL    HW114316   0.969   6.637   2.612
 4764SOL    HW214317   1.098   6.616   2.515
 4765SOL     OW14318   1.014   5.822   2.833
 4765SOL    HW114319   1.006   5.786   2.740
 4765SOL    HW214320   1.012   5.746   2.898
 4766SOL     OW14321   0.590   7.073   2.353
 4766SOL    HW114322   0.632   7.015   2.283
 4766SOL    HW214323   0.546   7.152   2.309
 4767SOL     OW14324   1.709   5.971   3.243
 4767SOL    HW114325   1.782   6.040   3.247
 4767SOL    HW214326   1.737   5.896   3.184
 4768SOL     OW14327   0.255   6.934   2.152
 4768SOL    HW114328   0.159   6.935   2.125
 4768SOL    HW214329   0.267   6.987   2.236
 4769SOL     OW14330   0.105   6.599   3.588
 4769SOL    HW114331   0.028   6.566   3.642
 4769SOL    HW214332   0.190   6.569   3.630
 4770SOL     OW14333   0.672   5.789   3.351
 4770SOL    HW114334   0.762   5.773   3.311
 4770SOL    HW214335   0.680   5.794   3.450
 4771SOL     OW14336   0.075   5.931   1.895
 4771SOL    HW114337  -0.017   5.903   1.866
 4771SOL    HW214338   0.106   6.008   1.839
 4772SOL     OW14339   1.440   6.442   3.260
 4772SOL    HW114340   1.383   6.494   3.197
 4772SOL    HW214341   1.536   6.454   3.236
 4773SOL     OW14342   0.072   5.752   2.180
 4773SOL    HW114343   0.055   5.835   2.126
 4773SOL    HW214344   0.162   5.715   2.158
 4774SOL     OW14345   1.183   6.921   1.981
 4774SOL    HW114346   1.084   6.910   1.983
 4774SOL    HW214347   1.217   6.936   2.074
 4775SOL     OW14348   0.613   6.428   3.293
 4775SOL    HW114349   0.669   6.509   3.276
 4775SOL    HW214350   0.672   6.348   3.296
 4776SOL     OW14351   1.493   7.353   2.821
 4776SOL    HW114352   1.526   7.417   2.752
 4776SOL    HW214353   1.559   7.347   2.896
 4777SOL     OW14354   0.716   6.151   3.570
 4777SOL    HW114355   0.735   6.216   3.644
 4777SOL    HW214356   0.776   6.071   3.579
 4778SOL     OW14357   1.450   6.806   3.495
 4778SOL    HW114358   1.441   6.796   3.594
 4778SOL    HW214359   1.546   6.799   3.469
 4779SOL     OW14360   0.390   7.327   3.422
 4779SOL    HW114361   0.299   7.368   3.420
 4779SOL    HW214362   0.383   7.233   3.454
 4780SOL     OW14363   1.674   6.469   3.116
 4780SOL    HW114364   1.647   6.380   3.079
 4780SOL    HW214365   1.675   6.537   3.043
 4781SOL     OW14366   1.225   5.911   2.311
 4781SOL    HW114367   1.290   5.837   2.300
 4781SOL    HW214368   1.245   5.961   2.395
 4782SOL     OW14369   0.594   6.331   2.514
 4782SOL    HW114370   0.644   6.416   2.495
 4782SOL    HW214371   0.506   6.333   2.466
 4783SOL     OW14372   1.777   5.928   3.504
 4783SOL    HW114373   1.760   5.959   3.410
 4783SOL    HW214374   1.693   5.891   3.542
 4784SOL     OW14375   1.730   6.520   3.379
 4784SOL    HW114376   1.768   6.611   3.394
 4784SOL    HW214377   1.722   6.503   3.280
 4785SOL     OW14378   0.859   6.960   1.878
 4785SOL    HW114379   0.813   6.975   1.966
 4785SOL    HW214380   0.903   7.045   1.848
 4786SOL     OW14381   0.661   7.376   2.815
 4786SOL    HW114382   0.615   7.464   2.802
 4786SOL    HW214383   0.760   7.388   2.808
 4787SOL     OW14384   0.859   6.542   2.723
 4787SOL    HW114385   0.913   6.473   2.771
 4787SOL    HW214386   0.827   6.611   2.789
 4788SOL     OW14387   1.083   6.570   1.949
 4788SOL    HW114388   1.060   6.623   1.867
 4788SOL    HW214389   1.164   6.514   1.930
 4789SOL     OW14390   1.861   7.155   2.713
 4789SOL    HW114391   1.790   7.143   2.643
 4789SOL    HW214392   1.862   7.076   2.773
 4790SOL     OW14393   0.221   6.900   3.706
 4790SOL    HW114394   0.156   6.827   3.685
 4790SOL    HW214395   0.225   6.914   3.804
 4791SOL     OW14396   0.079   6.826   2.515
 4791SOL    HW114397   0.078   6.779   2.603
 4791SOL    HW214398   0.161   6.798   2.464
 4792SOL     OW14399   0.672   6.977   3.486
 4792SOL    HW114400   0.594   6.927   3.524
 4792SOL    HW214401   0.669   7.072   3.517
 4793SOL     OW14402   1.824   5.778   3.089
 4793SOL    HW114403   1.820   5.688   3.133
 4793SOL    HW214404   1.827   5.767   2.990
 4794SOL     OW14405   0.428   6.010   2.382
 4794SOL    HW114406   0.458   5.938   2.320
 4794SOL    HW214407   0.389   5.970   2.465
 4795SOL     OW14408   1.705   7.073   2.966
 4795SOL    HW114409   1.612   7.048   2.939
 4795SOL    HW214410   1.731   7.023   3.048
 4796SOL     OW14411   0.317   6.133   3.142
 4796SOL    HW114412   0.355   6.074   3.214
 4796SOL    HW214413   0.357   6.107   3.054
 4797SOL     OW14414   0.812   7.172   2.549
 4797SOL    HW114415   0.844   7.182   2.455
 4797SOL    HW214416   0.733   7.110   2.551
 4798SOL     OW14417   1.424   5.800   2.974
 4798SOL    HW114418   1.476   5.735   3.029
 4798SOL    HW214419   1.375   5.863   3.035
 4799SOL     OW14420   1.001   5.620   3.016
 4799SOL    HW114421   0.938   5.548   2.985
 4799SOL    HW214422   1.094   5.584   3.016
 4800SOL     OW14423   0.770   6.916   2.163
 4800SOL    HW114424   0.724   6.829   2.180
 4800SOL    HW214425   0.861   6.913   2.204
 4801SOL     OW14426   0.618   7.153   3.146
 4801SOL    HW114427   0.613   7.235   3.203
 4801SOL    HW214428   0.707   7.150   3.101
 4802SOL     OW14429   1.352   5.638   2.030
 4802SOL    HW114430   1.387   5.597   1.946
 4802SOL    HW214431   1.262   5.600   2.050
 4803SOL     OW14432   1.300   6.039   2.553
 4803SOL    HW114433   1.241   6.119   2.557
 4803SOL    HW214434   1.315   6.004   2.646
 4804SOL     OW14435   1.593   5.807   2.744
 4804SOL    HW114436   1.509   5.806   2.798
 4804SOL    HW214437   1.595   5.890   2.688
 4805SOL     OW14438   0.039   6.663   2.162
 4805SOL    HW114439   0.138   6.652   2.153
 4805SOL    HW214440  -0.001   6.577   2.194
 4806SOL     OW14441   0.875   7.232   2.199
 4806SOL    HW114442   0.798   7.197   2.145
 4806SOL    HW214443   0.843   7.303   2.261
 4807SOL     OW14444   0.230   6.214   3.837
 4807SOL    HW114445   0.137   6.212   3.874
 4807SOL    HW214446   0.231   6.175   3.745
 4808SOL     OW14447   0.225   5.861   4.720
 4808SOL    HW114448   0.260   5.844   4.812
 4808SOL    HW214449   0.137   5.816   4.708
 4809SOL     OW14450   0.019   5.954   4.371
 4809SOL    HW114451  -0.063   5.997   4.410
 4809SOL    HW214452  -0.009   5.881   4.308
 4810SOL     OW14453   0.569   6.861   4.889
 4810SOL    HW114454   0.476   6.854   4.852
 4810SOL    HW214455   0.580   6.950   4.933
 4811SOL     OW14456   1.555   7.097   4.427
 4811SOL    HW114457   1.498   7.081   4.508
 4811SOL    HW214458   1.496   7.107   4.347
 4812SOL     OW14459   1.135   6.289   4.441
 4812SOL    HW114460   1.192   6.367   4.416
 4812SOL    HW214461   1.075   6.315   4.517
 4813SOL     OW14462   1.755   6.193   3.955
 4813SOL    HW114463   1.743   6.180   3.856
 4813SOL    HW214464   1.725   6.112   4.004
 4814SOL     OW14465   0.768   6.730   4.747
 4814SOL    HW114466   0.690   6.747   4.807
 4814SOL    HW214467   0.802   6.817   4.711
 4815SOL     OW14468   0.850   6.384   5.547
 4815SOL    HW114469   0.846   6.460   5.612
 4815SOL    HW214470   0.872   6.420   5.456
 4816SOL     OW14471   0.685   6.598   4.389
 4816SOL    HW114472   0.754   6.582   4.459
 4816SOL    HW214473   0.612   6.655   4.427
 4817SOL     OW14474   0.686   6.747   5.527
 4817SOL    HW114475   0.746   6.826   5.541
 4817SOL    HW214476   0.600   6.778   5.486
 4818SOL     OW14477   0.335   7.021   4.785
 4818SOL    HW114478   0.257   6.990   4.732
 4818SOL    HW214479   0.393   7.079   4.728
 4819SOL     OW14480   1.460   7.091   5.063
 4819SOL    HW114481   1.484   7.185   5.089
 4819SOL    HW214482   1.444   7.037   5.145
 4820SOL     OW14483   0.438   5.978   5.223
 4820SOL    HW114484   0.520   5.922   5.232
 4820SOL    HW214485   0.357   5.920   5.227
 4821SOL     OW14486   1.603   6.033   4.461
 4821SOL    HW114487   1.529   6.079   4.411
 4821SOL    HW214488   1.654   6.101   4.514
 4822SOL     OW14489   0.231   7.299   4.207
 4822SOL    HW114490   0.265   7.376   4.261
 4822SOL    HW214491   0.275   7.299   4.117
 4823SOL     OW14492   1.127   6.927   5.414
 4823SOL    HW114493   1.174   6.927   5.502
 4823SOL    HW214494   1.079   6.840   5.403
 4824SOL     OW14495   0.230   7.020   4.262
 4824SOL    HW114496   0.204   7.116   4.262
 4824SOL    HW214497   0.159   6.966   4.307
 4825SOL     OW14498   0.240   6.677   4.610
 4825SOL    HW114499   0.254   6.593   4.662
 4825SOL    HW214500   0.185   6.741   4.665
 4826SOL     OW14501   0.620   7.372   5.163
 4826SOL    HW114502   0.528   7.355   5.198
 4826SOL    HW214503   0.648   7.464   5.189
 4827SOL     OW14504   0.606   6.550   3.847
 4827SOL    HW114505   0.613   6.634   3.793
 4827SOL    HW214506   0.652   6.563   3.935
 4828SOL     OW14507   1.594   5.700   5.204
 4828SOL    HW114508   1.576   5.767   5.132
 4828SOL    HW214509   1.591   5.746   5.293
 4829SOL     OW14510   0.122   6.229   4.287
 4829SOL    HW114511   0.077   6.141   4.304
 4829SOL    HW214512   0.121   6.283   4.371
 4830SOL     OW14513   1.842   7.353   4.083
 4830SOL    HW114514   1.896   7.324   4.163
 4830SOL    HW214515   1.872   7.443   4.054
 4831SOL     OW14516   0.027   7.182   3.841
 4831SOL    HW114517   0.008   7.086   3.862
 4831SOL    HW214518  -0.006   7.240   3.916
 4832SOL     OW14519   1.689   6.508   4.336
 4832SOL    HW114520   1.784   6.479   4.344
 4832SOL    HW214521   1.681   6.573   4.261
 4833SOL     OW14522   1.641   6.694   4.156
 4833SOL    HW114523   1.727   6.696   4.104
 4833SOL    HW214524   1.655   6.741   4.244
 4834SOL     OW14525   0.113   6.323   5.321
 4834SOL    HW114526   0.201   6.310   5.366
 4834SOL    HW214527   0.100   6.420   5.299
 4835SOL     OW14528   0.613   6.951   4.450
 4835SOL    HW114529   0.564   6.864   4.459
 4835SOL    HW214530   0.590   6.994   4.363
 4836SOL     OW14531   1.293   6.814   5.147
 4836SOL    HW114532   1.330   6.741   5.089
 4836SOL    HW214533   1.345   6.819   5.232
 4837SOL     OW14534   0.809   5.590   4.226
 4837SOL    HW114535   0.849   5.681   4.217
 4837SOL    HW214536   0.709   5.598   4.232
 4838SOL     OW14537   0.197   6.562   4.988
 4838SOL    HW114538   0.286   6.517   4.974
 4838SOL    HW214539   0.124   6.497   4.969
 4839SOL     OW14540   1.525   6.585   3.914
 4839SOL    HW114541   1.462   6.509   3.927
 4839SOL    HW214542   1.573   6.603   4.000
 4840SOL     OW14543   1.187   7.378   5.340
 4840SOL    HW114544   1.211   7.438   5.264
 4840SOL    HW214545   1.194   7.283   5.310
 4841SOL     OW14546   0.317   5.837   5.525
 4841SOL    HW114547   0.388   5.908   5.531
 4841SOL    HW214548   0.229   5.876   5.553
 4842SOL     OW14549   1.466   7.003   4.677
 4842SOL    HW114550   1.407   7.009   4.757
 4842SOL    HW214551   1.451   6.915   4.631
 4843SOL     OW14552   1.667   7.300   4.296
 4843SOL    HW114553   1.626   7.277   4.208
 4843SOL    HW214554   1.649   7.226   4.361
 4844SOL     OW14555   0.598   6.315   3.994
 4844SOL    HW114556   0.622   6.384   3.926
 4844SOL    HW214557   0.520   6.348   4.048
 4845SOL     OW14558   1.281   5.931   4.668
 4845SOL    HW114559   1.195   5.881   4.655
 4845SOL    HW214560   1.343   5.877   4.724
 4846SOL     OW14561   1.576   7.248   4.031
 4846SOL    HW114562   1.665   7.294   4.034
 4846SOL    HW214563   1.555   7.224   3.936
 4847SOL     OW14564   0.807   6.191   5.189
 4847SOL    HW114565   0.760   6.188   5.278
 4847SOL    HW214566   0.756   6.136   5.123
 4848SOL     OW14567   1.394   6.055   5.398
 4848SOL    HW114568   1.374   6.098   5.486
 4848SOL    HW214569   1.472   5.993   5.407
 4849SOL     OW14570   0.973   6.476   5.296
 4849SOL    HW114571   1.019   6.392   5.267
 4849SOL    HW214572   0.917   6.510   5.221
 4850SOL     OW14573   0.991   5.996   4.966
 4850SOL    HW114574   0.914   6.030   5.020
 4850SOL    HW214575   0.957   5.945   4.887
 4851SOL     OW14576   1.041   6.287   4.153
 4851SOL    HW114577   1.067   6.283   4.249
 4851SOL    HW214578   0.956   6.236   4.139
 4852SOL     OW14579   0.076   6.397   4.513
 4852SOL    HW114580   0.175   6.385   4.522
 4852SOL    HW214581   0.052   6.492   4.534
 4853SOL     OW14582   0.130   7.407   5.295
 4853SOL    HW114583   0.120   7.392   5.394
 4853SOL    HW214584   0.044   7.443   5.259
 4854SOL     OW14585   0.865   5.934   3.919
 4854SOL    HW114586   0.924   5.997   3.870
 4854SOL    HW214587   0.884   5.840   3.890
 4855SOL     OW14588   1.719   6.171   5.555
 4855SOL    HW114589   1.693   6.260   5.519
 4855SOL    HW214590   1.717   6.103   5.482
 4856SOL     OW14591   1.362   6.730   4.269
 4856SOL    HW114592   1.445   6.701   4.221
 4856SOL    HW214593   1.313   6.797   4.213
 4857SOL     OW14594   0.550   5.782   4.609
 4857SOL    HW114595   0.545   5.777   4.709
 4857SOL    HW214596   0.552   5.878   4.580
 4858SOL     OW14597   1.008   7.042   4.201
 4858SOL    HW114598   0.962   7.114   4.149
 4858SOL    HW214599   1.004   7.062   4.299
 4859SOL     OW14600   0.351   7.387   4.577
 4859SOL    HW114601   0.401   7.301   4.583
 4859SOL    HW214602   0.416   7.464   4.574
 4860SOL     OW14603   1.795   6.652   4.597
 4860SOL    HW114604   1.733   6.637   4.521
 4860SOL    HW214605   1.743   6.663   4.682
 4861SOL     OW14606   1.227   7.136   5.230
 4861SOL    HW114607   1.233   7.059   5.294
 4861SOL    HW214608   1.175   7.110   5.150
 4862SOL     OW14609   0.321   6.529   3.966
 4862SOL    HW114610   0.403   6.568   3.924
 4862SOL    HW214611   0.294   6.447   3.917
 4863SOL     OW14612   1.458   6.321   4.452
 4863SOL    HW114613   1.453   6.256   4.527
 4863SOL    HW214614   1.538   6.380   4.465
 4864SOL     OW14615   0.461   6.852   5.451
 4864SOL    HW114616   0.411   6.853   5.365
 4864SOL    HW214617   0.398   6.834   5.527
 4865SOL     OW14618   1.111   7.362   3.961
 4865SOL    HW114619   1.051   7.300   4.011
 4865SOL    HW214620   1.142   7.318   3.876
 4866SOL     OW14621   0.202   5.871   5.222
 4866SOL    HW114622   0.122   5.931   5.209
 4866SOL    HW214623   0.192   5.822   5.308
 4867SOL     OW14624   1.632   6.963   3.805
 4867SOL    HW114625   1.600   7.057   3.795
 4867SOL    HW214626   1.556   6.900   3.793
 4868SOL     OW14627   0.464   7.329   4.047
 4868SOL    HW114628   0.497   7.368   4.133
 4868SOL    HW214629   0.540   7.322   3.982
 4869SOL     OW14630   1.400   5.693   4.150
 4869SOL    HW114631   1.376   5.656   4.060
 4869SOL    HW214632   1.499   5.709   4.154
 4870SOL     OW14633   0.249   7.371   4.965
 4870SOL    HW114634   0.306   7.306   5.015
 4870SOL    HW214635   0.233   7.338   4.872
 4871SOL     OW14636   0.940   7.284   4.628
 4871SOL    HW114637   1.020   7.227   4.649
 4871SOL    HW214638   0.891   7.244   4.551
 4872SOL     OW14639   0.382   6.286   4.204
 4872SOL    HW114640   0.427   6.196   4.201
 4872SOL    HW214641   0.288   6.275   4.237
 4873SOL     OW14642   1.547   5.808   5.453
 4873SOL    HW114643   1.542   5.845   5.545
 4873SOL    HW214644   1.475   5.739   5.441
 4874SOL     OW14645   0.614   5.708   3.841
 4874SOL    HW114646   0.712   5.686   3.848
 4874SOL    HW214647   0.583   5.691   3.748
 4875SOL     OW14648   0.781   5.850   5.473
 4875SOL    HW114649   0.848   5.789   5.516
 4875SOL    HW214650   0.708   5.869   5.538
 4876SOL     OW14651   0.888   7.100   4.919
 4876SOL    HW114652   0.865   7.075   4.825
 4876SOL    HW214653   0.949   7.031   4.958
 4877SOL     OW14654   1.351   6.176   5.157
 4877SOL    HW114655   1.379   6.133   5.242
 4877SOL    HW214656   1.376   6.272   5.158
 4878SOL     OW14657   0.803   6.988   4.648
 4878SOL    HW114658   0.893   7.002   4.606
 4878SOL    HW214659   0.732   6.990   4.577
 4879SOL     OW14660   0.922   6.089   4.623
 4879SOL    HW114661   0.897   6.080   4.527
 4879SOL    HW214662   0.970   6.007   4.654
 4880SOL     OW14663   0.539   5.650   4.236
 4880SOL    HW114664   0.458   5.651   4.294
 4880SOL    HW214665   0.542   5.733   4.181
 4881SOL     OW14666   1.434   6.774   3.765
 4881SOL    HW114667   1.466   6.698   3.822
 4881SOL    HW214668   1.342   6.801   3.795
 4882SOL     OW14669   0.297   5.621   3.895
 4882SOL    HW114670   0.346   5.705   3.874
 4882SOL    HW214671   0.359   5.556   3.940
 4883SOL     OW14672   0.935   5.822   4.204
 4883SOL    HW114673   0.887   5.863   4.126
 4883SOL    HW214674   1.034   5.820   4.185
 4884SOL     OW14675   1.076   6.269   5.188
 4884SOL    HW114676   0.996   6.208   5.191
 4884SOL    HW214677   1.157   6.216   5.164
 4885SOL     OW14678   1.227   7.156   4.517
 4885SOL    HW114679   1.248   7.230   4.452
 4885SOL    HW214680   1.295   7.156   4.590
 4886SOL     OW14681   0.459   6.738   4.465
 4886SOL    HW114682   0.388   6.711   4.530
 4886SOL    HW214683   0.433   6.710   4.372
 4887SOL     OW14684   1.271   7.383   4.315
 4887SOL    HW114685   1.315   7.447   4.251
 4887SOL    HW214686   1.221   7.435   4.385
 4888SOL     OW14687   1.032   6.135   3.740
 4888SOL    HW114688   0.991   6.217   3.701
 4888SOL    HW214689   1.096   6.161   3.813
 4889SOL     OW14690   0.078   6.142   5.110
 4889SOL    HW114691   0.170   6.141   5.069
 4889SOL    HW214692   0.072   6.216   5.177
 4890SOL     OW14693   0.561   5.808   4.871
 4890SOL    HW114694   0.599   5.724   4.908
 4890SOL    HW214695   0.473   5.827   4.915
 4891SOL     OW14696   0.866   6.040   4.366
 4891SOL    HW114697   0.834   6.112   4.304
 4891SOL    HW214698   0.890   5.959   4.313
 4892SOL     OW14699   1.017   5.625   4.477
 4892SOL    HW114700   0.945   5.630   4.408
 4892SOL    HW214701   0.993   5.556   4.546
 4893SOL     OW14702   1.429   6.759   4.591
 4893SOL    HW114703   1.374   6.675   4.584
 4893SOL    HW214704   1.455   6.788   4.499
 4894SOL     OW14705   1.466   6.176   4.716
 4894SOL    HW114706   1.436   6.081   4.723
 4894SOL    HW214707   1.539   6.192   4.782
 4895SOL     OW14708   1.857   6.419   4.101
 4895SOL    HW114709   1.899   6.355   4.165
 4895SOL    HW214710   1.819   6.368   4.023
 4896SOL     OW14711   0.488   6.971   3.898
 4896SOL    HW114712   0.401   6.956   3.945
 4896SOL    HW214713   0.471   6.997   3.803
 4897SOL     OW14714   1.664   6.866   4.381
 4897SOL    HW114715   1.763   6.874   4.395
 4897SOL    HW214716   1.619   6.950   4.412
 4898SOL     OW14717   1.390   6.161   3.802
 4898SOL    HW114718   1.336   6.140   3.883
 4898SOL    HW214719   1.481   6.120   3.811
 4899SOL     OW14720   0.527   5.842   4.052
 4899SOL    HW114721   0.554   5.783   3.977
 4899SOL    HW214722   0.527   5.937   4.021
 4900SOL     OW14723   1.754   6.809   5.312
 4900SOL    HW114724   1.845   6.770   5.299
 4900SOL    HW214725   1.762   6.905   5.336
 4901SOL     OW14726   1.064   6.933   5.064
 4901SOL    HW114727   0.984   6.910   5.119
 4901SOL    HW214728   1.147   6.907   5.113
 4902SOL     OW14729   1.592   7.215   5.349
 4902SOL    HW114730   1.619   7.249   5.259
 4902SOL    HW214731   1.671   7.177   5.395
 4903SOL     OW14732   1.111   6.781   4.824
 4903SOL    HW114733   1.071   6.825   4.905
 4903SOL    HW214734   1.070   6.818   4.741
 4904SOL     OW14735   1.638   6.685   4.803
 4904SOL    HW114736   1.643   6.766   4.862
 4904SOL    HW214737   1.552   6.687   4.752
 4905SOL     OW14738   0.915   5.675   5.126
 4905SOL    HW114739   0.940   5.655   5.031
 4905SOL    HW214740   0.987   5.731   5.168
 4906SOL     OW14741   0.980   6.702   5.443
 4906SOL    HW114742   0.881   6.708   5.453
 4906SOL    HW214743   1.003   6.622   5.387
 4907SOL     OW14744   0.705   6.636   4.092
 4907SOL    HW114745   0.691   6.643   4.191
 4907SOL    HW214746   0.789   6.585   4.074
 4908SOL     OW14747   0.410   6.399   4.975
 4908SOL    HW114748   0.496   6.411   5.025
 4908SOL    HW214749   0.368   6.312   5.002
 4909SOL     OW14750   1.274   5.972   4.986
 4909SOL    HW114751   1.295   6.046   5.050
 4909SOL    HW214752   1.185   5.989   4.943
 4910SOL     OW14753   0.064   7.150   5.055
 4910SOL    HW114754   0.018   7.232   5.021
 4910SOL    HW214755   0.162   7.169   5.064
 4911SOL     OW14756   0.367   6.686   4.225
 4911SOL    HW114757   0.360   6.769   4.169
 4911SOL    HW214758   0.371   6.606   4.165
 4912SOL     OW14759   0.566   6.123   4.589
 4912SOL    HW114760   0.578   6.189   4.515
 4912SOL    HW214761   0.612   6.157   4.672
 4913SOL     OW14762   1.252   6.934   4.112
 4913SOL    HW114763   1.302   7.011   4.152
 4913SOL    HW214764   1.157   6.936   4.144
 4914SOL     OW14765   1.272   7.031   4.866
 4914SOL    HW114766   1.319   7.044   4.953
 4914SOL    HW214767   1.206   6.957   4.875
 4915SOL     OW14768   1.582   6.225   4.196
 4915SOL    HW114769   1.551   6.286   4.269
 4915SOL    HW214770   1.632   6.277   4.127
 4916SOL     OW14771   0.354   7.096   5.053
 4916SOL    HW114772   0.333   7.052   4.966
 4916SOL    HW214773   0.451   7.122   5.056
 4917SOL     OW14774   0.402   6.337   5.322
 4917SOL    HW114775   0.470   6.392   5.275
 4917SOL    HW214776   0.442   6.249   5.349
 4918SOL     OW14777   1.587   6.365   5.394
 4918SOL    HW114778   1.495   6.403   5.389
 4918SOL    HW214779   1.647   6.412   5.329
 4919SOL     OW14780   1.013   5.691   5.494
 4919SOL    HW114781   1.019   5.776   5.442
 4919SOL    HW214782   1.045   5.615   5.437
 4920SOL     OW14783   0.504   5.636   5.464
 4920SOL    HW114784   0.462   5.579   5.394
 4920SOL    HW214785   0.438   5.705   5.496
 4921SOL     OW14786   0.573   6.456   4.753
 4921SOL    HW114787   0.617   6.545   4.744
 4921SOL    HW214788   0.510   6.456   4.830
 4922SOL     OW14789   1.360   6.448   4.769
 4922SOL    HW114790   1.285   6.448   4.703
 4922SOL    HW214791   1.397   6.356   4.778
 4923SOL     OW14792   1.209   6.111   3.999
 4923SOL    HW114793   1.222   6.027   4.053
 4923SOL    HW214794   1.180   6.185   4.059
 4924SOL     OW14795   0.307   5.799   4.955
 4924SOL    HW114796   0.284   5.836   5.045
 4924SOL    HW214797   0.277   5.704   4.949
 4925SOL     OW14798   0.037   6.896   5.006
 4925SOL    HW114799   0.090   6.847   5.074
 4925SOL    HW214800   0.059   6.994   5.011
 4926SOL     OW14801   0.732   6.220   4.788
 4926SOL    HW114802   0.791   6.194   4.712
 4926SOL    HW214803   0.704   6.316   4.777
 4927SOL     OW14804   1.728   6.521   5.578
 4927SOL    HW114805   1.682   6.514   5.489
 4927SOL    HW214806   1.666   6.565   5.644
 4928SOL     OW14807   0.307   5.649   4.342
 4928SOL    HW114808   0.296   5.743   4.375
 4928SOL    HW214809   0.302   5.586   4.419
 4929SOL     OW14810   1.622   5.953   4.098
 4929SOL    HW114811   1.624   5.877   4.162
 4929SOL    HW214812   1.574   6.030   4.138
 4930SOL     OW14813   1.023   6.352   4.690
 4930SOL    HW114814   1.038   6.373   4.786
 4930SOL    HW214815   0.993   6.257   4.681
 4931SOL     OW14816   0.980   7.159   5.424
 4931SOL    HW114817   0.960   7.203   5.336
 4931SOL    HW214818   1.019   7.068   5.408
 4932SOL     OW14819   1.859   7.104   5.329
 4932SOL    HW114820   1.873   7.131   5.234
 4932SOL    HW214821   1.942   7.126   5.382
 4933SOL     OW14822   0.350   6.484   5.528
 4933SOL    HW114823   0.426   6.528   5.576
 4933SOL    HW214824   0.385   6.437   5.446
 4934SOL     OW14825   1.540   5.860   3.849
 4934SOL    HW114826   1.479   5.785   3.872
 4934SOL    HW214827   1.562   5.912   3.932
 4935SOL     OW14828   1.303   6.424   3.766
 4935SOL    HW114829   1.337   6.331   3.781
 4935SOL    HW214830   1.321   6.451   3.671
 4936SOL     OW14831   1.068   6.919   4.573
 4936SOL    HW114832   1.075   6.835   4.518
 4936SOL    HW214833   1.130   6.988   4.537
 4937SOL     OW14834   0.319   6.396   4.673
 4937SOL    HW114835   0.412   6.432   4.678
 4937SOL    HW214836   0.313   6.311   4.725
 4938SOL     OW14837   0.339   6.095   4.730
 4938SOL    HW114838   0.287   6.012   4.713
 4938SOL    HW214839   0.416   6.100   4.666
 4939SOL     OW14840   1.138   5.966   5.402
 4939SOL    HW114841   1.093   6.029   5.466
 4939SOL    HW214842   1.231   5.997   5.385
 4940SOL     OW14843   1.160   5.793   5.201
 4940SOL    HW114844   1.160   5.857   5.278
 4940SOL    HW214845   1.188   5.841   5.118
 4941SOL     OW14846   0.008   6.912   3.924
 4941SOL    HW114847  -0.085   6.933   3.893
 4941SOL    HW214848   0.018   6.813   3.937
 4942SOL     OW14849   0.088   7.387   4.651
 4942SOL    HW114850   0.046   7.301   4.624
 4942SOL    HW214851   0.182   7.390   4.617
 4943SOL     OW14852   0.504   7.154   4.634
 4943SOL    HW114853   0.570   7.228   4.643
 4943SOL    HW214854   0.548   7.075   4.592
 4944SOL     OW14855   1.002   6.382   4.962
 4944SOL    HW114856   1.043   6.350   5.048
 4944SOL    HW214857   0.906   6.355   4.959
 4945SOL     OW14858   0.040   6.130   4.838
 4945SOL    HW114859   0.125   6.097   4.797
 4945SOL    HW214860   0.053   6.145   4.936
 4946SOL     OW14861   0.189   6.106   5.446
 4946SOL    HW114862   0.248   6.066   5.376
 4946SOL    HW214863   0.131   6.177   5.405
 4947SOL     OW14864   1.369   6.536   5.384
 4947SOL    HW114865   1.408   6.625   5.404
 4947SOL    HW214866   1.379   6.516   5.287
 4948SOL     OW14867   0.815   6.158   4.049
 4948SOL    HW114868   0.822   6.069   4.003
 4948SOL    HW214869   0.721   6.192   4.041
 4949SOL     OW14870   1.657   6.190   4.930
 4949SOL    HW114871   1.619   6.121   4.992
 4949SOL    HW214872   1.739   6.154   4.886
 4950SOL     OW14873   0.252   7.150   5.468
 4950SOL    HW114874   0.222   7.207   5.544
 4950SOL    HW214875   0.245   7.053   5.494
 4951SOL     OW14876   0.671   6.050   4.993
 4951SOL    HW114877   0.637   5.961   4.963
 4951SOL    HW214878   0.697   6.104   4.913
 4952SOL     OW14879   0.930   7.264   5.189
 4952SOL    HW114880   0.906   7.246   5.094
 4952SOL    HW214881   0.960   7.358   5.199
 4953SOL     OW14882   0.473   6.086   3.915
 4953SOL    HW114883   0.534   6.166   3.919
 4953SOL    HW214884   0.378   6.117   3.922
 4954SOL     OW14885   0.159   6.723   5.190
 4954SOL    HW114886   0.181   6.662   5.266
 4954SOL    HW214887   0.169   6.674   5.104
 4955SOL     OW14888   1.347   6.645   4.958
 4955SOL    HW114889   1.371   6.582   4.884
 4955SOL    HW214890   1.257   6.685   4.940
 4956SOL     OW14891   1.302   6.441   4.033
 4956SOL    HW114892   1.216   6.410   4.075
 4956SOL    HW214893   1.298   6.427   3.934
 4957SOL     OW14894   1.759   7.333   4.878
 4957SOL    HW114895   1.820   7.363   4.805
 4957SOL    HW214896   1.721   7.244   4.856
 4958SOL     OW14897   1.252   7.317   4.852
 4958SOL    HW114898   1.336   7.322   4.798
 4958SOL    HW214899   1.229   7.221   4.870
 4959SOL     OW14900   0.083   6.844   4.746
 4959SOL    HW114901   0.078   6.843   4.846
 4959SOL    HW214902   0.000   6.803   4.708
 4960SOL     OW14903   0.688   7.248   5.440
 4960SOL    HW114904   0.632   7.329   5.449
 4960SOL    HW214905   0.740   7.252   5.354
 4961SOL     OW14906   1.726   5.721   4.247
 4961SOL    HW114907   1.799   5.704   4.180
 4961SOL    HW214908   1.695   5.634   4.285
 4962SOL     OW14909   1.388   7.159   4.201
 4962SOL    HW114910   1.455   7.171   4.127
 4962SOL    HW214911   1.348   7.248   4.224
 4963SOL     OW14912   0.130   7.380   5.575
 4963SOL    HW114913   0.089   7.306   5.628
 4963SOL    HW214914   0.194   7.431   5.633
 4964SOL     OW14915   1.280   6.513   4.396
 4964SOL    HW114916   1.340   6.432   4.398
 4964SOL    HW214917   1.320   6.582   4.336
 4965SOL     OW14918   0.830   6.859   5.146
 4965SOL    HW114919   0.825   6.892   5.241
 4965SOL    HW214920   0.744   6.878   5.100
 4966SOL     OW14921   0.672   7.202   3.878
 4966SOL    HW114922   0.681   7.212   3.779
 4966SOL    HW214923   0.632   7.113   3.899
 4967SOL     OW14924   1.650   7.306   5.118
 4967SOL    HW114925   1.703   7.316   5.034
 4967SOL    HW214926   1.623   7.396   5.152
 4968SOL     OW14927   1.841   5.761   4.687
 4968SOL    HW114928   1.880   5.676   4.651
 4968SOL    HW214929   1.743   5.763   4.668
 4969SOL     OW14930   0.263   5.912   4.444
 4969SOL    HW114931   0.184   5.963   4.410
 4969SOL    HW214932   0.254   5.897   4.542
 4970SOL     OW14933   1.194   7.198   3.755
 4970SOL    HW114934   1.200   7.105   3.792
 4970SOL    HW214935   1.135   7.198   3.675
 4971SOL     OW14936   0.822   6.588   5.096
 4971SOL    HW114937   0.862   6.587   5.004
 4971SOL    HW214938   0.832   6.680   5.136
 4972SOL     OW14939   0.916   6.496   4.015
 4972SOL    HW114940   0.979   6.534   3.947
 4972SOL    HW214941   0.956   6.413   4.054
 4973SOL     OW14942   1.504   7.193   3.768
 4973SOL    HW114943   1.412   7.230   3.775
 4973SOL    HW214944   1.542   7.213   3.678
 4974SOL     OW14945   0.372   6.874   5.214
 4974SOL    HW114946   0.359   6.967   5.180
 4974SOL    HW214947   0.288   6.822   5.201
 4975SOL     OW14948   1.614   6.878   5.013
 4975SOL    HW114949   1.674   6.881   5.093
 4975SOL    HW214950   1.539   6.942   5.026
 4976SOL     OW14951   1.039   6.684   4.420
 4976SOL    HW114952   0.969   6.637   4.474
 4976SOL    HW214953   1.098   6.616   4.377
 4977SOL     OW14954   1.014   5.822   4.695
 4977SOL    HW114955   1.006   5.786   4.602
 4977SOL    HW214956   1.012   5.746   4.760
 4978SOL     OW14957   0.590   7.073   4.215
 4978SOL    HW114958   0.632   7.015   4.145
 4978SOL    HW214959   0.546   7.152   4.171
 4979SOL     OW14960   1.709   5.971   5.105
 4979SOL    HW114961   1.782   6.040   5.109
 4979SOL    HW214962   1.737   5.896   5.046
 4980SOL     OW14963   0.255   6.934   4.014
 4980SOL    HW114964   0.159   6.935   3.987
 4980SOL    HW214965   0.267   6.987   4.098
 4981SOL     OW14966   0.105   6.599   5.450
 4981SOL    HW114967   0.028   6.566   5.504
 4981SOL    HW214968   0.190   6.569   5.492
 4982SOL     OW14969   0.672   5.789   5.213
 4982SOL    HW114970   0.762   5.773   5.173
 4982SOL    HW214971   0.680   5.794   5.312
 4983SOL     OW14972   0.075   5.931   3.757
 4983SOL    HW114973  -0.017   5.903   3.728
 4983SOL    HW214974   0.106   6.008   3.701
 4984SOL     OW14975   1.440   6.442   5.122
 4984SOL    HW114976   1.383   6.494   5.059
 4984SOL    HW214977   1.536   6.454   5.098
 4985SOL     OW14978   0.072   5.752   4.042
 4985SOL    HW114979   0.055   5.835   3.988
 4985SOL    HW214980   0.162   5.715   4.020
 4986SOL     OW14981   1.183   6.921   3.843
 4986SOL    HW114982   1.084   6.910   3.845
 4986SOL    HW214983   1.217   6.936   3.936
 4987SOL     OW14984   0.613   6.428   5.155
 4987SOL    HW114985   0.669   6.509   5.138
 4987SOL    HW214986   0.672   6.348   5.158
 4988SOL     OW14987   1.493   7.353   4.683
 4988SOL    HW114988   1.526   7.417   4.614
 4988SOL    HW214989   1.559   7.347   4.758
 4989SOL     OW14990   0.716   6.151   5.432
 4989SOL    HW114991   0.735   6.216   5.506
 4989SOL    HW214992   0.776   6.071   5.441
 4990SOL     OW14993   1.450   6.806   5.357
 4990SOL    HW114994   1.441   6.796   5.456
 4990SOL    HW214995   1.546   6.799   5.331
 4991SOL     OW14996   0.390   7.327   5.284
 4991SOL    HW114997   0.299   7.368   5.282
 4991SOL    HW214998   0.383   7.233   5.316
 4992SOL     OW14999   1.674   6.469   4.978
 4992SOL    HW115000   1.647   6.380   4.941
 4992SOL    HW215001   1.675   6.537   4.905
 4993SOL     OW15002   1.225   5.911   4.173
 4993SOL    HW115003   1.290   5.837   4.162
 4993SOL    HW215004   1.245   5.961   4.257
 4994SOL     OW15005   0.594   6.331   4.376
 4994SOL    HW115006   0.644   6.416   4.357
 4994SOL    HW215007   0.506   6.333   4.328
 4995SOL     OW15008   1.777   5.928   5.366
 4995SOL    HW115009   1.760   5.959   5.272
 4995SOL    HW215010   1.693   5.891   5.404
 4996SOL     OW15011   1.730   6.520   5.241
 4996SOL    HW115012   1.768   6.611   5.256
 4996SOL    HW215013   1.722   6.503   5.142
 4997SOL     OW15014   0.859   6.960   3.740
 4997SOL    HW115015   0.813   6.975   3.828
 4997SOL    HW215016   0.903   7.045   3.710
 4998SOL     OW15017   0.661   7.376   4.677
 4998SOL    HW115018   0.615   7.464   4.664
 4998SOL    HW215019   0.760   7.388   4.670
 4999SOL     OW15020   0.859   6.542   4.585
 4999SOL    HW115021   0.913   6.473   4.633
 4999SOL    HW215022   0.827   6.611   4.651
 5000SOL     OW15023   1.083   6.570   3.811
 5000SOL    HW115024   1.060   6.623   3.729
 5000SOL    HW215025   1.164   6.514   3.792
 5001SOL     OW15026   1.861   7.155   4.575
 5001SOL    HW115027   1.790   7.143   4.505
 5001SOL    HW215028   1.862   7.076   4.635
 5002SOL     OW15029   0.221   6.900   5.568
 5002SOL    HW115030   0.156   6.827   5.547
 5002SOL    HW215031   0.225   6.914   5.666
 5003SOL     OW15032   0.079   6.826   4.377
 5003SOL    HW115033   0.078   6.779   4.465
 5003SOL    HW215034   0.161   6.798   4.326
 5004SOL     OW15035   0.672   6.977   5.348
 5004SOL    HW115036   0.594   6.927   5.386
 5004SOL    HW215037   0.669   7.072   5.379
 5005SOL     OW15038   1.824   5.778   4.951
 5005SOL    HW115039   1.820   5.688   4.995
 5005SOL    HW215040   1.827   5.767   4.852
 5006SOL     OW15041   0.428   6.010   4.244
 5006SOL    HW115042   0.458   5.938   4.182
 5006SOL    HW215043   0.389   5.970   4.327
 5007SOL     OW15044   1.705   7.073   4.828
 5007SOL    HW115045   1.612   7.048   4.801
 5007SOL    HW215046   1.731   7.023   4.910
 5008SOL     OW15047   0.317   6.133   5.004
 5008SOL    HW115048   0.355   6.074   5.076
 5008SOL    HW215049   0.357   6.107   4.916
 5009SOL     OW15050   0.812   7.172   4.411
 5009SOL    HW115051   0.844   7.182   4.317
 5009SOL    HW215052   0.733   7.110   4.413
 5010SOL     OW15053   1.424   5.800   4.836
 5010SOL    HW115054   1.476   5.735   4.891
 5010SOL    HW215055   1.375   5.863   4.897
 5011SOL     OW15056   1.001   5.620   4.878
 5011SOL    HW115057   0.938   5.548   4.847
 5011SOL    HW215058   1.094   5.584   4.878
 5012SOL     OW15059   0.770   6.916   4.025
 5012SOL    HW115060   0.724   6.829   4.042
 5012SOL    HW215061   0.861   6.913   4.066
 5013SOL     OW15062   0.618   7.153   5.008
 5013SOL    HW115063   0.613   7.235   5.065
 5013SOL    HW215064   0.707   7.150   4.963
 5014SOL     OW15065   1.352   5.638   3.892
 5014SOL    HW115066   1.387   5.597   3.808
 5014SOL    HW215067   1.262   5.600   3.912
 5015SOL     OW15068   1.300   6.039   4.415
 5015SOL    HW115069   1.241   6.119   4.419
 5015SOL    HW215070   1.315   6.004   4.508
 5016SOL     OW15071   1.593   5.807   4.606
 5016SOL    HW115072   1.509   5.806   4.660
 5016SOL    HW215073   1.595   5.890   4.550
 5017SOL     OW15074   0.039   6.663   4.024
 5017SOL    HW115075   0.138   6.652   4.015
 5017SOL    HW215076  -0.001   6.577   4.056
 5018SOL     OW15077   0.875   7.232   4.061
 5018SOL    HW115078   0.798   7.197   4.007
 5018SOL    HW215079   0.843   7.303   4.123
 5019SOL     OW15080   0.230   6.214   5.699
 5019SOL    HW115081   0.137   6.212   5.736
 5019SOL    HW215082   0.231   6.175   5.607
 5020SOL     OW15083   0.225   5.861   6.582
 5020SOL    HW115084   0.260   5.844   6.674
 5020SOL    HW215085   0.137   5.816   6.570
 5021SOL     OW15086   0.019   5.954   6.233
 5021SOL    HW115087  -0.063   5.997   6.272
 5021SOL    HW215088  -0.009   5.881   6.170
 5022SOL     OW15089   0.569   6.861   6.751
 5022SOL    HW115090   0.476   6.854   6.714
 5022SOL    HW215091   0.580   6.950   6.795
 5023SOL     OW15092   1.555   7.097   6.289
 5023SOL    HW115093   1.498   7.081   6.370
 5023SOL    HW215094   1.496   7.107   6.209
 5024SOL     OW15095   1.135   6.289   6.303
 5024SOL    HW115096   1.192   6.367   6.278
 5024SOL    HW215097   1.075   6.315   6.379
 5025SOL     OW15098   1.755   6.193   5.817
 5025SOL    HW115099   1.743   6.180   5.718
 5025SOL    HW215100   1.725   6.112   5.866
 5026SOL     OW15101   0.768   6.730   6.609
 5026SOL    HW115102   0.690   6.747   6.669
 5026SOL    HW215103   0.802   6.817   6.573
 5027SOL     OW15104   0.850   6.384   7.409
 5027SOL    HW115105   0.846   6.460   7.474
 5027SOL    HW215106   0.872   6.420   7.318
 5028SOL     OW15107   0.685   6.598   6.251
 5028SOL    HW115108   0.754   6.582   6.321
 5028SOL    HW215109   0.612   6.655   6.289
 5029SOL     OW15110   0.686   6.747   7.389
 5029SOL    HW115111   0.746   6.826   7.403
 5029SOL    HW215112   0.600   6.778   7.348
 5030SOL     OW15113   0.335   7.021   6.647
 5030SOL    HW115114   0.257   6.990   6.594
 5030SOL    HW215115   0.393   7.079   6.590
 5031SOL     OW15116   1.460   7.091   6.925
 5031SOL    HW115117   1.484   7.185   6.951
 5031SOL    HW215118   1.444   7.037   7.007
 5032SOL     OW15119   0.438   5.978   7.085
 5032SOL    HW115120   0.520   5.922   7.094
 5032SOL    HW215121   0.357   5.920   7.089
 5033SOL     OW15122   1.603   6.033   6.323
 5033SOL    HW115123   1.529   6.079   6.273
 5033SOL    HW215124   1.654   6.101   6.376
 5034SOL     OW15125   0.231   7.299   6.069
 5034SOL    HW115126   0.265   7.376   6.123
 5034SOL    HW215127   0.275   7.299   5.979
 5035SOL     OW15128   1.127   6.927   7.276
 5035SOL    HW115129   1.174   6.927   7.364
 5035SOL    HW215130   1.079   6.840   7.265
 5036SOL     OW15131   0.230   7.020   6.124
 5036SOL    HW115132   0.204   7.116   6.124
 5036SOL    HW215133   0.159   6.966   6.169
 5037SOL     OW15134   0.240   6.677   6.472
 5037SOL    HW115135   0.254   6.593   6.524
 5037SOL    HW215136   0.185   6.741   6.527
 5038SOL     OW15137   0.620   7.372   7.025
 5038SOL    HW115138   0.528   7.355   7.060
 5038SOL    HW215139   0.648   7.464   7.051
 5039SOL     OW15140   0.606   6.550   5.709
 5039SOL    HW115141   0.613   6.634   5.655
 5039SOL    HW215142   0.652   6.563   5.797
 5040SOL     OW15143   1.594   5.700   7.066
 5040SOL    HW115144   1.576   5.767   6.994
 5040SOL    HW215145   1.591   5.746   7.155
 5041SOL     OW15146   0.122   6.229   6.149
 5041SOL    HW115147   0.077   6.141   6.166
 5041SOL    HW215148   0.121   6.283   6.233
 5042SOL     OW15149   1.842   7.353   5.945
 5042SOL    HW115150   1.896   7.324   6.025
 5042SOL    HW215151   1.872   7.443   5.916
 5043SOL     OW15152   0.027   7.182   5.703
 5043SOL    HW115153   0.008   7.086   5.724
 5043SOL    HW215154  -0.006   7.240   5.778
 5044SOL     OW15155   1.689   6.508   6.198
 5044SOL    HW115156   1.784   6.479   6.206
 5044SOL    HW215157   1.681   6.573   6.123
 5045SOL     OW15158   1.641   6.694   6.018
 5045SOL    HW115159   1.727   6.696   5.966
 5045SOL    HW215160   1.655   6.741   6.106
 5046SOL     OW15161   0.113   6.323   7.183
 5046SOL    HW115162   0.201   6.310   7.228
 5046SOL    HW215163   0.100   6.420   7.161
 5047SOL     OW15164   0.613   6.951   6.312
 5047SOL    HW115165   0.564   6.864   6.321
 5047SOL    HW215166   0.590   6.994   6.225
 5048SOL     OW15167   1.293   6.814   7.009
 5048SOL    HW115168   1.330   6.741   6.951
 5048SOL    HW215169   1.345   6.819   7.094
 5049SOL     OW15170   0.809   5.590   6.088
 5049SOL    HW115171   0.849   5.681   6.079
 5049SOL    HW215172   0.709   5.598   6.094
 5050SOL     OW15173   0.197   6.562   6.850
 5050SOL    HW115174   0.286   6.517   6.836
 5050SOL    HW215175   0.124   6.497   6.831
 5051SOL     OW15176   1.525   6.585   5.776
 5051SOL    HW115177   1.462   6.509   5.789
 5051SOL    HW215178   1.573   6.603   5.862
 5052SOL     OW15179   1.187   7.378   7.202
 5052SOL    HW115180   1.211   7.438   7.126
 5052SOL    HW215181   1.194   7.283   7.172
 5053SOL     OW15182   0.317   5.837   7.387
 5053SOL    HW115183   0.388   5.908   7.393
 5053SOL    HW215184   0.229   5.876   7.415
 5054SOL     OW15185   1.466   7.003   6.539
 5054SOL    HW115186   1.407   7.009   6.619
 5054SOL    HW215187   1.451   6.915   6.493
 5055SOL     OW15188   1.667   7.300   6.158
 5055SOL    HW115189   1.626   7.277   6.070
 5055SOL    HW215190   1.649   7.226   6.223
 5056SOL     OW15191   0.598   6.315   5.856
 5056SOL    HW115192   0.622   6.384   5.788
 5056SOL    HW215193   0.520   6.348   5.910
 5057SOL     OW15194   1.281   5.931   6.530
 5057SOL    HW115195   1.195   5.881   6.517
 5057SOL    HW215196   1.343   5.877   6.586
 5058SOL     OW15197   1.576   7.248   5.893
 5058SOL    HW115198   1.665   7.294   5.896
 5058SOL    HW215199   1.555   7.224   5.798
 5059SOL     OW15200   0.807   6.191   7.051
 5059SOL    HW115201   0.760   6.188   7.140
 5059SOL    HW215202   0.756   6.136   6.985
 5060SOL     OW15203   1.394   6.055   7.260
 5060SOL    HW115204   1.374   6.098   7.348
 5060SOL    HW215205   1.472   5.993   7.269
 5061SOL     OW15206   0.973   6.476   7.158
 5061SOL    HW115207   1.019   6.392   7.129
 5061SOL    HW215208   0.917   6.510   7.083
 5062SOL     OW15209   0.991   5.996   6.828
 5062SOL    HW115210   0.914   6.030   6.882
 5062SOL    HW215211   0.957   5.945   6.749
 5063SOL     OW15212   1.041   6.287   6.015
 5063SOL    HW115213   1.067   6.283   6.111
 5063SOL    HW215214   0.956   6.236   6.001
 5064SOL     OW15215   0.076   6.397   6.375
 5064SOL    HW115216   0.175   6.385   6.384
 5064SOL    HW215217   0.052   6.492   6.396
 5065SOL     OW15218   0.130   7.407   7.157
 5065SOL    HW115219   0.120   7.392   7.256
 5065SOL    HW215220   0.044   7.443   7.121
 5066SOL     OW15221   0.865   5.934   5.781
 5066SOL    HW115222   0.924   5.997   5.732
 5066SOL    HW215223   0.884   5.840   5.752
 5067SOL     OW15224   1.719   6.171   7.417
 5067SOL    HW115225   1.693   6.260   7.381
 5067SOL    HW215226   1.717   6.103   7.344
 5068SOL     OW15227   1.362   6.730   6.131
 5068SOL    HW115228   1.445   6.701   6.083
 5068SOL    HW215229   1.313   6.797   6.075
 5069SOL     OW15230   0.550   5.782   6.471
 5069SOL    HW115231   0.545   5.777   6.571
 5069SOL    HW215232   0.552   5.878   6.442
 5070SOL     OW15233   1.008   7.042   6.063
 5070SOL    HW115234   0.962   7.114   6.011
 5070SOL    HW215235   1.004   7.062   6.161
 5071SOL     OW15236   0.351   7.387   6.439
 5071SOL    HW115237   0.401   7.301   6.445
 5071SOL    HW215238   0.416   7.464   6.436
 5072SOL     OW15239   1.795   6.652   6.459
 5072SOL    HW115240   1.733   6.637   6.383
 5072SOL    HW215241   1.743   6.663   6.544
 5073SOL     OW15242   1.227   7.136   7.092
 5073SOL    HW115243   1.233   7.059   7.156
 5073SOL    HW215244   1.175   7.110   7.012
 5074SOL     OW15245   0.321   6.529   5.828
 5074SOL    HW115246   0.403   6.568   5.786
 5074SOL    HW215247   0.294   6.447   5.779
 5075SOL     OW15248   1.458   6.321   6.314
 5075SOL    HW115249   1.453   6.256   6.389
 5075SOL    HW215250   1.538   6.380   6.327
 5076SOL     OW15251   0.461   6.852   7.313
 5076SOL    HW115252   0.411   6.853   7.227
 5076SOL    HW215253   0.398   6.834   7.389
 5077SOL     OW15254   1.111   7.362   5.823
 5077SOL    HW115255   1.051   7.300   5.873
 5077SOL    HW215256   1.142   7.318   5.738
 5078SOL     OW15257   0.202   5.871   7.084
 5078SOL    HW115258   0.122   5.931   7.071
 5078SOL    HW215259   0.192   5.822   7.170
 5079SOL     OW15260   1.632   6.963   5.667
 5079SOL    HW115261   1.600   7.057   5.657
 5079SOL    HW215262   1.556   6.900   5.655
 5080SOL     OW15263   0.464   7.329   5.909
 5080SOL    HW115264   0.497   7.368   5.995
 5080SOL    HW215265   0.540   7.322   5.844
 5081SOL     OW15266   1.400   5.693   6.012
 5081SOL    HW115267   1.376   5.656   5.922
 5081SOL    HW215268   1.499   5.709   6.016
 5082SOL     OW15269   0.249   7.371   6.827
 5082SOL    HW115270   0.306   7.306   6.877
 5082SOL    HW215271   0.233   7.338   6.734
 5083SOL     OW15272   0.940   7.284   6.490
 5083SOL    HW115273   1.020   7.227   6.511
 5083SOL    HW215274   0.891   7.244   6.413
 5084SOL     OW15275   0.382   6.286   6.066
 5084SOL    HW115276   0.427   6.196   6.063
 5084SOL    HW215277   0.288   6.275   6.099
 5085SOL     OW15278   1.547   5.808   7.315
 5085SOL    HW115279   1.542   5.845   7.407
 5085SOL    HW215280   1.475   5.739   7.303
 5086SOL     OW15281   0.614   5.708   5.703
 5086SOL    HW115282   0.712   5.686   5.710
 5086SOL    HW215283   0.583   5.691   5.610
 5087SOL     OW15284   0.781   5.850   7.335
 5087SOL    HW115285   0.848   5.789   7.378
 5087SOL    HW215286   0.708   5.869   7.400
 5088SOL     OW15287   0.888   7.100   6.781
 5088SOL    HW115288   0.865   7.075   6.687
 5088SOL    HW215289   0.949   7.031   6.820
 5089SOL     OW15290   1.351   6.176   7.019
 5089SOL    HW115291   1.379   6.133   7.104
 5089SOL    HW215292   1.376   6.272   7.020
 5090SOL     OW15293   0.803   6.988   6.510
 5090SOL    HW115294   0.893   7.002   6.468
 5090SOL    HW215295   0.732   6.990   6.439
 5091SOL     OW15296   0.922   6.089   6.485
 5091SOL    HW115297   0.897   6.080   6.389
 5091SOL    HW215298   0.970   6.007   6.516
 5092SOL     OW15299   0.539   5.650   6.098
 5092SOL    HW115300   0.458   5.651   6.156
 5092SOL    HW215301   0.542   5.733   6.043
 5093SOL     OW15302   1.434   6.774   5.627
 5093SOL    HW115303   1.466   6.698   5.684
 5093SOL    HW215304   1.342   6.801   5.657
 5094SOL     OW15305   0.297   5.621   5.757
 5094SOL    HW115306   0.346   5.705   5.736
 5094SOL    HW215307   0.359   5.556   5.802
 5095SOL     OW15308   0.935   5.822   6.066
 5095SOL    HW115309   0.887   5.863   5.988
 5095SOL    HW215310   1.034   5.820   6.047
 5096SOL     OW15311   1.076   6.269   7.050
 5096SOL    HW115312   0.996   6.208   7.053
 5096SOL    HW215313   1.157   6.216   7.026
 5097SOL     OW15314   1.227   7.156   6.379
 5097SOL    HW115315   1.248   7.230   6.314
 5097SOL    HW215316   1.295   7.156   6.452
 5098SOL     OW15317   0.459   6.738   6.327
 5098SOL    HW115318   0.388   6.711   6.392
 5098SOL    HW215319   0.433   6.710   6.234
 5099SOL     OW15320   1.271   7.383   6.177
 5099SOL    HW115321   1.315   7.447   6.113
 5099SOL    HW215322   1.221   7.435   6.247
 5100SOL     OW15323   1.032   6.135   5.602
 5100SOL    HW115324   0.991   6.217   5.563
 5100SOL    HW215325   1.096   6.161   5.675
 5101SOL     OW15326   0.078   6.142   6.972
 5101SOL    HW115327   0.170   6.141   6.931
 5101SOL    HW215328   0.072   6.216   7.039
 5102SOL     OW15329   0.561   5.808   6.733
 5102SOL    HW115330   0.599   5.724   6.770
 5102SOL    HW215331   0.473   5.827   6.777
 5103SOL     OW15332   0.866   6.040   6.228
 5103SOL    HW115333   0.834   6.112   6.166
 5103SOL    HW215334   0.890   5.959   6.175
 5104SOL     OW15335   1.017   5.625   6.339
 5104SOL    HW115336   0.945   5.630   6.270
 5104SOL    HW215337   0.993   5.556   6.408
 5105SOL     OW15338   1.429   6.759   6.453
 5105SOL    HW115339   1.374   6.675   6.446
 5105SOL    HW215340   1.455   6.788   6.361
 5106SOL     OW15341   1.466   6.176   6.578
 5106SOL    HW115342   1.436   6.081   6.585
 5106SOL    HW215343   1.539   6.192   6.644
 5107SOL     OW15344   1.857   6.419   5.963
 5107SOL    HW115345   1.899   6.355   6.027
 5107SOL    HW215346   1.819   6.368   5.885
 5108SOL     OW15347   0.488   6.971   5.760
 5108SOL    HW115348   0.401   6.956   5.807
 5108SOL    HW215349   0.471   6.997   5.665
 5109SOL     OW15350   1.664   6.866   6.243
 5109SOL    HW115351   1.763   6.874   6.257
 5109SOL    HW215352   1.619   6.950   6.274
 5110SOL     OW15353   1.390   6.161   5.664
 5110SOL    HW115354   1.336   6.140   5.745
 5110SOL    HW215355   1.481   6.120   5.673
 5111SOL     OW15356   0.527   5.842   5.914
 5111SOL    HW115357   0.554   5.783   5.839
 5111SOL    HW215358   0.527   5.937   5.883
 5112SOL     OW15359   1.754   6.809   7.174
 5112SOL    HW115360   1.845   6.770   7.161
 5112SOL    HW215361   1.762   6.905   7.198
 5113SOL     OW15362   1.064   6.933   6.926
 5113SOL    HW115363   0.984   6.910   6.981
 5113SOL    HW215364   1.147   6.907   6.975
 5114SOL     OW15365   1.592   7.215   7.211
 5114SOL    HW115366   1.619   7.249   7.121
 5114SOL    HW215367   1.671   7.177   7.257
 5115SOL     OW15368   1.111   6.781   6.686
 5115SOL    HW115369   1.071   6.825   6.767
 5115SOL    HW215370   1.070   6.818   6.603
 5116SOL     OW15371   1.638   6.685   6.665
 5116SOL    HW115372   1.643   6.766   6.724
 5116SOL    HW215373   1.552   6.687   6.614
 5117SOL     OW15374   0.915   5.675   6.988
 5117SOL    HW115375   0.940   5.655   6.893
 5117SOL    HW215376   0.987   5.731   7.030
 5118SOL     OW15377   0.980   6.702   7.305
 5118SOL    HW115378   0.881   6.708   7.315
 5118SOL    HW215379   1.003   6.622   7.249
 5119SOL     OW15380   0.705   6.636   5.954
 5119SOL    HW115381   0.691   6.643   6.053
 5119SOL    HW215382   0.789   6.585   5.936
 5120SOL     OW15383   0.410   6.399   6.837
 5120SOL    HW115384   0.496   6.411   6.887
 5120SOL    HW215385   0.368   6.312   6.864
 5121SOL     OW15386   1.274   5.972   6.848
 5121SOL    HW115387   1.295   6.046   6.912
 5121SOL    HW215388   1.185   5.989   6.805
 5122SOL     OW15389   0.064   7.150   6.917
 5122SOL    HW115390   0.018   7.232   6.883
 5122SOL    HW215391   0.162   7.169   6.926
 5123SOL     OW15392   0.367   6.686   6.087
 5123SOL    HW115393   0.360   6.769   6.031
 5123SOL    HW215394   0.371   6.606   6.027
 5124SOL     OW15395   0.566   6.123   6.451
 5124SOL    HW115396   0.578   6.189   6.377
 5124SOL    HW215397   0.612   6.157   6.534
 5125SOL     OW15398   1.252   6.934   5.974
 5125SOL    HW115399   1.302   7.011   6.014
 5125SOL    HW215400   1.157   6.936   6.006
 5126SOL     OW15401   1.272   7.031   6.728
 5126SOL    HW115402   1.319   7.044   6.815
 5126SOL    HW215403   1.206   6.957   6.737
 5127SOL     OW15404   1.582   6.225   6.058
 5127SOL    HW115405   1.551   6.286   6.131
 5127SOL    HW215406   1.632   6.277   5.989
 5128SOL     OW15407   0.354   7.096   6.915
 5128SOL    HW115408   0.333   7.052   6.828
 5128SOL    HW215409   0.451   7.122   6.918
 5129SOL     OW15410   0.402   6.337   7.184
 5129SOL    HW115411   0.470   6.392   7.137
 5129SOL    HW215412   0.442   6.249   7.211
 5130SOL     OW15413   1.587   6.365   7.256
 5130SOL    HW115414   1.495   6.403   7.251
 5130SOL    HW215415   1.647   6.412   7.191
 5131SOL     OW15416   1.013   5.691   7.356
 5131SOL    HW115417   1.019   5.776   7.304
 5131SOL    HW215418   1.045   5.615   7.299
 5132SOL     OW15419   0.504   5.636   7.326
 5132SOL    HW115420   0.462   5.579   7.256
 5132SOL    HW215421   0.438   5.705   7.358
 5133SOL     OW15422   0.573   6.456   6.615
 5133SOL    HW115423   0.617   6.545   6.606
 5133SOL    HW215424   0.510   6.456   6.692
 5134SOL     OW15425   1.360   6.448   6.631
 5134SOL    HW115426   1.285   6.448   6.565
 5134SOL    HW215427   1.397   6.356   6.640
 5135SOL     OW15428   1.209   6.111   5.861
 5135SOL    HW115429   1.222   6.027   5.915
 5135SOL    HW215430   1.180   6.185   5.921
 5136SOL     OW15431   0.307   5.799   6.817
 5136SOL    HW115432   0.284   5.836   6.907
 5136SOL    HW215433   0.277   5.704   6.811
 5137SOL     OW15434   0.037   6.896   6.868
 5137SOL    HW115435   0.090   6.847   6.936
 5137SOL    HW215436   0.059   6.994   6.873
 5138SOL     OW15437   0.732   6.220   6.650
 5138SOL    HW115438   0.791   6.194   6.574
 5138SOL    HW215439   0.704   6.316   6.639
 5139SOL     OW15440   1.728   6.521   7.440
 5139SOL    HW115441   1.682   6.514   7.351
 5139SOL    HW215442   1.666   6.565   7.506
 5140SOL     OW15443   0.307   5.649   6.204
 5140SOL    HW115444   0.296   5.743   6.237
 5140SOL    HW215445   0.302   5.586   6.281
 5141SOL     OW15446   1.622   5.953   5.960
 5141SOL    HW115447   1.624   5.877   6.024
 5141SOL    HW215448   1.574   6.030   6.000
 5142SOL     OW15449   1.023   6.352   6.552
 5142SOL    HW115450   1.038   6.373   6.648
 5142SOL    HW215451   0.993   6.257   6.543
 5143SOL     OW15452   0.980   7.159   7.286
 5143SOL    HW115453   0.960   7.203   7.198
 5143SOL    HW215454   1.019   7.068   7.270
 5144SOL     OW15455   1.859   7.104   7.191
 5144SOL    HW115456   1.873   7.131   7.096
 5144SOL    HW215457   1.942   7.126   7.244
 5145SOL     OW15458   0.350   6.484   7.390
 5145SOL    HW115459   0.426   6.528   7.438
 5145SOL    HW215460   0.385   6.437   7.308
 5146SOL     OW15461   1.540   5.860   5.711
 5146SOL    HW115462   1.479   5.785   5.734
 5146SOL    HW215463   1.562   5.912   5.794
 5147SOL     OW15464   1.303   6.424   5.628
 5147SOL    HW115465   1.337   6.331   5.643
 5147SOL    HW215466   1.321   6.451   5.533
 5148SOL     OW15467   1.068   6.919   6.435
 5148SOL    HW115468   1.075   6.835   6.380
 5148SOL    HW215469   1.130   6.988   6.399
 5149SOL     OW15470   0.319   6.396   6.535
 5149SOL    HW115471   0.412   6.432   6.540
 5149SOL    HW215472   0.313   6.311   6.587
 5150SOL     OW15473   0.339   6.095   6.592
 5150SOL    HW115474   0.287   6.012   6.575
 5150SOL    HW215475   0.416   6.100   6.528
 5151SOL     OW15476   1.138   5.966   7.264
 5151SOL    HW115477   1.093   6.029   7.328
 5151SOL    HW215478   1.231   5.997   7.247
 5152SOL     OW15479   1.160   5.793   7.063
 5152SOL    HW115480   1.160   5.857   7.140
 5152SOL    HW215481   1.188   5.841   6.980
 5153SOL     OW15482   0.008   6.912   5.786
 5153SOL    HW115483  -0.085   6.933   5.755
 5153SOL    HW215484   0.018   6.813   5.799
 5154SOL     OW15485   0.088   7.387   6.513
 5154SOL    HW115486   0.046   7.301   6.486
 5154SOL    HW215487   0.182   7.390   6.479
 5155SOL     OW15488   0.504   7.154   6.496
 5155SOL    HW115489   0.570   7.228   6.505
 5155SOL    HW215490   0.548   7.075   6.454
 5156SOL     OW15491   1.002   6.382   6.824
 5156SOL    HW115492   1.043   6.350   6.910
 5156SOL    HW215493   0.906   6.355   6.821
 5157SOL     OW15494   0.040   6.130   6.700
 5157SOL    HW115495   0.125   6.097   6.659
 5157SOL    HW215496   0.053   6.145   6.798
 5158SOL     OW15497   0.189   6.106   7.308
 5158SOL    HW115498   0.248   6.066   7.238
 5158SOL    HW215499   0.131   6.177   7.267
 5159SOL     OW15500   1.369   6.536   7.246
 5159SOL    HW115501   1.408   6.625   7.266
 5159SOL    HW215502   1.379   6.516   7.149
 5160SOL     OW15503   0.815   6.158   5.911
 5160SOL    HW115504   0.822   6.069   5.865
 5160SOL    HW215505   0.721   6.192   5.903
 5161SOL     OW15506   1.657   6.190   6.792
 5161SOL    HW115507   1.619   6.121   6.854
 5161SOL    HW215508   1.739   6.154   6.748
 5162SOL     OW15509   0.252   7.150   7.330
 5162SOL    HW115510   0.222   7.207   7.406
 5162SOL    HW215511   0.245   7.053   7.356
 5163SOL     OW15512   0.671   6.050   6.855
 5163SOL    HW115513   0.637   5.961   6.825
 5163SOL    HW215514   0.697   6.104   6.775
 5164SOL     OW15515   0.930   7.264   7.051
 5164SOL    HW115516   0.906   7.246   6.956
 5164SOL    HW215517   0.960   7.358   7.061
 5165SOL     OW15518   0.473   6.086   5.777
 5165SOL    HW115519   0.534   6.166   5.781
 5165SOL    HW215520   0.378   6.117   5.784
 5166SOL     OW15521   0.159   6.723   7.052
 5166SOL    HW115522   0.181   6.662   7.128
 5166SOL    HW215523   0.169   6.674   6.966
 5167SOL     OW15524   1.347   6.645   6.820
 5167SOL    HW115525   1.371   6.582   6.746
 5167SOL    HW215526   1.257   6.685   6.802
 5168SOL     OW15527   1.302   6.441   5.895
 5168SOL    HW115528   1.216   6.410   5.937
 5168SOL    HW215529   1.298   6.427   5.796
 5169SOL     OW15530   1.759   7.333   6.740
 5169SOL    HW115531   1.820   7.363   6.667
 5169SOL    HW215532   1.721   7.244   6.718
 5170SOL     OW15533   1.252   7.317   6.714
 5170SOL    HW115534   1.336   7.322   6.660
 5170SOL    HW215535   1.229   7.221   6.732
 5171SOL     OW15536   0.083   6.844   6.608
 5171SOL    HW115537   0.078   6.843   6.708
 5171SOL    HW215538   0.000   6.803   6.570
 5172SOL     OW15539   0.688   7.248   7.302
 5172SOL    HW115540   0.632   7.329   7.311
 5172SOL    HW215541   0.740   7.252   7.216
 5173SOL     OW15542   1.726   5.721   6.109
 5173SOL    HW115543   1.799   5.704   6.042
 5173SOL    HW215544   1.695   5.634   6.147
 5174SOL     OW15545   1.388   7.159   6.063
 5174SOL    HW115546   1.455   7.171   5.989
 5174SOL    HW215547   1.348   7.248   6.086
 5175SOL     OW15548   0.130   7.380   7.437
 5175SOL    HW115549   0.089   7.306   7.490
 5175SOL    HW215550   0.194   7.431   7.495
 5176SOL     OW15551   1.280   6.513   6.258
 5176SOL    HW115552   1.340   6.432   6.260
 5176SOL    HW215553   1.320   6.582   6.198
 5177SOL     OW15554   0.830   6.859   7.008
 5177SOL    HW115555   0.825   6.892   7.103
 5177SOL    HW215556   0.744   6.878   6.962
 5178SOL     OW15557   0.672   7.202   5.740
 5178SOL    HW115558   0.681   7.212   5.641
 5178SOL    HW215559   0.632   7.113   5.761
 5179SOL     OW15560   1.650   7.306   6.980
 5179SOL    HW115561   1.703   7.316   6.896
 5179SOL    HW215562   1.623   7.396   7.014
 5180SOL     OW15563   1.841   5.761   6.549
 5180SOL    HW115564   1.880   5.676   6.513
 5180SOL    HW215565   1.743   5.763   6.530
 5181SOL     OW15566   0.263   5.912   6.306
 5181SOL    HW115567   0.184   5.963   6.272
 5181SOL    HW215568   0.254   5.897   6.404
 5182SOL     OW15569   1.194   7.198   5.617
 5182SOL    HW115570   1.200   7.105   5.654
 5182SOL    HW215571   1.135   7.198   5.537
 5183SOL     OW15572   0.822   6.588   6.958
 5183SOL    HW115573   0.862   6.587   6.866
 5183SOL    HW215574   0.832   6.680   6.998
 5184SOL     OW15575   0.916   6.496   5.877
 5184SOL    HW115576   0.979   6.534   5.809
 5184SOL    HW215577   0.956   6.413   5.916
 5185SOL     OW15578   1.504   7.193   5.630
 5185SOL    HW115579   1.412   7.230   5.637
 5185SOL    HW215580   1.542   7.213   5.540
 5186SOL     OW15581   0.372   6.874   7.076
 5186SOL    HW115582   0.359   6.967   7.042
 5186SOL    HW215583   0.288   6.822   7.063
 5187SOL     OW15584   1.614   6.878   6.875
 5187SOL    HW115585   1.674   6.881   6.955
 5187SOL    HW215586   1.539   6.942   6.888
 5188SOL     OW15587   1.039   6.684   6.282
 5188SOL    HW115588   0.969   6.637   6.336
 5188SOL    HW215589   1.098   6.616   6.239
 5189SOL     OW15590   1.014   5.822   6.557
 5189SOL    HW115591   1.006   5.786   6.464
 5189SOL    HW215592   1.012   5.746   6.622
 5190SOL     OW15593   0.590   7.073   6.077
 5190SOL    HW115594   0.632   7.015   6.007
 5190SOL    HW215595   0.546   7.152   6.033
 5191SOL     OW15596   1.709   5.971   6.967
 5191SOL    HW115597   1.782   6.040   6.971
 5191SOL    HW215598   1.737   5.896   6.908
 5192SOL     OW15599   0.255   6.934   5.876
 5192SOL    HW115600   0.159   6.935   5.849
 5192SOL    HW215601   0.267   6.987   5.960
 5193SOL     OW15602   0.105   6.599   7.312
 5193SOL    HW115603   0.028   6.566   7.366
 5193SOL    HW215604   0.190   6.569   7.354
 5194SOL     OW15605   0.672   5.789   7.075
 5194SOL    HW115606   0.762   5.773   7.035
 5194SOL    HW215607   0.680   5.794   7.174
 5195SOL     OW15608   0.075   5.931   5.619
 5195SOL    HW115609  -0.017   5.903   5.590
 5195SOL    HW215610   0.106   6.008   5.563
 5196SOL     OW15611   1.440   6.442   6.984
 5196SOL    HW115612   1.383   6.494   6.921
 5196SOL    HW215613   1.536   6.454   6.960
 5197SOL     OW15614   0.072   5.752   5.904
 5197SOL    HW115615   0.055   5.835   5.850
 5197SOL    HW215616   0.162   5.715   5.882
 5198SOL     OW15617   1.183   6.921   5.705
 5198SOL    HW115618   1.084   6.910   5.707
 5198SOL    HW215619   1.217   6.936   5.798
 5199SOL     OW15620   0.613   6.428   7.017
 5199SOL    HW115621   0.669   6.509   7.000
 5199SOL    HW215622   0.672   6.348   7.020
 5200SOL     OW15623   1.493   7.353   6.545
 5200SOL    HW115624   1.526   7.417   6.476
 5200SOL    HW215625   1.559   7.347   6.620
 5201SOL     OW15626   0.716   6.151   7.294
 5201SOL    HW115627   0.735   6.216   7.368
 5201SOL    HW215628   0.776   6.071   7.303
 5202SOL     OW15629   1.450   6.806   7.219
 5202SOL    HW115630   1.441   6.796   7.318
 5202SOL    HW215631   1.546   6.799   7.193
 5203SOL     OW15632   0.390   7.327   7.146
 5203SOL    HW115633   0.299   7.368   7.144
 5203SOL    HW215634   0.383   7.233   7.178
 5204SOL     OW15635   1.674   6.469   6.840
 5204SOL    HW115636   1.647   6.380   6.803
 5204SOL    HW215637   1.675   6.537   6.767
 5205SOL     OW15638   1.225   5.911   6.035
 5205SOL    HW115639   1.290   5.837   6.024
 5205SOL    HW215640   1.245   5.961   6.119
 5206SOL     OW15641   0.594   6.331   6.238
 5206SOL    HW115642   0.644   6.416   6.219
 5206SOL    HW215643   0.506   6.333   6.190
 5207SOL     OW15644   1.777   5.928   7.228
 5207SOL    HW115645   1.760   5.959   7.134
 5207SOL    HW215646   1.693   5.891   7.266
 5208SOL     OW15647   1.730   6.520   7.103
 5208SOL    HW115648   1.768   6.611   7.118
 5208SOL    HW215649   1.722   6.503   7.004
 5209SOL     OW15650   0.859   6.960   5.602
 5209SOL    HW115651   0.813   6.975   5.690
 5209SOL    HW215652   0.903   7.045   5.572
 5210SOL     OW15653   0.661   7.376   6.539
 5210SOL    HW115654   0.615   7.464   6.526
 5210SOL    HW215655   0.760   7.388   6.532
 5211SOL     OW15656   0.859   6.542   6.447
 5211SOL    HW115657   0.913   6.473   6.495
 5211SOL    HW215658   0.827   6.611   6.513
 5212SOL     OW15659   1.083   6.570   5.673
 5212SOL    HW115660   1.060   6.623   5.591
 5212SOL    HW215661   1.164   6.514   5.654
 5213SOL     OW15662   1.861   7.155   6.437
 5213SOL    HW115663   1.790   7.143   6.367
 5213SOL    HW215664   1.862   7.076   6.497
 5214SOL     OW15665   0.221   6.900   7.430
 5214SOL    HW115666   0.156   6.827   7.409
 5214SOL    HW215667   0.225   6.914   7.528
 5215SOL     OW15668   0.079   6.826   6.239
 5215SOL    HW115669   0.078   6.779   6.327
 5215SOL    HW215670   0.161   6.798   6.188
 5216SOL     OW15671   0.672   6.977   7.210
 5216SOL    HW115672   0.594   6.927   7.248
 5216SOL    HW215673   0.669   7.072   7.241
 5217SOL     OW15674   1.824   5.778   6.813
 5217SOL    HW115675   1.820   5.688   6.857
 5217SOL    HW215676   1.827   5.767   6.714
 5218SOL     OW15677   0.428   6.010   6.106
 5218SOL    HW115678   0.458   5.938   6.044
 5218SOL    HW215679   0.389   5.970   6.189
 5219SOL     OW15680   1.705   7.073   6.690
 5219SOL    HW115681   1.612   7.048   6.663
 5219SOL    HW215682   1.731   7.023   6.772
 5220SOL     OW15683   0.317   6.133   6.866
 5220SOL    HW115684   0.355   6.074   6.938
 5220SOL    HW215685   0.357   6.107   6.778
 5221SOL     OW15686   0.812   7.172   6.273
 5221SOL    HW115687   0.844   7.182   6.179
 5221SOL    HW215688   0.733   7.110   6.275
 5222SOL     OW15689   1.424   5.800   6.698
 5222SOL    HW115690   1.476   5.735   6.753
 5222SOL    HW215691   1.375   5.863   6.759
 5223SOL     OW15692   1.001   5.620   6.740
 5223SOL    HW115693   0.938   5.548   6.709
 5223SOL    HW215694   1.094   5.584   6.740
 5224SOL     OW15695   0.770   6.916   5.887
 5224SOL    HW115696   0.724   6.829   5.904
 5224SOL    HW215697   0.861   6.913   5.928
 5225SOL     OW15698   0.618   7.153   6.870
 5225SOL    HW115699   0.613   7.235   6.927
 5225SOL    HW215700   0.707   7.150   6.825
 5226SOL     OW15701   1.352   5.638   5.754
 5226SOL    HW115702   1.387   5.597   5.670
 5226SOL    HW215703   1.262   5.600   5.774
 5227SOL     OW15704   1.300   6.039   6.277
 5227SOL    HW115705   1.241   6.119   6.281
 5227SOL    HW215706   1.315   6.004   6.370
 5228SOL     OW15707   1.593   5.807   6.468
 5228SOL    HW115708   1.509   5.806   6.522
 5228SOL    HW215709   1.595   5.890   6.412
 5229SOL     OW15710   0.039   6.663   5.886
 5229SOL    HW115711   0.138   6.652   5.877
 5229SOL    HW215712  -0.001   6.577   5.918
 5230SOL     OW15713   0.875   7.232   5.923
 5230SOL    HW115714   0.798   7.197   5.869
 5230SOL    HW215715   0.843   7.303   5.985
 5231SOL     OW15716   0.230   6.214   7.561
 5231SOL    HW115717   0.137   6.212   7.598
 5231SOL    HW215718   0.231   6.175   7.469
 5232SOL     OW15719   0.225   5.861   8.444
 5232SOL    HW115720   0.260   5.844   8.536
 5232SOL    HW215721   0.137   5.816   8.432
 5233SOL     OW15722   0.019   5.954   8.095
 5233SOL    HW115723  -0.063   5.997   8.134
 5233SOL    HW215724  -0.009   5.881   8.032
 5234SOL     OW15725   0.569   6.861   8.613
 5234SOL    HW115726   0.476   6.854   8.576
 5234SOL    HW215727   0.580   6.950   8.657
 5235SOL     OW15728   1.555   7.097   8.151
 5235SOL    HW115729   1.498   7.081   8.232
 5235SOL    HW215730   1.496   7.107   8.071
 5236SOL     OW15731   1.135   6.289   8.165
 5236SOL    HW115732   1.192   6.367   8.140
 5236SOL    HW215733   1.075   6.315   8.241
 5237SOL     OW15734   1.755   6.193   7.679
 5237SOL    HW115735   1.743   6.180   7.580
 5237SOL    HW215736   1.725   6.112   7.728
 5238SOL     OW15737   0.768   6.730   8.471
 5238SOL    HW115738   0.690   6.747   8.531
 5238SOL    HW215739   0.802   6.817   8.435
 5239SOL     OW15740   0.850   6.384   9.271
 5239SOL    HW115741   0.846   6.460   9.336
 5239SOL    HW215742   0.872   6.420   9.180
 5240SOL     OW15743   0.685   6.598   8.113
 5240SOL    HW115744   0.754   6.582   8.183
 5240SOL    HW215745   0.612   6.655   8.151
 5241SOL     OW15746   0.686   6.747   9.251
 5241SOL    HW115747   0.746   6.826   9.265
 5241SOL    HW215748   0.600   6.778   9.210
 5242SOL     OW15749   0.335   7.021   8.509
 5242SOL    HW115750   0.257   6.990   8.456
 5242SOL    HW215751   0.393   7.079   8.452
 5243SOL     OW15752   1.460   7.091   8.787
 5243SOL    HW115753   1.484   7.185   8.813
 5243SOL    HW215754   1.444   7.037   8.869
 5244SOL     OW15755   0.438   5.978   8.947
 5244SOL    HW115756   0.520   5.922   8.956
 5244SOL    HW215757   0.357   5.920   8.951
 5245SOL     OW15758   1.603   6.033   8.185
 5245SOL    HW115759   1.529   6.079   8.135
 5245SOL    HW215760   1.654   6.101   8.238
 5246SOL     OW15761   0.231   7.299   7.931
 5246SOL    HW115762   0.265   7.376   7.985
 5246SOL    HW215763   0.275   7.299   7.841
 5247SOL     OW15764   1.127   6.927   9.138
 5247SOL    HW115765   1.174   6.927   9.226
 5247SOL    HW215766   1.079   6.840   9.127
 5248SOL     OW15767   0.230   7.020   7.986
 5248SOL    HW115768   0.204   7.116   7.986
 5248SOL    HW215769   0.159   6.966   8.031
 5249SOL     OW15770   0.240   6.677   8.334
 5249SOL    HW115771   0.254   6.593   8.386
 5249SOL    HW215772   0.185   6.741   8.389
 5250SOL     OW15773   0.620   7.372   8.887
 5250SOL    HW115774   0.528   7.355   8.922
 5250SOL    HW215775   0.648   7.464   8.913
 5251SOL     OW15776   0.606   6.550   7.571
 5251SOL    HW115777   0.613   6.634   7.517
 5251SOL    HW215778   0.652   6.563   7.659
 5252SOL     OW15779   1.594   5.700   8.928
 5252SOL    HW115780   1.576   5.767   8.856
 5252SOL    HW215781   1.591   5.746   9.017
 5253SOL     OW15782   0.122   6.229   8.011
 5253SOL    HW115783   0.077   6.141   8.028
 5253SOL    HW215784   0.121   6.283   8.095
 5254SOL     OW15785   1.842   7.353   7.807
 5254SOL    HW115786   1.896   7.324   7.887
 5254SOL    HW215787   1.872   7.443   7.778
 5255SOL     OW15788   0.027   7.182   7.565
 5255SOL    HW115789   0.008   7.086   7.586
 5255SOL    HW215790  -0.006   7.240   7.640
 5256SOL     OW15791   1.689   6.508   8.060
 5256SOL    HW115792   1.784   6.479   8.068
 5256SOL    HW215793   1.681   6.573   7.985
 5257SOL     OW15794   1.641   6.694   7.880
 5257SOL    HW115795   1.727   6.696   7.828
 5257SOL    HW215796   1.655   6.741   7.968
 5258SOL     OW15797   0.113   6.323   9.045
 5258SOL    HW115798   0.201   6.310   9.090
 5258SOL    HW215799   0.100   6.420   9.023
 5259SOL     OW15800   0.613   6.951   8.174
 5259SOL    HW115801   0.564   6.864   8.183
 5259SOL    HW215802   0.590   6.994   8.087
 5260SOL     OW15803   1.293   6.814   8.871
 5260SOL    HW115804   1.330   6.741   8.813
 5260SOL    HW215805   1.345   6.819   8.956
 5261SOL     OW15806   0.809   5.590   7.950
 5261SOL    HW115807   0.849   5.681   7.941
 5261SOL    HW215808   0.709   5.598   7.956
 5262SOL     OW15809   0.197   6.562   8.712
 5262SOL    HW115810   0.286   6.517   8.698
 5262SOL    HW215811   0.124   6.497   8.693
 5263SOL     OW15812   1.525   6.585   7.638
 5263SOL    HW115813   1.462   6.509   7.651
 5263SOL    HW215814   1.573   6.603   7.724
 5264SOL     OW15815   1.187   7.378   9.064
 5264SOL    HW115816   1.211   7.438   8.988
 5264SOL    HW215817   1.194   7.283   9.034
 5265SOL     OW15818   0.317   5.837   9.249
 5265SOL    HW115819   0.388   5.908   9.255
 5265SOL    HW215820   0.229   5.876   9.277
 5266SOL     OW15821   1.466   7.003   8.401
 5266SOL    HW115822   1.407   7.009   8.481
 5266SOL    HW215823   1.451   6.915   8.355
 5267SOL     OW15824   1.667   7.300   8.020
 5267SOL    HW115825   1.626   7.277   7.932
 5267SOL    HW215826   1.649   7.226   8.085
 5268SOL     OW15827   0.598   6.315   7.718
 5268SOL    HW115828   0.622   6.384   7.650
 5268SOL    HW215829   0.520   6.348   7.772
 5269SOL     OW15830   1.281   5.931   8.392
 5269SOL    HW115831   1.195   5.881   8.379
 5269SOL    HW215832   1.343   5.877   8.448
 5270SOL     OW15833   1.576   7.248   7.755
 5270SOL    HW115834   1.665   7.294   7.758
 5270SOL    HW215835   1.555   7.224   7.660
 5271SOL     OW15836   0.807   6.191   8.913
 5271SOL    HW115837   0.760   6.188   9.002
 5271SOL    HW215838   0.756   6.136   8.847
 5272SOL     OW15839   1.394   6.055   9.122
 5272SOL    HW115840   1.374   6.098   9.210
 5272SOL    HW215841   1.472   5.993   9.131
 5273SOL     OW15842   0.973   6.476   9.020
 5273SOL    HW115843   1.019   6.392   8.991
 5273SOL    HW215844   0.917   6.510   8.945
 5274SOL     OW15845   0.991   5.996   8.690
 5274SOL    HW115846   0.914   6.030   8.744
 5274SOL    HW215847   0.957   5.945   8.611
 5275SOL     OW15848   1.041   6.287   7.877
 5275SOL    HW115849   1.067   6.283   7.973
 5275SOL    HW215850   0.956   6.236   7.863
 5276SOL     OW15851   0.076   6.397   8.237
 5276SOL    HW115852   0.175   6.385   8.246
 5276SOL    HW215853   0.052   6.492   8.258
 5277SOL     OW15854   0.130   7.407   9.019
 5277SOL    HW115855   0.120   7.392   9.118
 5277SOL    HW215856   0.044   7.443   8.983
 5278SOL     OW15857   0.865   5.934   7.643
 5278SOL    HW115858   0.924   5.997   7.594
 5278SOL    HW215859   0.884   5.840   7.614
 5279SOL     OW15860   1.719   6.171   9.279
 5279SOL    HW115861   1.693   6.260   9.243
 5279SOL    HW215862   1.717   6.103   9.206
 5280SOL     OW15863   1.362   6.730   7.993
 5280SOL    HW115864   1.445   6.701   7.945
 5280SOL    HW215865   1.313   6.797   7.937
 5281SOL     OW15866   0.550   5.782   8.333
 5281SOL    HW115867   0.545   5.777   8.433
 5281SOL    HW215868   0.552   5.878   8.304
 5282SOL     OW15869   1.008   7.042   7.925
 5282SOL    HW115870   0.962   7.114   7.873
 5282SOL    HW215871   1.004   7.062   8.023
 5283SOL     OW15872   0.351   7.387   8.301
 5283SOL    HW115873   0.401   7.301   8.307
 5283SOL    HW215874   0.416   7.464   8.298
 5284SOL     OW15875   1.795   6.652   8.321
 5284SOL    HW115876   1.733   6.637   8.245
 5284SOL    HW215877   1.743   6.663   8.406
 5285SOL     OW15878   1.227   7.136   8.954
 5285SOL    HW115879   1.233   7.059   9.018
 5285SOL    HW215880   1.175   7.110   8.874
 5286SOL     OW15881   0.321   6.529   7.690
 5286SOL    HW115882   0.403   6.568   7.648
 5286SOL    HW215883   0.294   6.447   7.641
 5287SOL     OW15884   1.458   6.321   8.176
 5287SOL    HW115885   1.453   6.256   8.251
 5287SOL    HW215886   1.538   6.380   8.189
 5288SOL     OW15887   0.461   6.852   9.175
 5288SOL    HW115888   0.411   6.853   9.089
 5288SOL    HW215889   0.398   6.834   9.251
 5289SOL     OW15890   1.111   7.362   7.685
 5289SOL    HW115891   1.051   7.300   7.735
 5289SOL    HW215892   1.142   7.318   7.600
 5290SOL     OW15893   0.202   5.871   8.946
 5290SOL    HW115894   0.122   5.931   8.933
 5290SOL    HW215895   0.192   5.822   9.032
 5291SOL     OW15896   1.632   6.963   7.529
 5291SOL    HW115897   1.600   7.057   7.519
 5291SOL    HW215898   1.556   6.900   7.517
 5292SOL     OW15899   0.464   7.329   7.771
 5292SOL    HW115900   0.497   7.368   7.857
 5292SOL    HW215901   0.540   7.322   7.706
 5293SOL     OW15902   1.400   5.693   7.874
 5293SOL    HW115903   1.376   5.656   7.784
 5293SOL    HW215904   1.499   5.709   7.878
 5294SOL     OW15905   0.249   7.371   8.689
 5294SOL    HW115906   0.306   7.306   8.739
 5294SOL    HW215907   0.233   7.338   8.596
 5295SOL     OW15908   0.940   7.284   8.352
 5295SOL    HW115909   1.020   7.227   8.373
 5295SOL    HW215910   0.891   7.244   8.275
 5296SOL     OW15911   0.382   6.286   7.928
 5296SOL    HW115912   0.427   6.196   7.925
 5296SOL    HW215913   0.288   6.275   7.961
 5297SOL     OW15914   1.547   5.808   9.177
 5297SOL    HW115915   1.542   5.845   9.269
 5297SOL    HW215916   1.475   5.739   9.165
 5298SOL     OW15917   0.614   5.708   7.565
 5298SOL    HW115918   0.712   5.686   7.572
 5298SOL    HW215919   0.583   5.691   7.472
 5299SOL     OW15920   0.781   5.850   9.197
 5299SOL    HW115921   0.848   5.789   9.240
 5299SOL    HW215922   0.708   5.869   9.262
 5300SOL     OW15923   0.888   7.100   8.643
 5300SOL    HW115924   0.865   7.075   8.549
 5300SOL    HW215925   0.949   7.031   8.682
 5301SOL     OW15926   1.351   6.176   8.881
 5301SOL    HW115927   1.379   6.133   8.966
 5301SOL    HW215928   1.376   6.272   8.882
 5302SOL     OW15929   0.803   6.988   8.372
 5302SOL    HW115930   0.893   7.002   8.330
 5302SOL    HW215931   0.732   6.990   8.301
 5303SOL     OW15932   0.922   6.089   8.347
 5303SOL    HW115933   0.897   6.080   8.251
 5303SOL    HW215934   0.970   6.007   8.378
 5304SOL     OW15935   0.539   5.650   7.960
 5304SOL    HW115936   0.458   5.651   8.018
 5304SOL    HW215937   0.542   5.733   7.905
 5305SOL     OW15938   1.434   6.774   7.489
 5305SOL    HW115939   1.466   6.698   7.546
 5305SOL    HW215940   1.342   6.801   7.519
 5306SOL     OW15941   0.297   5.621   7.619
 5306SOL    HW115942   0.346   5.705   7.598
 5306SOL    HW215943   0.359   5.556   7.664
 5307SOL     OW15944   0.935   5.822   7.928
 5307SOL    HW115945   0.887   5.863   7.850
 5307SOL    HW215946   1.034   5.820   7.909
 5308SOL     OW15947   1.076   6.269   8.912
 5308SOL    HW115948   0.996   6.208   8.915
 5308SOL    HW215949   1.157   6.216   8.888
 5309SOL     OW15950   1.227   7.156   8.241
 5309SOL    HW115951   1.248   7.230   8.176
 5309SOL    HW215952   1.295   7.156   8.314
 5310SOL     OW15953   0.459   6.738   8.189
 5310SOL    HW115954   0.388   6.711   8.254
 5310SOL    HW215955   0.433   6.710   8.096
 5311SOL     OW15956   1.271   7.383   8.039
 5311SOL    HW115957   1.315   7.447   7.975
 5311SOL    HW215958   1.221   7.435   8.109
 5312SOL     OW15959   1.032   6.135   7.464
 5312SOL    HW115960   0.991   6.217   7.425
 5312SOL    HW215961   1.096   6.161   7.537
 5313SOL     OW15962   0.078   6.142   8.834
 5313SOL    HW115963   0.170   6.141   8.793
 5313SOL    HW215964   0.072   6.216   8.901
 5314SOL     OW15965   0.561   5.808   8.595
 5314SOL    HW115966   0.599   5.724   8.632
 5314SOL    HW215967   0.473   5.827   8.639
 5315SOL     OW15968   0.866   6.040   8.090
 5315SOL    HW115969   0.834   6.112   8.028
 5315SOL    HW215970   0.890   5.959   8.037
 5316SOL     OW15971   1.017   5.625   8.201
 5316SOL    HW115972   0.945   5.630   8.132
 5316SOL    HW215973   0.993   5.556   8.270
 5317SOL     OW15974   1.429   6.759   8.315
 5317SOL    HW115975   1.374   6.675   8.308
 5317SOL    HW215976   1.455   6.788   8.223
 5318SOL     OW15977   1.466   6.176   8.440
 5318SOL    HW115978   1.436   6.081   8.447
 5318SOL    HW215979   1.539   6.192   8.506
 5319SOL     OW15980   1.857   6.419   7.825
 5319SOL    HW115981   1.899   6.355   7.889
 5319SOL    HW215982   1.819   6.368   7.747
 5320SOL     OW15983   0.488   6.971   7.622
 5320SOL    HW115984   0.401   6.956   7.669
 5320SOL    HW215985   0.471   6.997   7.527
 5321SOL     OW15986   1.664   6.866   8.105
 5321SOL    HW115987   1.763   6.874   8.119
 5321SOL    HW215988   1.619   6.950   8.136
 5322SOL     OW15989   1.390   6.161   7.526
 5322SOL    HW115990   1.336   6.140   7.607
 5322SOL    HW215991   1.481   6.120   7.535
 5323SOL     OW15992   0.527   5.842   7.776
 5323SOL    HW115993   0.554   5.783   7.701
 5323SOL    HW215994   0.527   5.937   7.745
 5324SOL     OW15995   1.754   6.809   9.036
 5324SOL    HW115996   1.845   6.770   9.023
 5324SOL    HW215997   1.762   6.905   9.060
 5325SOL     OW15998   1.064   6.933   8.788
 5325SOL    HW115999   0.984   6.910   8.843
 5325SOL    HW216000   1.147   6.907   8.837
 5326SOL     OW16001   1.592   7.215   9.073
 5326SOL    HW116002   1.619   7.249   8.983
 5326SOL    HW216003   1.671   7.177   9.119
 5327SOL     OW16004   1.111   6.781   8.548
 5327SOL    HW116005   1.071   6.825   8.629
 5327SOL    HW216006   1.070   6.818   8.465
 5328SOL     OW16007   1.638   6.685   8.527
 5328SOL    HW116008   1.643   6.766   8.586
 5328SOL    HW216009   1.552   6.687   8.476
 5329SOL     OW16010   0.915   5.675   8.850
 5329SOL    HW116011   0.940   5.655   8.755
 5329SOL    HW216012   0.987   5.731   8.892
 5330SOL     OW16013   0.980   6.702   9.167
 5330SOL    HW116014   0.881   6.708   9.177
 5330SOL    HW216015   1.003   6.622   9.111
 5331SOL     OW16016   0.705   6.636   7.816
 5331SOL    HW116017   0.691   6.643   7.915
 5331SOL    HW216018   0.789   6.585   7.798
 5332SOL     OW16019   0.410   6.399   8.699
 5332SOL    HW116020   0.496   6.411   8.749
 5332SOL    HW216021   0.368   6.312   8.726
 5333SOL     OW16022   1.274   5.972   8.710
 5333SOL    HW116023   1.295   6.046   8.774
 5333SOL    HW216024   1.185   5.989   8.667
 5334SOL     OW16025   0.064   7.150   8.779
 5334SOL    HW116026   0.018   7.232   8.745
 5334SOL    HW216027   0.162   7.169   8.788
 5335SOL     OW16028   0.367   6.686   7.949
 5335SOL    HW116029   0.360   6.769   7.893
 5335SOL    HW216030   0.371   6.606   7.889
 5336SOL     OW16031   0.566   6.123   8.313
 5336SOL    HW116032   0.578   6.189   8.239
 5336SOL    HW216033   0.612   6.157   8.396
 5337SOL     OW16034   1.252   6.934   7.836
 5337SOL    HW116035   1.302   7.011   7.876
 5337SOL    HW216036   1.157   6.936   7.868
 5338SOL     OW16037   1.272   7.031   8.590
 5338SOL    HW116038   1.319   7.044   8.677
 5338SOL    HW216039   1.206   6.957   8.599
 5339SOL     OW16040   1.582   6.225   7.920
 5339SOL    HW116041   1.551   6.286   7.993
 5339SOL    HW216042   1.632   6.277   7.851
 5340SOL     OW16043   0.354   7.096   8.777
 5340SOL    HW116044   0.333   7.052   8.690
 5340SOL    HW216045   0.451   7.122   8.780
 5341SOL     OW16046   0.402   6.337   9.046
 5341SOL    HW116047   0.470   6.392   8.999
 5341SOL    HW216048   0.442   6.249   9.073
 5342SOL     OW16049   1.587   6.365   9.118
 5342SOL    HW116050   1.495   6.403   9.113
 5342SOL    HW216051   1.647   6.412   9.053
 5343SOL     OW16052   1.013   5.691   9.218
 5343SOL    HW116053   1.019   5.776   9.166
 5343SOL    HW216054   1.045   5.615   9.161
 5344SOL     OW16055   0.504   5.636   9.188
 5344SOL    HW116056   0.462   5.579   9.118
 5344SOL    HW216057   0.438   5.705   9.220
 5345SOL     OW16058   0.573   6.456   8.477
 5345SOL    HW116059   0.617   6.545   8.468
 5345SOL    HW216060   0.510   6.456   8.554
 5346SOL     OW16061   1.360   6.448   8.493
 5346SOL    HW116062   1.285   6.448   8.427
 5346SOL    HW216063   1.397   6.356   8.502
 5347SOL     OW16064   1.209   6.111   7.723
 5347SOL    HW116065   1.222   6.027   7.777
 5347SOL    HW216066   1.180   6.185   7.783
 5348SOL     OW16067   0.307   5.799   8.679
 5348SOL    HW116068   0.284   5.836   8.769
 5348SOL    HW216069   0.277   5.704   8.673
 5349SOL     OW16070   0.037   6.896   8.730
 5349SOL    HW116071   0.090   6.847   8.798
 5349SOL    HW216072   0.059   6.994   8.735
 5350SOL     OW16073   0.732   6.220   8.512
 5350SOL    HW116074   0.791   6.194   8.436
 5350SOL    HW216075   0.704   6.316   8.501
 5351SOL     OW16076   1.728   6.521   9.302
 5351SOL    HW116077   1.682   6.514   9.213
 5351SOL    HW216078   1.666   6.565   9.368
 5352SOL     OW16079   0.307   5.649   8.066
 5352SOL    HW116080   0.296   5.743   8.099
 5352SOL    HW216081   0.302   5.586   8.143
 5353SOL     OW16082   1.622   5.953   7.822
 5353SOL    HW116083   1.624   5.877   7.886
 5353SOL    HW216084   1.574   6.030   7.862
 5354SOL     OW16085   1.023   6.352   8.414
 5354SOL    HW116086   1.038   6.373   8.510
 5354SOL    HW216087   0.993   6.257   8.405
 5355SOL     OW16088   0.980   7.159   9.148
 5355SOL    HW116089   0.960   7.203   9.060
 5355SOL    HW216090   1.019   7.068   9.132
 5356SOL     OW16091   1.859   7.104   9.053
 5356SOL    HW116092   1.873   7.131   8.958
 5356SOL    HW216093   1.942   7.126   9.106
 5357SOL     OW16094   0.350   6.484   9.252
 5357SOL    HW116095   0.426   6.528   9.300
 5357SOL    HW216096   0.385   6.437   9.170
 5358SOL     OW16097   1.540   5.860   7.573
 5358SOL    HW116098   1.479   5.785   7.596
 5358SOL    HW216099   1.562   5.912   7.656
 5359SOL     OW16100   1.303   6.424   7.490
 5359SOL    HW116101   1.337   6.331   7.505
 5359SOL    HW216102   1.321   6.451   7.395
 5360SOL     OW16103   1.068   6.919   8.297
 5360SOL    HW116104   1.075   6.835   8.242
 5360SOL    HW216105   1.130   6.988   8.261
 5361SOL     OW16106   0.319   6.396   8.397
 5361SOL    HW116107   0.412   6.432   8.402
 5361SOL    HW216108   0.313   6.311   8.449
 5362SOL     OW16109   0.339   6.095   8.454
 5362SOL    HW116110   0.287   6.012   8.437
 5362SOL    HW216111   0.416   6.100   8.390
 5363SOL     OW16112   1.138   5.966   9.126
 5363SOL    HW116113   1.093   6.029   9.190
 5363SOL    HW216114   1.231   5.997   9.109
 5364SOL     OW16115   1.160   5.793   8.925
 5364SOL    HW116116   1.160   5.857   9.002
 5364SOL    HW216117   1.188   5.841   8.842
 5365SOL     OW16118   0.008   6.912   7.648
 5365SOL    HW116119  -0.085   6.933   7.617
 5365SOL    HW216120   0.018   6.813   7.661
 5366SOL     OW16121   0.088   7.387   8.375
 5366SOL    HW116122   0.046   7.301   8.348
 5366SOL    HW216123   0.182   7.390   8.341
 5367SOL     OW16124   0.504   7.154   8.358
 5367SOL    HW116125   0.570   7.228   8.367
 5367SOL    HW216126   0.548   7.075   8.316
 5368SOL     OW16127   1.002   6.382   8.686
 5368SOL    HW116128   1.043   6.350   8.772
 5368SOL    HW216129   0.906   6.355   8.683
 5369SOL     OW16130   0.040   6.130   8.562
 5369SOL    HW116131   0.125   6.097   8.521
 5369SOL    HW216132   0.053   6.145   8.660
 5370SOL     OW16133   0.189   6.106   9.170
 5370SOL    HW116134   0.248   6.066   9.100
 5370SOL    HW216135   0.131   6.177   9.129
 5371SOL     OW16136   1.369   6.536   9.108
 5371SOL    HW116137   1.408   6.625   9.128
 5371SOL    HW216138   1.379   6.516   9.011
 5372SOL     OW16139   0.815   6.158   7.773
 5372SOL    HW116140   0.822   6.069   7.727
 5372SOL    HW216141   0.721   6.192   7.765
 5373SOL     OW16142   1.657   6.190   8.654
 5373SOL    HW116143   1.619   6.121   8.716
 5373SOL    HW216144   1.739   6.154   8.610
 5374SOL     OW16145   0.252   7.150   9.192
 5374SOL    HW116146   0.222   7.207   9.268
 5374SOL    HW216147   0.245   7.053   9.218
 5375SOL     OW16148   0.671   6.050   8.717
 5375SOL    HW116149   0.637   5.961   8.687
 5375SOL    HW216150   0.697   6.104   8.637
 5376SOL     OW16151   0.930   7.264   8.913
 5376SOL    HW116152   0.906   7.246   8.818
 5376SOL    HW216153   0.960   7.358   8.923
 5377SOL     OW16154   0.473   6.086   7.639
 5377SOL    HW116155   0.534   6.166   7.643
 5377SOL    HW216156   0.378   6.117   7.646
 5378SOL     OW16157   0.159   6.723   8.914
 5378SOL    HW116158   0.181   6.662   8.990
 5378SOL    HW216159   0.169   6.674   8.828
 5379SOL     OW16160   1.347   6.645   8.682
 5379SOL    HW116161   1.371   6.582   8.608
 5379SOL    HW216162   1.257   6.685   8.664
 5380SOL     OW16163   1.302   6.441   7.757
 5380SOL    HW116164   1.216   6.410   7.799
 5380SOL    HW216165   1.298   6.427   7.658
 5381SOL     OW16166   1.759   7.333   8.602
 5381SOL    HW116167   1.820   7.363   8.529
 5381SOL    HW216168   1.721   7.244   8.580
 5382SOL     OW16169   1.252   7.317   8.576
 5382SOL    HW116170   1.336   7.322   8.522
 5382SOL    HW216171   1.229   7.221   8.594
 5383SOL     OW16172   0.083   6.844   8.470
 5383SOL    HW116173   0.078   6.843   8.570
 5383SOL    HW216174   0.000   6.803   8.432
 5384SOL     OW16175   0.688   7.248   9.164
 5384SOL    HW116176   0.632   7.329   9.173
 5384SOL    HW216177   0.740   7.252   9.078
 5385SOL     OW16178   1.726   5.721   7.971
 5385SOL    HW116179   1.799   5.704   7.904
 5385SOL    HW216180   1.695   5.634   8.009
 5386SOL     OW16181   1.388   7.159   7.925
 5386SOL    HW116182   1.455   7.171   7.851
 5386SOL    HW216183   1.348   7.248   7.948
 5387SOL     OW16184   0.130   7.380   9.299
 5387SOL    HW116185   0.089   7.306   9.352
 5387SOL    HW216186   0.194   7.431   9.357
 5388SOL     OW16187   1.280   6.513   8.120
 5388SOL    HW116188   1.340   6.432   8.122
 5388SOL    HW216189   1.320   6.582   8.060
 5389SOL     OW16190   0.830   6.859   8.870
 5389SOL    HW116191   0.825   6.892   8.965
 5389SOL    HW216192   0.744   6.878   8.824
 5390SOL     OW16193   0.672   7.202   7.602
 5390SOL    HW116194   0.681   7.212   7.503
 5390SOL    HW216195   0.632   7.113   7.623
 5391SOL     OW16196   1.650   7.306   8.842
 5391SOL    HW116197   1.703   7.316   8.758
 5391SOL    HW216198   1.623   7.396   8.876
 5392SOL     OW16199   1.841   5.761   8.411
 5392SOL    HW116200   1.880   5.676   8.375
 5392SOL    HW216201   1.743   5.763   8.392
 5393SOL     OW16202   0.263   5.912   8.168
 5393SOL    HW116203   0.184   5.963   8.134
 5393SOL    HW216204   0.254   5.897   8.266
 5394SOL     OW16205   1.194   7.198   7.479
 5394SOL    HW116206   1.200   7.105   7.516
 5394SOL    HW216207   1.135   7.198   7.399
 5395SOL     OW16208   0.822   6.588   8.820
 5395SOL    HW116209   0.862   6.587   8.728
 5395SOL    HW216210   0.832   6.680   8.860
 5396SOL     OW16211   0.916   6.496   7.739
 5396SOL    HW116212   0.979   6.534   7.671
 5396SOL    HW216213   0.956   6.413   7.778
 5397SOL     OW16214   1.504   7.193   7.492
 5397SOL    HW116215   1.412   7.230   7.499
 5397SOL    HW216216   1.542   7.213   7.402
 5398SOL     OW16217   0.372   6.874   8.938
 5398SOL    HW116218   0.359   6.967   8.904
 5398SOL    HW216219   0.288   6.822   8.925
 5399SOL     OW16220   1.614   6.878   8.737
 5399SOL    HW116221   1.674   6.881   8.817
 5399SOL    HW216222   1.539   6.942   8.750
 5400SOL     OW16223   1.039   6.684   8.144
 5400SOL    HW116224   0.969   6.637   8.198
 5400SOL    HW216225   1.098   6.616   8.101
 5401SOL     OW16226   1.014   5.822   8.419
 5401SOL    HW116227   1.006   5.786   8.326
 5401SOL    HW216228   1.012   5.746   8.484
 5402SOL     OW16229   0.590   7.073   7.939
 5402SOL    HW116230   0.632   7.015   7.869
 5402SOL    HW216231   0.546   7.152   7.895
 5403SOL     OW16232   1.709   5.971   8.829
 5403SOL    HW116233   1.782   6.040   8.833
 5403SOL    HW216234   1.737   5.896   8.770
 5404SOL     OW16235   0.255   6.934   7.738
 5404SOL    HW116236   0.159   6.935   7.711
 5404SOL    HW216237   0.267   6.987   7.822
 5405SOL     OW16238   0.105   6.599   9.174
 5405SOL    HW116239   0.028   6.566   9.228
 5405SOL    HW216240   0.190   6.569   9.216
 5406SOL     OW16241   0.672   5.789   8.937
 5406SOL    HW116242   0.762   5.773   8.897
 5406SOL    HW216243   0.680   5.794   9.036
 5407SOL     OW16244   0.075   5.931   7.481
 5407SOL    HW116245  -0.017   5.903   7.452
 5407SOL    HW216246   0.106   6.008   7.425
 5408SOL     OW16247   1.440   6.442   8.846
 5408SOL    HW116248   1.383   6.494   8.783
 5408SOL    HW216249   1.536   6.454   8.822
 5409SOL     OW16250   0.072   5.752   7.766
 5409SOL    HW116251   0.055   5.835   7.712
 5409SOL    HW216252   0.162   5.715   7.744
 5410SOL     OW16253   1.183   6.921   7.567
 5410SOL    HW116254   1.084   6.910   7.569
 5410SOL    HW216255   1.217   6.936   7.660
 5411SOL     OW16256   0.613   6.428   8.879
 5411SOL    HW116257   0.669   6.509   8.862
 5411SOL    HW216258   0.672   6.348   8.882
 5412SOL     OW16259   1.493   7.353   8.407
 5412SOL    HW116260   1.526   7.417   8.338
 5412SOL    HW216261   1.559   7.347   8.482
 5413SOL     OW16262   0.716   6.151   9.156
 5413SOL    HW116263   0.735   6.216   9.230
 5413SOL    HW216264   0.776   6.071   9.165
 5414SOL     OW16265   1.450   6.806   9.081
 5414SOL    HW116266   1.441   6.796   9.180
 5414SOL    HW216267   1.546   6.799   9.055
 5415SOL     OW16268   0.390   7.327   9.008
 5415SOL    HW116269   0.299   7.368   9.006
 5415SOL    HW216270   0.383   7.233   9.040
 5416SOL     OW16271   1.674   6.469   8.702
 5416SOL    HW116272   1.647   6.380   8.665
 5416SOL    HW216273   1.675   6.537   8.629
 5417SOL     OW16274   1.225   5.911   7.897
 5417SOL    HW116275   1.290   5.837   7.886
 5417SOL    HW216276   1.245   5.961   7.981
 5418SOL     OW16277   0.594   6.331   8.100
 5418SOL    HW116278   0.644   6.416   8.081
 5418SOL    HW216279   0.506   6.333   8.052
 5419SOL     OW16280   1.777   5.928   9.090
 5419SOL    HW116281   1.760   5.959   8.996
 5419SOL    HW216282   1.693   5.891   9.128
 5420SOL     OW16283   1.730   6.520   8.965
 5420SOL    HW116284   1.768   6.611   8.980
 5420SOL    HW216285   1.722   6.503   8.866
 5421SOL     OW16286   0.859   6.960   7.464
 5421SOL    HW116287   0.813   6.975   7.552
 5421SOL    HW216288   0.903   7.045   7.434
 5422SOL     OW16289   0.661   7.376   8.401
 5422SOL    HW116290   0.615   7.464   8.388
 5422SOL    HW216291   0.760   7.388   8.394
 5423SOL     OW16292   0.859   6.542   8.309
 5423SOL    HW116293   0.913   6.473   8.357
 5423SOL    HW216294   0.827   6.611   8.375
 5424SOL     OW16295   1.083   6.570   7.535
 5424SOL    HW116296   1.060   6.623   7.453
 5424SOL    HW216297   1.164   6.514   7.516
 5425SOL     OW16298   1.861   7.155   8.299
 5425SOL    HW116299   1.790   7.143   8.229
 5425SOL    HW216300   1.862   7.076   8.359
 5426SOL     OW16301   0.221   6.900   9.292
 5426SOL    HW116302   0.156   6.827   9.271
 5426SOL    HW216303   0.225   6.914   9.390
 5427SOL     OW16304   0.079   6.826   8.101
 5427SOL    HW116305   0.078   6.779   8.189
 5427SOL    HW216306   0.161   6.798   8.050
 5428SOL     OW16307   0.672   6.977   9.072
 5428SOL    HW116308   0.594   6.927   9.110
 5428SOL    HW216309   0.669   7.072   9.103
 5429SOL     OW16310   1.824   5.778   8.675
 5429SOL    HW116311   1.820   5.688   8.719
 5429SOL    HW216312   1.827   5.767   8.576
 5430SOL     OW16313   0.428   6.010   7.968
 5430SOL    HW116314   0.458   5.938   7.906
 5430SOL    HW216315   0.389   5.970   8.051
 5431SOL     OW16316   1.705   7.073   8.552
 5431SOL    HW116317   1.612   7.048   8.525
 5431SOL    HW216318   1.731   7.023   8.634
 5432SOL     OW16319   0.317   6.133   8.728
 5432SOL    HW116320   0.355   6.074   8.800
 5432SOL    HW216321   0.357   6.107   8.640
 5433SOL     OW16322   0.812   7.172   8.135
 5433SOL    HW116323   0.844   7.182   8.041
 5433SOL    HW216324   0.733   7.110   8.137
 5434SOL     OW16325   1.424   5.800   8.560
 5434SOL    HW116326   1.476   5.735   8.615
 5434SOL    HW216327   1.375   5.863   8.621
 5435SOL     OW16328   1.001   5.620   8.602
 5435SOL    HW116329   0.938   5.548   8.571
 5435SOL    HW216330   1.094   5.584   8.602
 5436SOL     OW16331   0.770   6.916   7.749
 5436SOL    HW116332   0.724   6.829   7.766
 5436SOL    HW216333   0.861   6.913   7.790
 5437SOL     OW16334   0.618   7.153   8.732
 5437SOL    HW116335   0.613   7.235   8.789
 5437SOL    HW216336   0.707   7.150   8.687
 5438SOL     OW16337   1.352   5.638   7.616
 5438SOL    HW116338   1.387   5.597   7.532
 5438SOL    HW216339   1.262   5.600   7.636
 5439SOL     OW16340   1.300   6.039   8.139
 5439SOL    HW116341   1.241   6.119   8.143
 5439SOL    HW216342   1.315   6.004   8.232
 5440SOL     OW16343   1.593   5.807   8.330
 5440SOL    HW116344   1.509   5.806   8.384
 5440SOL    HW216345   1.595   5.890   8.274
 5441SOL     OW16346   0.039   6.663   7.748
 5441SOL    HW116347   0.138   6.652   7.739
 5441SOL    HW216348  -0.001   6.577   7.780
 5442SOL     OW16349   0.875   7.232   7.785
 5442SOL    HW116350   0.798   7.197   7.731
 5442SOL    HW216351   0.843   7.303   7.847
 5443SOL     OW16352   0.230   6.214   9.423
 5443SOL    HW116353   0.137   6.212   9.460
 5443SOL    HW216354   0.231   6.175   9.331
 5444SOL     OW16355   0.225   5.861  10.306
 5444SOL    HW116356   0.260   5.844  10.398
 5444SOL    HW216357   0.137   5.816  10.294
 5445SOL     OW16358   0.019   5.954   9.957
 5445SOL    HW116359  -0.063   5.997   9.996
 5445SOL    HW216360  -0.009   5.881   9.894
 5446SOL     OW16361   0.569   6.861  10.475
 5446SOL    HW116362   0.476   6.854  10.438
 5446SOL    HW216363   0.580   6.950  10.519
 5447SOL     OW16364   1.555   7.097  10.013
 5447SOL    HW116365   1.498   7.081  10.094
 5447SOL    HW216366   1.496   7.107   9.933
 5448SOL     OW16367   1.135   6.289  10.027
 5448SOL    HW116368   1.192   6.367  10.002
 5448SOL    HW216369   1.075   6.315  10.103
 5449SOL     OW16370   1.755   6.193   9.541
 5449SOL    HW116371   1.743   6.180   9.442
 5449SOL    HW216372   1.725   6.112   9.590
 5450SOL     OW16373   0.768   6.730  10.333
 5450SOL    HW116374   0.690   6.747  10.393
 5450SOL    HW216375   0.802   6.817  10.297
 5451SOL     OW16376   0.850   6.384  11.133
 5451SOL    HW116377   0.846   6.460  11.198
 5451SOL    HW216378   0.872   6.420  11.042
 5452SOL     OW16379   0.685   6.598   9.975
 5452SOL    HW116380   0.754   6.582  10.045
 5452SOL    HW216381   0.612   6.655  10.013
 5453SOL     OW16382   0.686   6.747  11.113
 5453SOL    HW116383   0.746   6.826  11.127
 5453SOL    HW216384   0.600   6.778  11.072
 5454SOL     OW16385   0.335   7.021  10.371
 5454SOL    HW116386   0.257   6.990  10.318
 5454SOL    HW216387   0.393   7.079  10.314
 5455SOL     OW16388   1.460   7.091  10.649
 5455SOL    HW116389   1.484   7.185  10.675
 5455SOL    HW216390   1.444   7.037  10.731
 5456SOL     OW16391   0.438   5.978  10.809
 5456SOL    HW116392   0.520   5.922  10.818
 5456SOL    HW216393   0.357   5.920  10.813
 5457SOL     OW16394   1.603   6.033  10.047
 5457SOL    HW116395   1.529   6.079   9.997
 5457SOL    HW216396   1.654   6.101  10.100
 5458SOL     OW16397   0.231   7.299   9.793
 5458SOL    HW116398   0.265   7.376   9.847
 5458SOL    HW216399   0.275   7.299   9.703
 5459SOL     OW16400   1.127   6.927  11.000
 5459SOL    HW116401   1.174   6.927  11.088
 5459SOL    HW216402   1.079   6.840  10.989
 5460SOL     OW16403   0.230   7.020   9.848
 5460SOL    HW116404   0.204   7.116   9.848
 5460SOL    HW216405   0.159   6.966   9.893
 5461SOL     OW16406   0.240   6.677  10.196
 5461SOL    HW116407   0.254   6.593  10.248
 5461SOL    HW216408   0.185   6.741  10.251
 5462SOL     OW16409   0.620   7.372  10.749
 5462SOL    HW116410   0.528   7.355  10.784
 5462SOL    HW216411   0.648   7.464  10.775
 5463SOL     OW16412   0.606   6.550   9.433
 5463SOL    HW116413   0.613   6.634   9.379
 5463SOL    HW216414   0.652   6.563   9.521
 5464SOL     OW16415   1.594   5.700  10.790
 5464SOL    HW116416   1.576   5.767  10.718
 5464SOL    HW216417   1.591   5.746  10.879
 5465SOL     OW16418   0.122   6.229   9.873
 5465SOL    HW116419   0.077   6.141   9.890
 5465SOL    HW216420   0.121   6.283   9.957
 5466SOL     OW16421   1.842   7.353   9.669
 5466SOL    HW116422   1.896   7.324   9.749
 5466SOL    HW216423   1.872   7.443   9.640
 5467SOL     OW16424   0.027   7.182   9.427
 5467SOL    HW116425   0.008   7.086   9.448
 5467SOL    HW216426  -0.006   7.240   9.502
 5468SOL     OW16427   1.689   6.508   9.922
 5468SOL    HW116428   1.784   6.479   9.930
 5468SOL    HW216429   1.681   6.573   9.847
 5469SOL     OW16430   1.641   6.694   9.742
 5469SOL    HW116431   1.727   6.696   9.690
 5469SOL    HW216432   1.655   6.741   9.830
 5470SOL     OW16433   0.113   6.323  10.907
 5470SOL    HW116434   0.201   6.310  10.952
 5470SOL    HW216435   0.100   6.420  10.885
 5471SOL     OW16436   0.613   6.951  10.036
 5471SOL    HW116437   0.564   6.864  10.045
 5471SOL    HW216438   0.590   6.994   9.949
 5472SOL     OW16439   1.293   6.814  10.733
 5472SOL    HW116440   1.330   6.741  10.675
 5472SOL    HW216441   1.345   6.819  10.818
 5473SOL     OW16442   0.809   5.590   9.812
 5473SOL    HW116443   0.849   5.681   9.803
 5473SOL    HW216444   0.709   5.598   9.818
 5474SOL     OW16445   0.197   6.562  10.574
 5474SOL    HW116446   0.286   6.517  10.560
 5474SOL    HW216447   0.124   6.497  10.555
 5475SOL     OW16448   1.525   6.585   9.500
 5475SOL    HW116449   1.462   6.509   9.513
 5475SOL    HW216450   1.573   6.603   9.586
 5476SOL     OW16451   1.187   7.378  10.926
 5476SOL    HW116452   1.211   7.438  10.850
 5476SOL    HW216453   1.194   7.283  10.896
 5477SOL     OW16454   0.317   5.837  11.111
 5477SOL    HW116455   0.388   5.908  11.117
 5477SOL    HW216456   0.229   5.876  11.139
 5478SOL     OW16457   1.466   7.003  10.263
 5478SOL    HW116458   1.407   7.009  10.343
 5478SOL    HW216459   1.451   6.915  10.217
 5479SOL     OW16460   1.667   7.300   9.882
 5479SOL    HW116461   1.626   7.277   9.794
 5479SOL    HW216462   1.649   7.226   9.947
 5480SOL     OW16463   0.598   6.315   9.580
 5480SOL    HW116464   0.622   6.384   9.512
 5480SOL    HW216465   0.520   6.348   9.634
 5481SOL     OW16466   1.281   5.931  10.254
 5481SOL    HW116467   1.195   5.881  10.241
 5481SOL    HW216468   1.343   5.877  10.310
 5482SOL     OW16469   1.576   7.248   9.617
 5482SOL    HW116470   1.665   7.294   9.620
 5482SOL    HW216471   1.555   7.224   9.522
 5483SOL     OW16472   0.807   6.191  10.775
 5483SOL    HW116473   0.760   6.188  10.864
 5483SOL    HW216474   0.756   6.136  10.709
 5484SOL     OW16475   1.394   6.055  10.984
 5484SOL    HW116476   1.374   6.098  11.072
 5484SOL    HW216477   1.472   5.993  10.993
 5485SOL     OW16478   0.973   6.476  10.882
 5485SOL    HW116479   1.019   6.392  10.853
 5485SOL    HW216480   0.917   6.510  10.807
 5486SOL     OW16481   0.991   5.996  10.552
 5486SOL    HW116482   0.914   6.030  10.606
 5486SOL    HW216483   0.957   5.945  10.473
 5487SOL     OW16484   1.041   6.287   9.739
 5487SOL    HW116485   1.067   6.283   9.835
 5487SOL    HW216486   0.956   6.236   9.725
 5488SOL     OW16487   0.076   6.397  10.099
 5488SOL    HW116488   0.175   6.385  10.108
 5488SOL    HW216489   0.052   6.492  10.120
 5489SOL     OW16490   0.130   7.407  10.881
 5489SOL    HW116491   0.120   7.392  10.980
 5489SOL    HW216492   0.044   7.443  10.845
 5490SOL     OW16493   0.865   5.934   9.505
 5490SOL    HW116494   0.924   5.997   9.456
 5490SOL    HW216495   0.884   5.840   9.476
 5491SOL     OW16496   1.719   6.171  11.141
 5491SOL    HW116497   1.693   6.260  11.105
 5491SOL    HW216498   1.717   6.103  11.068
 5492SOL     OW16499   1.362   6.730   9.855
 5492SOL    HW116500   1.445   6.701   9.807
 5492SOL    HW216501   1.313   6.797   9.799
 5493SOL     OW16502   0.550   5.782  10.195
 5493SOL    HW116503   0.545   5.777  10.295
 5493SOL    HW216504   0.552   5.878  10.166
 5494SOL     OW16505   1.008   7.042   9.787
 5494SOL    HW116506   0.962   7.114   9.735
 5494SOL    HW216507   1.004   7.062   9.885
 5495SOL     OW16508   0.351   7.387  10.163
 5495SOL    HW116509   0.401   7.301  10.169
 5495SOL    HW216510   0.416   7.464  10.160
 5496SOL     OW16511   1.795   6.652  10.183
 5496SOL    HW116512   1.733   6.637  10.107
 5496SOL    HW216513   1.743   6.663  10.268
 5497SOL     OW16514   1.227   7.136  10.816
 5497SOL    HW116515   1.233   7.059  10.880
 5497SOL    HW216516   1.175   7.110  10.736
 5498SOL     OW16517   0.321   6.529   9.552
 5498SOL    HW116518   0.403   6.568   9.510
 5498SOL    HW216519   0.294   6.447   9.503
 5499SOL     OW16520   1.458   6.321  10.038
 5499SOL    HW116521   1.453   6.256  10.113
 5499SOL    HW216522   1.538   6.380  10.051
 5500SOL     OW16523   0.461   6.852  11.037
 5500SOL    HW116524   0.411   6.853  10.951
 5500SOL    HW216525   0.398   6.834  11.113
 5501SOL     OW16526   1.111   7.362   9.547
 5501SOL    HW116527   1.051   7.300   9.597
 5501SOL    HW216528   1.142   7.318   9.462
 5502SOL     OW16529   0.202   5.871  10.808
 5502SOL    HW116530   0.122   5.931  10.795
 5502SOL    HW216531   0.192   5.822  10.894
 5503SOL     OW16532   1.632   6.963   9.391
 5503SOL    HW116533   1.600   7.057   9.381
 5503SOL    HW216534   1.556   6.900   9.379
 5504SOL     OW16535   0.464   7.329   9.633
 5504SOL    HW116536   0.497   7.368   9.719
 5504SOL    HW216537   0.540   7.322   9.568
 5505SOL     OW16538   1.400   5.693   9.736
 5505SOL    HW116539   1.376   5.656   9.646
 5505SOL    HW216540   1.499   5.709   9.740
 5506SOL     OW16541   0.249   7.371  10.551
 5506SOL    HW116542   0.306   7.306  10.601
 5506SOL    HW216543   0.233   7.338  10.458
 5507SOL     OW16544   0.940   7.284  10.214
 5507SOL    HW116545   1.020   7.227  10.235
 5507SOL    HW216546   0.891   7.244  10.137
 5508SOL     OW16547   0.382   6.286   9.790
 5508SOL    HW116548   0.427   6.196   9.787
 5508SOL    HW216549   0.288   6.275   9.823
 5509SOL     OW16550   1.547   5.808  11.039
 5509SOL    HW116551   1.542   5.845  11.131
 5509SOL    HW216552   1.475   5.739  11.027
 5510SOL     OW16553   0.614   5.708   9.427
 5510SOL    HW116554   0.712   5.686   9.434
 5510SOL    HW216555   0.583   5.691   9.334
 5511SOL     OW16556   0.781   5.850  11.059
 5511SOL    HW116557   0.848   5.789  11.102
 5511SOL    HW216558   0.708   5.869  11.124
 5512SOL     OW16559   0.888   7.100  10.505
 5512SOL    HW116560   0.865   7.075  10.411
 5512SOL    HW216561   0.949   7.031  10.544
 5513SOL     OW16562   1.351   6.176  10.743
 5513SOL    HW116563   1.379   6.133  10.828
 5513SOL    HW216564   1.376   6.272  10.744
 5514SOL     OW16565   0.803   6.988  10.234
 5514SOL    HW116566   0.893   7.002  10.192
 5514SOL    HW216567   0.732   6.990  10.163
 5515SOL     OW16568   0.922   6.089  10.209
 5515SOL    HW116569   0.897   6.080  10.113
 5515SOL    HW216570   0.970   6.007  10.240
 5516SOL     OW16571   0.539   5.650   9.822
 5516SOL    HW116572   0.458   5.651   9.880
 5516SOL    HW216573   0.542   5.733   9.767
 5517SOL     OW16574   1.434   6.774   9.351
 5517SOL    HW116575   1.466   6.698   9.408
 5517SOL    HW216576   1.342   6.801   9.381
 5518SOL     OW16577   0.297   5.621   9.481
 5518SOL    HW116578   0.346   5.705   9.460
 5518SOL    HW216579   0.359   5.556   9.526
 5519SOL     OW16580   0.935   5.822   9.790
 5519SOL    HW116581   0.887   5.863   9.712
 5519SOL    HW216582   1.034   5.820   9.771
 5520SOL     OW16583   1.076   6.269  10.774
 5520SOL    HW116584   0.996   6.208  10.777
 5520SOL    HW216585   1.157   6.216  10.750
 5521SOL     OW16586   1.227   7.156  10.103
 5521SOL    HW116587   1.248   7.230  10.038
 5521SOL    HW216588   1.295   7.156  10.176
 5522SOL     OW16589   0.459   6.738  10.051
 5522SOL    HW116590   0.388   6.711  10.116
 5522SOL    HW216591   0.433   6.710   9.958
 5523SOL     OW16592   1.271   7.383   9.901
 5523SOL    HW116593   1.315   7.447   9.837
 5523SOL    HW216594   1.221   7.435   9.971
 5524SOL     OW16595   1.032   6.135   9.326
 5524SOL    HW116596   0.991   6.217   9.287
 5524SOL    HW216597   1.096   6.161   9.399
 5525SOL     OW16598   0.078   6.142  10.696
 5525SOL    HW116599   0.170   6.141  10.655
 5525SOL    HW216600   0.072   6.216  10.763
 5526SOL     OW16601   0.561   5.808  10.457
 5526SOL    HW116602   0.599   5.724  10.494
 5526SOL    HW216603   0.473   5.827  10.501
 5527SOL     OW16604   0.866   6.040   9.952
 5527SOL    HW116605   0.834   6.112   9.890
 5527SOL    HW216606   0.890   5.959   9.899
 5528SOL     OW16607   1.017   5.625  10.063
 5528SOL    HW116608   0.945   5.630   9.994
 5528SOL    HW216609   0.993   5.556  10.132
 5529SOL     OW16610   1.429   6.759  10.177
 5529SOL    HW116611   1.374   6.675  10.170
 5529SOL    HW216612   1.455   6.788  10.085
 5530SOL     OW16613   1.466   6.176  10.302
 5530SOL    HW116614   1.436   6.081  10.309
 5530SOL    HW216615   1.539   6.192  10.368
 5531SOL     OW16616   1.857   6.419   9.687
 5531SOL    HW116617   1.899   6.355   9.751
 5531SOL    HW216618   1.819   6.368   9.609
 5532SOL     OW16619   0.488   6.971   9.484
 5532SOL    HW116620   0.401   6.956   9.531
 5532SOL    HW216621   0.471   6.997   9.389
 5533SOL     OW16622   1.664   6.866   9.967
 5533SOL    HW116623   1.763   6.874   9.981
 5533SOL    HW216624   1.619   6.950   9.998
 5534SOL     OW16625   1.390   6.161   9.388
 5534SOL    HW116626   1.336   6.140   9.469
 5534SOL    HW216627   1.481   6.120   9.397
 5535SOL     OW16628   0.527   5.842   9.638
 5535SOL    HW116629   0.554   5.783   9.563
 5535SOL    HW216630   0.527   5.937   9.607
 5536SOL     OW16631   1.754   6.809  10.898
 5536SOL    HW116632   1.845   6.770  10.885
 5536SOL    HW216633   1.762   6.905  10.922
 5537SOL     OW16634   1.064   6.933  10.650
 5537SOL    HW116635   0.984   6.910  10.705
 5537SOL    HW216636   1.147   6.907  10.699
 5538SOL     OW16637   1.592   7.215  10.935
 5538SOL    HW116638   1.619   7.249  10.845
 5538SOL    HW216639   1.671   7.177  10.981
 5539SOL     OW16640   1.111   6.781  10.410
 5539SOL    HW116641   1.071   6.825  10.491
 5539SOL    HW216642   1.070   6.818  10.327
 5540SOL     OW16643   1.638   6.685  10.389
 5540SOL    HW116644   1.643   6.766  10.448
 5540SOL    HW216645   1.552   6.687  10.338
 5541SOL     OW16646   0.915   5.675  10.712
 5541SOL    HW116647   0.940   5.655  10.617
 5541SOL    HW216648   0.987   5.731  10.754
 5542SOL     OW16649   0.980   6.702  11.029
 5542SOL    HW116650   0.881   6.708  11.039
 5542SOL    HW216651   1.003   6.622  10.973
 5543SOL     OW16652   0.705   6.636   9.678
 5543SOL    HW116653   0.691   6.643   9.777
 5543SOL    HW216654   0.789   6.585   9.660
 5544SOL     OW16655   0.410   6.399  10.561
 5544SOL    HW116656   0.496   6.411  10.611
 5544SOL    HW216657   0.368   6.312  10.588
 5545SOL     OW16658   1.274   5.972  10.572
 5545SOL    HW116659   1.295   6.046  10.636
 5545SOL    HW216660   1.185   5.989  10.529
 5546SOL     OW16661   0.064   7.150  10.641
 5546SOL    HW116662   0.018   7.232  10.607
 5546SOL    HW216663   0.162   7.169  10.650
 5547SOL     OW16664   0.367   6.686   9.811
 5547SOL    HW116665   0.360   6.769   9.755
 5547SOL    HW216666   0.371   6.606   9.751
 5548SOL     OW16667   0.566   6.123  10.175
 5548SOL    HW116668   0.578   6.189  10.101
 5548SOL    HW216669   0.612   6.157  10.258
 5549SOL     OW16670   1.252   6.934   9.698
 5549SOL    HW116671   1.302   7.011   9.738
 5549SOL    HW216672   1.157   6.936   9.730
 5550SOL     OW16673   1.272   7.031  10.452
 5550SOL    HW116674   1.319   7.044  10.539
 5550SOL    HW216675   1.206   6.957  10.461
 5551SOL     OW16676   1.582   6.225   9.782
 5551SOL    HW116677   1.551   6.286   9.855
 5551SOL    HW216678   1.632   6.277   9.713
 5552SOL     OW16679   0.354   7.096  10.639
 5552SOL    HW116680   0.333   7.052  10.552
 5552SOL    HW216681   0.451   7.122  10.642
 5553SOL     OW16682   0.402   6.337  10.908
 5553SOL    HW116683   0.470   6.392  10.861
 5553SOL    HW216684   0.442   6.249  10.935
 5554SOL     OW16685   1.587   6.365  10.980
 5554SOL    HW116686   1.495   6.403  10.975
 5554SOL    HW216687   1.647   6.412  10.915
 5555SOL     OW16688   1.013   5.691  11.080
 5555SOL    HW116689   1.019   5.776  11.028
 5555SOL    HW216690   1.045   5.615  11.023
 5556SOL     OW16691   0.504   5.636  11.050
 5556SOL    HW116692   0.462   5.579  10.980
 5556SOL    HW216693   0.438   5.705  11.082
 5557SOL     OW16694   0.573   6.456  10.339
 5557SOL    HW116695   0.617   6.545  10.330
 5557SOL    HW216696   0.510   6.456  10.416
 5558SOL     OW16697   1.360   6.448  10.355
 5558SOL    HW116698   1.285   6.448  10.289
 5558SOL    HW216699   1.397   6.356  10.364
 5559SOL     OW16700   1.209   6.111   9.585
 5559SOL    HW116701   1.222   6.027   9.639
 5559SOL    HW216702   1.180   6.185   9.645
 5560SOL     OW16703   0.307   5.799  10.541
 5560SOL    HW116704   0.284   5.836  10.631
 5560SOL    HW216705   0.277   5.704  10.535
 5561SOL     OW16706   0.037   6.896  10.592
 5561SOL    HW116707   0.090   6.847  10.660
 5561SOL    HW216708   0.059   6.994  10.597
 5562SOL     OW16709   0.732   6.220  10.374
 5562SOL    HW116710   0.791   6.194  10.298
 5562SOL    HW216711   0.704   6.316  10.363
 5563SOL     OW16712   1.728   6.521  11.164
 5563SOL    HW116713   1.682   6.514  11.075
 5563SOL    HW216714   1.666   6.565  11.230
 5564SOL     OW16715   0.307   5.649   9.928
 5564SOL    HW116716   0.296   5.743   9.961
 5564SOL    HW216717   0.302   5.586  10.005
 5565SOL     OW16718   1.622   5.953   9.684
 5565SOL    HW116719   1.624   5.877   9.748
 5565SOL    HW216720   1.574   6.030   9.724
 5566SOL     OW16721   1.023   6.352  10.276
 5566SOL    HW116722   1.038   6.373  10.372
 5566SOL    HW216723   0.993   6.257  10.267
 5567SOL     OW16724   0.980   7.159  11.010
 5567SOL    HW116725   0.960   7.203  10.922
 5567SOL    HW216726   1.019   7.068  10.994
 5568SOL     OW16727   1.859   7.104  10.915
 5568SOL    HW116728   1.873   7.131  10.820
 5568SOL    HW216729   1.942   7.126  10.968
 5569SOL     OW16730   0.350   6.484  11.114
 5569SOL    HW116731   0.426   6.528  11.162
 5569SOL    HW216732   0.385   6.437  11.032
 5570SOL     OW16733   1.540   5.860   9.435
 5570SOL    HW116734   1.479   5.785   9.458
 5570SOL    HW216735   1.562   5.912   9.518
 5571SOL     OW16736   1.303   6.424   9.352
 5571SOL    HW116737   1.337   6.331   9.367
 5571SOL    HW216738   1.321   6.451   9.257
 5572SOL     OW16739   1.068   6.919  10.159
 5572SOL    HW116740   1.075   6.835  10.104
 5572SOL    HW216741   1.130   6.988  10.123
 5573SOL     OW16742   0.319   6.396  10.259
 5573SOL    HW116743   0.412   6.432  10.264
 5573SOL    HW216744   0.313   6.311  10.311
 5574SOL     OW16745   0.339   6.095  10.316
 5574SOL    HW116746   0.287   6.012  10.299
 5574SOL    HW216747   0.416   6.100  10.252
 5575SOL     OW16748   1.138   5.966  10.988
 5575SOL    HW116749   1.093   6.029  11.052
 5575SOL    HW216750   1.231   5.997  10.971
 5576SOL     OW16751   1.160   5.793  10.787
 5576SOL    HW116752   1.160   5.857  10.864
 5576SOL    HW216753   1.188   5.841  10.704
 5577SOL     OW16754   0.008   6.912   9.510
 5577SOL    HW116755  -0.085   6.933   9.479
 5577SOL    HW216756   0.018   6.813   9.523
 5578SOL     OW16757   0.088   7.387  10.237
 5578SOL    HW116758   0.046   7.301  10.210
 5578SOL    HW216759   0.182   7.390  10.203
 5579SOL     OW16760   0.504   7.154  10.220
 5579SOL    HW116761   0.570   7.228  10.229
 5579SOL    HW216762   0.548   7.075  10.178
 5580SOL     OW16763   1.002   6.382  10.548
 5580SOL    HW116764   1.043   6.350  10.634
 5580SOL    HW216765   0.906   6.355  10.545
 5581SOL     OW16766   0.040   6.130  10.424
 5581SOL    HW116767   0.125   6.097  10.383
 5581SOL    HW216768   0.053   6.145  10.522
 5582SOL     OW16769   0.189   6.106  11.032
 5582SOL    HW116770   0.248   6.066  10.962
 5582SOL    HW216771   0.131   6.177  10.991
 5583SOL     OW16772   1.369   6.536  10.970
 5583SOL    HW116773   1.408   6.625  10.990
 5583SOL    HW216774   1.379   6.516  10.873
 5584SOL     OW16775   0.815   6.158   9.635
 5584SOL    HW116776   0.822   6.069   9.589
 5584SOL    HW216777   0.721   6.192   9.627
 5585SOL     OW16778   1.657   6.190  10.516
 5585SOL    HW116779   1.619   6.121  10.578
 5585SOL    HW216780   1.739   6.154  10.472
 5586SOL     OW16781   0.252   7.150  11.054
 5586SOL    HW116782   0.222   7.207  11.130
 5586SOL    HW216783   0.245   7.053  11.080
 5587SOL     OW16784   0.671   6.050  10.579
 5587SOL    HW116785   0.637   5.961  10.549
 5587SOL    HW216786   0.697   6.104  10.499
 5588SOL     OW16787   0.930   7.264  10.775
 5588SOL    HW116788   0.906   7.246  10.680
 5588SOL    HW216789   0.960   7.358  10.785
 5589SOL     OW16790   0.473   6.086   9.501
 5589SOL    HW116791   0.534   6.166   9.505
 5589SOL    HW216792   0.378   6.117   9.508
 5590SOL     OW16793   0.159   6.723  10.776
 5590SOL    HW116794   0.181   6.662  10.852
 5590SOL    HW216795   0.169   6.674  10.690
 5591SOL     OW16796   1.347   6.645  10.544
 5591SOL    HW116797   1.371   6.582  10.470
 5591SOL    HW216798   1.257   6.685  10.526
 5592SOL     OW16799   1.302   6.441   9.619
 5592SOL    HW116800   1.216   6.410   9.661
 5592SOL    HW216801   1.298   6.427   9.520
 5593SOL     OW16802   1.759   7.333  10.464
 5593SOL    HW116803   1.820   7.363  10.391
 5593SOL    HW216804   1.721   7.244  10.442
 5594SOL     OW16805   1.252   7.317  10.438
 5594SOL    HW116806   1.336   7.322  10.384
 5594SOL    HW216807   1.229   7.221  10.456
 5595SOL     OW16808   0.083   6.844  10.332
 5595SOL    HW116809   0.078   6.843  10.432
 5595SOL    HW216810   0.000   6.803  10.294
 5596SOL     OW16811   0.688   7.248  11.026
 5596SOL    HW116812   0.632   7.329  11.035
 5596SOL    HW216813   0.740   7.252  10.940
 5597SOL     OW16814   1.726   5.721   9.833
 5597SOL    HW116815   1.799   5.704   9.766
 5597SOL    HW216816   1.695   5.634   9.871
 5598SOL     OW16817   1.388   7.159   9.787
 5598SOL    HW116818   1.455   7.171   9.713
 5598SOL    HW216819   1.348   7.248   9.810
 5599SOL     OW16820   0.130   7.380  11.161
 5599SOL    HW116821   0.089   7.306  11.214
 5599SOL    HW216822   0.194   7.431  11.219
 5600SOL     OW16823   1.280   6.513   9.982
 5600SOL    HW116824   1.340   6.432   9.984
 5600SOL    HW216825   1.320   6.582   9.922
 5601SOL     OW16826   0.830   6.859  10.732
 5601SOL    HW116827   0.825   6.892  10.827
 5601SOL    HW216828   0.744   6.878  10.686
 5602SOL     OW16829   0.672   7.202   9.464
 5602SOL    HW116830   0.681   7.212   9.365
 5602SOL    HW216831   0.632   7.113   9.485
 5603SOL     OW16832   1.650   7.306  10.704
 5603SOL    HW116833   1.703   7.316  10.620
 5603SOL    HW216834   1.623   7.396  10.738
 5604SOL     OW16835   1.841   5.761  10.273
 5604SOL    HW116836   1.880   5.676  10.237
 5604SOL    HW216837   1.743   5.763  10.254
 5605SOL     OW16838   0.263   5.912  10.030
 5605SOL    HW116839   0.184   5.963   9.996
 5605SOL    HW216840   0.254   5.897  10.128
 5606SOL     OW16841   1.194   7.198   9.341
 5606SOL    HW116842   1.200   7.105   9.378
 5606SOL    HW216843   1.135   7.198   9.261
 5607SOL     OW16844   0.822   6.588  10.682
 5607SOL    HW116845   0.862   6.587  10.590
 5607SOL    HW216846   0.832   6.680  10.722
 5608SOL     OW16847   0.916   6.496   9.601
 5608SOL    HW116848   0.979   6.534   9.533
 5608SOL    HW216849   0.956   6.413   9.640
 5609SOL     OW16850   1.504   7.193   9.354
 5609SOL    HW116851   1.412   7.230   9.361
 5609SOL    HW216852   1.542   7.213   9.264
 5610SOL     OW16853   0.372   6.874  10.800
 5610SOL    HW116854   0.359   6.967  10.766
 5610SOL    HW216855   0.288   6.822  10.787
 5611SOL     OW16856   1.614   6.878  10.599
 5611SOL    HW116857   1.674   6.881  10.679
 5611SOL    HW216858   1.539   6.942  10.612
 5612SOL     OW16859   1.039   6.684  10.006
 5612SOL    HW116860   0.969   6.637  10.060
 5612SOL    HW216861   1.098   6.616   9.963
 5613SOL     OW16862   1.014   5.822  10.281
 5613SOL    HW116863   1.006   5.786  10.188
 5613SOL    HW216864   1.012   5.746  10.346
 5614SOL     OW16865   0.590   7.073   9.801
 5614SOL    HW116866   0.632   7.015   9.731
 5614SOL    HW216867   0.546   7.152   9.757
 5615SOL     OW16868   1.709   5.971  10.691
 5615SOL    HW116869   1.782   6.040  10.695
 5615SOL    HW216870   1.737   5.896  10.632
 5616SOL     OW16871   0.255   6.934   9.600
 5616SOL    HW116872   0.159   6.935   9.573
 5616SOL    HW216873   0.267   6.987   9.684
 5617SOL     OW16874   0.105   6.599  11.036
 5617SOL    HW116875   0.028   6.566  11.090
 5617SOL    HW216876   0.190   6.569  11.078
 5618SOL     OW16877   0.672   5.789  10.799
 5618SOL    HW116878   0.762   5.773  10.759
 5618SOL    HW216879   0.680   5.794  10.898
 5619SOL     OW16880   0.075   5.931   9.343
 5619SOL    HW116881  -0.017   5.903   9.314
 5619SOL    HW216882   0.106   6.008   9.287
 5620SOL     OW16883   1.440   6.442  10.708
 5620SOL    HW116884   1.383   6.494  10.645
 5620SOL    HW216885   1.536   6.454  10.684
 5621SOL     OW16886   0.072   5.752   9.628
 5621SOL    HW116887   0.055   5.835   9.574
 5621SOL    HW216888   0.162   5.715   9.606
 5622SOL     OW16889   1.183   6.921   9.429
 5622SOL    HW116890   1.084   6.910   9.431
 5622SOL    HW216891   1.217   6.936   9.522
 5623SOL     OW16892   0.613   6.428  10.741
 5623SOL    HW116893   0.669   6.509  10.724
 5623SOL    HW216894   0.672   6.348  10.744
 5624SOL     OW16895   1.493   7.353  10.269
 5624SOL    HW116896   1.526   7.417  10.200
 5624SOL    HW216897   1.559   7.347  10.344
 5625SOL     OW16898   0.716   6.151  11.018
 5625SOL    HW116899   0.735   6.216  11.092
 5625SOL    HW216900   0.776   6.071  11.027
 5626SOL     OW16901   1.450   6.806  10.943
 5626SOL    HW116902   1.441   6.796  11.042
 5626SOL    HW216903   1.546   6.799  10.917
 5627SOL     OW16904   0.390   7.327  10.870
 5627SOL    HW116905   0.299   7.368  10.868
 5627SOL    HW216906   0.383   7.233  10.902
 5628SOL     OW16907   1.674   6.469  10.564
 5628SOL    HW116908   1.647   6.380  10.527
 5628SOL    HW216909   1.675   6.537  10.491
 5629SOL     OW16910   1.225   5.911   9.759
 5629SOL    HW116911   1.290   5.837   9.748
 5629SOL    HW216912   1.245   5.961   9.843
 5630SOL     OW16913   0.594   6.331   9.962
 5630SOL    HW116914   0.644   6.416   9.943
 5630SOL    HW216915   0.506   6.333   9.914
 5631SOL     OW16916   1.777   5.928  10.952
 5631SOL    HW116917   1.760   5.959  10.858
 5631SOL    HW216918   1.693   5.891  10.990
 5632SOL     OW16919   1.730   6.520  10.827
 5632SOL    HW116920   1.768   6.611  10.842
 5632SOL    HW216921   1.722   6.503  10.728
 5633SOL     OW16922   0.859   6.960   9.326
 5633SOL    HW116923   0.813   6.975   9.414
 5633SOL    HW216924   0.903   7.045   9.296
 5634SOL     OW16925   0.661   7.376  10.263
 5634SOL    HW116926   0.615   7.464  10.250
 5634SOL    HW216927   0.760   7.388  10.256
 5635SOL     OW16928   0.859   6.542  10.171
 5635SOL    HW116929   0.913   6.473  10.219
 5635SOL    HW216930   0.827   6.611  10.237
 5636SOL     OW16931   1.083   6.570   9.397
 5636SOL    HW116932   1.060   6.623   9.315
 5636SOL    HW216933   1.164   6.514   9.378
 5637SOL     OW16934   1.861   7.155  10.161
 5637SOL    HW116935   1.790   7.143  10.091
 5637SOL    HW216936   1.862   7.076  10.221
 5638SOL     OW16937   0.221   6.900  11.154
 5638SOL    HW116938   0.156   6.827  11.133
 5638SOL    HW216939   0.225   6.914  11.252
 5639SOL     OW16940   0.079   6.826   9.963
 5639SOL    HW116941   0.078   6.779  10.051
 5639SOL    HW216942   0.161   6.798   9.912
 5640SOL     OW16943   0.672   6.977  10.934
 5640SOL    HW116944   0.594   6.927  10.972
 5640SOL    HW216945   0.669   7.072  10.965
 5641SOL     OW16946   1.824   5.778  10.537
 5641SOL    HW116947   1.820   5.688  10.581
 5641SOL    HW216948   1.827   5.767  10.438
 5642SOL     OW16949   0.428   6.010   9.830
 5642SOL    HW116950   0.458   5.938   9.768
 5642SOL    HW216951   0.389   5.970   9.913
 5643SOL     OW16952   1.705   7.073  10.414
 5643SOL    HW116953   1.612   7.048  10.387
 5643SOL    HW216954   1.731   7.023  10.496
 5644SOL     OW16955   0.317   6.133  10.590
 5644SOL    HW116956   0.355   6.074  10.662
 5644SOL    HW216957   0.357   6.107  10.502
 5645SOL     OW16958   0.812   7.172   9.997
 5645SOL    HW116959   0.844   7.182   9.903
 5645SOL    HW216960   0.733   7.110   9.999
 5646SOL     OW16961   1.424   5.800  10.422
 5646SOL    HW116962   1.476   5.735  10.477
 5646SOL    HW216963   1.375   5.863  10.483
 5647SOL     OW16964   1.001   5.620  10.464
 5647SOL    HW116965   0.938   5.548  10.433
 5647SOL    HW216966   1.094   5.584  10.464
 5648SOL     OW16967   0.770   6.916   9.611
 5648SOL    HW116968   0.724   6.829   9.628
 5648SOL    HW216969   0.861   6.913   9.652
 5649SOL     OW16970   0.618   7.153  10.594
 5649SOL    HW116971   0.613   7.235  10.651
 5649SOL    HW216972   0.707   7.150  10.549
 5650SOL     OW16973   1.352   5.638   9.478
 5650SOL    HW116974   1.387   5.597   9.394
 5650SOL    HW216975   1.262   5.600   9.498
 5651SOL     OW16976   1.300   6.039  10.001
 5651SOL    HW116977   1.241   6.119  10.005
 5651SOL    HW216978   1.315   6.004  10.094
 5652SOL     OW16979   1.593   5.807  10.192
 5652SOL    HW116980   1.509   5.806  10.246
 5652SOL    HW216981   1.595   5.890  10.136
 5653SOL     OW16982   0.039   6.663   9.610
 5653SOL    HW116983   0.138   6.652   9.601
 5653SOL    HW216984  -0.001   6.577   9.642
 5654SOL     OW16985   0.875   7.232   9.647
 5654SOL    HW116986   0.798   7.197   9.593
 5654SOL    HW216987   0.843   7.303   9.709
 5655SOL     OW16988   0.230   6.214  11.285
 5655SOL    HW116989   0.137   6.212  11.322
 5655SOL    HW216990   0.231   6.175  11.193
 5656SOL     OW16991   0.225   5.861  12.168
 5656SOL    HW116992   0.260   5.844  12.260
 5656SOL    HW216993   0.137   5.816  12.156
 5657SOL     OW16994   0.019   5.954  11.819
 5657SOL    HW116995  -0.063   5.997  11.858
 5657SOL    HW216996  -0.009   5.881  11.756
 5658SOL     OW16997   0.569   6.861  12.337
 5658SOL    HW116998   0.476   6.854  12.300
 5658SOL    HW216999   0.580   6.950  12.381
 5659SOL     OW17000   1.555   7.097  11.875
 5659SOL    HW117001   1.498   7.081  11.956
 5659SOL    HW217002   1.496   7.107  11.795
 5660SOL     OW17003   1.135   6.289  11.889
 5660SOL    HW117004   1.192   6.367  11.864
 5660SOL    HW217005   1.075   6.315  11.965
 5661SOL     OW17006   1.755   6.193  11.403
 5661SOL    HW117007   1.743   6.180  11.304
 5661SOL    HW217008   1.725   6.112  11.452
 5662SOL     OW17009   0.768   6.730  12.195
 5662SOL    HW117010   0.690   6.747  12.255
 5662SOL    HW217011   0.802   6.817  12.159
 5663SOL     OW17012   0.685   6.598  11.837
 5663SOL    HW117013   0.754   6.582  11.907
 5663SOL    HW217014   0.612   6.655  11.875
 5664SOL     OW17015   0.335   7.021  12.233
 5664SOL    HW117016   0.257   6.990  12.180
 5664SOL    HW217017   0.393   7.079  12.176
 5665SOL     OW17018   1.460   7.091  12.511
 5665SOL    HW117019   1.484   7.185  12.537
 5665SOL    HW217020   1.444   7.037  12.593
 5666SOL     OW17021   0.438   5.978  12.671
 5666SOL    HW117022   0.520   5.922  12.680
 5666SOL    HW217023   0.357   5.920  12.675
 5667SOL     OW17024   1.603   6.033  11.909
 5667SOL    HW117025   1.529   6.079  11.859
 5667SOL    HW217026   1.654   6.101  11.962
 5668SOL     OW17027   0.231   7.299  11.655
 5668SOL    HW117028   0.265   7.376  11.709
 5668SOL    HW217029   0.275   7.299  11.565
 5669SOL     OW17030   0.230   7.020  11.710
 5669SOL    HW117031   0.204   7.116  11.710
 5669SOL    HW217032   0.159   6.966  11.755
 5670SOL     OW17033   0.240   6.677  12.058
 5670SOL    HW117034   0.254   6.593  12.110
 5670SOL    HW217035   0.185   6.741  12.113
 5671SOL     OW17036   0.620   7.372  12.611
 5671SOL    HW117037   0.528   7.355  12.646
 5671SOL    HW217038   0.648   7.464  12.637
 5672SOL     OW17039   0.606   6.550  11.295
 5672SOL    HW117040   0.613   6.634  11.241
 5672SOL    HW217041   0.652   6.563  11.383
 5673SOL     OW17042   1.594   5.700  12.652
 5673SOL    HW117043   1.576   5.767  12.580
 5673SOL    HW217044   1.591   5.746  12.741
 5674SOL     OW17045   0.122   6.229  11.735
 5674SOL    HW117046   0.077   6.141  11.752
 5674SOL    HW217047   0.121   6.283  11.819
 5675SOL     OW17048   1.842   7.353  11.531
 5675SOL    HW117049   1.896   7.324  11.611
 5675SOL    HW217050   1.872   7.443  11.502
 5676SOL     OW17051   0.027   7.182  11.289
 5676SOL    HW117052   0.008   7.086  11.310
 5676SOL    HW217053  -0.006   7.240  11.364
 5677SOL     OW17054   1.689   6.508  11.784
 5677SOL    HW117055   1.784   6.479  11.792
 5677SOL    HW217056   1.681   6.573  11.709
 5678SOL     OW17057   1.641   6.694  11.604
 5678SOL    HW117058   1.727   6.696  11.552
 5678SOL    HW217059   1.655   6.741  11.692
 5679SOL     OW17060   0.113   6.323  12.769
 5679SOL    HW117061   0.201   6.310  12.814
 5679SOL    HW217062   0.100   6.420  12.747
 5680SOL     OW17063   0.613   6.951  11.898
 5680SOL    HW117064   0.564   6.864  11.907
 5680SOL    HW217065   0.590   6.994  11.811
 5681SOL     OW17066   1.293   6.814  12.595
 5681SOL    HW117067   1.330   6.741  12.537
 5681SOL    HW217068   1.345   6.819  12.680
 5682SOL     OW17069   0.809   5.590  11.674
 5682SOL    HW117070   0.849   5.681  11.665
 5682SOL    HW217071   0.709   5.598  11.680
 5683SOL     OW17072   0.197   6.562  12.436
 5683SOL    HW117073   0.286   6.517  12.422
 5683SOL    HW217074   0.124   6.497  12.417
 5684SOL     OW17075   1.525   6.585  11.362
 5684SOL    HW117076   1.462   6.509  11.375
 5684SOL    HW217077   1.573   6.603  11.448
 5685SOL     OW17078   1.466   7.003  12.125
 5685SOL    HW117079   1.407   7.009  12.205
 5685SOL    HW217080   1.451   6.915  12.079
 5686SOL     OW17081   1.667   7.300  11.744
 5686SOL    HW117082   1.626   7.277  11.656
 5686SOL    HW217083   1.649   7.226  11.809
 5687SOL     OW17084   0.598   6.315  11.442
 5687SOL    HW117085   0.622   6.384  11.374
 5687SOL    HW217086   0.520   6.348  11.496
 5688SOL     OW17087   1.281   5.931  12.116
 5688SOL    HW117088   1.195   5.881  12.103
 5688SOL    HW217089   1.343   5.877  12.172
 5689SOL     OW17090   1.576   7.248  11.479
 5689SOL    HW117091   1.665   7.294  11.482
 5689SOL    HW217092   1.555   7.224  11.384
 5690SOL     OW17093   0.807   6.191  12.637
 5690SOL    HW117094   0.760   6.188  12.726
 5690SOL    HW217095   0.756   6.136  12.571
 5691SOL     OW17096   0.973   6.476  12.744
 5691SOL    HW117097   1.019   6.392  12.715
 5691SOL    HW217098   0.917   6.510  12.669
 5692SOL     OW17099   0.991   5.996  12.414
 5692SOL    HW117100   0.914   6.030  12.468
 5692SOL    HW217101   0.957   5.945  12.335
 5693SOL     OW17102   1.041   6.287  11.601
 5693SOL    HW117103   1.067   6.283  11.697
 5693SOL    HW217104   0.956   6.236  11.587
 5694SOL     OW17105   0.076   6.397  11.961
 5694SOL    HW117106   0.175   6.385  11.970
 5694SOL    HW217107   0.052   6.492  11.982
 5695SOL     OW17108   0.130   7.407  12.743
 5695SOL    HW117109   0.120   7.392  12.842
 5695SOL    HW217110   0.044   7.443  12.707
 5696SOL     OW17111   0.865   5.934  11.367
 5696SOL    HW117112   0.924   5.997  11.318
 5696SOL    HW217113   0.884   5.840  11.338
 5697SOL     OW17114   1.362   6.730  11.717
 5697SOL    HW117115   1.445   6.701  11.669
 5697SOL    HW217116   1.313   6.797  11.661
 5698SOL     OW17117   0.550   5.782  12.057
 5698SOL    HW117118   0.545   5.777  12.157
 5698SOL    HW217119   0.552   5.878  12.028
 5699SOL     OW17120   1.008   7.042  11.649
 5699SOL    HW117121   0.962   7.114  11.597
 5699SOL    HW217122   1.004   7.062  11.747
 5700SOL     OW17123   0.351   7.387  12.025
 5700SOL    HW117124   0.401   7.301  12.031
 5700SOL    HW217125   0.416   7.464  12.022
 5701SOL     OW17126   1.795   6.652  12.045
 5701SOL    HW117127   1.733   6.637  11.969
 5701SOL    HW217128   1.743   6.663  12.130
 5702SOL     OW17129   1.227   7.136  12.678
 5702SOL    HW117130   1.233   7.059  12.742
 5702SOL    HW217131   1.175   7.110  12.598
 5703SOL     OW17132   0.321   6.529  11.414
 5703SOL    HW117133   0.403   6.568  11.372
 5703SOL    HW217134   0.294   6.447  11.365
 5704SOL     OW17135   1.458   6.321  11.900
 5704SOL    HW117136   1.453   6.256  11.975
 5704SOL    HW217137   1.538   6.380  11.913
 5705SOL     OW17138   1.111   7.362  11.409
 5705SOL    HW117139   1.051   7.300  11.459
 5705SOL    HW217140   1.142   7.318  11.324
 5706SOL     OW17141   0.202   5.871  12.670
 5706SOL    HW117142   0.122   5.931  12.657
 5706SOL    HW217143   0.192   5.822  12.756
 5707SOL     OW17144   1.632   6.963  11.253
 5707SOL    HW117145   1.600   7.057  11.243
 5707SOL    HW217146   1.556   6.900  11.241
 5708SOL     OW17147   0.464   7.329  11.495
 5708SOL    HW117148   0.497   7.368  11.581
 5708SOL    HW217149   0.540   7.322  11.430
 5709SOL     OW17150   1.400   5.693  11.598
 5709SOL    HW117151   1.376   5.656  11.508
 5709SOL    HW217152   1.499   5.709  11.602
 5710SOL     OW17153   0.249   7.371  12.413
 5710SOL    HW117154   0.306   7.306  12.463
 5710SOL    HW217155   0.233   7.338  12.320
 5711SOL     OW17156   0.940   7.284  12.076
 5711SOL    HW117157   1.020   7.227  12.097
 5711SOL    HW217158   0.891   7.244  11.999
 5712SOL     OW17159   0.382   6.286  11.652
 5712SOL    HW117160   0.427   6.196  11.649
 5712SOL    HW217161   0.288   6.275  11.685
 5713SOL     OW17162   0.614   5.708  11.289
 5713SOL    HW117163   0.712   5.686  11.296
 5713SOL    HW217164   0.583   5.691  11.196
 5714SOL     OW17165   0.888   7.100  12.367
 5714SOL    HW117166   0.865   7.075  12.273
 5714SOL    HW217167   0.949   7.031  12.406
 5715SOL     OW17168   1.351   6.176  12.605
 5715SOL    HW117169   1.379   6.133  12.690
 5715SOL    HW217170   1.376   6.272  12.606
 5716SOL     OW17171   0.803   6.988  12.096
 5716SOL    HW117172   0.893   7.002  12.054
 5716SOL    HW217173   0.732   6.990  12.025
 5717SOL     OW17174   0.922   6.089  12.071
 5717SOL    HW117175   0.897   6.080  11.975
 5717SOL    HW217176   0.970   6.007  12.102
 5718SOL     OW17177   0.539   5.650  11.684
 5718SOL    HW117178   0.458   5.651  11.742
 5718SOL    HW217179   0.542   5.733  11.629
 5719SOL     OW17180   1.434   6.774  11.213
 5719SOL    HW117181   1.466   6.698  11.270
 5719SOL    HW217182   1.342   6.801  11.243
 5720SOL     OW17183   0.297   5.621  11.343
 5720SOL    HW117184   0.346   5.705  11.322
 5720SOL    HW217185   0.359   5.556  11.388
 5721SOL     OW17186   0.935   5.822  11.652
 5721SOL    HW117187   0.887   5.863  11.574
 5721SOL    HW217188   1.034   5.820  11.633
 5722SOL     OW17189   1.076   6.269  12.636
 5722SOL    HW117190   0.996   6.208  12.639
 5722SOL    HW217191   1.157   6.216  12.612
 5723SOL     OW17192   1.227   7.156  11.965
 5723SOL    HW117193   1.248   7.230  11.900
 5723SOL    HW217194   1.295   7.156  12.038
 5724SOL     OW17195   0.459   6.738  11.913
 5724SOL    HW117196   0.388   6.711  11.978
 5724SOL    HW217197   0.433   6.710  11.820
 5725SOL     OW17198   1.271   7.383  11.763
 5725SOL    HW117199   1.315   7.447  11.699
 5725SOL    HW217200   1.221   7.435  11.833
 5726SOL     OW17201   1.032   6.135  11.188
 5726SOL    HW117202   0.991   6.217  11.149
 5726SOL    HW217203   1.096   6.161  11.261
 5727SOL     OW17204   0.078   6.142  12.558
 5727SOL    HW117205   0.170   6.141  12.517
 5727SOL    HW217206   0.072   6.216  12.625
 5728SOL     OW17207   0.561   5.808  12.319
 5728SOL    HW117208   0.599   5.724  12.356
 5728SOL    HW217209   0.473   5.827  12.363
 5729SOL     OW17210   0.866   6.040  11.814
 5729SOL    HW117211   0.834   6.112  11.752
 5729SOL    HW217212   0.890   5.959  11.761
 5730SOL     OW17213   1.017   5.625  11.925
 5730SOL    HW117214   0.945   5.630  11.856
 5730SOL    HW217215   0.993   5.556  11.994
 5731SOL     OW17216   1.429   6.759  12.039
 5731SOL    HW117217   1.374   6.675  12.032
 5731SOL    HW217218   1.455   6.788  11.947
 5732SOL     OW17219   1.466   6.176  12.164
 5732SOL    HW117220   1.436   6.081  12.171
 5732SOL    HW217221   1.539   6.192  12.230
 5733SOL     OW17222   1.857   6.419  11.549
 5733SOL    HW117223   1.899   6.355  11.613
 5733SOL    HW217224   1.819   6.368  11.471
 5734SOL     OW17225   0.488   6.971  11.346
 5734SOL    HW117226   0.401   6.956  11.393
 5734SOL    HW217227   0.471   6.997  11.251
 5735SOL     OW17228   1.664   6.866  11.829
 5735SOL    HW117229   1.763   6.874  11.843
 5735SOL    HW217230   1.619   6.950  11.860
 5736SOL     OW17231   1.390   6.161  11.250
 5736SOL    HW117232   1.336   6.140  11.331
 5736SOL    HW217233   1.481   6.120  11.259
 5737SOL     OW17234   0.527   5.842  11.500
 5737SOL    HW117235   0.554   5.783  11.425
 5737SOL    HW217236   0.527   5.937  11.469
 5738SOL     OW17237   1.754   6.809  12.760
 5738SOL    HW117238   1.845   6.770  12.747
 5738SOL    HW217239   1.762   6.905  12.784
 5739SOL     OW17240   1.064   6.933  12.512
 5739SOL    HW117241   0.984   6.910  12.567
 5739SOL    HW217242   1.147   6.907  12.561
 5740SOL     OW17243   1.111   6.781  12.272
 5740SOL    HW117244   1.071   6.825  12.353
 5740SOL    HW217245   1.070   6.818  12.189
 5741SOL     OW17246   1.638   6.685  12.251
 5741SOL    HW117247   1.643   6.766  12.310
 5741SOL    HW217248   1.552   6.687  12.200
 5742SOL     OW17249   0.915   5.675  12.574
 5742SOL    HW117250   0.940   5.655  12.479
 5742SOL    HW217251   0.987   5.731  12.616
 5743SOL     OW17252   0.705   6.636  11.540
 5743SOL    HW117253   0.691   6.643  11.639
 5743SOL    HW217254   0.789   6.585  11.522
 5744SOL     OW17255   0.410   6.399  12.423
 5744SOL    HW117256   0.496   6.411  12.473
 5744SOL    HW217257   0.368   6.312  12.450
 5745SOL     OW17258   1.274   5.972  12.434
 5745SOL    HW117259   1.295   6.046  12.498
 5745SOL    HW217260   1.185   5.989  12.391
 5746SOL     OW17261   0.064   7.150  12.503
 5746SOL    HW117262   0.018   7.232  12.469
 5746SOL    HW217263   0.162   7.169  12.512
 5747SOL     OW17264   0.367   6.686  11.673
 5747SOL    HW117265   0.360   6.769  11.617
 5747SOL    HW217266   0.371   6.606  11.613
 5748SOL     OW17267   0.566   6.123  12.037
 5748SOL    HW117268   0.578   6.189  11.963
 5748SOL    HW217269   0.612   6.157  12.120
 5749SOL     OW17270   1.252   6.934  11.560
 5749SOL    HW117271   1.302   7.011  11.600
 5749SOL    HW217272   1.157   6.936  11.592
 5750SOL     OW17273   1.272   7.031  12.314
 5750SOL    HW117274   1.319   7.044  12.401
 5750SOL    HW217275   1.206   6.957  12.323
 5751SOL     OW17276   1.582   6.225  11.644
 5751SOL    HW117277   1.551   6.286  11.717
 5751SOL    HW217278   1.632   6.277  11.575
 5752SOL     OW17279   0.354   7.096  12.501
 5752SOL    HW117280   0.333   7.052  12.414
 5752SOL    HW217281   0.451   7.122  12.504
 5753SOL     OW17282   0.402   6.337  12.770
 5753SOL    HW117283   0.470   6.392  12.723
 5753SOL    HW217284   0.442   6.249  12.797
 5754SOL     OW17285   1.587   6.365  12.842
 5754SOL    HW117286   1.495   6.403  12.837
 5754SOL    HW217287   1.647   6.412  12.777
 5755SOL     OW17288   0.573   6.456  12.201
 5755SOL    HW117289   0.617   6.545  12.192
 5755SOL    HW217290   0.510   6.456  12.278
 5756SOL     OW17291   1.360   6.448  12.217
 5756SOL    HW117292   1.285   6.448  12.151
 5756SOL    HW217293   1.397   6.356  12.226
 5757SOL     OW17294   1.209   6.111  11.447
 5757SOL    HW117295   1.222   6.027  11.501
 5757SOL    HW217296   1.180   6.185  11.507
 5758SOL     OW17297   0.307   5.799  12.403
 5758SOL    HW117298   0.284   5.836  12.493
 5758SOL    HW217299   0.277   5.704  12.397
 5759SOL     OW17300   0.037   6.896  12.454
 5759SOL    HW117301   0.090   6.847  12.522
 5759SOL    HW217302   0.059   6.994  12.459
 5760SOL     OW17303   0.732   6.220  12.236
 5760SOL    HW117304   0.791   6.194  12.160
 5760SOL    HW217305   0.704   6.316  12.225
 5761SOL     OW17306   0.307   5.649  11.790
 5761SOL    HW117307   0.296   5.743  11.823
 5761SOL    HW217308   0.302   5.586  11.867
 5762SOL     OW17309   1.622   5.953  11.546
 5762SOL    HW117310   1.624   5.877  11.610
 5762SOL    HW217311   1.574   6.030  11.586
 5763SOL     OW17312   1.023   6.352  12.138
 5763SOL    HW117313   1.038   6.373  12.234
 5763SOL    HW217314   0.993   6.257  12.129
 5764SOL     OW17315   1.540   5.860  11.297
 5764SOL    HW117316   1.479   5.785  11.320
 5764SOL    HW217317   1.562   5.912  11.380
 5765SOL     OW17318   1.303   6.424  11.214
 5765SOL    HW117319   1.337   6.331  11.229
 5765SOL    HW217320   1.321   6.451  11.119
 5766SOL     OW17321   1.068   6.919  12.021
 5766SOL    HW117322   1.075   6.835  11.966
 5766SOL    HW217323   1.130   6.988  11.985
 5767SOL     OW17324   0.319   6.396  12.121
 5767SOL    HW117325   0.412   6.432  12.126
 5767SOL    HW217326   0.313   6.311  12.173
 5768SOL     OW17327   0.339   6.095  12.178
 5768SOL    HW117328   0.287   6.012  12.161
 5768SOL    HW217329   0.416   6.100  12.114
 5769SOL     OW17330   1.160   5.793  12.649
 5769SOL    HW117331   1.160   5.857  12.726
 5769SOL    HW217332   1.188   5.841  12.566
 5770SOL     OW17333   0.008   6.912  11.372
 5770SOL    HW117334  -0.085   6.933  11.341
 5770SOL    HW217335   0.018   6.813  11.385
 5771SOL     OW17336   0.088   7.387  12.099
 5771SOL    HW117337   0.046   7.301  12.072
 5771SOL    HW217338   0.182   7.390  12.065
 5772SOL     OW17339   0.504   7.154  12.082
 5772SOL    HW117340   0.570   7.228  12.091
 5772SOL    HW217341   0.548   7.075  12.040
 5773SOL     OW17342   1.002   6.382  12.410
 5773SOL    HW117343   1.043   6.350  12.496
 5773SOL    HW217344   0.906   6.355  12.407
 5774SOL     OW17345   0.040   6.130  12.286
 5774SOL    HW117346   0.125   6.097  12.245
 5774SOL    HW217347   0.053   6.145  12.384
 5775SOL     OW17348   0.815   6.158  11.497
 5775SOL    HW117349   0.822   6.069  11.451
 5775SOL    HW217350   0.721   6.192  11.489
 5776SOL     OW17351   1.657   6.190  12.378
 5776SOL    HW117352   1.619   6.121  12.440
 5776SOL    HW217353   1.739   6.154  12.334
 5777SOL     OW17354   0.252   7.150  12.916
 5777SOL    HW117355   0.222   7.207  12.992
 5777SOL    HW217356   0.245   7.053  12.942
 5778SOL     OW17357   0.671   6.050  12.441
 5778SOL    HW117358   0.637   5.961  12.411
 5778SOL    HW217359   0.697   6.104  12.361
 5779SOL     OW17360   0.930   7.264  12.637
 5779SOL    HW117361   0.906   7.246  12.542
 5779SOL    HW217362   0.960   7.358  12.647
 5780SOL     OW17363   0.473   6.086  11.363
 5780SOL    HW117364   0.534   6.166  11.367
 5780SOL    HW217365   0.378   6.117  11.370
 5781SOL     OW17366   0.159   6.723  12.638
 5781SOL    HW117367   0.181   6.662  12.714
 5781SOL    HW217368   0.169   6.674  12.552
 5782SOL     OW17369   1.347   6.645  12.406
 5782SOL    HW117370   1.371   6.582  12.332
 5782SOL    HW217371   1.257   6.685  12.388
 5783SOL     OW17372   1.302   6.441  11.481
 5783SOL    HW117373   1.216   6.410  11.523
 5783SOL    HW217374   1.298   6.427  11.382
 5784SOL     OW17375   1.759   7.333  12.326
 5784SOL    HW117376   1.820   7.363  12.253
 5784SOL    HW217377   1.721   7.244  12.304
 5785SOL     OW17378   1.252   7.317  12.300
 5785SOL    HW117379   1.336   7.322  12.246
 5785SOL    HW217380   1.229   7.221  12.318
 5786SOL     OW17381   0.083   6.844  12.194
 5786SOL    HW117382   0.078   6.843  12.294
 5786SOL    HW217383   0.000   6.803  12.156
 5787SOL     OW17384   1.726   5.721  11.695
 5787SOL    HW117385   1.799   5.704  11.628
 5787SOL    HW217386   1.695   5.634  11.733
 5788SOL     OW17387   1.388   7.159  11.649
 5788SOL    HW117388   1.455   7.171  11.575
 5788SOL    HW217389   1.348   7.248  11.672
 5789SOL     OW17390   1.280   6.513  11.844
 5789SOL    HW117391   1.340   6.432  11.846
 5789SOL    HW217392   1.320   6.582  11.784
 5790SOL     OW17393   0.830   6.859  12.594
 5790SOL    HW117394   0.825   6.892  12.689
 5790SOL    HW217395   0.744   6.878  12.548
 5791SOL     OW17396   0.672   7.202  11.326
 5791SOL    HW117397   0.681   7.212  11.227
 5791SOL    HW217398   0.632   7.113  11.347
 5792SOL     OW17399   1.650   7.306  12.566
 5792SOL    HW117400   1.703   7.316  12.482
 5792SOL    HW217401   1.623   7.396  12.600
 5793SOL     OW17402   1.841   5.761  12.135
 5793SOL    HW117403   1.880   5.676  12.099
 5793SOL    HW217404   1.743   5.763  12.116
 5794SOL     OW17405   0.263   5.912  11.892
 5794SOL    HW117406   0.184   5.963  11.858
 5794SOL    HW217407   0.254   5.897  11.990
 5795SOL     OW17408   1.194   7.198  11.203
 5795SOL    HW117409   1.200   7.105  11.240
 5795SOL    HW217410   1.135   7.198  11.123
 5796SOL     OW17411   0.822   6.588  12.544
 5796SOL    HW117412   0.862   6.587  12.452
 5796SOL    HW217413   0.832   6.680  12.584
 5797SOL     OW17414   0.916   6.496  11.463
 5797SOL    HW117415   0.979   6.534  11.395
 5797SOL    HW217416   0.956   6.413  11.502
 5798SOL     OW17417   1.504   7.193  11.216
 5798SOL    HW117418   1.412   7.230  11.223
 5798SOL    HW217419   1.542   7.213  11.126
 5799SOL     OW17420   0.372   6.874  12.662
 5799SOL    HW117421   0.359   6.967  12.628
 5799SOL    HW217422   0.288   6.822  12.649
 5800SOL     OW17423   1.614   6.878  12.461
 5800SOL    HW117424   1.674   6.881  12.541
 5800SOL    HW217425   1.539   6.942  12.474
 5801SOL     OW17426   1.039   6.684  11.868
 5801SOL    HW117427   0.969   6.637  11.922
 5801SOL    HW217428   1.098   6.616  11.825
 5802SOL     OW17429   1.014   5.822  12.143
 5802SOL    HW117430   1.006   5.786  12.050
 5802SOL    HW217431   1.012   5.746  12.208
 5803SOL     OW17432   0.590   7.073  11.663
 5803SOL    HW117433   0.632   7.015  11.593
 5803SOL    HW217434   0.546   7.152  11.619
 5804SOL     OW17435   1.709   5.971  12.553
 5804SOL    HW117436   1.782   6.040  12.557
 5804SOL    HW217437   1.737   5.896  12.494
 5805SOL     OW17438   0.255   6.934  11.462
 5805SOL    HW117439   0.159   6.935  11.435
 5805SOL    HW217440   0.267   6.987  11.546
 5806SOL     OW17441   0.105   6.599  12.898
 5806SOL    HW117442   0.028   6.566  12.952
 5806SOL    HW217443   0.190   6.569  12.940
 5807SOL     OW17444   0.672   5.789  12.661
 5807SOL    HW117445   0.762   5.773  12.621
 5807SOL    HW217446   0.680   5.794  12.760
 5808SOL     OW17447   0.075   5.931  11.205
 5808SOL    HW117448  -0.017   5.903  11.176
 5808SOL    HW217449   0.106   6.008  11.149
 5809SOL     OW17450   1.440   6.442  12.570
 5809SOL    HW117451   1.383   6.494  12.507
 5809SOL    HW217452   1.536   6.454  12.546
 5810SOL     OW17453   0.072   5.752  11.490
 5810SOL    HW117454   0.055   5.835  11.436
 5810SOL    HW217455   0.162   5.715  11.468
 5811SOL     OW17456   1.183   6.921  11.291
 5811SOL    HW117457   1.084   6.910  11.293
 5811SOL    HW217458   1.217   6.936  11.384
 5812SOL     OW17459   0.613   6.428  12.603
 5812SOL    HW117460   0.669   6.509  12.586
 5812SOL    HW217461   0.672   6.348  12.606
 5813SOL     OW17462   1.493   7.353  12.131
 5813SOL    HW117463   1.526   7.417  12.062
 5813SOL    HW217464   1.559   7.347  12.206
 5814SOL     OW17465   0.716   6.151  12.880
 5814SOL    HW117466   0.735   6.216  12.954
 5814SOL    HW217467   0.776   6.071  12.889
 5815SOL     OW17468   0.390   7.327  12.732
 5815SOL    HW117469   0.299   7.368  12.730
 5815SOL    HW217470   0.383   7.233  12.764
 5816SOL     OW17471   1.674   6.469  12.426
 5816SOL    HW117472   1.647   6.380  12.389
 5816SOL    HW217473   1.675   6.537  12.353
 5817SOL     OW17474   1.225   5.911  11.621
 5817SOL    HW117475   1.290   5.837  11.610
 5817SOL    HW217476   1.245   5.961  11.705
 5818SOL     OW17477   0.594   6.331  11.824
 5818SOL    HW117478   0.644   6.416  11.805
 5818SOL    HW217479   0.506   6.333  11.776
 5819SOL     OW17480   1.777   5.928  12.814
 5819SOL    HW117481   1.760   5.959  12.720
 5819SOL    HW217482   1.693   5.891  12.852
 5820SOL     OW17483   1.730   6.520  12.689
 5820SOL    HW117484   1.768   6.611  12.704
 5820SOL    HW217485   1.722   6.503  12.590
 5821SOL     OW17486   0.859   6.960  11.188
 5821SOL    HW117487   0.813   6.975  11.276
 5821SOL    HW217488   0.903   7.045  11.158
 5822SOL     OW17489   0.661   7.376  12.125
 5822SOL    HW117490   0.615   7.464  12.112
 5822SOL    HW217491   0.760   7.388  12.118
 5823SOL     OW17492   0.859   6.542  12.033
 5823SOL    HW117493   0.913   6.473  12.081
 5823SOL    HW217494   0.827   6.611  12.099
 5824SOL     OW17495   1.083   6.570  11.259
 5824SOL    HW117496   1.060   6.623  11.177
 5824SOL    HW217497   1.164   6.514  11.240
 5825SOL     OW17498   1.861   7.155  12.023
 5825SOL    HW117499   1.790   7.143  11.953
 5825SOL    HW217500   1.862   7.076  12.083
 5826SOL     OW17501   0.079   6.826  11.825
 5826SOL    HW117502   0.078   6.779  11.913
 5826SOL    HW217503   0.161   6.798  11.774
 5827SOL     OW17504   0.672   6.977  12.796
 5827SOL    HW117505   0.594   6.927  12.834
 5827SOL    HW217506   0.669   7.072  12.827
 5828SOL     OW17507   1.824   5.778  12.399
 5828SOL    HW117508   1.820   5.688  12.443
 5828SOL    HW217509   1.827   5.767  12.300
 5829SOL     OW17510   0.428   6.010  11.692
 5829SOL    HW117511   0.458   5.938  11.630
 5829SOL    HW217512   0.389   5.970  11.775
 5830SOL     OW17513   1.705   7.073  12.276
 5830SOL    HW117514   1.612   7.048  12.249
 5830SOL    HW217515   1.731   7.023  12.358
 5831SOL     OW17516   0.317   6.133  12.452
 5831SOL    HW117517   0.355   6.074  12.524
 5831SOL    HW217518   0.357   6.107  12.364
 5832SOL     OW17519   0.812   7.172  11.859
 5832SOL    HW117520   0.844   7.182  11.765
 5832SOL    HW217521   0.733   7.110  11.861
 5833SOL     OW17522   1.424   5.800  12.284
 5833SOL    HW117523   1.476   5.735  12.339
 5833SOL    HW217524   1.375   5.863  12.345
 5834SOL     OW17525   1.001   5.620  12.326
 5834SOL    HW117526   0.938   5.548  12.295
 5834SOL    HW217527   1.094   5.584  12.326
 5835SOL     OW17528   0.770   6.916  11.473
 5835SOL    HW117529   0.724   6.829  11.490
 5835SOL    HW217530   0.861   6.913  11.514
 5836SOL     OW17531   0.618   7.153  12.456
 5836SOL    HW117532   0.613   7.235  12.513
 5836SOL    HW217533   0.707   7.150  12.411
 5837SOL     OW17534   1.352   5.638  11.340
 5837SOL    HW117535   1.387   5.597  11.256
 5837SOL    HW217536   1.262   5.600  11.360
 5838SOL     OW17537   1.300   6.039  11.863
 5838SOL    HW117538   1.241   6.119  11.867
 5838SOL    HW217539   1.315   6.004  11.956
 5839SOL     OW17540   1.593   5.807  12.054
 5839SOL    HW117541   1.509   5.806  12.108
 5839SOL    HW217542   1.595   5.890  11.998
 5840SOL     OW17543   0.039   6.663  11.472
 5840SOL    HW117544   0.138   6.652  11.463
 5840SOL    HW217545  -0.001   6.577  11.504
 5841SOL     OW17546   0.875   7.232  11.509
 5841SOL    HW117547   0.798   7.197  11.455
 5841SOL    HW217548   0.843   7.303  11.571
 5842SOL     OW17549   0.230   8.076   0.113
 5842SOL    HW117550   0.137   8.074   0.150
 5842SOL    HW217551   0.231   8.037   0.021
 5843SOL     OW17552   0.225   7.723   0.996
 5843SOL    HW117553   0.260   7.706   1.088
 5843SOL    HW217554   0.137   7.678   0.984
 5844SOL     OW17555   0.019   7.816   0.647
 5844SOL    HW117556  -0.063   7.859   0.686
 5844SOL    HW217557  -0.009   7.743   0.584
 5845SOL     OW17558   0.569   8.723   1.165
 5845SOL    HW117559   0.476   8.716   1.128
 5845SOL    HW217560   0.580   8.812   1.209
 5846SOL     OW17561   1.555   8.959   0.703
 5846SOL    HW117562   1.498   8.943   0.784
 5846SOL    HW217563   1.496   8.969   0.623
 5847SOL     OW17564   1.135   8.151   0.717
 5847SOL    HW117565   1.192   8.229   0.692
 5847SOL    HW217566   1.075   8.177   0.793
 5848SOL     OW17567   1.755   8.055   0.231
 5848SOL    HW117568   1.743   8.042   0.132
 5848SOL    HW217569   1.725   7.974   0.280
 5849SOL     OW17570   0.768   8.592   1.023
 5849SOL    HW117571   0.690   8.609   1.083
 5849SOL    HW217572   0.802   8.679   0.987
 5850SOL     OW17573   0.850   8.246   1.823
 5850SOL    HW117574   0.846   8.322   1.888
 5850SOL    HW217575   0.872   8.282   1.732
 5851SOL     OW17576   0.685   8.460   0.665
 5851SOL    HW117577   0.754   8.444   0.735
 5851SOL    HW217578   0.612   8.517   0.703
 5852SOL     OW17579   0.686   8.609   1.803
 5852SOL    HW117580   0.746   8.688   1.817
 5852SOL    HW217581   0.600   8.640   1.762
 5853SOL     OW17582   0.335   8.883   1.061
 5853SOL    HW117583   0.257   8.852   1.008
 5853SOL    HW217584   0.393   8.941   1.004
 5854SOL     OW17585   1.460   8.953   1.339
 5854SOL    HW117586   1.484   9.047   1.365
 5854SOL    HW217587   1.444   8.899   1.421
 5855SOL     OW17588   0.438   7.840   1.499
 5855SOL    HW117589   0.520   7.784   1.508
 5855SOL    HW217590   0.357   7.782   1.503
 5856SOL     OW17591   1.603   7.895   0.737
 5856SOL    HW117592   1.529   7.941   0.687
 5856SOL    HW217593   1.654   7.963   0.790
 5857SOL     OW17594   0.231   9.161   0.483
 5857SOL    HW117595   0.265   9.238   0.537
 5857SOL    HW217596   0.275   9.161   0.393
 5858SOL     OW17597   1.127   8.789   1.690
 5858SOL    HW117598   1.174   8.789   1.778
 5858SOL    HW217599   1.079   8.702   1.679
 5859SOL     OW17600   0.230   8.882   0.538
 5859SOL    HW117601   0.204   8.978   0.538
 5859SOL    HW217602   0.159   8.828   0.583
 5860SOL     OW17603   0.240   8.539   0.886
 5860SOL    HW117604   0.254   8.455   0.938
 5860SOL    HW217605   0.185   8.603   0.941
 5861SOL     OW17606   0.620   9.234   1.439
 5861SOL    HW117607   0.528   9.217   1.474
 5861SOL    HW217608   0.648   9.326   1.465
 5862SOL     OW17609   0.606   8.412   0.123
 5862SOL    HW117610   0.613   8.496   0.069
 5862SOL    HW217611   0.652   8.425   0.211
 5863SOL     OW17612   1.594   7.562   1.480
 5863SOL    HW117613   1.576   7.629   1.408
 5863SOL    HW217614   1.591   7.608   1.569
 5864SOL     OW17615   0.122   8.091   0.563
 5864SOL    HW117616   0.077   8.003   0.580
 5864SOL    HW217617   0.121   8.145   0.647
 5865SOL     OW17618   1.842   9.215   0.359
 5865SOL    HW117619   1.896   9.186   0.439
 5865SOL    HW217620   1.872   9.305   0.330
 5866SOL     OW17621   0.027   9.044   0.117
 5866SOL    HW117622   0.008   8.948   0.138
 5866SOL    HW217623  -0.006   9.102   0.192
 5867SOL     OW17624   1.689   8.370   0.612
 5867SOL    HW117625   1.784   8.341   0.620
 5867SOL    HW217626   1.681   8.435   0.537
 5868SOL     OW17627   1.641   8.556   0.432
 5868SOL    HW117628   1.727   8.558   0.380
 5868SOL    HW217629   1.655   8.603   0.520
 5869SOL     OW17630   0.113   8.185   1.597
 5869SOL    HW117631   0.201   8.172   1.642
 5869SOL    HW217632   0.100   8.282   1.575
 5870SOL     OW17633   0.613   8.813   0.726
 5870SOL    HW117634   0.564   8.726   0.735
 5870SOL    HW217635   0.590   8.856   0.639
 5871SOL     OW17636   1.293   8.676   1.423
 5871SOL    HW117637   1.330   8.603   1.365
 5871SOL    HW217638   1.345   8.681   1.508
 5872SOL     OW17639   0.809   7.452   0.502
 5872SOL    HW117640   0.849   7.543   0.493
 5872SOL    HW217641   0.709   7.460   0.508
 5873SOL     OW17642   0.197   8.424   1.264
 5873SOL    HW117643   0.286   8.379   1.250
 5873SOL    HW217644   0.124   8.359   1.245
 5874SOL     OW17645   1.525   8.447   0.190
 5874SOL    HW117646   1.462   8.371   0.203
 5874SOL    HW217647   1.573   8.465   0.276
 5875SOL     OW17648   1.187   9.240   1.616
 5875SOL    HW117649   1.211   9.300   1.540
 5875SOL    HW217650   1.194   9.145   1.586
 5876SOL     OW17651   0.317   7.699   1.801
 5876SOL    HW117652   0.388   7.770   1.807
 5876SOL    HW217653   0.229   7.738   1.829
 5877SOL     OW17654   1.466   8.865   0.953
 5877SOL    HW117655   1.407   8.871   1.033
 5877SOL    HW217656   1.451   8.777   0.907
 5878SOL     OW17657   1.667   9.162   0.572
 5878SOL    HW117658   1.626   9.139   0.484
 5878SOL    HW217659   1.649   9.088   0.637
 5879SOL     OW17660   0.598   8.177   0.270
 5879SOL    HW117661   0.622   8.246   0.202
 5879SOL    HW217662   0.520   8.210   0.324
 5880SOL     OW17663   1.281   7.793   0.944
 5880SOL    HW117664   1.195   7.743   0.931
 5880SOL    HW217665   1.343   7.739   1.000
 5881SOL     OW17666   1.576   9.110   0.307
 5881SOL    HW117667   1.665   9.156   0.310
 5881SOL    HW217668   1.555   9.086   0.212
 5882SOL     OW17669   0.807   8.053   1.465
 5882SOL    HW117670   0.760   8.050   1.554
 5882SOL    HW217671   0.756   7.998   1.399
 5883SOL     OW17672   1.394   7.917   1.674
 5883SOL    HW117673   1.374   7.960   1.762
 5883SOL    HW217674   1.472   7.855   1.683
 5884SOL     OW17675   0.973   8.338   1.572
 5884SOL    HW117676   1.019   8.254   1.543
 5884SOL    HW217677   0.917   8.372   1.497
 5885SOL     OW17678   0.991   7.858   1.242
 5885SOL    HW117679   0.914   7.892   1.296
 5885SOL    HW217680   0.957   7.807   1.163
 5886SOL     OW17681   1.041   8.149   0.429
 5886SOL    HW117682   1.067   8.145   0.525
 5886SOL    HW217683   0.956   8.098   0.415
 5887SOL     OW17684   0.076   8.259   0.789
 5887SOL    HW117685   0.175   8.247   0.798
 5887SOL    HW217686   0.052   8.354   0.810
 5888SOL     OW17687   0.130   9.269   1.571
 5888SOL    HW117688   0.120   9.254   1.670
 5888SOL    HW217689   0.044   9.305   1.535
 5889SOL     OW17690   0.865   7.796   0.195
 5889SOL    HW117691   0.924   7.859   0.146
 5889SOL    HW217692   0.884   7.702   0.166
 5890SOL     OW17693   1.719   8.033   1.831
 5890SOL    HW117694   1.693   8.122   1.795
 5890SOL    HW217695   1.717   7.965   1.758
 5891SOL     OW17696   1.362   8.592   0.545
 5891SOL    HW117697   1.445   8.563   0.497
 5891SOL    HW217698   1.313   8.659   0.489
 5892SOL     OW17699   0.550   7.644   0.885
 5892SOL    HW117700   0.545   7.639   0.985
 5892SOL    HW217701   0.552   7.740   0.856
 5893SOL     OW17702   1.008   8.904   0.477
 5893SOL    HW117703   0.962   8.976   0.425
 5893SOL    HW217704   1.004   8.924   0.575
 5894SOL     OW17705   0.351   9.249   0.853
 5894SOL    HW117706   0.401   9.163   0.859
 5894SOL    HW217707   0.416   9.326   0.850
 5895SOL     OW17708   1.795   8.514   0.873
 5895SOL    HW117709   1.733   8.499   0.797
 5895SOL    HW217710   1.743   8.525   0.958
 5896SOL     OW17711   1.227   8.998   1.506
 5896SOL    HW117712   1.233   8.921   1.570
 5896SOL    HW217713   1.175   8.972   1.426
 5897SOL     OW17714   0.321   8.391   0.242
 5897SOL    HW117715   0.403   8.430   0.200
 5897SOL    HW217716   0.294   8.309   0.193
 5898SOL     OW17717   1.458   8.183   0.728
 5898SOL    HW117718   1.453   8.118   0.803
 5898SOL    HW217719   1.538   8.242   0.741
 5899SOL     OW17720   0.461   8.714   1.727
 5899SOL    HW117721   0.411   8.715   1.641
 5899SOL    HW217722   0.398   8.696   1.803
 5900SOL     OW17723   1.111   9.224   0.237
 5900SOL    HW117724   1.051   9.162   0.287
 5900SOL    HW217725   1.142   9.180   0.152
 5901SOL     OW17726   0.202   7.733   1.498
 5901SOL    HW117727   0.122   7.793   1.485
 5901SOL    HW217728   0.192   7.684   1.584
 5902SOL     OW17729   1.632   8.825   0.081
 5902SOL    HW117730   1.600   8.919   0.071
 5902SOL    HW217731   1.556   8.762   0.069
 5903SOL     OW17732   0.464   9.191   0.323
 5903SOL    HW117733   0.497   9.230   0.409
 5903SOL    HW217734   0.540   9.184   0.258
 5904SOL     OW17735   1.400   7.555   0.426
 5904SOL    HW117736   1.376   7.518   0.336
 5904SOL    HW217737   1.499   7.571   0.430
 5905SOL     OW17738   0.249   9.233   1.241
 5905SOL    HW117739   0.306   9.168   1.291
 5905SOL    HW217740   0.233   9.200   1.148
 5906SOL     OW17741   0.940   9.146   0.904
 5906SOL    HW117742   1.020   9.089   0.925
 5906SOL    HW217743   0.891   9.106   0.827
 5907SOL     OW17744   0.382   8.148   0.480
 5907SOL    HW117745   0.427   8.058   0.477
 5907SOL    HW217746   0.288   8.137   0.513
 5908SOL     OW17747   1.547   7.670   1.729
 5908SOL    HW117748   1.542   7.707   1.821
 5908SOL    HW217749   1.475   7.601   1.717
 5909SOL     OW17750   0.614   7.570   0.117
 5909SOL    HW117751   0.712   7.548   0.124
 5909SOL    HW217752   0.583   7.553   0.024
 5910SOL     OW17753   0.781   7.712   1.749
 5910SOL    HW117754   0.848   7.651   1.792
 5910SOL    HW217755   0.708   7.731   1.814
 5911SOL     OW17756   0.888   8.962   1.195
 5911SOL    HW117757   0.865   8.937   1.101
 5911SOL    HW217758   0.949   8.893   1.234
 5912SOL     OW17759   1.351   8.038   1.433
 5912SOL    HW117760   1.379   7.995   1.518
 5912SOL    HW217761   1.376   8.134   1.434
 5913SOL     OW17762   0.803   8.850   0.924
 5913SOL    HW117763   0.893   8.864   0.882
 5913SOL    HW217764   0.732   8.852   0.853
 5914SOL     OW17765   0.922   7.951   0.899
 5914SOL    HW117766   0.897   7.942   0.803
 5914SOL    HW217767   0.970   7.869   0.930
 5915SOL     OW17768   0.539   7.512   0.512
 5915SOL    HW117769   0.458   7.513   0.570
 5915SOL    HW217770   0.542   7.595   0.457
 5916SOL     OW17771   1.434   8.636   0.041
 5916SOL    HW117772   1.466   8.560   0.098
 5916SOL    HW217773   1.342   8.663   0.071
 5917SOL     OW17774   0.297   7.483   0.171
 5917SOL    HW117775   0.346   7.567   0.150
 5917SOL    HW217776   0.359   7.418   0.216
 5918SOL     OW17777   0.935   7.684   0.480
 5918SOL    HW117778   0.887   7.725   0.402
 5918SOL    HW217779   1.034   7.682   0.461
 5919SOL     OW17780   1.076   8.131   1.464
 5919SOL    HW117781   0.996   8.070   1.467
 5919SOL    HW217782   1.157   8.078   1.440
 5920SOL     OW17783   1.227   9.018   0.793
 5920SOL    HW117784   1.248   9.092   0.728
 5920SOL    HW217785   1.295   9.018   0.866
 5921SOL     OW17786   0.459   8.600   0.741
 5921SOL    HW117787   0.388   8.573   0.806
 5921SOL    HW217788   0.433   8.572   0.648
 5922SOL     OW17789   1.271   9.245   0.591
 5922SOL    HW117790   1.315   9.309   0.527
 5922SOL    HW217791   1.221   9.297   0.661
 5923SOL     OW17792   1.032   7.997   0.016
 5923SOL    HW117793   0.991   8.079  -0.023
 5923SOL    HW217794   1.096   8.023   0.089
 5924SOL     OW17795   0.078   8.004   1.386
 5924SOL    HW117796   0.170   8.003   1.345
 5924SOL    HW217797   0.072   8.078   1.453
 5925SOL     OW17798   0.561   7.670   1.147
 5925SOL    HW117799   0.599   7.586   1.184
 5925SOL    HW217800   0.473   7.689   1.191
 5926SOL     OW17801   0.866   7.902   0.642
 5926SOL    HW117802   0.834   7.974   0.580
 5926SOL    HW217803   0.890   7.821   0.589
 5927SOL     OW17804   1.017   7.487   0.753
 5927SOL    HW117805   0.945   7.492   0.684
 5927SOL    HW217806   0.993   7.418   0.822
 5928SOL     OW17807   1.429   8.621   0.867
 5928SOL    HW117808   1.374   8.537   0.860
 5928SOL    HW217809   1.455   8.650   0.775
 5929SOL     OW17810   1.466   8.038   0.992
 5929SOL    HW117811   1.436   7.943   0.999
 5929SOL    HW217812   1.539   8.054   1.058
 5930SOL     OW17813   1.857   8.281   0.377
 5930SOL    HW117814   1.899   8.217   0.441
 5930SOL    HW217815   1.819   8.230   0.299
 5931SOL     OW17816   0.488   8.833   0.174
 5931SOL    HW117817   0.401   8.818   0.221
 5931SOL    HW217818   0.471   8.859   0.079
 5932SOL     OW17819   1.664   8.728   0.657
 5932SOL    HW117820   1.763   8.736   0.671
 5932SOL    HW217821   1.619   8.812   0.688
 5933SOL     OW17822   1.390   8.023   0.078
 5933SOL    HW117823   1.336   8.002   0.159
 5933SOL    HW217824   1.481   7.982   0.087
 5934SOL     OW17825   0.527   7.704   0.328
 5934SOL    HW117826   0.554   7.645   0.253
 5934SOL    HW217827   0.527   7.799   0.297
 5935SOL     OW17828   1.754   8.671   1.588
 5935SOL    HW117829   1.845   8.632   1.575
 5935SOL    HW217830   1.762   8.767   1.612
 5936SOL     OW17831   1.064   8.795   1.340
 5936SOL    HW117832   0.984   8.772   1.395
 5936SOL    HW217833   1.147   8.769   1.389
 5937SOL     OW17834   1.592   9.077   1.625
 5937SOL    HW117835   1.619   9.111   1.535
 5937SOL    HW217836   1.671   9.039   1.671
 5938SOL     OW17837   1.111   8.643   1.100
 5938SOL    HW117838   1.071   8.687   1.181
 5938SOL    HW217839   1.070   8.680   1.017
 5939SOL     OW17840   1.638   8.547   1.079
 5939SOL    HW117841   1.643   8.628   1.138
 5939SOL    HW217842   1.552   8.549   1.028
 5940SOL     OW17843   0.915   7.537   1.402
 5940SOL    HW117844   0.940   7.517   1.307
 5940SOL    HW217845   0.987   7.593   1.444
 5941SOL     OW17846   0.980   8.564   1.719
 5941SOL    HW117847   0.881   8.570   1.729
 5941SOL    HW217848   1.003   8.484   1.663
 5942SOL     OW17849   0.705   8.498   0.368
 5942SOL    HW117850   0.691   8.505   0.467
 5942SOL    HW217851   0.789   8.447   0.350
 5943SOL     OW17852   0.410   8.261   1.251
 5943SOL    HW117853   0.496   8.273   1.301
 5943SOL    HW217854   0.368   8.174   1.278
 5944SOL     OW17855   1.274   7.834   1.262
 5944SOL    HW117856   1.295   7.908   1.326
 5944SOL    HW217857   1.185   7.851   1.219
 5945SOL     OW17858   0.064   9.012   1.331
 5945SOL    HW117859   0.018   9.094   1.297
 5945SOL    HW217860   0.162   9.031   1.340
 5946SOL     OW17861   0.367   8.548   0.501
 5946SOL    HW117862   0.360   8.631   0.445
 5946SOL    HW217863   0.371   8.468   0.441
 5947SOL     OW17864   0.566   7.985   0.865
 5947SOL    HW117865   0.578   8.051   0.791
 5947SOL    HW217866   0.612   8.019   0.948
 5948SOL     OW17867   1.252   8.796   0.388
 5948SOL    HW117868   1.302   8.873   0.428
 5948SOL    HW217869   1.157   8.798   0.420
 5949SOL     OW17870   1.272   8.893   1.142
 5949SOL    HW117871   1.319   8.906   1.229
 5949SOL    HW217872   1.206   8.819   1.151
 5950SOL     OW17873   1.582   8.087   0.472
 5950SOL    HW117874   1.551   8.148   0.545
 5950SOL    HW217875   1.632   8.139   0.403
 5951SOL     OW17876   0.354   8.958   1.329
 5951SOL    HW117877   0.333   8.914   1.242
 5951SOL    HW217878   0.451   8.984   1.332
 5952SOL     OW17879   0.402   8.199   1.598
 5952SOL    HW117880   0.470   8.254   1.551
 5952SOL    HW217881   0.442   8.111   1.625
 5953SOL     OW17882   1.587   8.227   1.670
 5953SOL    HW117883   1.495   8.265   1.665
 5953SOL    HW217884   1.647   8.274   1.605
 5954SOL     OW17885   1.013   7.553   1.770
 5954SOL    HW117886   1.019   7.638   1.718
 5954SOL    HW217887   1.045   7.477   1.713
 5955SOL     OW17888   0.504   7.498   1.740
 5955SOL    HW117889   0.462   7.441   1.670
 5955SOL    HW217890   0.438   7.567   1.772
 5956SOL     OW17891   0.573   8.318   1.029
 5956SOL    HW117892   0.617   8.407   1.020
 5956SOL    HW217893   0.510   8.318   1.106
 5957SOL     OW17894   1.360   8.310   1.045
 5957SOL    HW117895   1.285   8.310   0.979
 5957SOL    HW217896   1.397   8.218   1.054
 5958SOL     OW17897   1.209   7.973   0.275
 5958SOL    HW117898   1.222   7.889   0.329
 5958SOL    HW217899   1.180   8.047   0.335
 5959SOL     OW17900   0.307   7.661   1.231
 5959SOL    HW117901   0.284   7.698   1.321
 5959SOL    HW217902   0.277   7.566   1.225
 5960SOL     OW17903   0.037   8.758   1.282
 5960SOL    HW117904   0.090   8.709   1.350
 5960SOL    HW217905   0.059   8.856   1.287
 5961SOL     OW17906   0.732   8.082   1.064
 5961SOL    HW117907   0.791   8.056   0.988
 5961SOL    HW217908   0.704   8.178   1.053
 5962SOL     OW17909   1.728   8.383   1.854
 5962SOL    HW117910   1.682   8.376   1.765
 5962SOL    HW217911   1.666   8.427   1.920
 5963SOL     OW17912   0.307   7.511   0.618
 5963SOL    HW117913   0.296   7.605   0.651
 5963SOL    HW217914   0.302   7.448   0.695
 5964SOL     OW17915   1.622   7.815   0.374
 5964SOL    HW117916   1.624   7.739   0.438
 5964SOL    HW217917   1.574   7.892   0.414
 5965SOL     OW17918   1.023   8.214   0.966
 5965SOL    HW117919   1.038   8.235   1.062
 5965SOL    HW217920   0.993   8.119   0.957
 5966SOL     OW17921   0.980   9.021   1.700
 5966SOL    HW117922   0.960   9.065   1.612
 5966SOL    HW217923   1.019   8.930   1.684
 5967SOL     OW17924   1.859   8.966   1.605
 5967SOL    HW117925   1.873   8.993   1.510
 5967SOL    HW217926   1.942   8.988   1.658
 5968SOL     OW17927   0.350   8.346   1.804
 5968SOL    HW117928   0.426   8.390   1.852
 5968SOL    HW217929   0.385   8.299   1.722
 5969SOL     OW17930   1.540   7.722   0.125
 5969SOL    HW117931   1.479   7.647   0.148
 5969SOL    HW217932   1.562   7.774   0.208
 5970SOL     OW17933   1.303   8.286   0.042
 5970SOL    HW117934   1.337   8.193   0.057
 5970SOL    HW217935   1.321   8.313  -0.053
 5971SOL     OW17936   1.068   8.781   0.849
 5971SOL    HW117937   1.075   8.697   0.794
 5971SOL    HW217938   1.130   8.850   0.813
 5972SOL     OW17939   0.319   8.258   0.949
 5972SOL    HW117940   0.412   8.294   0.954
 5972SOL    HW217941   0.313   8.173   1.001
 5973SOL     OW17942   0.339   7.957   1.006
 5973SOL    HW117943   0.287   7.874   0.989
 5973SOL    HW217944   0.416   7.962   0.942
 5974SOL     OW17945   1.138   7.828   1.678
 5974SOL    HW117946   1.093   7.891   1.742
 5974SOL    HW217947   1.231   7.859   1.661
 5975SOL     OW17948   1.160   7.655   1.477
 5975SOL    HW117949   1.160   7.719   1.554
 5975SOL    HW217950   1.188   7.703   1.394
 5976SOL     OW17951   0.008   8.774   0.200
 5976SOL    HW117952  -0.085   8.795   0.169
 5976SOL    HW217953   0.018   8.675   0.213
 5977SOL     OW17954   0.088   9.249   0.927
 5977SOL    HW117955   0.046   9.163   0.900
 5977SOL    HW217956   0.182   9.252   0.893
 5978SOL     OW17957   0.504   9.016   0.910
 5978SOL    HW117958   0.570   9.090   0.919
 5978SOL    HW217959   0.548   8.937   0.868
 5979SOL     OW17960   1.002   8.244   1.238
 5979SOL    HW117961   1.043   8.212   1.324
 5979SOL    HW217962   0.906   8.217   1.235
 5980SOL     OW17963   0.040   7.992   1.114
 5980SOL    HW117964   0.125   7.959   1.073
 5980SOL    HW217965   0.053   8.007   1.212
 5981SOL     OW17966   0.189   7.968   1.722
 5981SOL    HW117967   0.248   7.928   1.652
 5981SOL    HW217968   0.131   8.039   1.681
 5982SOL     OW17969   1.369   8.398   1.660
 5982SOL    HW117970   1.408   8.487   1.680
 5982SOL    HW217971   1.379   8.378   1.563
 5983SOL     OW17972   0.815   8.020   0.325
 5983SOL    HW117973   0.822   7.931   0.279
 5983SOL    HW217974   0.721   8.054   0.317
 5984SOL     OW17975   1.657   8.052   1.206
 5984SOL    HW117976   1.619   7.983   1.268
 5984SOL    HW217977   1.739   8.016   1.162
 5985SOL     OW17978   0.252   9.012   1.744
 5985SOL    HW117979   0.222   9.069   1.820
 5985SOL    HW217980   0.245   8.915   1.770
 5986SOL     OW17981   0.671   7.912   1.269
 5986SOL    HW117982   0.637   7.823   1.239
 5986SOL    HW217983   0.697   7.966   1.189
 5987SOL     OW17984   0.930   9.126   1.465
 5987SOL    HW117985   0.906   9.108   1.370
 5987SOL    HW217986   0.960   9.220   1.475
 5988SOL     OW17987   0.473   7.948   0.191
 5988SOL    HW117988   0.534   8.028   0.195
 5988SOL    HW217989   0.378   7.979   0.198
 5989SOL     OW17990   0.159   8.585   1.466
 5989SOL    HW117991   0.181   8.524   1.542
 5989SOL    HW217992   0.169   8.536   1.380
 5990SOL     OW17993   1.347   8.507   1.234
 5990SOL    HW117994   1.371   8.444   1.160
 5990SOL    HW217995   1.257   8.547   1.216
 5991SOL     OW17996   1.302   8.303   0.309
 5991SOL    HW117997   1.216   8.272   0.351
 5991SOL    HW217998   1.298   8.289   0.210
 5992SOL     OW17999   1.759   9.195   1.154
 5992SOL    HW118000   1.820   9.225   1.081
 5992SOL    HW218001   1.721   9.106   1.132
 5993SOL     OW18002   1.252   9.179   1.128
 5993SOL    HW118003   1.336   9.184   1.074
 5993SOL    HW218004   1.229   9.083   1.146
 5994SOL     OW18005   0.083   8.706   1.022
 5994SOL    HW118006   0.078   8.705   1.122
 5994SOL    HW218007   0.000   8.665   0.984
 5995SOL     OW18008   0.688   9.110   1.716
 5995SOL    HW118009   0.632   9.191   1.725
 5995SOL    HW218010   0.740   9.114   1.630
 5996SOL     OW18011   0.903   7.534   0.133
 5996SOL    HW118012   0.954   7.535   0.047
 5996SOL    HW218013   0.959   7.492   0.204
 5997SOL     OW18014   1.726   7.583   0.523
 5997SOL    HW118015   1.799   7.566   0.456
 5997SOL    HW218016   1.695   7.496   0.561
 5998SOL     OW18017   1.388   9.021   0.477
 5998SOL    HW118018   1.455   9.033   0.403
 5998SOL    HW218019   1.348   9.110   0.500
 5999SOL     OW18020   0.130   9.242   1.851
 5999SOL    HW118021   0.089   9.168   1.904
 5999SOL    HW218022   0.194   9.293   1.909
 6000SOL     OW18023   1.280   8.375   0.672
 6000SOL    HW118024   1.340   8.294   0.674
 6000SOL    HW218025   1.320   8.444   0.612
 6001SOL     OW18026   0.830   8.721   1.422
 6001SOL    HW118027   0.825   8.754   1.517
 6001SOL    HW218028   0.744   8.740   1.376
 6002SOL     OW18029   0.672   9.064   0.154
 6002SOL    HW118030   0.681   9.074   0.055
 6002SOL    HW218031   0.632   8.975   0.175
 6003SOL     OW18032   1.650   9.168   1.394
 6003SOL    HW118033   1.703   9.178   1.310
 6003SOL    HW218034   1.623   9.258   1.428
 6004SOL     OW18035   1.841   7.623   0.963
 6004SOL    HW118036   1.880   7.538   0.927
 6004SOL    HW218037   1.743   7.625   0.944
 6005SOL     OW18038   0.263   7.774   0.720
 6005SOL    HW118039   0.184   7.825   0.686
 6005SOL    HW218040   0.254   7.759   0.818
 6006SOL     OW18041   1.194   9.060   0.031
 6006SOL    HW118042   1.200   8.967   0.068
 6006SOL    HW218043   1.135   9.060  -0.049
 6007SOL     OW18044   0.822   8.450   1.372
 6007SOL    HW118045   0.862   8.449   1.280
 6007SOL    HW218046   0.832   8.542   1.412
 6008SOL     OW18047   0.916   8.358   0.291
 6008SOL    HW118048   0.979   8.396   0.223
 6008SOL    HW218049   0.956   8.275   0.330
 6009SOL     OW18050   1.504   9.055   0.044
 6009SOL    HW118051   1.412   9.092   0.051
 6009SOL    HW218052   1.542   9.075  -0.046
 6010SOL     OW18053   0.372   8.736   1.490
 6010SOL    HW118054   0.359   8.829   1.456
 6010SOL    HW218055   0.288   8.684   1.477
 6011SOL     OW18056   1.614   8.740   1.289
 6011SOL    HW118057   1.674   8.743   1.369
 6011SOL    HW218058   1.539   8.804   1.302
 6012SOL     OW18059   1.039   8.546   0.696
 6012SOL    HW118060   0.969   8.499   0.750
 6012SOL    HW218061   1.098   8.478   0.653
 6013SOL     OW18062   1.014   7.684   0.971
 6013SOL    HW118063   1.006   7.648   0.878
 6013SOL    HW218064   1.012   7.608   1.036
 6014SOL     OW18065   0.590   8.935   0.491
 6014SOL    HW118066   0.632   8.877   0.421
 6014SOL    HW218067   0.546   9.014   0.447
 6015SOL     OW18068   1.709   7.833   1.381
 6015SOL    HW118069   1.782   7.902   1.385
 6015SOL    HW218070   1.737   7.758   1.322
 6016SOL     OW18071   0.255   8.796   0.290
 6016SOL    HW118072   0.159   8.797   0.263
 6016SOL    HW218073   0.267   8.849   0.374
 6017SOL     OW18074   0.105   8.461   1.726
 6017SOL    HW118075   0.028   8.428   1.780
 6017SOL    HW218076   0.190   8.431   1.768
 6018SOL     OW18077   0.672   7.651   1.489
 6018SOL    HW118078   0.762   7.635   1.449
 6018SOL    HW218079   0.680   7.656   1.588
 6019SOL     OW18080   0.075   7.793   0.033
 6019SOL    HW118081  -0.017   7.765   0.004
 6019SOL    HW218082   0.106   7.870  -0.023
 6020SOL     OW18083   1.440   8.304   1.398
 6020SOL    HW118084   1.383   8.356   1.335
 6020SOL    HW218085   1.536   8.316   1.374
 6021SOL     OW18086   0.072   7.614   0.318
 6021SOL    HW118087   0.055   7.697   0.264
 6021SOL    HW218088   0.162   7.577   0.296
 6022SOL     OW18089   1.183   8.783   0.119
 6022SOL    HW118090   1.084   8.772   0.121
 6022SOL    HW218091   1.217   8.798   0.212
 6023SOL     OW18092   0.613   8.290   1.431
 6023SOL    HW118093   0.669   8.371   1.414
 6023SOL    HW218094   0.672   8.210   1.434
 6024SOL     OW18095   1.493   9.215   0.959
 6024SOL    HW118096   1.526   9.279   0.890
 6024SOL    HW218097   1.559   9.209   1.034
 6025SOL     OW18098   0.716   8.013   1.708
 6025SOL    HW118099   0.735   8.078   1.782
 6025SOL    HW218100   0.776   7.933   1.717
 6026SOL     OW18101   1.450   8.668   1.633
 6026SOL    HW118102   1.441   8.658   1.732
 6026SOL    HW218103   1.546   8.661   1.607
 6027SOL     OW18104   0.390   9.189   1.560
 6027SOL    HW118105   0.299   9.230   1.558
 6027SOL    HW218106   0.383   9.095   1.592
 6028SOL     OW18107   1.674   8.331   1.254
 6028SOL    HW118108   1.647   8.242   1.217
 6028SOL    HW218109   1.675   8.399   1.181
 6029SOL     OW18110   1.225   7.773   0.449
 6029SOL    HW118111   1.290   7.699   0.438
 6029SOL    HW218112   1.245   7.823   0.533
 6030SOL     OW18113   0.594   8.193   0.652
 6030SOL    HW118114   0.644   8.278   0.633
 6030SOL    HW218115   0.506   8.195   0.604
 6031SOL     OW18116   1.777   7.790   1.642
 6031SOL    HW118117   1.760   7.821   1.548
 6031SOL    HW218118   1.693   7.753   1.680
 6032SOL     OW18119   1.730   8.382   1.517
 6032SOL    HW118120   1.768   8.473   1.532
 6032SOL    HW218121   1.722   8.365   1.418
 6033SOL     OW18122   0.859   8.822   0.016
 6033SOL    HW118123   0.813   8.837   0.104
 6033SOL    HW218124   0.903   8.907  -0.014
 6034SOL     OW18125   0.661   9.238   0.953
 6034SOL    HW118126   0.615   9.326   0.940
 6034SOL    HW218127   0.760   9.250   0.946
 6035SOL     OW18128   0.859   8.404   0.861
 6035SOL    HW118129   0.913   8.335   0.909
 6035SOL    HW218130   0.827   8.473   0.927
 6036SOL     OW18131   1.083   8.432   0.087
 6036SOL    HW118132   1.060   8.485   0.005
 6036SOL    HW218133   1.164   8.376   0.068
 6037SOL     OW18134   1.861   9.017   0.851
 6037SOL    HW118135   1.790   9.005   0.781
 6037SOL    HW218136   1.862   8.938   0.911
 6038SOL     OW18137   0.221   8.762   1.844
 6038SOL    HW118138   0.156   8.689   1.823
 6038SOL    HW218139   0.225   8.776   1.942
 6039SOL     OW18140   0.079   8.688   0.653
 6039SOL    HW118141   0.078   8.641   0.741
 6039SOL    HW218142   0.161   8.660   0.602
 6040SOL     OW18143   0.672   8.839   1.624
 6040SOL    HW118144   0.594   8.789   1.662
 6040SOL    HW218145   0.669   8.934   1.655
 6041SOL     OW18146   1.824   7.640   1.227
 6041SOL    HW118147   1.820   7.550   1.271
 6041SOL    HW218148   1.827   7.629   1.128
 6042SOL     OW18149   0.428   7.872   0.520
 6042SOL    HW118150   0.458   7.800   0.458
 6042SOL    HW218151   0.389   7.832   0.603
 6043SOL     OW18152   1.705   8.935   1.104
 6043SOL    HW118153   1.612   8.910   1.077
 6043SOL    HW218154   1.731   8.885   1.186
 6044SOL     OW18155   0.317   7.995   1.280
 6044SOL    HW118156   0.355   7.936   1.352
 6044SOL    HW218157   0.357   7.969   1.192
 6045SOL     OW18158   0.812   9.034   0.687
 6045SOL    HW118159   0.844   9.044   0.593
 6045SOL    HW218160   0.733   8.972   0.689
 6046SOL     OW18161   1.424   7.662   1.112
 6046SOL    HW118162   1.476   7.597   1.167
 6046SOL    HW218163   1.375   7.725   1.173
 6047SOL     OW18164   1.001   7.482   1.154
 6047SOL    HW118165   0.938   7.410   1.123
 6047SOL    HW218166   1.094   7.446   1.154
 6048SOL     OW18167   0.770   8.778   0.301
 6048SOL    HW118168   0.724   8.691   0.318
 6048SOL    HW218169   0.861   8.775   0.342
 6049SOL     OW18170   0.618   9.015   1.284
 6049SOL    HW118171   0.613   9.097   1.341
 6049SOL    HW218172   0.707   9.012   1.239
 6050SOL     OW18173   1.352   7.500   0.168
 6050SOL    HW118174   1.387   7.459   0.084
 6050SOL    HW218175   1.262   7.462   0.188
 6051SOL     OW18176   1.300   7.901   0.691
 6051SOL    HW118177   1.241   7.981   0.695
 6051SOL    HW218178   1.315   7.866   0.784
 6052SOL     OW18179   1.593   7.669   0.882
 6052SOL    HW118180   1.509   7.668   0.936
 6052SOL    HW218181   1.595   7.752   0.826
 6053SOL     OW18182   0.039   8.525   0.300
 6053SOL    HW118183   0.138   8.514   0.291
 6053SOL    HW218184  -0.001   8.439   0.332
 6054SOL     OW18185   0.875   9.094   0.337
 6054SOL    HW118186   0.798   9.059   0.283
 6054SOL    HW218187   0.843   9.165   0.399
 6055SOL     OW18188   0.230   8.076   1.975
 6055SOL    HW118189   0.137   8.074   2.012
 6055SOL    HW218190   0.231   8.037   1.883
 6056SOL     OW18191   0.225   7.723   2.858
 6056SOL    HW118192   0.260   7.706   2.950
 6056SOL    HW218193   0.137   7.678   2.846
 6057SOL     OW18194   0.019   7.816   2.509
 6057SOL    HW118195  -0.063   7.859   2.548
 6057SOL    HW218196  -0.009   7.743   2.446
 6058SOL     OW18197   0.569   8.723   3.027
 6058SOL    HW118198   0.476   8.716   2.990
 6058SOL    HW218199   0.580   8.812   3.071
 6059SOL     OW18200   1.555   8.959   2.565
 6059SOL    HW118201   1.498   8.943   2.646
 6059SOL    HW218202   1.496   8.969   2.485
 6060SOL     OW18203   1.135   8.151   2.579
 6060SOL    HW118204   1.192   8.229   2.554
 6060SOL    HW218205   1.075   8.177   2.655
 6061SOL     OW18206   1.755   8.055   2.093
 6061SOL    HW118207   1.743   8.042   1.994
 6061SOL    HW218208   1.725   7.974   2.142
 6062SOL     OW18209   0.768   8.592   2.885
 6062SOL    HW118210   0.690   8.609   2.945
 6062SOL    HW218211   0.802   8.679   2.849
 6063SOL     OW18212   0.850   8.246   3.685
 6063SOL    HW118213   0.846   8.322   3.750
 6063SOL    HW218214   0.872   8.282   3.594
 6064SOL     OW18215   0.685   8.460   2.527
 6064SOL    HW118216   0.754   8.444   2.597
 6064SOL    HW218217   0.612   8.517   2.565
 6065SOL     OW18218   0.686   8.609   3.665
 6065SOL    HW118219   0.746   8.688   3.679
 6065SOL    HW218220   0.600   8.640   3.624
 6066SOL     OW18221   0.335   8.883   2.923
 6066SOL    HW118222   0.257   8.852   2.870
 6066SOL    HW218223   0.393   8.941   2.866
 6067SOL     OW18224   1.460   8.953   3.201
 6067SOL    HW118225   1.484   9.047   3.227
 6067SOL    HW218226   1.444   8.899   3.283
 6068SOL     OW18227   0.438   7.840   3.361
 6068SOL    HW118228   0.520   7.784   3.370
 6068SOL    HW218229   0.357   7.782   3.365
 6069SOL     OW18230   1.603   7.895   2.599
 6069SOL    HW118231   1.529   7.941   2.549
 6069SOL    HW218232   1.654   7.963   2.652
 6070SOL     OW18233   0.231   9.161   2.345
 6070SOL    HW118234   0.265   9.238   2.399
 6070SOL    HW218235   0.275   9.161   2.255
 6071SOL     OW18236   1.127   8.789   3.552
 6071SOL    HW118237   1.174   8.789   3.640
 6071SOL    HW218238   1.079   8.702   3.541
 6072SOL     OW18239   0.230   8.882   2.400
 6072SOL    HW118240   0.204   8.978   2.400
 6072SOL    HW218241   0.159   8.828   2.445
 6073SOL     OW18242   0.240   8.539   2.748
 6073SOL    HW118243   0.254   8.455   2.800
 6073SOL    HW218244   0.185   8.603   2.803
 6074SOL     OW18245   0.620   9.234   3.301
 6074SOL    HW118246   0.528   9.217   3.336
 6074SOL    HW218247   0.648   9.326   3.327
 6075SOL     OW18248   0.606   8.412   1.985
 6075SOL    HW118249   0.613   8.496   1.931
 6075SOL    HW218250   0.652   8.425   2.073
 6076SOL     OW18251   1.594   7.562   3.342
 6076SOL    HW118252   1.576   7.629   3.270
 6076SOL    HW218253   1.591   7.608   3.431
 6077SOL     OW18254   0.122   8.091   2.425
 6077SOL    HW118255   0.077   8.003   2.442
 6077SOL    HW218256   0.121   8.145   2.509
 6078SOL     OW18257   1.842   9.215   2.221
 6078SOL    HW118258   1.896   9.186   2.301
 6078SOL    HW218259   1.872   9.305   2.192
 6079SOL     OW18260   0.027   9.044   1.979
 6079SOL    HW118261   0.008   8.948   2.000
 6079SOL    HW218262  -0.006   9.102   2.054
 6080SOL     OW18263   1.689   8.370   2.474
 6080SOL    HW118264   1.784   8.341   2.482
 6080SOL    HW218265   1.681   8.435   2.399
 6081SOL     OW18266   1.641   8.556   2.294
 6081SOL    HW118267   1.727   8.558   2.242
 6081SOL    HW218268   1.655   8.603   2.382
 6082SOL     OW18269   0.113   8.185   3.459
 6082SOL    HW118270   0.201   8.172   3.504
 6082SOL    HW218271   0.100   8.282   3.437
 6083SOL     OW18272   0.613   8.813   2.588
 6083SOL    HW118273   0.564   8.726   2.597
 6083SOL    HW218274   0.590   8.856   2.501
 6084SOL     OW18275   1.293   8.676   3.285
 6084SOL    HW118276   1.330   8.603   3.227
 6084SOL    HW218277   1.345   8.681   3.370
 6085SOL     OW18278   0.809   7.452   2.364
 6085SOL    HW118279   0.849   7.543   2.355
 6085SOL    HW218280   0.709   7.460   2.370
 6086SOL     OW18281   0.197   8.424   3.126
 6086SOL    HW118282   0.286   8.379   3.112
 6086SOL    HW218283   0.124   8.359   3.107
 6087SOL     OW18284   1.525   8.447   2.052
 6087SOL    HW118285   1.462   8.371   2.065
 6087SOL    HW218286   1.573   8.465   2.138
 6088SOL     OW18287   1.187   9.240   3.478
 6088SOL    HW118288   1.211   9.300   3.402
 6088SOL    HW218289   1.194   9.145   3.448
 6089SOL     OW18290   0.317   7.699   3.663
 6089SOL    HW118291   0.388   7.770   3.669
 6089SOL    HW218292   0.229   7.738   3.691
 6090SOL     OW18293   1.466   8.865   2.815
 6090SOL    HW118294   1.407   8.871   2.895
 6090SOL    HW218295   1.451   8.777   2.769
 6091SOL     OW18296   1.667   9.162   2.434
 6091SOL    HW118297   1.626   9.139   2.346
 6091SOL    HW218298   1.649   9.088   2.499
 6092SOL     OW18299   0.598   8.177   2.132
 6092SOL    HW118300   0.622   8.246   2.064
 6092SOL    HW218301   0.520   8.210   2.186
 6093SOL     OW18302   1.281   7.793   2.806
 6093SOL    HW118303   1.195   7.743   2.793
 6093SOL    HW218304   1.343   7.739   2.862
 6094SOL     OW18305   1.576   9.110   2.169
 6094SOL    HW118306   1.665   9.156   2.172
 6094SOL    HW218307   1.555   9.086   2.074
 6095SOL     OW18308   0.807   8.053   3.327
 6095SOL    HW118309   0.760   8.050   3.416
 6095SOL    HW218310   0.756   7.998   3.261
 6096SOL     OW18311   1.394   7.917   3.536
 6096SOL    HW118312   1.374   7.960   3.624
 6096SOL    HW218313   1.472   7.855   3.545
 6097SOL     OW18314   0.973   8.338   3.434
 6097SOL    HW118315   1.019   8.254   3.405
 6097SOL    HW218316   0.917   8.372   3.359
 6098SOL     OW18317   0.991   7.858   3.104
 6098SOL    HW118318   0.914   7.892   3.158
 6098SOL    HW218319   0.957   7.807   3.025
 6099SOL     OW18320   1.041   8.149   2.291
 6099SOL    HW118321   1.067   8.145   2.387
 6099SOL    HW218322   0.956   8.098   2.277
 6100SOL     OW18323   0.076   8.259   2.651
 6100SOL    HW118324   0.175   8.247   2.660
 6100SOL    HW218325   0.052   8.354   2.672
 6101SOL     OW18326   0.130   9.269   3.433
 6101SOL    HW118327   0.120   9.254   3.532
 6101SOL    HW218328   0.044   9.305   3.397
 6102SOL     OW18329   0.865   7.796   2.057
 6102SOL    HW118330   0.924   7.859   2.008
 6102SOL    HW218331   0.884   7.702   2.028
 6103SOL     OW18332   1.719   8.033   3.693
 6103SOL    HW118333   1.693   8.122   3.657
 6103SOL    HW218334   1.717   7.965   3.620
 6104SOL     OW18335   1.362   8.592   2.407
 6104SOL    HW118336   1.445   8.563   2.359
 6104SOL    HW218337   1.313   8.659   2.351
 6105SOL     OW18338   0.550   7.644   2.747
 6105SOL    HW118339   0.545   7.639   2.847
 6105SOL    HW218340   0.552   7.740   2.718
 6106SOL     OW18341   1.008   8.904   2.339
 6106SOL    HW118342   0.962   8.976   2.287
 6106SOL    HW218343   1.004   8.924   2.437
 6107SOL     OW18344   0.351   9.249   2.715
 6107SOL    HW118345   0.401   9.163   2.721
 6107SOL    HW218346   0.416   9.326   2.712
 6108SOL     OW18347   1.795   8.514   2.735
 6108SOL    HW118348   1.733   8.499   2.659
 6108SOL    HW218349   1.743   8.525   2.820
 6109SOL     OW18350   1.227   8.998   3.368
 6109SOL    HW118351   1.233   8.921   3.432
 6109SOL    HW218352   1.175   8.972   3.288
 6110SOL     OW18353   0.321   8.391   2.104
 6110SOL    HW118354   0.403   8.430   2.062
 6110SOL    HW218355   0.294   8.309   2.055
 6111SOL     OW18356   1.458   8.183   2.590
 6111SOL    HW118357   1.453   8.118   2.665
 6111SOL    HW218358   1.538   8.242   2.603
 6112SOL     OW18359   0.461   8.714   3.589
 6112SOL    HW118360   0.411   8.715   3.503
 6112SOL    HW218361   0.398   8.696   3.665
 6113SOL     OW18362   1.111   9.224   2.099
 6113SOL    HW118363   1.051   9.162   2.149
 6113SOL    HW218364   1.142   9.180   2.014
 6114SOL     OW18365   0.202   7.733   3.360
 6114SOL    HW118366   0.122   7.793   3.347
 6114SOL    HW218367   0.192   7.684   3.446
 6115SOL     OW18368   1.632   8.825   1.943
 6115SOL    HW118369   1.600   8.919   1.933
 6115SOL    HW218370   1.556   8.762   1.931
 6116SOL     OW18371   0.464   9.191   2.185
 6116SOL    HW118372   0.497   9.230   2.271
 6116SOL    HW218373   0.540   9.184   2.120
 6117SOL     OW18374   1.400   7.555   2.288
 6117SOL    HW118375   1.376   7.518   2.198
 6117SOL    HW218376   1.499   7.571   2.292
 6118SOL     OW18377   0.249   9.233   3.103
 6118SOL    HW118378   0.306   9.168   3.153
 6118SOL    HW218379   0.233   9.200   3.010
 6119SOL     OW18380   0.940   9.146   2.766
 6119SOL    HW118381   1.020   9.089   2.787
 6119SOL    HW218382   0.891   9.106   2.689
 6120SOL     OW18383   0.382   8.148   2.342
 6120SOL    HW118384   0.427   8.058   2.339
 6120SOL    HW218385   0.288   8.137   2.375
 6121SOL     OW18386   1.547   7.670   3.591
 6121SOL    HW118387   1.542   7.707   3.683
 6121SOL    HW218388   1.475   7.601   3.579
 6122SOL     OW18389   0.614   7.570   1.979
 6122SOL    HW118390   0.712   7.548   1.986
 6122SOL    HW218391   0.583   7.553   1.886
 6123SOL     OW18392   0.781   7.712   3.611
 6123SOL    HW118393   0.848   7.651   3.654
 6123SOL    HW218394   0.708   7.731   3.676
 6124SOL     OW18395   0.888   8.962   3.057
 6124SOL    HW118396   0.865   8.937   2.963
 6124SOL    HW218397   0.949   8.893   3.096
 6125SOL     OW18398   1.351   8.038   3.295
 6125SOL    HW118399   1.379   7.995   3.380
 6125SOL    HW218400   1.376   8.134   3.296
 6126SOL     OW18401   0.803   8.850   2.786
 6126SOL    HW118402   0.893   8.864   2.744
 6126SOL    HW218403   0.732   8.852   2.715
 6127SOL     OW18404   0.922   7.951   2.761
 6127SOL    HW118405   0.897   7.942   2.665
 6127SOL    HW218406   0.970   7.869   2.792
 6128SOL     OW18407   0.539   7.512   2.374
 6128SOL    HW118408   0.458   7.513   2.432
 6128SOL    HW218409   0.542   7.595   2.319
 6129SOL     OW18410   1.434   8.636   1.903
 6129SOL    HW118411   1.466   8.560   1.960
 6129SOL    HW218412   1.342   8.663   1.933
 6130SOL     OW18413   0.297   7.483   2.033
 6130SOL    HW118414   0.346   7.567   2.012
 6130SOL    HW218415   0.359   7.418   2.078
 6131SOL     OW18416   0.935   7.684   2.342
 6131SOL    HW118417   0.887   7.725   2.264
 6131SOL    HW218418   1.034   7.682   2.323
 6132SOL     OW18419   1.076   8.131   3.326
 6132SOL    HW118420   0.996   8.070   3.329
 6132SOL    HW218421   1.157   8.078   3.302
 6133SOL     OW18422   1.227   9.018   2.655
 6133SOL    HW118423   1.248   9.092   2.590
 6133SOL    HW218424   1.295   9.018   2.728
 6134SOL     OW18425   0.459   8.600   2.603
 6134SOL    HW118426   0.388   8.573   2.668
 6134SOL    HW218427   0.433   8.572   2.510
 6135SOL     OW18428   1.271   9.245   2.453
 6135SOL    HW118429   1.315   9.309   2.389
 6135SOL    HW218430   1.221   9.297   2.523
 6136SOL     OW18431   1.032   7.997   1.878
 6136SOL    HW118432   0.991   8.079   1.839
 6136SOL    HW218433   1.096   8.023   1.951
 6137SOL     OW18434   0.078   8.004   3.248
 6137SOL    HW118435   0.170   8.003   3.207
 6137SOL    HW218436   0.072   8.078   3.315
 6138SOL     OW18437   0.561   7.670   3.009
 6138SOL    HW118438   0.599   7.586   3.046
 6138SOL    HW218439   0.473   7.689   3.053
 6139SOL     OW18440   0.866   7.902   2.504
 6139SOL    HW118441   0.834   7.974   2.442
 6139SOL    HW218442   0.890   7.821   2.451
 6140SOL     OW18443   1.017   7.487   2.615
 6140SOL    HW118444   0.945   7.492   2.546
 6140SOL    HW218445   0.993   7.418   2.684
 6141SOL     OW18446   1.429   8.621   2.729
 6141SOL    HW118447   1.374   8.537   2.722
 6141SOL    HW218448   1.455   8.650   2.637
 6142SOL     OW18449   1.466   8.038   2.854
 6142SOL    HW118450   1.436   7.943   2.861
 6142SOL    HW218451   1.539   8.054   2.920
 6143SOL     OW18452   1.857   8.281   2.239
 6143SOL    HW118453   1.899   8.217   2.303
 6143SOL    HW218454   1.819   8.230   2.161
 6144SOL     OW18455   0.488   8.833   2.036
 6144SOL    HW118456   0.401   8.818   2.083
 6144SOL    HW218457   0.471   8.859   1.941
 6145SOL     OW18458   1.664   8.728   2.519
 6145SOL    HW118459   1.763   8.736   2.533
 6145SOL    HW218460   1.619   8.812   2.550
 6146SOL     OW18461   1.390   8.023   1.940
 6146SOL    HW118462   1.336   8.002   2.021
 6146SOL    HW218463   1.481   7.982   1.949
 6147SOL     OW18464   0.527   7.704   2.190
 6147SOL    HW118465   0.554   7.645   2.115
 6147SOL    HW218466   0.527   7.799   2.159
 6148SOL     OW18467   1.754   8.671   3.450
 6148SOL    HW118468   1.845   8.632   3.437
 6148SOL    HW218469   1.762   8.767   3.474
 6149SOL     OW18470   1.064   8.795   3.202
 6149SOL    HW118471   0.984   8.772   3.257
 6149SOL    HW218472   1.147   8.769   3.251
 6150SOL     OW18473   1.592   9.077   3.487
 6150SOL    HW118474   1.619   9.111   3.397
 6150SOL    HW218475   1.671   9.039   3.533
 6151SOL     OW18476   1.111   8.643   2.962
 6151SOL    HW118477   1.071   8.687   3.043
 6151SOL    HW218478   1.070   8.680   2.879
 6152SOL     OW18479   1.638   8.547   2.941
 6152SOL    HW118480   1.643   8.628   3.000
 6152SOL    HW218481   1.552   8.549   2.890
 6153SOL     OW18482   0.915   7.537   3.264
 6153SOL    HW118483   0.940   7.517   3.169
 6153SOL    HW218484   0.987   7.593   3.306
 6154SOL     OW18485   0.980   8.564   3.581
 6154SOL    HW118486   0.881   8.570   3.591
 6154SOL    HW218487   1.003   8.484   3.525
 6155SOL     OW18488   0.705   8.498   2.230
 6155SOL    HW118489   0.691   8.505   2.329
 6155SOL    HW218490   0.789   8.447   2.212
 6156SOL     OW18491   0.410   8.261   3.113
 6156SOL    HW118492   0.496   8.273   3.163
 6156SOL    HW218493   0.368   8.174   3.140
 6157SOL     OW18494   1.274   7.834   3.124
 6157SOL    HW118495   1.295   7.908   3.188
 6157SOL    HW218496   1.185   7.851   3.081
 6158SOL     OW18497   0.064   9.012   3.193
 6158SOL    HW118498   0.018   9.094   3.159
 6158SOL    HW218499   0.162   9.031   3.202
 6159SOL     OW18500   0.367   8.548   2.363
 6159SOL    HW118501   0.360   8.631   2.307
 6159SOL    HW218502   0.371   8.468   2.303
 6160SOL     OW18503   0.566   7.985   2.727
 6160SOL    HW118504   0.578   8.051   2.653
 6160SOL    HW218505   0.612   8.019   2.810
 6161SOL     OW18506   1.252   8.796   2.250
 6161SOL    HW118507   1.302   8.873   2.290
 6161SOL    HW218508   1.157   8.798   2.282
 6162SOL     OW18509   1.272   8.893   3.004
 6162SOL    HW118510   1.319   8.906   3.091
 6162SOL    HW218511   1.206   8.819   3.013
 6163SOL     OW18512   1.582   8.087   2.334
 6163SOL    HW118513   1.551   8.148   2.407
 6163SOL    HW218514   1.632   8.139   2.265
 6164SOL     OW18515   0.354   8.958   3.191
 6164SOL    HW118516   0.333   8.914   3.104
 6164SOL    HW218517   0.451   8.984   3.194
 6165SOL     OW18518   0.402   8.199   3.460
 6165SOL    HW118519   0.470   8.254   3.413
 6165SOL    HW218520   0.442   8.111   3.487
 6166SOL     OW18521   1.587   8.227   3.532
 6166SOL    HW118522   1.495   8.265   3.527
 6166SOL    HW218523   1.647   8.274   3.467
 6167SOL     OW18524   1.013   7.553   3.632
 6167SOL    HW118525   1.019   7.638   3.580
 6167SOL    HW218526   1.045   7.477   3.575
 6168SOL     OW18527   0.504   7.498   3.602
 6168SOL    HW118528   0.462   7.441   3.532
 6168SOL    HW218529   0.438   7.567   3.634
 6169SOL     OW18530   0.573   8.318   2.891
 6169SOL    HW118531   0.617   8.407   2.882
 6169SOL    HW218532   0.510   8.318   2.968
 6170SOL     OW18533   1.360   8.310   2.907
 6170SOL    HW118534   1.285   8.310   2.841
 6170SOL    HW218535   1.397   8.218   2.916
 6171SOL     OW18536   1.209   7.973   2.137
 6171SOL    HW118537   1.222   7.889   2.191
 6171SOL    HW218538   1.180   8.047   2.197
 6172SOL     OW18539   0.307   7.661   3.093
 6172SOL    HW118540   0.284   7.698   3.183
 6172SOL    HW218541   0.277   7.566   3.087
 6173SOL     OW18542   0.037   8.758   3.144
 6173SOL    HW118543   0.090   8.709   3.212
 6173SOL    HW218544   0.059   8.856   3.149
 6174SOL     OW18545   0.732   8.082   2.926
 6174SOL    HW118546   0.791   8.056   2.850
 6174SOL    HW218547   0.704   8.178   2.915
 6175SOL     OW18548   1.728   8.383   3.716
 6175SOL    HW118549   1.682   8.376   3.627
 6175SOL    HW218550   1.666   8.427   3.782
 6176SOL     OW18551   0.307   7.511   2.480
 6176SOL    HW118552   0.296   7.605   2.513
 6176SOL    HW218553   0.302   7.448   2.557
 6177SOL     OW18554   1.622   7.815   2.236
 6177SOL    HW118555   1.624   7.739   2.300
 6177SOL    HW218556   1.574   7.892   2.276
 6178SOL     OW18557   1.023   8.214   2.828
 6178SOL    HW118558   1.038   8.235   2.924
 6178SOL    HW218559   0.993   8.119   2.819
 6179SOL     OW18560   0.980   9.021   3.562
 6179SOL    HW118561   0.960   9.065   3.474
 6179SOL    HW218562   1.019   8.930   3.546
 6180SOL     OW18563   1.859   8.966   3.467
 6180SOL    HW118564   1.873   8.993   3.372
 6180SOL    HW218565   1.942   8.988   3.520
 6181SOL     OW18566   0.350   8.346   3.666
 6181SOL    HW118567   0.426   8.390   3.714
 6181SOL    HW218568   0.385   8.299   3.584
 6182SOL     OW18569   1.540   7.722   1.987
 6182SOL    HW118570   1.479   7.647   2.010
 6182SOL    HW218571   1.562   7.774   2.070
 6183SOL     OW18572   1.303   8.286   1.904
 6183SOL    HW118573   1.337   8.193   1.919
 6183SOL    HW218574   1.321   8.313   1.809
 6184SOL     OW18575   1.068   8.781   2.711
 6184SOL    HW118576   1.075   8.697   2.656
 6184SOL    HW218577   1.130   8.850   2.675
 6185SOL     OW18578   0.319   8.258   2.811
 6185SOL    HW118579   0.412   8.294   2.816
 6185SOL    HW218580   0.313   8.173   2.863
 6186SOL     OW18581   0.339   7.957   2.868
 6186SOL    HW118582   0.287   7.874   2.851
 6186SOL    HW218583   0.416   7.962   2.804
 6187SOL     OW18584   1.138   7.828   3.540
 6187SOL    HW118585   1.093   7.891   3.604
 6187SOL    HW218586   1.231   7.859   3.523
 6188SOL     OW18587   1.160   7.655   3.339
 6188SOL    HW118588   1.160   7.719   3.416
 6188SOL    HW218589   1.188   7.703   3.256
 6189SOL     OW18590   0.008   8.774   2.062
 6189SOL    HW118591  -0.085   8.795   2.031
 6189SOL    HW218592   0.018   8.675   2.075
 6190SOL     OW18593   0.088   9.249   2.789
 6190SOL    HW118594   0.046   9.163   2.762
 6190SOL    HW218595   0.182   9.252   2.755
 6191SOL     OW18596   0.504   9.016   2.772
 6191SOL    HW118597   0.570   9.090   2.781
 6191SOL    HW218598   0.548   8.937   2.730
 6192SOL     OW18599   1.002   8.244   3.100
 6192SOL    HW118600   1.043   8.212   3.186
 6192SOL    HW218601   0.906   8.217   3.097
 6193SOL     OW18602   0.040   7.992   2.976
 6193SOL    HW118603   0.125   7.959   2.935
 6193SOL    HW218604   0.053   8.007   3.074
 6194SOL     OW18605   0.189   7.968   3.584
 6194SOL    HW118606   0.248   7.928   3.514
 6194SOL    HW218607   0.131   8.039   3.543
 6195SOL     OW18608   1.369   8.398   3.522
 6195SOL    HW118609   1.408   8.487   3.542
 6195SOL    HW218610   1.379   8.378   3.425
 6196SOL     OW18611   0.815   8.020   2.187
 6196SOL    HW118612   0.822   7.931   2.141
 6196SOL    HW218613   0.721   8.054   2.179
 6197SOL     OW18614   1.657   8.052   3.068
 6197SOL    HW118615   1.619   7.983   3.130
 6197SOL    HW218616   1.739   8.016   3.024
 6198SOL     OW18617   0.252   9.012   3.606
 6198SOL    HW118618   0.222   9.069   3.682
 6198SOL    HW218619   0.245   8.915   3.632
 6199SOL     OW18620   0.671   7.912   3.131
 6199SOL    HW118621   0.637   7.823   3.101
 6199SOL    HW218622   0.697   7.966   3.051
 6200SOL     OW18623   0.930   9.126   3.327
 6200SOL    HW118624   0.906   9.108   3.232
 6200SOL    HW218625   0.960   9.220   3.337
 6201SOL     OW18626   0.473   7.948   2.053
 6201SOL    HW118627   0.534   8.028   2.057
 6201SOL    HW218628   0.378   7.979   2.060
 6202SOL     OW18629   0.159   8.585   3.328
 6202SOL    HW118630   0.181   8.524   3.404
 6202SOL    HW218631   0.169   8.536   3.242
 6203SOL     OW18632   1.347   8.507   3.096
 6203SOL    HW118633   1.371   8.444   3.022
 6203SOL    HW218634   1.257   8.547   3.078
 6204SOL     OW18635   1.302   8.303   2.171
 6204SOL    HW118636   1.216   8.272   2.213
 6204SOL    HW218637   1.298   8.289   2.072
 6205SOL     OW18638   1.759   9.195   3.016
 6205SOL    HW118639   1.820   9.225   2.943
 6205SOL    HW218640   1.721   9.106   2.994
 6206SOL     OW18641   1.252   9.179   2.990
 6206SOL    HW118642   1.336   9.184   2.936
 6206SOL    HW218643   1.229   9.083   3.008
 6207SOL     OW18644   0.083   8.706   2.884
 6207SOL    HW118645   0.078   8.705   2.984
 6207SOL    HW218646   0.000   8.665   2.846
 6208SOL     OW18647   0.688   9.110   3.578
 6208SOL    HW118648   0.632   9.191   3.587
 6208SOL    HW218649   0.740   9.114   3.492
 6209SOL     OW18650   1.726   7.583   2.385
 6209SOL    HW118651   1.799   7.566   2.318
 6209SOL    HW218652   1.695   7.496   2.423
 6210SOL     OW18653   1.388   9.021   2.339
 6210SOL    HW118654   1.455   9.033   2.265
 6210SOL    HW218655   1.348   9.110   2.362
 6211SOL     OW18656   0.130   9.242   3.713
 6211SOL    HW118657   0.089   9.168   3.766
 6211SOL    HW218658   0.194   9.293   3.771
 6212SOL     OW18659   1.280   8.375   2.534
 6212SOL    HW118660   1.340   8.294   2.536
 6212SOL    HW218661   1.320   8.444   2.474
 6213SOL     OW18662   0.830   8.721   3.284
 6213SOL    HW118663   0.825   8.754   3.379
 6213SOL    HW218664   0.744   8.740   3.238
 6214SOL     OW18665   0.672   9.064   2.016
 6214SOL    HW118666   0.681   9.074   1.917
 6214SOL    HW218667   0.632   8.975   2.037
 6215SOL     OW18668   1.650   9.168   3.256
 6215SOL    HW118669   1.703   9.178   3.172
 6215SOL    HW218670   1.623   9.258   3.290
 6216SOL     OW18671   1.841   7.623   2.825
 6216SOL    HW118672   1.880   7.538   2.789
 6216SOL    HW218673   1.743   7.625   2.806
 6217SOL     OW18674   0.263   7.774   2.582
 6217SOL    HW118675   0.184   7.825   2.548
 6217SOL    HW218676   0.254   7.759   2.680
 6218SOL     OW18677   1.194   9.060   1.893
 6218SOL    HW118678   1.200   8.967   1.930
 6218SOL    HW218679   1.135   9.060   1.813
 6219SOL     OW18680   0.822   8.450   3.234
 6219SOL    HW118681   0.862   8.449   3.142
 6219SOL    HW218682   0.832   8.542   3.274
 6220SOL     OW18683   0.916   8.358   2.153
 6220SOL    HW118684   0.979   8.396   2.085
 6220SOL    HW218685   0.956   8.275   2.192
 6221SOL     OW18686   1.504   9.055   1.906
 6221SOL    HW118687   1.412   9.092   1.913
 6221SOL    HW218688   1.542   9.075   1.816
 6222SOL     OW18689   0.372   8.736   3.352
 6222SOL    HW118690   0.359   8.829   3.318
 6222SOL    HW218691   0.288   8.684   3.339
 6223SOL     OW18692   1.614   8.740   3.151
 6223SOL    HW118693   1.674   8.743   3.231
 6223SOL    HW218694   1.539   8.804   3.164
 6224SOL     OW18695   1.039   8.546   2.558
 6224SOL    HW118696   0.969   8.499   2.612
 6224SOL    HW218697   1.098   8.478   2.515
 6225SOL     OW18698   1.014   7.684   2.833
 6225SOL    HW118699   1.006   7.648   2.740
 6225SOL    HW218700   1.012   7.608   2.898
 6226SOL     OW18701   0.590   8.935   2.353
 6226SOL    HW118702   0.632   8.877   2.283
 6226SOL    HW218703   0.546   9.014   2.309
 6227SOL     OW18704   1.709   7.833   3.243
 6227SOL    HW118705   1.782   7.902   3.247
 6227SOL    HW218706   1.737   7.758   3.184
 6228SOL     OW18707   0.255   8.796   2.152
 6228SOL    HW118708   0.159   8.797   2.125
 6228SOL    HW218709   0.267   8.849   2.236
 6229SOL     OW18710   0.105   8.461   3.588
 6229SOL    HW118711   0.028   8.428   3.642
 6229SOL    HW218712   0.190   8.431   3.630
 6230SOL     OW18713   0.672   7.651   3.351
 6230SOL    HW118714   0.762   7.635   3.311
 6230SOL    HW218715   0.680   7.656   3.450
 6231SOL     OW18716   0.075   7.793   1.895
 6231SOL    HW118717  -0.017   7.765   1.866
 6231SOL    HW218718   0.106   7.870   1.839
 6232SOL     OW18719   1.440   8.304   3.260
 6232SOL    HW118720   1.383   8.356   3.197
 6232SOL    HW218721   1.536   8.316   3.236
 6233SOL     OW18722   0.072   7.614   2.180
 6233SOL    HW118723   0.055   7.697   2.126
 6233SOL    HW218724   0.162   7.577   2.158
 6234SOL     OW18725   1.183   8.783   1.981
 6234SOL    HW118726   1.084   8.772   1.983
 6234SOL    HW218727   1.217   8.798   2.074
 6235SOL     OW18728   0.613   8.290   3.293
 6235SOL    HW118729   0.669   8.371   3.276
 6235SOL    HW218730   0.672   8.210   3.296
 6236SOL     OW18731   1.493   9.215   2.821
 6236SOL    HW118732   1.526   9.279   2.752
 6236SOL    HW218733   1.559   9.209   2.896
 6237SOL     OW18734   0.716   8.013   3.570
 6237SOL    HW118735   0.735   8.078   3.644
 6237SOL    HW218736   0.776   7.933   3.579
 6238SOL     OW18737   1.450   8.668   3.495
 6238SOL    HW118738   1.441   8.658   3.594
 6238SOL    HW218739   1.546   8.661   3.469
 6239SOL     OW18740   0.390   9.189   3.422
 6239SOL    HW118741   0.299   9.230   3.420
 6239SOL    HW218742   0.383   9.095   3.454
 6240SOL     OW18743   1.674   8.331   3.116
 6240SOL    HW118744   1.647   8.242   3.079
 6240SOL    HW218745   1.675   8.399   3.043
 6241SOL     OW18746   1.225   7.773   2.311
 6241SOL    HW118747   1.290   7.699   2.300
 6241SOL    HW218748   1.245   7.823   2.395
 6242SOL     OW18749   0.594   8.193   2.514
 6242SOL    HW118750   0.644   8.278   2.495
 6242SOL    HW218751   0.506   8.195   2.466
 6243SOL     OW18752   1.777   7.790   3.504
 6243SOL    HW118753   1.760   7.821   3.410
 6243SOL    HW218754   1.693   7.753   3.542
 6244SOL     OW18755   1.730   8.382   3.379
 6244SOL    HW118756   1.768   8.473   3.394
 6244SOL    HW218757   1.722   8.365   3.280
 6245SOL     OW18758   0.859   8.822   1.878
 6245SOL    HW118759   0.813   8.837   1.966
 6245SOL    HW218760   0.903   8.907   1.848
 6246SOL     OW18761   0.661   9.238   2.815
 6246SOL    HW118762   0.615   9.326   2.802
 6246SOL    HW218763   0.760   9.250   2.808
 6247SOL     OW18764   0.859   8.404   2.723
 6247SOL    HW118765   0.913   8.335   2.771
 6247SOL    HW218766   0.827   8.473   2.789
 6248SOL     OW18767   1.083   8.432   1.949
 6248SOL    HW118768   1.060   8.485   1.867
 6248SOL    HW218769   1.164   8.376   1.930
 6249SOL     OW18770   1.861   9.017   2.713
 6249SOL    HW118771   1.790   9.005   2.643
 6249SOL    HW218772   1.862   8.938   2.773
 6250SOL     OW18773   0.221   8.762   3.706
 6250SOL    HW118774   0.156   8.689   3.685
 6250SOL    HW218775   0.225   8.776   3.804
 6251SOL     OW18776   0.079   8.688   2.515
 6251SOL    HW118777   0.078   8.641   2.603
 6251SOL    HW218778   0.161   8.660   2.464
 6252SOL     OW18779   0.672   8.839   3.486
 6252SOL    HW118780   0.594   8.789   3.524
 6252SOL    HW218781   0.669   8.934   3.517
 6253SOL     OW18782   1.824   7.640   3.089
 6253SOL    HW118783   1.820   7.550   3.133
 6253SOL    HW218784   1.827   7.629   2.990
 6254SOL     OW18785   0.428   7.872   2.382
 6254SOL    HW118786   0.458   7.800   2.320
 6254SOL    HW218787   0.389   7.832   2.465
 6255SOL     OW18788   1.705   8.935   2.966
 6255SOL    HW118789   1.612   8.910   2.939
 6255SOL    HW218790   1.731   8.885   3.048
 6256SOL     OW18791   0.317   7.995   3.142
 6256SOL    HW118792   0.355   7.936   3.214
 6256SOL    HW218793   0.357   7.969   3.054
 6257SOL     OW18794   0.812   9.034   2.549
 6257SOL    HW118795   0.844   9.044   2.455
 6257SOL    HW218796   0.733   8.972   2.551
 6258SOL     OW18797   1.424   7.662   2.974
 6258SOL    HW118798   1.476   7.597   3.029
 6258SOL    HW218799   1.375   7.725   3.035
 6259SOL     OW18800   1.001   7.482   3.016
 6259SOL    HW118801   0.938   7.410   2.985
 6259SOL    HW218802   1.094   7.446   3.016
 6260SOL     OW18803   0.770   8.778   2.163
 6260SOL    HW118804   0.724   8.691   2.180
 6260SOL    HW218805   0.861   8.775   2.204
 6261SOL     OW18806   0.618   9.015   3.146
 6261SOL    HW118807   0.613   9.097   3.203
 6261SOL    HW218808   0.707   9.012   3.101
 6262SOL     OW18809   1.352   7.500   2.030
 6262SOL    HW118810   1.387   7.459   1.946
 6262SOL    HW218811   1.262   7.462   2.050
 6263SOL     OW18812   1.300   7.901   2.553
 6263SOL    HW118813   1.241   7.981   2.557
 6263SOL    HW218814   1.315   7.866   2.646
 6264SOL     OW18815   1.593   7.669   2.744
 6264SOL    HW118816   1.509   7.668   2.798
 6264SOL    HW218817   1.595   7.752   2.688
 6265SOL     OW18818   0.039   8.525   2.162
 6265SOL    HW118819   0.138   8.514   2.153
 6265SOL    HW218820  -0.001   8.439   2.194
 6266SOL     OW18821   0.875   9.094   2.199
 6266SOL    HW118822   0.798   9.059   2.145
 6266SOL    HW218823   0.843   9.165   2.261
 6267SOL     OW18824   0.230   8.076   3.837
 6267SOL    HW118825   0.137   8.074   3.874
 6267SOL    HW218826   0.231   8.037   3.745
 6268SOL     OW18827   0.225   7.723   4.720
 6268SOL    HW118828   0.260   7.706   4.812
 6268SOL    HW218829   0.137   7.678   4.708
 6269SOL     OW18830   0.019   7.816   4.371
 6269SOL    HW118831  -0.063   7.859   4.410
 6269SOL    HW218832  -0.009   7.743   4.308
 6270SOL     OW18833   0.569   8.723   4.889
 6270SOL    HW118834   0.476   8.716   4.852
 6270SOL    HW218835   0.580   8.812   4.933
 6271SOL     OW18836   1.555   8.959   4.427
 6271SOL    HW118837   1.498   8.943   4.508
 6271SOL    HW218838   1.496   8.969   4.347
 6272SOL     OW18839   1.135   8.151   4.441
 6272SOL    HW118840   1.192   8.229   4.416
 6272SOL    HW218841   1.075   8.177   4.517
 6273SOL     OW18842   1.755   8.055   3.955
 6273SOL    HW118843   1.743   8.042   3.856
 6273SOL    HW218844   1.725   7.974   4.004
 6274SOL     OW18845   0.768   8.592   4.747
 6274SOL    HW118846   0.690   8.609   4.807
 6274SOL    HW218847   0.802   8.679   4.711
 6275SOL     OW18848   0.850   8.246   5.547
 6275SOL    HW118849   0.846   8.322   5.612
 6275SOL    HW218850   0.872   8.282   5.456
 6276SOL     OW18851   0.685   8.460   4.389
 6276SOL    HW118852   0.754   8.444   4.459
 6276SOL    HW218853   0.612   8.517   4.427
 6277SOL     OW18854   0.686   8.609   5.527
 6277SOL    HW118855   0.746   8.688   5.541
 6277SOL    HW218856   0.600   8.640   5.486
 6278SOL     OW18857   0.335   8.883   4.785
 6278SOL    HW118858   0.257   8.852   4.732
 6278SOL    HW218859   0.393   8.941   4.728
 6279SOL     OW18860   1.460   8.953   5.063
 6279SOL    HW118861   1.484   9.047   5.089
 6279SOL    HW218862   1.444   8.899   5.145
 6280SOL     OW18863   0.438   7.840   5.223
 6280SOL    HW118864   0.520   7.784   5.232
 6280SOL    HW218865   0.357   7.782   5.227
 6281SOL     OW18866   1.603   7.895   4.461
 6281SOL    HW118867   1.529   7.941   4.411
 6281SOL    HW218868   1.654   7.963   4.514
 6282SOL     OW18869   0.231   9.161   4.207
 6282SOL    HW118870   0.265   9.238   4.261
 6282SOL    HW218871   0.275   9.161   4.117
 6283SOL     OW18872   1.127   8.789   5.414
 6283SOL    HW118873   1.174   8.789   5.502
 6283SOL    HW218874   1.079   8.702   5.403
 6284SOL     OW18875   0.230   8.882   4.262
 6284SOL    HW118876   0.204   8.978   4.262
 6284SOL    HW218877   0.159   8.828   4.307
 6285SOL     OW18878   0.240   8.539   4.610
 6285SOL    HW118879   0.254   8.455   4.662
 6285SOL    HW218880   0.185   8.603   4.665
 6286SOL     OW18881   0.620   9.234   5.163
 6286SOL    HW118882   0.528   9.217   5.198
 6286SOL    HW218883   0.648   9.326   5.189
 6287SOL     OW18884   0.606   8.412   3.847
 6287SOL    HW118885   0.613   8.496   3.793
 6287SOL    HW218886   0.652   8.425   3.935
 6288SOL     OW18887   1.594   7.562   5.204
 6288SOL    HW118888   1.576   7.629   5.132
 6288SOL    HW218889   1.591   7.608   5.293
 6289SOL     OW18890   0.122   8.091   4.287
 6289SOL    HW118891   0.077   8.003   4.304
 6289SOL    HW218892   0.121   8.145   4.371
 6290SOL     OW18893   1.842   9.215   4.083
 6290SOL    HW118894   1.896   9.186   4.163
 6290SOL    HW218895   1.872   9.305   4.054
 6291SOL     OW18896   0.027   9.044   3.841
 6291SOL    HW118897   0.008   8.948   3.862
 6291SOL    HW218898  -0.006   9.102   3.916
 6292SOL     OW18899   1.689   8.370   4.336
 6292SOL    HW118900   1.784   8.341   4.344
 6292SOL    HW218901   1.681   8.435   4.261
 6293SOL     OW18902   1.641   8.556   4.156
 6293SOL    HW118903   1.727   8.558   4.104
 6293SOL    HW218904   1.655   8.603   4.244
 6294SOL     OW18905   0.113   8.185   5.321
 6294SOL    HW118906   0.201   8.172   5.366
 6294SOL    HW218907   0.100   8.282   5.299
 6295SOL     OW18908   0.613   8.813   4.450
 6295SOL    HW118909   0.564   8.726   4.459
 6295SOL    HW218910   0.590   8.856   4.363
 6296SOL     OW18911   1.293   8.676   5.147
 6296SOL    HW118912   1.330   8.603   5.089
 6296SOL    HW218913   1.345   8.681   5.232
 6297SOL     OW18914   0.809   7.452   4.226
 6297SOL    HW118915   0.849   7.543   4.217
 6297SOL    HW218916   0.709   7.460   4.232
 6298SOL     OW18917   0.197   8.424   4.988
 6298SOL    HW118918   0.286   8.379   4.974
 6298SOL    HW218919   0.124   8.359   4.969
 6299SOL     OW18920   1.525   8.447   3.914
 6299SOL    HW118921   1.462   8.371   3.927
 6299SOL    HW218922   1.573   8.465   4.000
 6300SOL     OW18923   1.187   9.240   5.340
 6300SOL    HW118924   1.211   9.300   5.264
 6300SOL    HW218925   1.194   9.145   5.310
 6301SOL     OW18926   0.317   7.699   5.525
 6301SOL    HW118927   0.388   7.770   5.531
 6301SOL    HW218928   0.229   7.738   5.553
 6302SOL     OW18929   1.466   8.865   4.677
 6302SOL    HW118930   1.407   8.871   4.757
 6302SOL    HW218931   1.451   8.777   4.631
 6303SOL     OW18932   1.667   9.162   4.296
 6303SOL    HW118933   1.626   9.139   4.208
 6303SOL    HW218934   1.649   9.088   4.361
 6304SOL     OW18935   0.598   8.177   3.994
 6304SOL    HW118936   0.622   8.246   3.926
 6304SOL    HW218937   0.520   8.210   4.048
 6305SOL     OW18938   1.281   7.793   4.668
 6305SOL    HW118939   1.195   7.743   4.655
 6305SOL    HW218940   1.343   7.739   4.724
 6306SOL     OW18941   1.576   9.110   4.031
 6306SOL    HW118942   1.665   9.156   4.034
 6306SOL    HW218943   1.555   9.086   3.936
 6307SOL     OW18944   0.807   8.053   5.189
 6307SOL    HW118945   0.760   8.050   5.278
 6307SOL    HW218946   0.756   7.998   5.123
 6308SOL     OW18947   1.394   7.917   5.398
 6308SOL    HW118948   1.374   7.960   5.486
 6308SOL    HW218949   1.472   7.855   5.407
 6309SOL     OW18950   0.973   8.338   5.296
 6309SOL    HW118951   1.019   8.254   5.267
 6309SOL    HW218952   0.917   8.372   5.221
 6310SOL     OW18953   0.991   7.858   4.966
 6310SOL    HW118954   0.914   7.892   5.020
 6310SOL    HW218955   0.957   7.807   4.887
 6311SOL     OW18956   1.041   8.149   4.153
 6311SOL    HW118957   1.067   8.145   4.249
 6311SOL    HW218958   0.956   8.098   4.139
 6312SOL     OW18959   0.076   8.259   4.513
 6312SOL    HW118960   0.175   8.247   4.522
 6312SOL    HW218961   0.052   8.354   4.534
 6313SOL     OW18962   0.130   9.269   5.295
 6313SOL    HW118963   0.120   9.254   5.394
 6313SOL    HW218964   0.044   9.305   5.259
 6314SOL     OW18965   0.865   7.796   3.919
 6314SOL    HW118966   0.924   7.859   3.870
 6314SOL    HW218967   0.884   7.702   3.890
 6315SOL     OW18968   1.719   8.033   5.555
 6315SOL    HW118969   1.693   8.122   5.519
 6315SOL    HW218970   1.717   7.965   5.482
 6316SOL     OW18971   1.362   8.592   4.269
 6316SOL    HW118972   1.445   8.563   4.221
 6316SOL    HW218973   1.313   8.659   4.213
 6317SOL     OW18974   0.550   7.644   4.609
 6317SOL    HW118975   0.545   7.639   4.709
 6317SOL    HW218976   0.552   7.740   4.580
 6318SOL     OW18977   1.008   8.904   4.201
 6318SOL    HW118978   0.962   8.976   4.149
 6318SOL    HW218979   1.004   8.924   4.299
 6319SOL     OW18980   0.351   9.249   4.577
 6319SOL    HW118981   0.401   9.163   4.583
 6319SOL    HW218982   0.416   9.326   4.574
 6320SOL     OW18983   1.795   8.514   4.597
 6320SOL    HW118984   1.733   8.499   4.521
 6320SOL    HW218985   1.743   8.525   4.682
 6321SOL     OW18986   1.227   8.998   5.230
 6321SOL    HW118987   1.233   8.921   5.294
 6321SOL    HW218988   1.175   8.972   5.150
 6322SOL     OW18989   0.321   8.391   3.966
 6322SOL    HW118990   0.403   8.430   3.924
 6322SOL    HW218991   0.294   8.309   3.917
 6323SOL     OW18992   1.458   8.183   4.452
 6323SOL    HW118993   1.453   8.118   4.527
 6323SOL    HW218994   1.538   8.242   4.465
 6324SOL     OW18995   0.461   8.714   5.451
 6324SOL    HW118996   0.411   8.715   5.365
 6324SOL    HW218997   0.398   8.696   5.527
 6325SOL     OW18998   1.111   9.224   3.961
 6325SOL    HW118999   1.051   9.162   4.011
 6325SOL    HW219000   1.142   9.180   3.876
 6326SOL     OW19001   0.202   7.733   5.222
 6326SOL    HW119002   0.122   7.793   5.209
 6326SOL    HW219003   0.192   7.684   5.308
 6327SOL     OW19004   1.632   8.825   3.805
 6327SOL    HW119005   1.600   8.919   3.795
 6327SOL    HW219006   1.556   8.762   3.793
 6328SOL     OW19007   0.464   9.191   4.047
 6328SOL    HW119008   0.497   9.230   4.133
 6328SOL    HW219009   0.540   9.184   3.982
 6329SOL     OW19010   1.400   7.555   4.150
 6329SOL    HW119011   1.376   7.518   4.060
 6329SOL    HW219012   1.499   7.571   4.154
 6330SOL     OW19013   0.249   9.233   4.965
 6330SOL    HW119014   0.306   9.168   5.015
 6330SOL    HW219015   0.233   9.200   4.872
 6331SOL     OW19016   0.940   9.146   4.628
 6331SOL    HW119017   1.020   9.089   4.649
 6331SOL    HW219018   0.891   9.106   4.551
 6332SOL     OW19019   0.382   8.148   4.204
 6332SOL    HW119020   0.427   8.058   4.201
 6332SOL    HW219021   0.288   8.137   4.237
 6333SOL     OW19022   1.547   7.670   5.453
 6333SOL    HW119023   1.542   7.707   5.545
 6333SOL    HW219024   1.475   7.601   5.441
 6334SOL     OW19025   0.614   7.570   3.841
 6334SOL    HW119026   0.712   7.548   3.848
 6334SOL    HW219027   0.583   7.553   3.748
 6335SOL     OW19028   0.781   7.712   5.473
 6335SOL    HW119029   0.848   7.651   5.516
 6335SOL    HW219030   0.708   7.731   5.538
 6336SOL     OW19031   0.888   8.962   4.919
 6336SOL    HW119032   0.865   8.937   4.825
 6336SOL    HW219033   0.949   8.893   4.958
 6337SOL     OW19034   1.351   8.038   5.157
 6337SOL    HW119035   1.379   7.995   5.242
 6337SOL    HW219036   1.376   8.134   5.158
 6338SOL     OW19037   0.803   8.850   4.648
 6338SOL    HW119038   0.893   8.864   4.606
 6338SOL    HW219039   0.732   8.852   4.577
 6339SOL     OW19040   0.922   7.951   4.623
 6339SOL    HW119041   0.897   7.942   4.527
 6339SOL    HW219042   0.970   7.869   4.654
 6340SOL     OW19043   0.539   7.512   4.236
 6340SOL    HW119044   0.458   7.513   4.294
 6340SOL    HW219045   0.542   7.595   4.181
 6341SOL     OW19046   1.434   8.636   3.765
 6341SOL    HW119047   1.466   8.560   3.822
 6341SOL    HW219048   1.342   8.663   3.795
 6342SOL     OW19049   0.297   7.483   3.895
 6342SOL    HW119050   0.346   7.567   3.874
 6342SOL    HW219051   0.359   7.418   3.940
 6343SOL     OW19052   0.935   7.684   4.204
 6343SOL    HW119053   0.887   7.725   4.126
 6343SOL    HW219054   1.034   7.682   4.185
 6344SOL     OW19055   1.076   8.131   5.188
 6344SOL    HW119056   0.996   8.070   5.191
 6344SOL    HW219057   1.157   8.078   5.164
 6345SOL     OW19058   1.227   9.018   4.517
 6345SOL    HW119059   1.248   9.092   4.452
 6345SOL    HW219060   1.295   9.018   4.590
 6346SOL     OW19061   0.459   8.600   4.465
 6346SOL    HW119062   0.388   8.573   4.530
 6346SOL    HW219063   0.433   8.572   4.372
 6347SOL     OW19064   1.271   9.245   4.315
 6347SOL    HW119065   1.315   9.309   4.251
 6347SOL    HW219066   1.221   9.297   4.385
 6348SOL     OW19067   1.032   7.997   3.740
 6348SOL    HW119068   0.991   8.079   3.701
 6348SOL    HW219069   1.096   8.023   3.813
 6349SOL     OW19070   0.078   8.004   5.110
 6349SOL    HW119071   0.170   8.003   5.069
 6349SOL    HW219072   0.072   8.078   5.177
 6350SOL     OW19073   0.561   7.670   4.871
 6350SOL    HW119074   0.599   7.586   4.908
 6350SOL    HW219075   0.473   7.689   4.915
 6351SOL     OW19076   0.866   7.902   4.366
 6351SOL    HW119077   0.834   7.974   4.304
 6351SOL    HW219078   0.890   7.821   4.313
 6352SOL     OW19079   1.017   7.487   4.477
 6352SOL    HW119080   0.945   7.492   4.408
 6352SOL    HW219081   0.993   7.418   4.546
 6353SOL     OW19082   1.429   8.621   4.591
 6353SOL    HW119083   1.374   8.537   4.584
 6353SOL    HW219084   1.455   8.650   4.499
 6354SOL     OW19085   1.466   8.038   4.716
 6354SOL    HW119086   1.436   7.943   4.723
 6354SOL    HW219087   1.539   8.054   4.782
 6355SOL     OW19088   1.857   8.281   4.101
 6355SOL    HW119089   1.899   8.217   4.165
 6355SOL    HW219090   1.819   8.230   4.023
 6356SOL     OW19091   0.488   8.833   3.898
 6356SOL    HW119092   0.401   8.818   3.945
 6356SOL    HW219093   0.471   8.859   3.803
 6357SOL     OW19094   1.664   8.728   4.381
 6357SOL    HW119095   1.763   8.736   4.395
 6357SOL    HW219096   1.619   8.812   4.412
 6358SOL     OW19097   1.390   8.023   3.802
 6358SOL    HW119098   1.336   8.002   3.883
 6358SOL    HW219099   1.481   7.982   3.811
 6359SOL     OW19100   0.527   7.704   4.052
 6359SOL    HW119101   0.554   7.645   3.977
 6359SOL    HW219102   0.527   7.799   4.021
 6360SOL     OW19103   1.754   8.671   5.312
 6360SOL    HW119104   1.845   8.632   5.299
 6360SOL    HW219105   1.762   8.767   5.336
 6361SOL     OW19106   1.064   8.795   5.064
 6361SOL    HW119107   0.984   8.772   5.119
 6361SOL    HW219108   1.147   8.769   5.113
 6362SOL     OW19109   1.592   9.077   5.349
 6362SOL    HW119110   1.619   9.111   5.259
 6362SOL    HW219111   1.671   9.039   5.395
 6363SOL     OW19112   1.111   8.643   4.824
 6363SOL    HW119113   1.071   8.687   4.905
 6363SOL    HW219114   1.070   8.680   4.741
 6364SOL     OW19115   1.638   8.547   4.803
 6364SOL    HW119116   1.643   8.628   4.862
 6364SOL    HW219117   1.552   8.549   4.752
 6365SOL     OW19118   0.915   7.537   5.126
 6365SOL    HW119119   0.940   7.517   5.031
 6365SOL    HW219120   0.987   7.593   5.168
 6366SOL     OW19121   0.980   8.564   5.443
 6366SOL    HW119122   0.881   8.570   5.453
 6366SOL    HW219123   1.003   8.484   5.387
 6367SOL     OW19124   0.705   8.498   4.092
 6367SOL    HW119125   0.691   8.505   4.191
 6367SOL    HW219126   0.789   8.447   4.074
 6368SOL     OW19127   0.410   8.261   4.975
 6368SOL    HW119128   0.496   8.273   5.025
 6368SOL    HW219129   0.368   8.174   5.002
 6369SOL     OW19130   1.274   7.834   4.986
 6369SOL    HW119131   1.295   7.908   5.050
 6369SOL    HW219132   1.185   7.851   4.943
 6370SOL     OW19133   0.064   9.012   5.055
 6370SOL    HW119134   0.018   9.094   5.021
 6370SOL    HW219135   0.162   9.031   5.064
 6371SOL     OW19136   0.367   8.548   4.225
 6371SOL    HW119137   0.360   8.631   4.169
 6371SOL    HW219138   0.371   8.468   4.165
 6372SOL     OW19139   0.566   7.985   4.589
 6372SOL    HW119140   0.578   8.051   4.515
 6372SOL    HW219141   0.612   8.019   4.672
 6373SOL     OW19142   1.252   8.796   4.112
 6373SOL    HW119143   1.302   8.873   4.152
 6373SOL    HW219144   1.157   8.798   4.144
 6374SOL     OW19145   1.272   8.893   4.866
 6374SOL    HW119146   1.319   8.906   4.953
 6374SOL    HW219147   1.206   8.819   4.875
 6375SOL     OW19148   1.582   8.087   4.196
 6375SOL    HW119149   1.551   8.148   4.269
 6375SOL    HW219150   1.632   8.139   4.127
 6376SOL     OW19151   0.354   8.958   5.053
 6376SOL    HW119152   0.333   8.914   4.966
 6376SOL    HW219153   0.451   8.984   5.056
 6377SOL     OW19154   0.402   8.199   5.322
 6377SOL    HW119155   0.470   8.254   5.275
 6377SOL    HW219156   0.442   8.111   5.349
 6378SOL     OW19157   1.587   8.227   5.394
 6378SOL    HW119158   1.495   8.265   5.389
 6378SOL    HW219159   1.647   8.274   5.329
 6379SOL     OW19160   1.013   7.553   5.494
 6379SOL    HW119161   1.019   7.638   5.442
 6379SOL    HW219162   1.045   7.477   5.437
 6380SOL     OW19163   0.504   7.498   5.464
 6380SOL    HW119164   0.462   7.441   5.394
 6380SOL    HW219165   0.438   7.567   5.496
 6381SOL     OW19166   0.573   8.318   4.753
 6381SOL    HW119167   0.617   8.407   4.744
 6381SOL    HW219168   0.510   8.318   4.830
 6382SOL     OW19169   1.360   8.310   4.769
 6382SOL    HW119170   1.285   8.310   4.703
 6382SOL    HW219171   1.397   8.218   4.778
 6383SOL     OW19172   1.209   7.973   3.999
 6383SOL    HW119173   1.222   7.889   4.053
 6383SOL    HW219174   1.180   8.047   4.059
 6384SOL     OW19175   0.307   7.661   4.955
 6384SOL    HW119176   0.284   7.698   5.045
 6384SOL    HW219177   0.277   7.566   4.949
 6385SOL     OW19178   0.037   8.758   5.006
 6385SOL    HW119179   0.090   8.709   5.074
 6385SOL    HW219180   0.059   8.856   5.011
 6386SOL     OW19181   0.732   8.082   4.788
 6386SOL    HW119182   0.791   8.056   4.712
 6386SOL    HW219183   0.704   8.178   4.777
 6387SOL     OW19184   1.728   8.383   5.578
 6387SOL    HW119185   1.682   8.376   5.489
 6387SOL    HW219186   1.666   8.427   5.644
 6388SOL     OW19187   0.307   7.511   4.342
 6388SOL    HW119188   0.296   7.605   4.375
 6388SOL    HW219189   0.302   7.448   4.419
 6389SOL     OW19190   1.622   7.815   4.098
 6389SOL    HW119191   1.624   7.739   4.162
 6389SOL    HW219192   1.574   7.892   4.138
 6390SOL     OW19193   1.023   8.214   4.690
 6390SOL    HW119194   1.038   8.235   4.786
 6390SOL    HW219195   0.993   8.119   4.681
 6391SOL     OW19196   0.980   9.021   5.424
 6391SOL    HW119197   0.960   9.065   5.336
 6391SOL    HW219198   1.019   8.930   5.408
 6392SOL     OW19199   1.859   8.966   5.329
 6392SOL    HW119200   1.873   8.993   5.234
 6392SOL    HW219201   1.942   8.988   5.382
 6393SOL     OW19202   0.350   8.346   5.528
 6393SOL    HW119203   0.426   8.390   5.576
 6393SOL    HW219204   0.385   8.299   5.446
 6394SOL     OW19205   1.540   7.722   3.849
 6394SOL    HW119206   1.479   7.647   3.872
 6394SOL    HW219207   1.562   7.774   3.932
 6395SOL     OW19208   1.303   8.286   3.766
 6395SOL    HW119209   1.337   8.193   3.781
 6395SOL    HW219210   1.321   8.313   3.671
 6396SOL     OW19211   1.068   8.781   4.573
 6396SOL    HW119212   1.075   8.697   4.518
 6396SOL    HW219213   1.130   8.850   4.537
 6397SOL     OW19214   0.319   8.258   4.673
 6397SOL    HW119215   0.412   8.294   4.678
 6397SOL    HW219216   0.313   8.173   4.725
 6398SOL     OW19217   0.339   7.957   4.730
 6398SOL    HW119218   0.287   7.874   4.713
 6398SOL    HW219219   0.416   7.962   4.666
 6399SOL     OW19220   1.138   7.828   5.402
 6399SOL    HW119221   1.093   7.891   5.466
 6399SOL    HW219222   1.231   7.859   5.385
 6400SOL     OW19223   1.160   7.655   5.201
 6400SOL    HW119224   1.160   7.719   5.278
 6400SOL    HW219225   1.188   7.703   5.118
 6401SOL     OW19226   0.008   8.774   3.924
 6401SOL    HW119227  -0.085   8.795   3.893
 6401SOL    HW219228   0.018   8.675   3.937
 6402SOL     OW19229   0.088   9.249   4.651
 6402SOL    HW119230   0.046   9.163   4.624
 6402SOL    HW219231   0.182   9.252   4.617
 6403SOL     OW19232   0.504   9.016   4.634
 6403SOL    HW119233   0.570   9.090   4.643
 6403SOL    HW219234   0.548   8.937   4.592
 6404SOL     OW19235   1.002   8.244   4.962
 6404SOL    HW119236   1.043   8.212   5.048
 6404SOL    HW219237   0.906   8.217   4.959
 6405SOL     OW19238   0.040   7.992   4.838
 6405SOL    HW119239   0.125   7.959   4.797
 6405SOL    HW219240   0.053   8.007   4.936
 6406SOL     OW19241   0.189   7.968   5.446
 6406SOL    HW119242   0.248   7.928   5.376
 6406SOL    HW219243   0.131   8.039   5.405
 6407SOL     OW19244   1.369   8.398   5.384
 6407SOL    HW119245   1.408   8.487   5.404
 6407SOL    HW219246   1.379   8.378   5.287
 6408SOL     OW19247   0.815   8.020   4.049
 6408SOL    HW119248   0.822   7.931   4.003
 6408SOL    HW219249   0.721   8.054   4.041
 6409SOL     OW19250   1.657   8.052   4.930
 6409SOL    HW119251   1.619   7.983   4.992
 6409SOL    HW219252   1.739   8.016   4.886
 6410SOL     OW19253   0.252   9.012   5.468
 6410SOL    HW119254   0.222   9.069   5.544
 6410SOL    HW219255   0.245   8.915   5.494
 6411SOL     OW19256   0.671   7.912   4.993
 6411SOL    HW119257   0.637   7.823   4.963
 6411SOL    HW219258   0.697   7.966   4.913
 6412SOL     OW19259   0.930   9.126   5.189
 6412SOL    HW119260   0.906   9.108   5.094
 6412SOL    HW219261   0.960   9.220   5.199
 6413SOL     OW19262   0.473   7.948   3.915
 6413SOL    HW119263   0.534   8.028   3.919
 6413SOL    HW219264   0.378   7.979   3.922
 6414SOL     OW19265   0.159   8.585   5.190
 6414SOL    HW119266   0.181   8.524   5.266
 6414SOL    HW219267   0.169   8.536   5.104
 6415SOL     OW19268   1.347   8.507   4.958
 6415SOL    HW119269   1.371   8.444   4.884
 6415SOL    HW219270   1.257   8.547   4.940
 6416SOL     OW19271   1.302   8.303   4.033
 6416SOL    HW119272   1.216   8.272   4.075
 6416SOL    HW219273   1.298   8.289   3.934
 6417SOL     OW19274   1.759   9.195   4.878
 6417SOL    HW119275   1.820   9.225   4.805
 6417SOL    HW219276   1.721   9.106   4.856
 6418SOL     OW19277   1.252   9.179   4.852
 6418SOL    HW119278   1.336   9.184   4.798
 6418SOL    HW219279   1.229   9.083   4.870
 6419SOL     OW19280   0.083   8.706   4.746
 6419SOL    HW119281   0.078   8.705   4.846
 6419SOL    HW219282   0.000   8.665   4.708
 6420SOL     OW19283   0.688   9.110   5.440
 6420SOL    HW119284   0.632   9.191   5.449
 6420SOL    HW219285   0.740   9.114   5.354
 6421SOL     OW19286   1.726   7.583   4.247
 6421SOL    HW119287   1.799   7.566   4.180
 6421SOL    HW219288   1.695   7.496   4.285
 6422SOL     OW19289   1.388   9.021   4.201
 6422SOL    HW119290   1.455   9.033   4.127
 6422SOL    HW219291   1.348   9.110   4.224
 6423SOL     OW19292   0.130   9.242   5.575
 6423SOL    HW119293   0.089   9.168   5.628
 6423SOL    HW219294   0.194   9.293   5.633
 6424SOL     OW19295   1.280   8.375   4.396
 6424SOL    HW119296   1.340   8.294   4.398
 6424SOL    HW219297   1.320   8.444   4.336
 6425SOL     OW19298   0.830   8.721   5.146
 6425SOL    HW119299   0.825   8.754   5.241
 6425SOL    HW219300   0.744   8.740   5.100
 6426SOL     OW19301   0.672   9.064   3.878
 6426SOL    HW119302   0.681   9.074   3.779
 6426SOL    HW219303   0.632   8.975   3.899
 6427SOL     OW19304   1.650   9.168   5.118
 6427SOL    HW119305   1.703   9.178   5.034
 6427SOL    HW219306   1.623   9.258   5.152
 6428SOL     OW19307   1.841   7.623   4.687
 6428SOL    HW119308   1.880   7.538   4.651
 6428SOL    HW219309   1.743   7.625   4.668
 6429SOL     OW19310   0.263   7.774   4.444
 6429SOL    HW119311   0.184   7.825   4.410
 6429SOL    HW219312   0.254   7.759   4.542
 6430SOL     OW19313   1.194   9.060   3.755
 6430SOL    HW119314   1.200   8.967   3.792
 6430SOL    HW219315   1.135   9.060   3.675
 6431SOL     OW19316   0.822   8.450   5.096
 6431SOL    HW119317   0.862   8.449   5.004
 6431SOL    HW219318   0.832   8.542   5.136
 6432SOL     OW19319   0.916   8.358   4.015
 6432SOL    HW119320   0.979   8.396   3.947
 6432SOL    HW219321   0.956   8.275   4.054
 6433SOL     OW19322   1.504   9.055   3.768
 6433SOL    HW119323   1.412   9.092   3.775
 6433SOL    HW219324   1.542   9.075   3.678
 6434SOL     OW19325   0.372   8.736   5.214
 6434SOL    HW119326   0.359   8.829   5.180
 6434SOL    HW219327   0.288   8.684   5.201
 6435SOL     OW19328   1.614   8.740   5.013
 6435SOL    HW119329   1.674   8.743   5.093
 6435SOL    HW219330   1.539   8.804   5.026
 6436SOL     OW19331   1.039   8.546   4.420
 6436SOL    HW119332   0.969   8.499   4.474
 6436SOL    HW219333   1.098   8.478   4.377
 6437SOL     OW19334   1.014   7.684   4.695
 6437SOL    HW119335   1.006   7.648   4.602
 6437SOL    HW219336   1.012   7.608   4.760
 6438SOL     OW19337   0.590   8.935   4.215
 6438SOL    HW119338   0.632   8.877   4.145
 6438SOL    HW219339   0.546   9.014   4.171
 6439SOL     OW19340   1.709   7.833   5.105
 6439SOL    HW119341   1.782   7.902   5.109
 6439SOL    HW219342   1.737   7.758   5.046
 6440SOL     OW19343   0.255   8.796   4.014
 6440SOL    HW119344   0.159   8.797   3.987
 6440SOL    HW219345   0.267   8.849   4.098
 6441SOL     OW19346   0.105   8.461   5.450
 6441SOL    HW119347   0.028   8.428   5.504
 6441SOL    HW219348   0.190   8.431   5.492
 6442SOL     OW19349   0.672   7.651   5.213
 6442SOL    HW119350   0.762   7.635   5.173
 6442SOL    HW219351   0.680   7.656   5.312
 6443SOL     OW19352   0.075   7.793   3.757
 6443SOL    HW119353  -0.017   7.765   3.728
 6443SOL    HW219354   0.106   7.870   3.701
 6444SOL     OW19355   1.440   8.304   5.122
 6444SOL    HW119356   1.383   8.356   5.059
 6444SOL    HW219357   1.536   8.316   5.098
 6445SOL     OW19358   0.072   7.614   4.042
 6445SOL    HW119359   0.055   7.697   3.988
 6445SOL    HW219360   0.162   7.577   4.020
 6446SOL     OW19361   1.183   8.783   3.843
 6446SOL    HW119362   1.084   8.772   3.845
 6446SOL    HW219363   1.217   8.798   3.936
 6447SOL     OW19364   0.613   8.290   5.155
 6447SOL    HW119365   0.669   8.371   5.138
 6447SOL    HW219366   0.672   8.210   5.158
 6448SOL     OW19367   1.493   9.215   4.683
 6448SOL    HW119368   1.526   9.279   4.614
 6448SOL    HW219369   1.559   9.209   4.758
 6449SOL     OW19370   0.716   8.013   5.432
 6449SOL    HW119371   0.735   8.078   5.506
 6449SOL    HW219372   0.776   7.933   5.441
 6450SOL     OW19373   1.450   8.668   5.357
 6450SOL    HW119374   1.441   8.658   5.456
 6450SOL    HW219375   1.546   8.661   5.331
 6451SOL     OW19376   0.390   9.189   5.284
 6451SOL    HW119377   0.299   9.230   5.282
 6451SOL    HW219378   0.383   9.095   5.316
 6452SOL     OW19379   1.674   8.331   4.978
 6452SOL    HW119380   1.647   8.242   4.941
 6452SOL    HW219381   1.675   8.399   4.905
 6453SOL     OW19382   1.225   7.773   4.173
 6453SOL    HW119383   1.290   7.699   4.162
 6453SOL    HW219384   1.245   7.823   4.257
 6454SOL     OW19385   0.594   8.193   4.376
 6454SOL    HW119386   0.644   8.278   4.357
 6454SOL    HW219387   0.506   8.195   4.328
 6455SOL     OW19388   1.777   7.790   5.366
 6455SOL    HW119389   1.760   7.821   5.272
 6455SOL    HW219390   1.693   7.753   5.404
 6456SOL     OW19391   1.730   8.382   5.241
 6456SOL    HW119392   1.768   8.473   5.256
 6456SOL    HW219393   1.722   8.365   5.142
 6457SOL     OW19394   0.859   8.822   3.740
 6457SOL    HW119395   0.813   8.837   3.828
 6457SOL    HW219396   0.903   8.907   3.710
 6458SOL     OW19397   0.661   9.238   4.677
 6458SOL    HW119398   0.615   9.326   4.664
 6458SOL    HW219399   0.760   9.250   4.670
 6459SOL     OW19400   0.859   8.404   4.585
 6459SOL    HW119401   0.913   8.335   4.633
 6459SOL    HW219402   0.827   8.473   4.651
 6460SOL     OW19403   1.083   8.432   3.811
 6460SOL    HW119404   1.060   8.485   3.729
 6460SOL    HW219405   1.164   8.376   3.792
 6461SOL     OW19406   1.861   9.017   4.575
 6461SOL    HW119407   1.790   9.005   4.505
 6461SOL    HW219408   1.862   8.938   4.635
 6462SOL     OW19409   0.221   8.762   5.568
 6462SOL    HW119410   0.156   8.689   5.547
 6462SOL    HW219411   0.225   8.776   5.666
 6463SOL     OW19412   0.079   8.688   4.377
 6463SOL    HW119413   0.078   8.641   4.465
 6463SOL    HW219414   0.161   8.660   4.326
 6464SOL     OW19415   0.672   8.839   5.348
 6464SOL    HW119416   0.594   8.789   5.386
 6464SOL    HW219417   0.669   8.934   5.379
 6465SOL     OW19418   1.824   7.640   4.951
 6465SOL    HW119419   1.820   7.550   4.995
 6465SOL    HW219420   1.827   7.629   4.852
 6466SOL     OW19421   0.428   7.872   4.244
 6466SOL    HW119422   0.458   7.800   4.182
 6466SOL    HW219423   0.389   7.832   4.327
 6467SOL     OW19424   1.705   8.935   4.828
 6467SOL    HW119425   1.612   8.910   4.801
 6467SOL    HW219426   1.731   8.885   4.910
 6468SOL     OW19427   0.317   7.995   5.004
 6468SOL    HW119428   0.355   7.936   5.076
 6468SOL    HW219429   0.357   7.969   4.916
 6469SOL     OW19430   0.812   9.034   4.411
 6469SOL    HW119431   0.844   9.044   4.317
 6469SOL    HW219432   0.733   8.972   4.413
 6470SOL     OW19433   1.424   7.662   4.836
 6470SOL    HW119434   1.476   7.597   4.891
 6470SOL    HW219435   1.375   7.725   4.897
 6471SOL     OW19436   1.001   7.482   4.878
 6471SOL    HW119437   0.938   7.410   4.847
 6471SOL    HW219438   1.094   7.446   4.878
 6472SOL     OW19439   0.770   8.778   4.025
 6472SOL    HW119440   0.724   8.691   4.042
 6472SOL    HW219441   0.861   8.775   4.066
 6473SOL     OW19442   0.618   9.015   5.008
 6473SOL    HW119443   0.613   9.097   5.065
 6473SOL    HW219444   0.707   9.012   4.963
 6474SOL     OW19445   1.352   7.500   3.892
 6474SOL    HW119446   1.387   7.459   3.808
 6474SOL    HW219447   1.262   7.462   3.912
 6475SOL     OW19448   1.300   7.901   4.415
 6475SOL    HW119449   1.241   7.981   4.419
 6475SOL    HW219450   1.315   7.866   4.508
 6476SOL     OW19451   1.593   7.669   4.606
 6476SOL    HW119452   1.509   7.668   4.660
 6476SOL    HW219453   1.595   7.752   4.550
 6477SOL     OW19454   0.039   8.525   4.024
 6477SOL    HW119455   0.138   8.514   4.015
 6477SOL    HW219456  -0.001   8.439   4.056
 6478SOL     OW19457   0.875   9.094   4.061
 6478SOL    HW119458   0.798   9.059   4.007
 6478SOL    HW219459   0.843   9.165   4.123
 6479SOL     OW19460   0.230   8.076   5.699
 6479SOL    HW119461   0.137   8.074   5.736
 6479SOL    HW219462   0.231   8.037   5.607
 6480SOL     OW19463   0.225   7.723   6.582
 6480SOL    HW119464   0.260   7.706   6.674
 6480SOL    HW219465   0.137   7.678   6.570
 6481SOL     OW19466   0.019   7.816   6.233
 6481SOL    HW119467  -0.063   7.859   6.272
 6481SOL    HW219468  -0.009   7.743   6.170
 6482SOL     OW19469   0.569   8.723   6.751
 6482SOL    HW119470   0.476   8.716   6.714
 6482SOL    HW219471   0.580   8.812   6.795
 6483SOL     OW19472   1.555   8.959   6.289
 6483SOL    HW119473   1.498   8.943   6.370
 6483SOL    HW219474   1.496   8.969   6.209
 6484SOL     OW19475   1.135   8.151   6.303
 6484SOL    HW119476   1.192   8.229   6.278
 6484SOL    HW219477   1.075   8.177   6.379
 6485SOL     OW19478   1.755   8.055   5.817
 6485SOL    HW119479   1.743   8.042   5.718
 6485SOL    HW219480   1.725   7.974   5.866
 6486SOL     OW19481   0.768   8.592   6.609
 6486SOL    HW119482   0.690   8.609   6.669
 6486SOL    HW219483   0.802   8.679   6.573
 6487SOL     OW19484   0.850   8.246   7.409
 6487SOL    HW119485   0.846   8.322   7.474
 6487SOL    HW219486   0.872   8.282   7.318
 6488SOL     OW19487   0.685   8.460   6.251
 6488SOL    HW119488   0.754   8.444   6.321
 6488SOL    HW219489   0.612   8.517   6.289
 6489SOL     OW19490   0.686   8.609   7.389
 6489SOL    HW119491   0.746   8.688   7.403
 6489SOL    HW219492   0.600   8.640   7.348
 6490SOL     OW19493   0.335   8.883   6.647
 6490SOL    HW119494   0.257   8.852   6.594
 6490SOL    HW219495   0.393   8.941   6.590
 6491SOL     OW19496   1.460   8.953   6.925
 6491SOL    HW119497   1.484   9.047   6.951
 6491SOL    HW219498   1.444   8.899   7.007
 6492SOL     OW19499   0.438   7.840   7.085
 6492SOL    HW119500   0.520   7.784   7.094
 6492SOL    HW219501   0.357   7.782   7.089
 6493SOL     OW19502   1.603   7.895   6.323
 6493SOL    HW119503   1.529   7.941   6.273
 6493SOL    HW219504   1.654   7.963   6.376
 6494SOL     OW19505   0.231   9.161   6.069
 6494SOL    HW119506   0.265   9.238   6.123
 6494SOL    HW219507   0.275   9.161   5.979
 6495SOL     OW19508   1.127   8.789   7.276
 6495SOL    HW119509   1.174   8.789   7.364
 6495SOL    HW219510   1.079   8.702   7.265
 6496SOL     OW19511   0.230   8.882   6.124
 6496SOL    HW119512   0.204   8.978   6.124
 6496SOL    HW219513   0.159   8.828   6.169
 6497SOL     OW19514   0.240   8.539   6.472
 6497SOL    HW119515   0.254   8.455   6.524
 6497SOL    HW219516   0.185   8.603   6.527
 6498SOL     OW19517   0.620   9.234   7.025
 6498SOL    HW119518   0.528   9.217   7.060
 6498SOL    HW219519   0.648   9.326   7.051
 6499SOL     OW19520   0.606   8.412   5.709
 6499SOL    HW119521   0.613   8.496   5.655
 6499SOL    HW219522   0.652   8.425   5.797
 6500SOL     OW19523   1.594   7.562   7.066
 6500SOL    HW119524   1.576   7.629   6.994
 6500SOL    HW219525   1.591   7.608   7.155
 6501SOL     OW19526   0.122   8.091   6.149
 6501SOL    HW119527   0.077   8.003   6.166
 6501SOL    HW219528   0.121   8.145   6.233
 6502SOL     OW19529   1.842   9.215   5.945
 6502SOL    HW119530   1.896   9.186   6.025
 6502SOL    HW219531   1.872   9.305   5.916
 6503SOL     OW19532   0.027   9.044   5.703
 6503SOL    HW119533   0.008   8.948   5.724
 6503SOL    HW219534  -0.006   9.102   5.778
 6504SOL     OW19535   1.689   8.370   6.198
 6504SOL    HW119536   1.784   8.341   6.206
 6504SOL    HW219537   1.681   8.435   6.123
 6505SOL     OW19538   1.641   8.556   6.018
 6505SOL    HW119539   1.727   8.558   5.966
 6505SOL    HW219540   1.655   8.603   6.106
 6506SOL     OW19541   0.113   8.185   7.183
 6506SOL    HW119542   0.201   8.172   7.228
 6506SOL    HW219543   0.100   8.282   7.161
 6507SOL     OW19544   0.613   8.813   6.312
 6507SOL    HW119545   0.564   8.726   6.321
 6507SOL    HW219546   0.590   8.856   6.225
 6508SOL     OW19547   1.293   8.676   7.009
 6508SOL    HW119548   1.330   8.603   6.951
 6508SOL    HW219549   1.345   8.681   7.094
 6509SOL     OW19550   0.809   7.452   6.088
 6509SOL    HW119551   0.849   7.543   6.079
 6509SOL    HW219552   0.709   7.460   6.094
 6510SOL     OW19553   0.197   8.424   6.850
 6510SOL    HW119554   0.286   8.379   6.836
 6510SOL    HW219555   0.124   8.359   6.831
 6511SOL     OW19556   1.525   8.447   5.776
 6511SOL    HW119557   1.462   8.371   5.789
 6511SOL    HW219558   1.573   8.465   5.862
 6512SOL     OW19559   1.187   9.240   7.202
 6512SOL    HW119560   1.211   9.300   7.126
 6512SOL    HW219561   1.194   9.145   7.172
 6513SOL     OW19562   0.317   7.699   7.387
 6513SOL    HW119563   0.388   7.770   7.393
 6513SOL    HW219564   0.229   7.738   7.415
 6514SOL     OW19565   1.466   8.865   6.539
 6514SOL    HW119566   1.407   8.871   6.619
 6514SOL    HW219567   1.451   8.777   6.493
 6515SOL     OW19568   1.667   9.162   6.158
 6515SOL    HW119569   1.626   9.139   6.070
 6515SOL    HW219570   1.649   9.088   6.223
 6516SOL     OW19571   0.598   8.177   5.856
 6516SOL    HW119572   0.622   8.246   5.788
 6516SOL    HW219573   0.520   8.210   5.910
 6517SOL     OW19574   1.281   7.793   6.530
 6517SOL    HW119575   1.195   7.743   6.517
 6517SOL    HW219576   1.343   7.739   6.586
 6518SOL     OW19577   1.576   9.110   5.893
 6518SOL    HW119578   1.665   9.156   5.896
 6518SOL    HW219579   1.555   9.086   5.798
 6519SOL     OW19580   0.807   8.053   7.051
 6519SOL    HW119581   0.760   8.050   7.140
 6519SOL    HW219582   0.756   7.998   6.985
 6520SOL     OW19583   1.394   7.917   7.260
 6520SOL    HW119584   1.374   7.960   7.348
 6520SOL    HW219585   1.472   7.855   7.269
 6521SOL     OW19586   0.973   8.338   7.158
 6521SOL    HW119587   1.019   8.254   7.129
 6521SOL    HW219588   0.917   8.372   7.083
 6522SOL     OW19589   0.991   7.858   6.828
 6522SOL    HW119590   0.914   7.892   6.882
 6522SOL    HW219591   0.957   7.807   6.749
 6523SOL     OW19592   1.041   8.149   6.015
 6523SOL    HW119593   1.067   8.145   6.111
 6523SOL    HW219594   0.956   8.098   6.001
 6524SOL     OW19595   0.076   8.259   6.375
 6524SOL    HW119596   0.175   8.247   6.384
 6524SOL    HW219597   0.052   8.354   6.396
 6525SOL     OW19598   0.130   9.269   7.157
 6525SOL    HW119599   0.120   9.254   7.256
 6525SOL    HW219600   0.044   9.305   7.121
 6526SOL     OW19601   0.865   7.796   5.781
 6526SOL    HW119602   0.924   7.859   5.732
 6526SOL    HW219603   0.884   7.702   5.752
 6527SOL     OW19604   1.719   8.033   7.417
 6527SOL    HW119605   1.693   8.122   7.381
 6527SOL    HW219606   1.717   7.965   7.344
 6528SOL     OW19607   1.362   8.592   6.131
 6528SOL    HW119608   1.445   8.563   6.083
 6528SOL    HW219609   1.313   8.659   6.075
 6529SOL     OW19610   0.550   7.644   6.471
 6529SOL    HW119611   0.545   7.639   6.571
 6529SOL    HW219612   0.552   7.740   6.442
 6530SOL     OW19613   1.008   8.904   6.063
 6530SOL    HW119614   0.962   8.976   6.011
 6530SOL    HW219615   1.004   8.924   6.161
 6531SOL     OW19616   0.351   9.249   6.439
 6531SOL    HW119617   0.401   9.163   6.445
 6531SOL    HW219618   0.416   9.326   6.436
 6532SOL     OW19619   1.795   8.514   6.459
 6532SOL    HW119620   1.733   8.499   6.383
 6532SOL    HW219621   1.743   8.525   6.544
 6533SOL     OW19622   1.227   8.998   7.092
 6533SOL    HW119623   1.233   8.921   7.156
 6533SOL    HW219624   1.175   8.972   7.012
 6534SOL     OW19625   0.321   8.391   5.828
 6534SOL    HW119626   0.403   8.430   5.786
 6534SOL    HW219627   0.294   8.309   5.779
 6535SOL     OW19628   1.458   8.183   6.314
 6535SOL    HW119629   1.453   8.118   6.389
 6535SOL    HW219630   1.538   8.242   6.327
 6536SOL     OW19631   0.461   8.714   7.313
 6536SOL    HW119632   0.411   8.715   7.227
 6536SOL    HW219633   0.398   8.696   7.389
 6537SOL     OW19634   1.111   9.224   5.823
 6537SOL    HW119635   1.051   9.162   5.873
 6537SOL    HW219636   1.142   9.180   5.738
 6538SOL     OW19637   0.202   7.733   7.084
 6538SOL    HW119638   0.122   7.793   7.071
 6538SOL    HW219639   0.192   7.684   7.170
 6539SOL     OW19640   1.632   8.825   5.667
 6539SOL    HW119641   1.600   8.919   5.657
 6539SOL    HW219642   1.556   8.762   5.655
 6540SOL     OW19643   0.464   9.191   5.909
 6540SOL    HW119644   0.497   9.230   5.995
 6540SOL    HW219645   0.540   9.184   5.844
 6541SOL     OW19646   1.400   7.555   6.012
 6541SOL    HW119647   1.376   7.518   5.922
 6541SOL    HW219648   1.499   7.571   6.016
 6542SOL     OW19649   0.249   9.233   6.827
 6542SOL    HW119650   0.306   9.168   6.877
 6542SOL    HW219651   0.233   9.200   6.734
 6543SOL     OW19652   0.940   9.146   6.490
 6543SOL    HW119653   1.020   9.089   6.511
 6543SOL    HW219654   0.891   9.106   6.413
 6544SOL     OW19655   0.382   8.148   6.066
 6544SOL    HW119656   0.427   8.058   6.063
 6544SOL    HW219657   0.288   8.137   6.099
 6545SOL     OW19658   1.547   7.670   7.315
 6545SOL    HW119659   1.542   7.707   7.407
 6545SOL    HW219660   1.475   7.601   7.303
 6546SOL     OW19661   0.614   7.570   5.703
 6546SOL    HW119662   0.712   7.548   5.710
 6546SOL    HW219663   0.583   7.553   5.610
 6547SOL     OW19664   0.781   7.712   7.335
 6547SOL    HW119665   0.848   7.651   7.378
 6547SOL    HW219666   0.708   7.731   7.400
 6548SOL     OW19667   0.888   8.962   6.781
 6548SOL    HW119668   0.865   8.937   6.687
 6548SOL    HW219669   0.949   8.893   6.820
 6549SOL     OW19670   1.351   8.038   7.019
 6549SOL    HW119671   1.379   7.995   7.104
 6549SOL    HW219672   1.376   8.134   7.020
 6550SOL     OW19673   0.803   8.850   6.510
 6550SOL    HW119674   0.893   8.864   6.468
 6550SOL    HW219675   0.732   8.852   6.439
 6551SOL     OW19676   0.922   7.951   6.485
 6551SOL    HW119677   0.897   7.942   6.389
 6551SOL    HW219678   0.970   7.869   6.516
 6552SOL     OW19679   0.539   7.512   6.098
 6552SOL    HW119680   0.458   7.513   6.156
 6552SOL    HW219681   0.542   7.595   6.043
 6553SOL     OW19682   1.434   8.636   5.627
 6553SOL    HW119683   1.466   8.560   5.684
 6553SOL    HW219684   1.342   8.663   5.657
 6554SOL     OW19685   0.297   7.483   5.757
 6554SOL    HW119686   0.346   7.567   5.736
 6554SOL    HW219687   0.359   7.418   5.802
 6555SOL     OW19688   0.935   7.684   6.066
 6555SOL    HW119689   0.887   7.725   5.988
 6555SOL    HW219690   1.034   7.682   6.047
 6556SOL     OW19691   1.076   8.131   7.050
 6556SOL    HW119692   0.996   8.070   7.053
 6556SOL    HW219693   1.157   8.078   7.026
 6557SOL     OW19694   1.227   9.018   6.379
 6557SOL    HW119695   1.248   9.092   6.314
 6557SOL    HW219696   1.295   9.018   6.452
 6558SOL     OW19697   0.459   8.600   6.327
 6558SOL    HW119698   0.388   8.573   6.392
 6558SOL    HW219699   0.433   8.572   6.234
 6559SOL     OW19700   1.271   9.245   6.177
 6559SOL    HW119701   1.315   9.309   6.113
 6559SOL    HW219702   1.221   9.297   6.247
 6560SOL     OW19703   1.032   7.997   5.602
 6560SOL    HW119704   0.991   8.079   5.563
 6560SOL    HW219705   1.096   8.023   5.675
 6561SOL     OW19706   0.078   8.004   6.972
 6561SOL    HW119707   0.170   8.003   6.931
 6561SOL    HW219708   0.072   8.078   7.039
 6562SOL     OW19709   0.561   7.670   6.733
 6562SOL    HW119710   0.599   7.586   6.770
 6562SOL    HW219711   0.473   7.689   6.777
 6563SOL     OW19712   0.866   7.902   6.228
 6563SOL    HW119713   0.834   7.974   6.166
 6563SOL    HW219714   0.890   7.821   6.175
 6564SOL     OW19715   1.017   7.487   6.339
 6564SOL    HW119716   0.945   7.492   6.270
 6564SOL    HW219717   0.993   7.418   6.408
 6565SOL     OW19718   1.429   8.621   6.453
 6565SOL    HW119719   1.374   8.537   6.446
 6565SOL    HW219720   1.455   8.650   6.361
 6566SOL     OW19721   1.466   8.038   6.578
 6566SOL    HW119722   1.436   7.943   6.585
 6566SOL    HW219723   1.539   8.054   6.644
 6567SOL     OW19724   1.857   8.281   5.963
 6567SOL    HW119725   1.899   8.217   6.027
 6567SOL    HW219726   1.819   8.230   5.885
 6568SOL     OW19727   0.488   8.833   5.760
 6568SOL    HW119728   0.401   8.818   5.807
 6568SOL    HW219729   0.471   8.859   5.665
 6569SOL     OW19730   1.664   8.728   6.243
 6569SOL    HW119731   1.763   8.736   6.257
 6569SOL    HW219732   1.619   8.812   6.274
 6570SOL     OW19733   1.390   8.023   5.664
 6570SOL    HW119734   1.336   8.002   5.745
 6570SOL    HW219735   1.481   7.982   5.673
 6571SOL     OW19736   0.527   7.704   5.914
 6571SOL    HW119737   0.554   7.645   5.839
 6571SOL    HW219738   0.527   7.799   5.883
 6572SOL     OW19739   1.754   8.671   7.174
 6572SOL    HW119740   1.845   8.632   7.161
 6572SOL    HW219741   1.762   8.767   7.198
 6573SOL     OW19742   1.064   8.795   6.926
 6573SOL    HW119743   0.984   8.772   6.981
 6573SOL    HW219744   1.147   8.769   6.975
 6574SOL     OW19745   1.592   9.077   7.211
 6574SOL    HW119746   1.619   9.111   7.121
 6574SOL    HW219747   1.671   9.039   7.257
 6575SOL     OW19748   1.111   8.643   6.686
 6575SOL    HW119749   1.071   8.687   6.767
 6575SOL    HW219750   1.070   8.680   6.603
 6576SOL     OW19751   1.638   8.547   6.665
 6576SOL    HW119752   1.643   8.628   6.724
 6576SOL    HW219753   1.552   8.549   6.614
 6577SOL     OW19754   0.915   7.537   6.988
 6577SOL    HW119755   0.940   7.517   6.893
 6577SOL    HW219756   0.987   7.593   7.030
 6578SOL     OW19757   0.980   8.564   7.305
 6578SOL    HW119758   0.881   8.570   7.315
 6578SOL    HW219759   1.003   8.484   7.249
 6579SOL     OW19760   0.705   8.498   5.954
 6579SOL    HW119761   0.691   8.505   6.053
 6579SOL    HW219762   0.789   8.447   5.936
 6580SOL     OW19763   0.410   8.261   6.837
 6580SOL    HW119764   0.496   8.273   6.887
 6580SOL    HW219765   0.368   8.174   6.864
 6581SOL     OW19766   1.274   7.834   6.848
 6581SOL    HW119767   1.295   7.908   6.912
 6581SOL    HW219768   1.185   7.851   6.805
 6582SOL     OW19769   0.064   9.012   6.917
 6582SOL    HW119770   0.018   9.094   6.883
 6582SOL    HW219771   0.162   9.031   6.926
 6583SOL     OW19772   0.367   8.548   6.087
 6583SOL    HW119773   0.360   8.631   6.031
 6583SOL    HW219774   0.371   8.468   6.027
 6584SOL     OW19775   0.566   7.985   6.451
 6584SOL    HW119776   0.578   8.051   6.377
 6584SOL    HW219777   0.612   8.019   6.534
 6585SOL     OW19778   1.252   8.796   5.974
 6585SOL    HW119779   1.302   8.873   6.014
 6585SOL    HW219780   1.157   8.798   6.006
 6586SOL     OW19781   1.272   8.893   6.728
 6586SOL    HW119782   1.319   8.906   6.815
 6586SOL    HW219783   1.206   8.819   6.737
 6587SOL     OW19784   1.582   8.087   6.058
 6587SOL    HW119785   1.551   8.148   6.131
 6587SOL    HW219786   1.632   8.139   5.989
 6588SOL     OW19787   0.354   8.958   6.915
 6588SOL    HW119788   0.333   8.914   6.828
 6588SOL    HW219789   0.451   8.984   6.918
 6589SOL     OW19790   0.402   8.199   7.184
 6589SOL    HW119791   0.470   8.254   7.137
 6589SOL    HW219792   0.442   8.111   7.211
 6590SOL     OW19793   1.587   8.227   7.256
 6590SOL    HW119794   1.495   8.265   7.251
 6590SOL    HW219795   1.647   8.274   7.191
 6591SOL     OW19796   1.013   7.553   7.356
 6591SOL    HW119797   1.019   7.638   7.304
 6591SOL    HW219798   1.045   7.477   7.299
 6592SOL     OW19799   0.504   7.498   7.326
 6592SOL    HW119800   0.462   7.441   7.256
 6592SOL    HW219801   0.438   7.567   7.358
 6593SOL     OW19802   0.573   8.318   6.615
 6593SOL    HW119803   0.617   8.407   6.606
 6593SOL    HW219804   0.510   8.318   6.692
 6594SOL     OW19805   1.360   8.310   6.631
 6594SOL    HW119806   1.285   8.310   6.565
 6594SOL    HW219807   1.397   8.218   6.640
 6595SOL     OW19808   1.209   7.973   5.861
 6595SOL    HW119809   1.222   7.889   5.915
 6595SOL    HW219810   1.180   8.047   5.921
 6596SOL     OW19811   0.307   7.661   6.817
 6596SOL    HW119812   0.284   7.698   6.907
 6596SOL    HW219813   0.277   7.566   6.811
 6597SOL     OW19814   0.037   8.758   6.868
 6597SOL    HW119815   0.090   8.709   6.936
 6597SOL    HW219816   0.059   8.856   6.873
 6598SOL     OW19817   0.732   8.082   6.650
 6598SOL    HW119818   0.791   8.056   6.574
 6598SOL    HW219819   0.704   8.178   6.639
 6599SOL     OW19820   1.728   8.383   7.440
 6599SOL    HW119821   1.682   8.376   7.351
 6599SOL    HW219822   1.666   8.427   7.506
 6600SOL     OW19823   0.307   7.511   6.204
 6600SOL    HW119824   0.296   7.605   6.237
 6600SOL    HW219825   0.302   7.448   6.281
 6601SOL     OW19826   1.622   7.815   5.960
 6601SOL    HW119827   1.624   7.739   6.024
 6601SOL    HW219828   1.574   7.892   6.000
 6602SOL     OW19829   1.023   8.214   6.552
 6602SOL    HW119830   1.038   8.235   6.648
 6602SOL    HW219831   0.993   8.119   6.543
 6603SOL     OW19832   0.980   9.021   7.286
 6603SOL    HW119833   0.960   9.065   7.198
 6603SOL    HW219834   1.019   8.930   7.270
 6604SOL     OW19835   1.859   8.966   7.191
 6604SOL    HW119836   1.873   8.993   7.096
 6604SOL    HW219837   1.942   8.988   7.244
 6605SOL     OW19838   0.350   8.346   7.390
 6605SOL    HW119839   0.426   8.390   7.438
 6605SOL    HW219840   0.385   8.299   7.308
 6606SOL     OW19841   1.540   7.722   5.711
 6606SOL    HW119842   1.479   7.647   5.734
 6606SOL    HW219843   1.562   7.774   5.794
 6607SOL     OW19844   1.303   8.286   5.628
 6607SOL    HW119845   1.337   8.193   5.643
 6607SOL    HW219846   1.321   8.313   5.533
 6608SOL     OW19847   1.068   8.781   6.435
 6608SOL    HW119848   1.075   8.697   6.380
 6608SOL    HW219849   1.130   8.850   6.399
 6609SOL     OW19850   0.319   8.258   6.535
 6609SOL    HW119851   0.412   8.294   6.540
 6609SOL    HW219852   0.313   8.173   6.587
 6610SOL     OW19853   0.339   7.957   6.592
 6610SOL    HW119854   0.287   7.874   6.575
 6610SOL    HW219855   0.416   7.962   6.528
 6611SOL     OW19856   1.138   7.828   7.264
 6611SOL    HW119857   1.093   7.891   7.328
 6611SOL    HW219858   1.231   7.859   7.247
 6612SOL     OW19859   1.160   7.655   7.063
 6612SOL    HW119860   1.160   7.719   7.140
 6612SOL    HW219861   1.188   7.703   6.980
 6613SOL     OW19862   0.008   8.774   5.786
 6613SOL    HW119863  -0.085   8.795   5.755
 6613SOL    HW219864   0.018   8.675   5.799
 6614SOL     OW19865   0.088   9.249   6.513
 6614SOL    HW119866   0.046   9.163   6.486
 6614SOL    HW219867   0.182   9.252   6.479
 6615SOL     OW19868   0.504   9.016   6.496
 6615SOL    HW119869   0.570   9.090   6.505
 6615SOL    HW219870   0.548   8.937   6.454
 6616SOL     OW19871   1.002   8.244   6.824
 6616SOL    HW119872   1.043   8.212   6.910
 6616SOL    HW219873   0.906   8.217   6.821
 6617SOL     OW19874   0.040   7.992   6.700
 6617SOL    HW119875   0.125   7.959   6.659
 6617SOL    HW219876   0.053   8.007   6.798
 6618SOL     OW19877   0.189   7.968   7.308
 6618SOL    HW119878   0.248   7.928   7.238
 6618SOL    HW219879   0.131   8.039   7.267
 6619SOL     OW19880   1.369   8.398   7.246
 6619SOL    HW119881   1.408   8.487   7.266
 6619SOL    HW219882   1.379   8.378   7.149
 6620SOL     OW19883   0.815   8.020   5.911
 6620SOL    HW119884   0.822   7.931   5.865
 6620SOL    HW219885   0.721   8.054   5.903
 6621SOL     OW19886   1.657   8.052   6.792
 6621SOL    HW119887   1.619   7.983   6.854
 6621SOL    HW219888   1.739   8.016   6.748
 6622SOL     OW19889   0.252   9.012   7.330
 6622SOL    HW119890   0.222   9.069   7.406
 6622SOL    HW219891   0.245   8.915   7.356
 6623SOL     OW19892   0.671   7.912   6.855
 6623SOL    HW119893   0.637   7.823   6.825
 6623SOL    HW219894   0.697   7.966   6.775
 6624SOL     OW19895   0.930   9.126   7.051
 6624SOL    HW119896   0.906   9.108   6.956
 6624SOL    HW219897   0.960   9.220   7.061
 6625SOL     OW19898   0.473   7.948   5.777
 6625SOL    HW119899   0.534   8.028   5.781
 6625SOL    HW219900   0.378   7.979   5.784
 6626SOL     OW19901   0.159   8.585   7.052
 6626SOL    HW119902   0.181   8.524   7.128
 6626SOL    HW219903   0.169   8.536   6.966
 6627SOL     OW19904   1.347   8.507   6.820
 6627SOL    HW119905   1.371   8.444   6.746
 6627SOL    HW219906   1.257   8.547   6.802
 6628SOL     OW19907   1.302   8.303   5.895
 6628SOL    HW119908   1.216   8.272   5.937
 6628SOL    HW219909   1.298   8.289   5.796
 6629SOL     OW19910   1.759   9.195   6.740
 6629SOL    HW119911   1.820   9.225   6.667
 6629SOL    HW219912   1.721   9.106   6.718
 6630SOL     OW19913   1.252   9.179   6.714
 6630SOL    HW119914   1.336   9.184   6.660
 6630SOL    HW219915   1.229   9.083   6.732
 6631SOL     OW19916   0.083   8.706   6.608
 6631SOL    HW119917   0.078   8.705   6.708
 6631SOL    HW219918   0.000   8.665   6.570
 6632SOL     OW19919   0.688   9.110   7.302
 6632SOL    HW119920   0.632   9.191   7.311
 6632SOL    HW219921   0.740   9.114   7.216
 6633SOL     OW19922   1.726   7.583   6.109
 6633SOL    HW119923   1.799   7.566   6.042
 6633SOL    HW219924   1.695   7.496   6.147
 6634SOL     OW19925   1.388   9.021   6.063
 6634SOL    HW119926   1.455   9.033   5.989
 6634SOL    HW219927   1.348   9.110   6.086
 6635SOL     OW19928   0.130   9.242   7.437
 6635SOL    HW119929   0.089   9.168   7.490
 6635SOL    HW219930   0.194   9.293   7.495
 6636SOL     OW19931   1.280   8.375   6.258
 6636SOL    HW119932   1.340   8.294   6.260
 6636SOL    HW219933   1.320   8.444   6.198
 6637SOL     OW19934   0.830   8.721   7.008
 6637SOL    HW119935   0.825   8.754   7.103
 6637SOL    HW219936   0.744   8.740   6.962
 6638SOL     OW19937   0.672   9.064   5.740
 6638SOL    HW119938   0.681   9.074   5.641
 6638SOL    HW219939   0.632   8.975   5.761
 6639SOL     OW19940   1.650   9.168   6.980
 6639SOL    HW119941   1.703   9.178   6.896
 6639SOL    HW219942   1.623   9.258   7.014
 6640SOL     OW19943   1.841   7.623   6.549
 6640SOL    HW119944   1.880   7.538   6.513
 6640SOL    HW219945   1.743   7.625   6.530
 6641SOL     OW19946   0.263   7.774   6.306
 6641SOL    HW119947   0.184   7.825   6.272
 6641SOL    HW219948   0.254   7.759   6.404
 6642SOL     OW19949   1.194   9.060   5.617
 6642SOL    HW119950   1.200   8.967   5.654
 6642SOL    HW219951   1.135   9.060   5.537
 6643SOL     OW19952   0.822   8.450   6.958
 6643SOL    HW119953   0.862   8.449   6.866
 6643SOL    HW219954   0.832   8.542   6.998
 6644SOL     OW19955   0.916   8.358   5.877
 6644SOL    HW119956   0.979   8.396   5.809
 6644SOL    HW219957   0.956   8.275   5.916
 6645SOL     OW19958   1.504   9.055   5.630
 6645SOL    HW119959   1.412   9.092   5.637
 6645SOL    HW219960   1.542   9.075   5.540
 6646SOL     OW19961   0.372   8.736   7.076
 6646SOL    HW119962   0.359   8.829   7.042
 6646SOL    HW219963   0.288   8.684   7.063
 6647SOL     OW19964   1.614   8.740   6.875
 6647SOL    HW119965   1.674   8.743   6.955
 6647SOL    HW219966   1.539   8.804   6.888
 6648SOL     OW19967   1.039   8.546   6.282
 6648SOL    HW119968   0.969   8.499   6.336
 6648SOL    HW219969   1.098   8.478   6.239
 6649SOL     OW19970   1.014   7.684   6.557
 6649SOL    HW119971   1.006   7.648   6.464
 6649SOL    HW219972   1.012   7.608   6.622
 6650SOL     OW19973   0.590   8.935   6.077
 6650SOL    HW119974   0.632   8.877   6.007
 6650SOL    HW219975   0.546   9.014   6.033
 6651SOL     OW19976   1.709   7.833   6.967
 6651SOL    HW119977   1.782   7.902   6.971
 6651SOL    HW219978   1.737   7.758   6.908
 6652SOL     OW19979   0.255   8.796   5.876
 6652SOL    HW119980   0.159   8.797   5.849
 6652SOL    HW219981   0.267   8.849   5.960
 6653SOL     OW19982   0.105   8.461   7.312
 6653SOL    HW119983   0.028   8.428   7.366
 6653SOL    HW219984   0.190   8.431   7.354
 6654SOL     OW19985   0.672   7.651   7.075
 6654SOL    HW119986   0.762   7.635   7.035
 6654SOL    HW219987   0.680   7.656   7.174
 6655SOL     OW19988   0.075   7.793   5.619
 6655SOL    HW119989  -0.017   7.765   5.590
 6655SOL    HW219990   0.106   7.870   5.563
 6656SOL     OW19991   1.440   8.304   6.984
 6656SOL    HW119992   1.383   8.356   6.921
 6656SOL    HW219993   1.536   8.316   6.960
 6657SOL     OW19994   0.072   7.614   5.904
 6657SOL    HW119995   0.055   7.697   5.850
 6657SOL    HW219996   0.162   7.577   5.882
 6658SOL     OW19997   1.183   8.783   5.705
 6658SOL    HW119998   1.084   8.772   5.707
 6658SOL    HW219999   1.217   8.798   5.798
 6659SOL     OW20000   0.613   8.290   7.017
 6659SOL    HW120001   0.669   8.371   7.000
 6659SOL    HW220002   0.672   8.210   7.020
 6660SOL     OW20003   1.493   9.215   6.545
 6660SOL    HW120004   1.526   9.279   6.476
 6660SOL    HW220005   1.559   9.209   6.620
 6661SOL     OW20006   0.716   8.013   7.294
 6661SOL    HW120007   0.735   8.078   7.368
 6661SOL    HW220008   0.776   7.933   7.303
 6662SOL     OW20009   1.450   8.668   7.219
 6662SOL    HW120010   1.441   8.658   7.318
 6662SOL    HW220011   1.546   8.661   7.193
 6663SOL     OW20012   0.390   9.189   7.146
 6663SOL    HW120013   0.299   9.230   7.144
 6663SOL    HW220014   0.383   9.095   7.178
 6664SOL     OW20015   1.674   8.331   6.840
 6664SOL    HW120016   1.647   8.242   6.803
 6664SOL    HW220017   1.675   8.399   6.767
 6665SOL     OW20018   1.225   7.773   6.035
 6665SOL    HW120019   1.290   7.699   6.024
 6665SOL    HW220020   1.245   7.823   6.119
 6666SOL     OW20021   0.594   8.193   6.238
 6666SOL    HW120022   0.644   8.278   6.219
 6666SOL    HW220023   0.506   8.195   6.190
 6667SOL     OW20024   1.777   7.790   7.228
 6667SOL    HW120025   1.760   7.821   7.134
 6667SOL    HW220026   1.693   7.753   7.266
 6668SOL     OW20027   1.730   8.382   7.103
 6668SOL    HW120028   1.768   8.473   7.118
 6668SOL    HW220029   1.722   8.365   7.004
 6669SOL     OW20030   0.859   8.822   5.602
 6669SOL    HW120031   0.813   8.837   5.690
 6669SOL    HW220032   0.903   8.907   5.572
 6670SOL     OW20033   0.661   9.238   6.539
 6670SOL    HW120034   0.615   9.326   6.526
 6670SOL    HW220035   0.760   9.250   6.532
 6671SOL     OW20036   0.859   8.404   6.447
 6671SOL    HW120037   0.913   8.335   6.495
 6671SOL    HW220038   0.827   8.473   6.513
 6672SOL     OW20039   1.083   8.432   5.673
 6672SOL    HW120040   1.060   8.485   5.591
 6672SOL    HW220041   1.164   8.376   5.654
 6673SOL     OW20042   1.861   9.017   6.437
 6673SOL    HW120043   1.790   9.005   6.367
 6673SOL    HW220044   1.862   8.938   6.497
 6674SOL     OW20045   0.221   8.762   7.430
 6674SOL    HW120046   0.156   8.689   7.409
 6674SOL    HW220047   0.225   8.776   7.528
 6675SOL     OW20048   0.079   8.688   6.239
 6675SOL    HW120049   0.078   8.641   6.327
 6675SOL    HW220050   0.161   8.660   6.188
 6676SOL     OW20051   0.672   8.839   7.210
 6676SOL    HW120052   0.594   8.789   7.248
 6676SOL    HW220053   0.669   8.934   7.241
 6677SOL     OW20054   1.824   7.640   6.813
 6677SOL    HW120055   1.820   7.550   6.857
 6677SOL    HW220056   1.827   7.629   6.714
 6678SOL     OW20057   0.428   7.872   6.106
 6678SOL    HW120058   0.458   7.800   6.044
 6678SOL    HW220059   0.389   7.832   6.189
 6679SOL     OW20060   1.705   8.935   6.690
 6679SOL    HW120061   1.612   8.910   6.663
 6679SOL    HW220062   1.731   8.885   6.772
 6680SOL     OW20063   0.317   7.995   6.866
 6680SOL    HW120064   0.355   7.936   6.938
 6680SOL    HW220065   0.357   7.969   6.778
 6681SOL     OW20066   0.812   9.034   6.273
 6681SOL    HW120067   0.844   9.044   6.179
 6681SOL    HW220068   0.733   8.972   6.275
 6682SOL     OW20069   1.424   7.662   6.698
 6682SOL    HW120070   1.476   7.597   6.753
 6682SOL    HW220071   1.375   7.725   6.759
 6683SOL     OW20072   1.001   7.482   6.740
 6683SOL    HW120073   0.938   7.410   6.709
 6683SOL    HW220074   1.094   7.446   6.740
 6684SOL     OW20075   0.770   8.778   5.887
 6684SOL    HW120076   0.724   8.691   5.904
 6684SOL    HW220077   0.861   8.775   5.928
 6685SOL     OW20078   0.618   9.015   6.870
 6685SOL    HW120079   0.613   9.097   6.927
 6685SOL    HW220080   0.707   9.012   6.825
 6686SOL     OW20081   1.352   7.500   5.754
 6686SOL    HW120082   1.387   7.459   5.670
 6686SOL    HW220083   1.262   7.462   5.774
 6687SOL     OW20084   1.300   7.901   6.277
 6687SOL    HW120085   1.241   7.981   6.281
 6687SOL    HW220086   1.315   7.866   6.370
 6688SOL     OW20087   1.593   7.669   6.468
 6688SOL    HW120088   1.509   7.668   6.522
 6688SOL    HW220089   1.595   7.752   6.412
 6689SOL     OW20090   0.039   8.525   5.886
 6689SOL    HW120091   0.138   8.514   5.877
 6689SOL    HW220092  -0.001   8.439   5.918
 6690SOL     OW20093   0.875   9.094   5.923
 6690SOL    HW120094   0.798   9.059   5.869
 6690SOL    HW220095   0.843   9.165   5.985
 6691SOL     OW20096   0.230   8.076   7.561
 6691SOL    HW120097   0.137   8.074   7.598
 6691SOL    HW220098   0.231   8.037   7.469
 6692SOL     OW20099   0.225   7.723   8.444
 6692SOL    HW120100   0.260   7.706   8.536
 6692SOL    HW220101   0.137   7.678   8.432
 6693SOL     OW20102   0.019   7.816   8.095
 6693SOL    HW120103  -0.063   7.859   8.134
 6693SOL    HW220104  -0.009   7.743   8.032
 6694SOL     OW20105   0.569   8.723   8.613
 6694SOL    HW120106   0.476   8.716   8.576
 6694SOL    HW220107   0.580   8.812   8.657
 6695SOL     OW20108   1.555   8.959   8.151
 6695SOL    HW120109   1.498   8.943   8.232
 6695SOL    HW220110   1.496   8.969   8.071
 6696SOL     OW20111   1.135   8.151   8.165
 6696SOL    HW120112   1.192   8.229   8.140
 6696SOL    HW220113   1.075   8.177   8.241
 6697SOL     OW20114   1.755   8.055   7.679
 6697SOL    HW120115   1.743   8.042   7.580
 6697SOL    HW220116   1.725   7.974   7.728
 6698SOL     OW20117   0.768   8.592   8.471
 6698SOL    HW120118   0.690   8.609   8.531
 6698SOL    HW220119   0.802   8.679   8.435
 6699SOL     OW20120   0.850   8.246   9.271
 6699SOL    HW120121   0.846   8.322   9.336
 6699SOL    HW220122   0.872   8.282   9.180
 6700SOL     OW20123   0.685   8.460   8.113
 6700SOL    HW120124   0.754   8.444   8.183
 6700SOL    HW220125   0.612   8.517   8.151
 6701SOL     OW20126   0.686   8.609   9.251
 6701SOL    HW120127   0.746   8.688   9.265
 6701SOL    HW220128   0.600   8.640   9.210
 6702SOL     OW20129   0.335   8.883   8.509
 6702SOL    HW120130   0.257   8.852   8.456
 6702SOL    HW220131   0.393   8.941   8.452
 6703SOL     OW20132   1.460   8.953   8.787
 6703SOL    HW120133   1.484   9.047   8.813
 6703SOL    HW220134   1.444   8.899   8.869
 6704SOL     OW20135   0.438   7.840   8.947
 6704SOL    HW120136   0.520   7.784   8.956
 6704SOL    HW220137   0.357   7.782   8.951
 6705SOL     OW20138   1.603   7.895   8.185
 6705SOL    HW120139   1.529   7.941   8.135
 6705SOL    HW220140   1.654   7.963   8.238
 6706SOL     OW20141   0.231   9.161   7.931
 6706SOL    HW120142   0.265   9.238   7.985
 6706SOL    HW220143   0.275   9.161   7.841
 6707SOL     OW20144   1.127   8.789   9.138
 6707SOL    HW120145   1.174   8.789   9.226
 6707SOL    HW220146   1.079   8.702   9.127
 6708SOL     OW20147   0.230   8.882   7.986
 6708SOL    HW120148   0.204   8.978   7.986
 6708SOL    HW220149   0.159   8.828   8.031
 6709SOL     OW20150   0.240   8.539   8.334
 6709SOL    HW120151   0.254   8.455   8.386
 6709SOL    HW220152   0.185   8.603   8.389
 6710SOL     OW20153   0.620   9.234   8.887
 6710SOL    HW120154   0.528   9.217   8.922
 6710SOL    HW220155   0.648   9.326   8.913
 6711SOL     OW20156   0.606   8.412   7.571
 6711SOL    HW120157   0.613   8.496   7.517
 6711SOL    HW220158   0.652   8.425   7.659
 6712SOL     OW20159   1.594   7.562   8.928
 6712SOL    HW120160   1.576   7.629   8.856
 6712SOL    HW220161   1.591   7.608   9.017
 6713SOL     OW20162   0.122   8.091   8.011
 6713SOL    HW120163   0.077   8.003   8.028
 6713SOL    HW220164   0.121   8.145   8.095
 6714SOL     OW20165   1.842   9.215   7.807
 6714SOL    HW120166   1.896   9.186   7.887
 6714SOL    HW220167   1.872   9.305   7.778
 6715SOL     OW20168   0.027   9.044   7.565
 6715SOL    HW120169   0.008   8.948   7.586
 6715SOL    HW220170  -0.006   9.102   7.640
 6716SOL     OW20171   1.689   8.370   8.060
 6716SOL    HW120172   1.784   8.341   8.068
 6716SOL    HW220173   1.681   8.435   7.985
 6717SOL     OW20174   1.641   8.556   7.880
 6717SOL    HW120175   1.727   8.558   7.828
 6717SOL    HW220176   1.655   8.603   7.968
 6718SOL     OW20177   0.113   8.185   9.045
 6718SOL    HW120178   0.201   8.172   9.090
 6718SOL    HW220179   0.100   8.282   9.023
 6719SOL     OW20180   0.613   8.813   8.174
 6719SOL    HW120181   0.564   8.726   8.183
 6719SOL    HW220182   0.590   8.856   8.087
 6720SOL     OW20183   1.293   8.676   8.871
 6720SOL    HW120184   1.330   8.603   8.813
 6720SOL    HW220185   1.345   8.681   8.956
 6721SOL     OW20186   0.809   7.452   7.950
 6721SOL    HW120187   0.849   7.543   7.941
 6721SOL    HW220188   0.709   7.460   7.956
 6722SOL     OW20189   0.197   8.424   8.712
 6722SOL    HW120190   0.286   8.379   8.698
 6722SOL    HW220191   0.124   8.359   8.693
 6723SOL     OW20192   1.525   8.447   7.638
 6723SOL    HW120193   1.462   8.371   7.651
 6723SOL    HW220194   1.573   8.465   7.724
 6724SOL     OW20195   1.187   9.240   9.064
 6724SOL    HW120196   1.211   9.300   8.988
 6724SOL    HW220197   1.194   9.145   9.034
 6725SOL     OW20198   0.317   7.699   9.249
 6725SOL    HW120199   0.388   7.770   9.255
 6725SOL    HW220200   0.229   7.738   9.277
 6726SOL     OW20201   1.466   8.865   8.401
 6726SOL    HW120202   1.407   8.871   8.481
 6726SOL    HW220203   1.451   8.777   8.355
 6727SOL     OW20204   1.667   9.162   8.020
 6727SOL    HW120205   1.626   9.139   7.932
 6727SOL    HW220206   1.649   9.088   8.085
 6728SOL     OW20207   0.598   8.177   7.718
 6728SOL    HW120208   0.622   8.246   7.650
 6728SOL    HW220209   0.520   8.210   7.772
 6729SOL     OW20210   1.281   7.793   8.392
 6729SOL    HW120211   1.195   7.743   8.379
 6729SOL    HW220212   1.343   7.739   8.448
 6730SOL     OW20213   1.576   9.110   7.755
 6730SOL    HW120214   1.665   9.156   7.758
 6730SOL    HW220215   1.555   9.086   7.660
 6731SOL     OW20216   0.807   8.053   8.913
 6731SOL    HW120217   0.760   8.050   9.002
 6731SOL    HW220218   0.756   7.998   8.847
 6732SOL     OW20219   1.394   7.917   9.122
 6732SOL    HW120220   1.374   7.960   9.210
 6732SOL    HW220221   1.472   7.855   9.131
 6733SOL     OW20222   0.973   8.338   9.020
 6733SOL    HW120223   1.019   8.254   8.991
 6733SOL    HW220224   0.917   8.372   8.945
 6734SOL     OW20225   0.991   7.858   8.690
 6734SOL    HW120226   0.914   7.892   8.744
 6734SOL    HW220227   0.957   7.807   8.611
 6735SOL     OW20228   1.041   8.149   7.877
 6735SOL    HW120229   1.067   8.145   7.973
 6735SOL    HW220230   0.956   8.098   7.863
 6736SOL     OW20231   0.076   8.259   8.237
 6736SOL    HW120232   0.175   8.247   8.246
 6736SOL    HW220233   0.052   8.354   8.258
 6737SOL     OW20234   0.130   9.269   9.019
 6737SOL    HW120235   0.120   9.254   9.118
 6737SOL    HW220236   0.044   9.305   8.983
 6738SOL     OW20237   0.865   7.796   7.643
 6738SOL    HW120238   0.924   7.859   7.594
 6738SOL    HW220239   0.884   7.702   7.614
 6739SOL     OW20240   1.719   8.033   9.279
 6739SOL    HW120241   1.693   8.122   9.243
 6739SOL    HW220242   1.717   7.965   9.206
 6740SOL     OW20243   1.362   8.592   7.993
 6740SOL    HW120244   1.445   8.563   7.945
 6740SOL    HW220245   1.313   8.659   7.937
 6741SOL     OW20246   0.550   7.644   8.333
 6741SOL    HW120247   0.545   7.639   8.433
 6741SOL    HW220248   0.552   7.740   8.304
 6742SOL     OW20249   1.008   8.904   7.925
 6742SOL    HW120250   0.962   8.976   7.873
 6742SOL    HW220251   1.004   8.924   8.023
 6743SOL     OW20252   0.351   9.249   8.301
 6743SOL    HW120253   0.401   9.163   8.307
 6743SOL    HW220254   0.416   9.326   8.298
 6744SOL     OW20255   1.795   8.514   8.321
 6744SOL    HW120256   1.733   8.499   8.245
 6744SOL    HW220257   1.743   8.525   8.406
 6745SOL     OW20258   1.227   8.998   8.954
 6745SOL    HW120259   1.233   8.921   9.018
 6745SOL    HW220260   1.175   8.972   8.874
 6746SOL     OW20261   0.321   8.391   7.690
 6746SOL    HW120262   0.403   8.430   7.648
 6746SOL    HW220263   0.294   8.309   7.641
 6747SOL     OW20264   1.458   8.183   8.176
 6747SOL    HW120265   1.453   8.118   8.251
 6747SOL    HW220266   1.538   8.242   8.189
 6748SOL     OW20267   0.461   8.714   9.175
 6748SOL    HW120268   0.411   8.715   9.089
 6748SOL    HW220269   0.398   8.696   9.251
 6749SOL     OW20270   1.111   9.224   7.685
 6749SOL    HW120271   1.051   9.162   7.735
 6749SOL    HW220272   1.142   9.180   7.600
 6750SOL     OW20273   0.202   7.733   8.946
 6750SOL    HW120274   0.122   7.793   8.933
 6750SOL    HW220275   0.192   7.684   9.032
 6751SOL     OW20276   1.632   8.825   7.529
 6751SOL    HW120277   1.600   8.919   7.519
 6751SOL    HW220278   1.556   8.762   7.517
 6752SOL     OW20279   0.464   9.191   7.771
 6752SOL    HW120280   0.497   9.230   7.857
 6752SOL    HW220281   0.540   9.184   7.706
 6753SOL     OW20282   1.400   7.555   7.874
 6753SOL    HW120283   1.376   7.518   7.784
 6753SOL    HW220284   1.499   7.571   7.878
 6754SOL     OW20285   0.249   9.233   8.689
 6754SOL    HW120286   0.306   9.168   8.739
 6754SOL    HW220287   0.233   9.200   8.596
 6755SOL     OW20288   0.940   9.146   8.352
 6755SOL    HW120289   1.020   9.089   8.373
 6755SOL    HW220290   0.891   9.106   8.275
 6756SOL     OW20291   0.382   8.148   7.928
 6756SOL    HW120292   0.427   8.058   7.925
 6756SOL    HW220293   0.288   8.137   7.961
 6757SOL     OW20294   1.547   7.670   9.177
 6757SOL    HW120295   1.542   7.707   9.269
 6757SOL    HW220296   1.475   7.601   9.165
 6758SOL     OW20297   0.614   7.570   7.565
 6758SOL    HW120298   0.712   7.548   7.572
 6758SOL    HW220299   0.583   7.553   7.472
 6759SOL     OW20300   0.781   7.712   9.197
 6759SOL    HW120301   0.848   7.651   9.240
 6759SOL    HW220302   0.708   7.731   9.262
 6760SOL     OW20303   0.888   8.962   8.643
 6760SOL    HW120304   0.865   8.937   8.549
 6760SOL    HW220305   0.949   8.893   8.682
 6761SOL     OW20306   1.351   8.038   8.881
 6761SOL    HW120307   1.379   7.995   8.966
 6761SOL    HW220308   1.376   8.134   8.882
 6762SOL     OW20309   0.803   8.850   8.372
 6762SOL    HW120310   0.893   8.864   8.330
 6762SOL    HW220311   0.732   8.852   8.301
 6763SOL     OW20312   0.922   7.951   8.347
 6763SOL    HW120313   0.897   7.942   8.251
 6763SOL    HW220314   0.970   7.869   8.378
 6764SOL     OW20315   0.539   7.512   7.960
 6764SOL    HW120316   0.458   7.513   8.018
 6764SOL    HW220317   0.542   7.595   7.905
 6765SOL     OW20318   1.434   8.636   7.489
 6765SOL    HW120319   1.466   8.560   7.546
 6765SOL    HW220320   1.342   8.663   7.519
 6766SOL     OW20321   0.297   7.483   7.619
 6766SOL    HW120322   0.346   7.567   7.598
 6766SOL    HW220323   0.359   7.418   7.664
 6767SOL     OW20324   0.935   7.684   7.928
 6767SOL    HW120325   0.887   7.725   7.850
 6767SOL    HW220326   1.034   7.682   7.909
 6768SOL     OW20327   1.076   8.131   8.912
 6768SOL    HW120328   0.996   8.070   8.915
 6768SOL    HW220329   1.157   8.078   8.888
 6769SOL     OW20330   1.227   9.018   8.241
 6769SOL    HW120331   1.248   9.092   8.176
 6769SOL    HW220332   1.295   9.018   8.314
 6770SOL     OW20333   0.459   8.600   8.189
 6770SOL    HW120334   0.388   8.573   8.254
 6770SOL    HW220335   0.433   8.572   8.096
 6771SOL     OW20336   1.271   9.245   8.039
 6771SOL    HW120337   1.315   9.309   7.975
 6771SOL    HW220338   1.221   9.297   8.109
 6772SOL     OW20339   1.032   7.997   7.464
 6772SOL    HW120340   0.991   8.079   7.425
 6772SOL    HW220341   1.096   8.023   7.537
 6773SOL     OW20342   0.078   8.004   8.834
 6773SOL    HW120343   0.170   8.003   8.793
 6773SOL    HW220344   0.072   8.078   8.901
 6774SOL     OW20345   0.561   7.670   8.595
 6774SOL    HW120346   0.599   7.586   8.632
 6774SOL    HW220347   0.473   7.689   8.639
 6775SOL     OW20348   0.866   7.902   8.090
 6775SOL    HW120349   0.834   7.974   8.028
 6775SOL    HW220350   0.890   7.821   8.037
 6776SOL     OW20351   1.017   7.487   8.201
 6776SOL    HW120352   0.945   7.492   8.132
 6776SOL    HW220353   0.993   7.418   8.270
 6777SOL     OW20354   1.429   8.621   8.315
 6777SOL    HW120355   1.374   8.537   8.308
 6777SOL    HW220356   1.455   8.650   8.223
 6778SOL     OW20357   1.466   8.038   8.440
 6778SOL    HW120358   1.436   7.943   8.447
 6778SOL    HW220359   1.539   8.054   8.506
 6779SOL     OW20360   1.857   8.281   7.825
 6779SOL    HW120361   1.899   8.217   7.889
 6779SOL    HW220362   1.819   8.230   7.747
 6780SOL     OW20363   0.488   8.833   7.622
 6780SOL    HW120364   0.401   8.818   7.669
 6780SOL    HW220365   0.471   8.859   7.527
 6781SOL     OW20366   1.664   8.728   8.105
 6781SOL    HW120367   1.763   8.736   8.119
 6781SOL    HW220368   1.619   8.812   8.136
 6782SOL     OW20369   1.390   8.023   7.526
 6782SOL    HW120370   1.336   8.002   7.607
 6782SOL    HW220371   1.481   7.982   7.535
 6783SOL     OW20372   0.527   7.704   7.776
 6783SOL    HW120373   0.554   7.645   7.701
 6783SOL    HW220374   0.527   7.799   7.745
 6784SOL     OW20375   1.754   8.671   9.036
 6784SOL    HW120376   1.845   8.632   9.023
 6784SOL    HW220377   1.762   8.767   9.060
 6785SOL     OW20378   1.064   8.795   8.788
 6785SOL    HW120379   0.984   8.772   8.843
 6785SOL    HW220380   1.147   8.769   8.837
 6786SOL     OW20381   1.592   9.077   9.073
 6786SOL    HW120382   1.619   9.111   8.983
 6786SOL    HW220383   1.671   9.039   9.119
 6787SOL     OW20384   1.111   8.643   8.548
 6787SOL    HW120385   1.071   8.687   8.629
 6787SOL    HW220386   1.070   8.680   8.465
 6788SOL     OW20387   1.638   8.547   8.527
 6788SOL    HW120388   1.643   8.628   8.586
 6788SOL    HW220389   1.552   8.549   8.476
 6789SOL     OW20390   0.915   7.537   8.850
 6789SOL    HW120391   0.940   7.517   8.755
 6789SOL    HW220392   0.987   7.593   8.892
 6790SOL     OW20393   0.980   8.564   9.167
 6790SOL    HW120394   0.881   8.570   9.177
 6790SOL    HW220395   1.003   8.484   9.111
 6791SOL     OW20396   0.705   8.498   7.816
 6791SOL    HW120397   0.691   8.505   7.915
 6791SOL    HW220398   0.789   8.447   7.798
 6792SOL     OW20399   0.410   8.261   8.699
 6792SOL    HW120400   0.496   8.273   8.749
 6792SOL    HW220401   0.368   8.174   8.726
 6793SOL     OW20402   1.274   7.834   8.710
 6793SOL    HW120403   1.295   7.908   8.774
 6793SOL    HW220404   1.185   7.851   8.667
 6794SOL     OW20405   0.064   9.012   8.779
 6794SOL    HW120406   0.018   9.094   8.745
 6794SOL    HW220407   0.162   9.031   8.788
 6795SOL     OW20408   0.367   8.548   7.949
 6795SOL    HW120409   0.360   8.631   7.893
 6795SOL    HW220410   0.371   8.468   7.889
 6796SOL     OW20411   0.566   7.985   8.313
 6796SOL    HW120412   0.578   8.051   8.239
 6796SOL    HW220413   0.612   8.019   8.396
 6797SOL     OW20414   1.252   8.796   7.836
 6797SOL    HW120415   1.302   8.873   7.876
 6797SOL    HW220416   1.157   8.798   7.868
 6798SOL     OW20417   1.272   8.893   8.590
 6798SOL    HW120418   1.319   8.906   8.677
 6798SOL    HW220419   1.206   8.819   8.599
 6799SOL     OW20420   1.582   8.087   7.920
 6799SOL    HW120421   1.551   8.148   7.993
 6799SOL    HW220422   1.632   8.139   7.851
 6800SOL     OW20423   0.354   8.958   8.777
 6800SOL    HW120424   0.333   8.914   8.690
 6800SOL    HW220425   0.451   8.984   8.780
 6801SOL     OW20426   0.402   8.199   9.046
 6801SOL    HW120427   0.470   8.254   8.999
 6801SOL    HW220428   0.442   8.111   9.073
 6802SOL     OW20429   1.587   8.227   9.118
 6802SOL    HW120430   1.495   8.265   9.113
 6802SOL    HW220431   1.647   8.274   9.053
 6803SOL     OW20432   1.013   7.553   9.218
 6803SOL    HW120433   1.019   7.638   9.166
 6803SOL    HW220434   1.045   7.477   9.161
 6804SOL     OW20435   0.504   7.498   9.188
 6804SOL    HW120436   0.462   7.441   9.118
 6804SOL    HW220437   0.438   7.567   9.220
 6805SOL     OW20438   0.573   8.318   8.477
 6805SOL    HW120439   0.617   8.407   8.468
 6805SOL    HW220440   0.510   8.318   8.554
 6806SOL     OW20441   1.360   8.310   8.493
 6806SOL    HW120442   1.285   8.310   8.427
 6806SOL    HW220443   1.397   8.218   8.502
 6807SOL     OW20444   1.209   7.973   7.723
 6807SOL    HW120445   1.222   7.889   7.777
 6807SOL    HW220446   1.180   8.047   7.783
 6808SOL     OW20447   0.307   7.661   8.679
 6808SOL    HW120448   0.284   7.698   8.769
 6808SOL    HW220449   0.277   7.566   8.673
 6809SOL     OW20450   0.037   8.758   8.730
 6809SOL    HW120451   0.090   8.709   8.798
 6809SOL    HW220452   0.059   8.856   8.735
 6810SOL     OW20453   0.732   8.082   8.512
 6810SOL    HW120454   0.791   8.056   8.436
 6810SOL    HW220455   0.704   8.178   8.501
 6811SOL     OW20456   1.728   8.383   9.302
 6811SOL    HW120457   1.682   8.376   9.213
 6811SOL    HW220458   1.666   8.427   9.368
 6812SOL     OW20459   0.307   7.511   8.066
 6812SOL    HW120460   0.296   7.605   8.099
 6812SOL    HW220461   0.302   7.448   8.143
 6813SOL     OW20462   1.622   7.815   7.822
 6813SOL    HW120463   1.624   7.739   7.886
 6813SOL    HW220464   1.574   7.892   7.862
 6814SOL     OW20465   1.023   8.214   8.414
 6814SOL    HW120466   1.038   8.235   8.510
 6814SOL    HW220467   0.993   8.119   8.405
 6815SOL     OW20468   0.980   9.021   9.148
 6815SOL    HW120469   0.960   9.065   9.060
 6815SOL    HW220470   1.019   8.930   9.132
 6816SOL     OW20471   1.859   8.966   9.053
 6816SOL    HW120472   1.873   8.993   8.958
 6816SOL    HW220473   1.942   8.988   9.106
 6817SOL     OW20474   0.350   8.346   9.252
 6817SOL    HW120475   0.426   8.390   9.300
 6817SOL    HW220476   0.385   8.299   9.170
 6818SOL     OW20477   1.540   7.722   7.573
 6818SOL    HW120478   1.479   7.647   7.596
 6818SOL    HW220479   1.562   7.774   7.656
 6819SOL     OW20480   1.303   8.286   7.490
 6819SOL    HW120481   1.337   8.193   7.505
 6819SOL    HW220482   1.321   8.313   7.395
 6820SOL     OW20483   1.068   8.781   8.297
 6820SOL    HW120484   1.075   8.697   8.242
 6820SOL    HW220485   1.130   8.850   8.261
 6821SOL     OW20486   0.319   8.258   8.397
 6821SOL    HW120487   0.412   8.294   8.402
 6821SOL    HW220488   0.313   8.173   8.449
 6822SOL     OW20489   0.339   7.957   8.454
 6822SOL    HW120490   0.287   7.874   8.437
 6822SOL    HW220491   0.416   7.962   8.390
 6823SOL     OW20492   1.138   7.828   9.126
 6823SOL    HW120493   1.093   7.891   9.190
 6823SOL    HW220494   1.231   7.859   9.109
 6824SOL     OW20495   1.160   7.655   8.925
 6824SOL    HW120496   1.160   7.719   9.002
 6824SOL    HW220497   1.188   7.703   8.842
 6825SOL     OW20498   0.008   8.774   7.648
 6825SOL    HW120499  -0.085   8.795   7.617
 6825SOL    HW220500   0.018   8.675   7.661
 6826SOL     OW20501   0.088   9.249   8.375
 6826SOL    HW120502   0.046   9.163   8.348
 6826SOL    HW220503   0.182   9.252   8.341
 6827SOL     OW20504   0.504   9.016   8.358
 6827SOL    HW120505   0.570   9.090   8.367
 6827SOL    HW220506   0.548   8.937   8.316
 6828SOL     OW20507   1.002   8.244   8.686
 6828SOL    HW120508   1.043   8.212   8.772
 6828SOL    HW220509   0.906   8.217   8.683
 6829SOL     OW20510   0.040   7.992   8.562
 6829SOL    HW120511   0.125   7.959   8.521
 6829SOL    HW220512   0.053   8.007   8.660
 6830SOL     OW20513   0.189   7.968   9.170
 6830SOL    HW120514   0.248   7.928   9.100
 6830SOL    HW220515   0.131   8.039   9.129
 6831SOL     OW20516   1.369   8.398   9.108
 6831SOL    HW120517   1.408   8.487   9.128
 6831SOL    HW220518   1.379   8.378   9.011
 6832SOL     OW20519   0.815   8.020   7.773
 6832SOL    HW120520   0.822   7.931   7.727
 6832SOL    HW220521   0.721   8.054   7.765
 6833SOL     OW20522   1.657   8.052   8.654
 6833SOL    HW120523   1.619   7.983   8.716
 6833SOL    HW220524   1.739   8.016   8.610
 6834SOL     OW20525   0.252   9.012   9.192
 6834SOL    HW120526   0.222   9.069   9.268
 6834SOL    HW220527   0.245   8.915   9.218
 6835SOL     OW20528   0.671   7.912   8.717
 6835SOL    HW120529   0.637   7.823   8.687
 6835SOL    HW220530   0.697   7.966   8.637
 6836SOL     OW20531   0.930   9.126   8.913
 6836SOL    HW120532   0.906   9.108   8.818
 6836SOL    HW220533   0.960   9.220   8.923
 6837SOL     OW20534   0.473   7.948   7.639
 6837SOL    HW120535   0.534   8.028   7.643
 6837SOL    HW220536   0.378   7.979   7.646
 6838SOL     OW20537   0.159   8.585   8.914
 6838SOL    HW120538   0.181   8.524   8.990
 6838SOL    HW220539   0.169   8.536   8.828
 6839SOL     OW20540   1.347   8.507   8.682
 6839SOL    HW120541   1.371   8.444   8.608
 6839SOL    HW220542   1.257   8.547   8.664
 6840SOL     OW20543   1.302   8.303   7.757
 6840SOL    HW120544   1.216   8.272   7.799
 6840SOL    HW220545   1.298   8.289   7.658
 6841SOL     OW20546   1.759   9.195   8.602
 6841SOL    HW120547   1.820   9.225   8.529
 6841SOL    HW220548   1.721   9.106   8.580
 6842SOL     OW20549   1.252   9.179   8.576
 6842SOL    HW120550   1.336   9.184   8.522
 6842SOL    HW220551   1.229   9.083   8.594
 6843SOL     OW20552   0.083   8.706   8.470
 6843SOL    HW120553   0.078   8.705   8.570
 6843SOL    HW220554   0.000   8.665   8.432
 6844SOL     OW20555   0.688   9.110   9.164
 6844SOL    HW120556   0.632   9.191   9.173
 6844SOL    HW220557   0.740   9.114   9.078
 6845SOL     OW20558   1.726   7.583   7.971
 6845SOL    HW120559   1.799   7.566   7.904
 6845SOL    HW220560   1.695   7.496   8.009
 6846SOL     OW20561   1.388   9.021   7.925
 6846SOL    HW120562   1.455   9.033   7.851
 6846SOL    HW220563   1.348   9.110   7.948
 6847SOL     OW20564   0.130   9.242   9.299
 6847SOL    HW120565   0.089   9.168   9.352
 6847SOL    HW220566   0.194   9.293   9.357
 6848SOL     OW20567   1.280   8.375   8.120
 6848SOL    HW120568   1.340   8.294   8.122
 6848SOL    HW220569   1.320   8.444   8.060
 6849SOL     OW20570   0.830   8.721   8.870
 6849SOL    HW120571   0.825   8.754   8.965
 6849SOL    HW220572   0.744   8.740   8.824
 6850SOL     OW20573   0.672   9.064   7.602
 6850SOL    HW120574   0.681   9.074   7.503
 6850SOL    HW220575   0.632   8.975   7.623
 6851SOL     OW20576   1.650   9.168   8.842
 6851SOL    HW120577   1.703   9.178   8.758
 6851SOL    HW220578   1.623   9.258   8.876
 6852SOL     OW20579   1.841   7.623   8.411
 6852SOL    HW120580   1.880   7.538   8.375
 6852SOL    HW220581   1.743   7.625   8.392
 6853SOL     OW20582   0.263   7.774   8.168
 6853SOL    HW120583   0.184   7.825   8.134
 6853SOL    HW220584   0.254   7.759   8.266
 6854SOL     OW20585   1.194   9.060   7.479
 6854SOL    HW120586   1.200   8.967   7.516
 6854SOL    HW220587   1.135   9.060   7.399
 6855SOL     OW20588   0.822   8.450   8.820
 6855SOL    HW120589   0.862   8.449   8.728
 6855SOL    HW220590   0.832   8.542   8.860
 6856SOL     OW20591   0.916   8.358   7.739
 6856SOL    HW120592   0.979   8.396   7.671
 6856SOL    HW220593   0.956   8.275   7.778
 6857SOL     OW20594   1.504   9.055   7.492
 6857SOL    HW120595   1.412   9.092   7.499
 6857SOL    HW220596   1.542   9.075   7.402
 6858SOL     OW20597   0.372   8.736   8.938
 6858SOL    HW120598   0.359   8.829   8.904
 6858SOL    HW220599   0.288   8.684   8.925
 6859SOL     OW20600   1.614   8.740   8.737
 6859SOL    HW120601   1.674   8.743   8.817
 6859SOL    HW220602   1.539   8.804   8.750
 6860SOL     OW20603   1.039   8.546   8.144
 6860SOL    HW120604   0.969   8.499   8.198
 6860SOL    HW220605   1.098   8.478   8.101
 6861SOL     OW20606   1.014   7.684   8.419
 6861SOL    HW120607   1.006   7.648   8.326
 6861SOL    HW220608   1.012   7.608   8.484
 6862SOL     OW20609   0.590   8.935   7.939
 6862SOL    HW120610   0.632   8.877   7.869
 6862SOL    HW220611   0.546   9.014   7.895
 6863SOL     OW20612   1.709   7.833   8.829
 6863SOL    HW120613   1.782   7.902   8.833
 6863SOL    HW220614   1.737   7.758   8.770
 6864SOL     OW20615   0.255   8.796   7.738
 6864SOL    HW120616   0.159   8.797   7.711
 6864SOL    HW220617   0.267   8.849   7.822
 6865SOL     OW20618   0.105   8.461   9.174
 6865SOL    HW120619   0.028   8.428   9.228
 6865SOL    HW220620   0.190   8.431   9.216
 6866SOL     OW20621   0.672   7.651   8.937
 6866SOL    HW120622   0.762   7.635   8.897
 6866SOL    HW220623   0.680   7.656   9.036
 6867SOL     OW20624   0.075   7.793   7.481
 6867SOL    HW120625  -0.017   7.765   7.452
 6867SOL    HW220626   0.106   7.870   7.425
 6868SOL     OW20627   1.440   8.304   8.846
 6868SOL    HW120628   1.383   8.356   8.783
 6868SOL    HW220629   1.536   8.316   8.822
 6869SOL     OW20630   0.072   7.614   7.766
 6869SOL    HW120631   0.055   7.697   7.712
 6869SOL    HW220632   0.162   7.577   7.744
 6870SOL     OW20633   1.183   8.783   7.567
 6870SOL    HW120634   1.084   8.772   7.569
 6870SOL    HW220635   1.217   8.798   7.660
 6871SOL     OW20636   0.613   8.290   8.879
 6871SOL    HW120637   0.669   8.371   8.862
 6871SOL    HW220638   0.672   8.210   8.882
 6872SOL     OW20639   1.493   9.215   8.407
 6872SOL    HW120640   1.526   9.279   8.338
 6872SOL    HW220641   1.559   9.209   8.482
 6873SOL     OW20642   0.716   8.013   9.156
 6873SOL    HW120643   0.735   8.078   9.230
 6873SOL    HW220644   0.776   7.933   9.165
 6874SOL     OW20645   1.450   8.668   9.081
 6874SOL    HW120646   1.441   8.658   9.180
 6874SOL    HW220647   1.546   8.661   9.055
 6875SOL     OW20648   0.390   9.189   9.008
 6875SOL    HW120649   0.299   9.230   9.006
 6875SOL    HW220650   0.383   9.095   9.040
 6876SOL     OW20651   1.674   8.331   8.702
 6876SOL    HW120652   1.647   8.242   8.665
 6876SOL    HW220653   1.675   8.399   8.629
 6877SOL     OW20654   1.225   7.773   7.897
 6877SOL    HW120655   1.290   7.699   7.886
 6877SOL    HW220656   1.245   7.823   7.981
 6878SOL     OW20657   0.594   8.193   8.100
 6878SOL    HW120658   0.644   8.278   8.081
 6878SOL    HW220659   0.506   8.195   8.052
 6879SOL     OW20660   1.777   7.790   9.090
 6879SOL    HW120661   1.760   7.821   8.996
 6879SOL    HW220662   1.693   7.753   9.128
 6880SOL     OW20663   1.730   8.382   8.965
 6880SOL    HW120664   1.768   8.473   8.980
 6880SOL    HW220665   1.722   8.365   8.866
 6881SOL     OW20666   0.859   8.822   7.464
 6881SOL    HW120667   0.813   8.837   7.552
 6881SOL    HW220668   0.903   8.907   7.434
 6882SOL     OW20669   0.661   9.238   8.401
 6882SOL    HW120670   0.615   9.326   8.388
 6882SOL    HW220671   0.760   9.250   8.394
 6883SOL     OW20672   0.859   8.404   8.309
 6883SOL    HW120673   0.913   8.335   8.357
 6883SOL    HW220674   0.827   8.473   8.375
 6884SOL     OW20675   1.083   8.432   7.535
 6884SOL    HW120676   1.060   8.485   7.453
 6884SOL    HW220677   1.164   8.376   7.516
 6885SOL     OW20678   1.861   9.017   8.299
 6885SOL    HW120679   1.790   9.005   8.229
 6885SOL    HW220680   1.862   8.938   8.359
 6886SOL     OW20681   0.221   8.762   9.292
 6886SOL    HW120682   0.156   8.689   9.271
 6886SOL    HW220683   0.225   8.776   9.390
 6887SOL     OW20684   0.079   8.688   8.101
 6887SOL    HW120685   0.078   8.641   8.189
 6887SOL    HW220686   0.161   8.660   8.050
 6888SOL     OW20687   0.672   8.839   9.072
 6888SOL    HW120688   0.594   8.789   9.110
 6888SOL    HW220689   0.669   8.934   9.103
 6889SOL     OW20690   1.824   7.640   8.675
 6889SOL    HW120691   1.820   7.550   8.719
 6889SOL    HW220692   1.827   7.629   8.576
 6890SOL     OW20693   0.428   7.872   7.968
 6890SOL    HW120694   0.458   7.800   7.906
 6890SOL    HW220695   0.389   7.832   8.051
 6891SOL     OW20696   1.705   8.935   8.552
 6891SOL    HW120697   1.612   8.910   8.525
 6891SOL    HW220698   1.731   8.885   8.634
 6892SOL     OW20699   0.317   7.995   8.728
 6892SOL    HW120700   0.355   7.936   8.800
 6892SOL    HW220701   0.357   7.969   8.640
 6893SOL     OW20702   0.812   9.034   8.135
 6893SOL    HW120703   0.844   9.044   8.041
 6893SOL    HW220704   0.733   8.972   8.137
 6894SOL     OW20705   1.424   7.662   8.560
 6894SOL    HW120706   1.476   7.597   8.615
 6894SOL    HW220707   1.375   7.725   8.621
 6895SOL     OW20708   1.001   7.482   8.602
 6895SOL    HW120709   0.938   7.410   8.571
 6895SOL    HW220710   1.094   7.446   8.602
 6896SOL     OW20711   0.770   8.778   7.749
 6896SOL    HW120712   0.724   8.691   7.766
 6896SOL    HW220713   0.861   8.775   7.790
 6897SOL     OW20714   0.618   9.015   8.732
 6897SOL    HW120715   0.613   9.097   8.789
 6897SOL    HW220716   0.707   9.012   8.687
 6898SOL     OW20717   1.352   7.500   7.616
 6898SOL    HW120718   1.387   7.459   7.532
 6898SOL    HW220719   1.262   7.462   7.636
 6899SOL     OW20720   1.300   7.901   8.139
 6899SOL    HW120721   1.241   7.981   8.143
 6899SOL    HW220722   1.315   7.866   8.232
 6900SOL     OW20723   1.593   7.669   8.330
 6900SOL    HW120724   1.509   7.668   8.384
 6900SOL    HW220725   1.595   7.752   8.274
 6901SOL     OW20726   0.039   8.525   7.748
 6901SOL    HW120727   0.138   8.514   7.739
 6901SOL    HW220728  -0.001   8.439   7.780
 6902SOL     OW20729   0.875   9.094   7.785
 6902SOL    HW120730   0.798   9.059   7.731
 6902SOL    HW220731   0.843   9.165   7.847
 6903SOL     OW20732   0.230   8.076   9.423
 6903SOL    HW120733   0.137   8.074   9.460
 6903SOL    HW220734   0.231   8.037   9.331
 6904SOL     OW20735   0.225   7.723  10.306
 6904SOL    HW120736   0.260   7.706  10.398
 6904SOL    HW220737   0.137   7.678  10.294
 6905SOL     OW20738   0.019   7.816   9.957
 6905SOL    HW120739  -0.063   7.859   9.996
 6905SOL    HW220740  -0.009   7.743   9.894
 6906SOL     OW20741   0.569   8.723  10.475
 6906SOL    HW120742   0.476   8.716  10.438
 6906SOL    HW220743   0.580   8.812  10.519
 6907SOL     OW20744   1.555   8.959  10.013
 6907SOL    HW120745   1.498   8.943  10.094
 6907SOL    HW220746   1.496   8.969   9.933
 6908SOL     OW20747   1.135   8.151  10.027
 6908SOL    HW120748   1.192   8.229  10.002
 6908SOL    HW220749   1.075   8.177  10.103
 6909SOL     OW20750   1.755   8.055   9.541
 6909SOL    HW120751   1.743   8.042   9.442
 6909SOL    HW220752   1.725   7.974   9.590
 6910SOL     OW20753   0.768   8.592  10.333
 6910SOL    HW120754   0.690   8.609  10.393
 6910SOL    HW220755   0.802   8.679  10.297
 6911SOL     OW20756   0.850   8.246  11.133
 6911SOL    HW120757   0.846   8.322  11.198
 6911SOL    HW220758   0.872   8.282  11.042
 6912SOL     OW20759   0.685   8.460   9.975
 6912SOL    HW120760   0.754   8.444  10.045
 6912SOL    HW220761   0.612   8.517  10.013
 6913SOL     OW20762   0.686   8.609  11.113
 6913SOL    HW120763   0.746   8.688  11.127
 6913SOL    HW220764   0.600   8.640  11.072
 6914SOL     OW20765   0.335   8.883  10.371
 6914SOL    HW120766   0.257   8.852  10.318
 6914SOL    HW220767   0.393   8.941  10.314
 6915SOL     OW20768   1.460   8.953  10.649
 6915SOL    HW120769   1.484   9.047  10.675
 6915SOL    HW220770   1.444   8.899  10.731
 6916SOL     OW20771   0.438   7.840  10.809
 6916SOL    HW120772   0.520   7.784  10.818
 6916SOL    HW220773   0.357   7.782  10.813
 6917SOL     OW20774   1.603   7.895  10.047
 6917SOL    HW120775   1.529   7.941   9.997
 6917SOL    HW220776   1.654   7.963  10.100
 6918SOL     OW20777   0.231   9.161   9.793
 6918SOL    HW120778   0.265   9.238   9.847
 6918SOL    HW220779   0.275   9.161   9.703
 6919SOL     OW20780   1.127   8.789  11.000
 6919SOL    HW120781   1.174   8.789  11.088
 6919SOL    HW220782   1.079   8.702  10.989
 6920SOL     OW20783   0.230   8.882   9.848
 6920SOL    HW120784   0.204   8.978   9.848
 6920SOL    HW220785   0.159   8.828   9.893
 6921SOL     OW20786   0.240   8.539  10.196
 6921SOL    HW120787   0.254   8.455  10.248
 6921SOL    HW220788   0.185   8.603  10.251
 6922SOL     OW20789   0.620   9.234  10.749
 6922SOL    HW120790   0.528   9.217  10.784
 6922SOL    HW220791   0.648   9.326  10.775
 6923SOL     OW20792   0.606   8.412   9.433
 6923SOL    HW120793   0.613   8.496   9.379
 6923SOL    HW220794   0.652   8.425   9.521
 6924SOL     OW20795   1.594   7.562  10.790
 6924SOL    HW120796   1.576   7.629  10.718
 6924SOL    HW220797   1.591   7.608  10.879
 6925SOL     OW20798   0.122   8.091   9.873
 6925SOL    HW120799   0.077   8.003   9.890
 6925SOL    HW220800   0.121   8.145   9.957
 6926SOL     OW20801   1.842   9.215   9.669
 6926SOL    HW120802   1.896   9.186   9.749
 6926SOL    HW220803   1.872   9.305   9.640
 6927SOL     OW20804   0.027   9.044   9.427
 6927SOL    HW120805   0.008   8.948   9.448
 6927SOL    HW220806  -0.006   9.102   9.502
 6928SOL     OW20807   1.689   8.370   9.922
 6928SOL    HW120808   1.784   8.341   9.930
 6928SOL    HW220809   1.681   8.435   9.847
 6929SOL     OW20810   1.641   8.556   9.742
 6929SOL    HW120811   1.727   8.558   9.690
 6929SOL    HW220812   1.655   8.603   9.830
 6930SOL     OW20813   0.113   8.185  10.907
 6930SOL    HW120814   0.201   8.172  10.952
 6930SOL    HW220815   0.100   8.282  10.885
 6931SOL     OW20816   0.613   8.813  10.036
 6931SOL    HW120817   0.564   8.726  10.045
 6931SOL    HW220818   0.590   8.856   9.949
 6932SOL     OW20819   1.293   8.676  10.733
 6932SOL    HW120820   1.330   8.603  10.675
 6932SOL    HW220821   1.345   8.681  10.818
 6933SOL     OW20822   0.809   7.452   9.812
 6933SOL    HW120823   0.849   7.543   9.803
 6933SOL    HW220824   0.709   7.460   9.818
 6934SOL     OW20825   0.197   8.424  10.574
 6934SOL    HW120826   0.286   8.379  10.560
 6934SOL    HW220827   0.124   8.359  10.555
 6935SOL     OW20828   1.525   8.447   9.500
 6935SOL    HW120829   1.462   8.371   9.513
 6935SOL    HW220830   1.573   8.465   9.586
 6936SOL     OW20831   1.187   9.240  10.926
 6936SOL    HW120832   1.211   9.300  10.850
 6936SOL    HW220833   1.194   9.145  10.896
 6937SOL     OW20834   0.317   7.699  11.111
 6937SOL    HW120835   0.388   7.770  11.117
 6937SOL    HW220836   0.229   7.738  11.139
 6938SOL     OW20837   1.466   8.865  10.263
 6938SOL    HW120838   1.407   8.871  10.343
 6938SOL    HW220839   1.451   8.777  10.217
 6939SOL     OW20840   1.667   9.162   9.882
 6939SOL    HW120841   1.626   9.139   9.794
 6939SOL    HW220842   1.649   9.088   9.947
 6940SOL     OW20843   0.598   8.177   9.580
 6940SOL    HW120844   0.622   8.246   9.512
 6940SOL    HW220845   0.520   8.210   9.634
 6941SOL     OW20846   1.281   7.793  10.254
 6941SOL    HW120847   1.195   7.743  10.241
 6941SOL    HW220848   1.343   7.739  10.310
 6942SOL     OW20849   1.576   9.110   9.617
 6942SOL    HW120850   1.665   9.156   9.620
 6942SOL    HW220851   1.555   9.086   9.522
 6943SOL     OW20852   0.807   8.053  10.775
 6943SOL    HW120853   0.760   8.050  10.864
 6943SOL    HW220854   0.756   7.998  10.709
 6944SOL     OW20855   1.394   7.917  10.984
 6944SOL    HW120856   1.374   7.960  11.072
 6944SOL    HW220857   1.472   7.855  10.993
 6945SOL     OW20858   0.973   8.338  10.882
 6945SOL    HW120859   1.019   8.254  10.853
 6945SOL    HW220860   0.917   8.372  10.807
 6946SOL     OW20861   0.991   7.858  10.552
 6946SOL    HW120862   0.914   7.892  10.606
 6946SOL    HW220863   0.957   7.807  10.473
 6947SOL     OW20864   1.041   8.149   9.739
 6947SOL    HW120865   1.067   8.145   9.835
 6947SOL    HW220866   0.956   8.098   9.725
 6948SOL     OW20867   0.076   8.259  10.099
 6948SOL    HW120868   0.175   8.247  10.108
 6948SOL    HW220869   0.052   8.354  10.120
 6949SOL     OW20870   0.130   9.269  10.881
 6949SOL    HW120871   0.120   9.254  10.980
 6949SOL    HW220872   0.044   9.305  10.845
 6950SOL     OW20873   0.865   7.796   9.505
 6950SOL    HW120874   0.924   7.859   9.456
 6950SOL    HW220875   0.884   7.702   9.476
 6951SOL     OW20876   1.719   8.033  11.141
 6951SOL    HW120877   1.693   8.122  11.105
 6951SOL    HW220878   1.717   7.965  11.068
 6952SOL     OW20879   1.362   8.592   9.855
 6952SOL    HW120880   1.445   8.563   9.807
 6952SOL    HW220881   1.313   8.659   9.799
 6953SOL     OW20882   0.550   7.644  10.195
 6953SOL    HW120883   0.545   7.639  10.295
 6953SOL    HW220884   0.552   7.740  10.166
 6954SOL     OW20885   1.008   8.904   9.787
 6954SOL    HW120886   0.962   8.976   9.735
 6954SOL    HW220887   1.004   8.924   9.885
 6955SOL     OW20888   0.351   9.249  10.163
 6955SOL    HW120889   0.401   9.163  10.169
 6955SOL    HW220890   0.416   9.326  10.160
 6956SOL     OW20891   1.795   8.514  10.183
 6956SOL    HW120892   1.733   8.499  10.107
 6956SOL    HW220893   1.743   8.525  10.268
 6957SOL     OW20894   1.227   8.998  10.816
 6957SOL    HW120895   1.233   8.921  10.880
 6957SOL    HW220896   1.175   8.972  10.736
 6958SOL     OW20897   0.321   8.391   9.552
 6958SOL    HW120898   0.403   8.430   9.510
 6958SOL    HW220899   0.294   8.309   9.503
 6959SOL     OW20900   1.458   8.183  10.038
 6959SOL    HW120901   1.453   8.118  10.113
 6959SOL    HW220902   1.538   8.242  10.051
 6960SOL     OW20903   0.461   8.714  11.037
 6960SOL    HW120904   0.411   8.715  10.951
 6960SOL    HW220905   0.398   8.696  11.113
 6961SOL     OW20906   1.111   9.224   9.547
 6961SOL    HW120907   1.051   9.162   9.597
 6961SOL    HW220908   1.142   9.180   9.462
 6962SOL     OW20909   0.202   7.733  10.808
 6962SOL    HW120910   0.122   7.793  10.795
 6962SOL    HW220911   0.192   7.684  10.894
 6963SOL     OW20912   1.632   8.825   9.391
 6963SOL    HW120913   1.600   8.919   9.381
 6963SOL    HW220914   1.556   8.762   9.379
 6964SOL     OW20915   0.464   9.191   9.633
 6964SOL    HW120916   0.497   9.230   9.719
 6964SOL    HW220917   0.540   9.184   9.568
 6965SOL     OW20918   1.400   7.555   9.736
 6965SOL    HW120919   1.376   7.518   9.646
 6965SOL    HW220920   1.499   7.571   9.740
 6966SOL     OW20921   0.249   9.233  10.551
 6966SOL    HW120922   0.306   9.168  10.601
 6966SOL    HW220923   0.233   9.200  10.458
 6967SOL     OW20924   0.940   9.146  10.214
 6967SOL    HW120925   1.020   9.089  10.235
 6967SOL    HW220926   0.891   9.106  10.137
 6968SOL     OW20927   0.382   8.148   9.790
 6968SOL    HW120928   0.427   8.058   9.787
 6968SOL    HW220929   0.288   8.137   9.823
 6969SOL     OW20930   1.547   7.670  11.039
 6969SOL    HW120931   1.542   7.707  11.131
 6969SOL    HW220932   1.475   7.601  11.027
 6970SOL     OW20933   0.614   7.570   9.427
 6970SOL    HW120934   0.712   7.548   9.434
 6970SOL    HW220935   0.583   7.553   9.334
 6971SOL     OW20936   0.781   7.712  11.059
 6971SOL    HW120937   0.848   7.651  11.102
 6971SOL    HW220938   0.708   7.731  11.124
 6972SOL     OW20939   0.888   8.962  10.505
 6972SOL    HW120940   0.865   8.937  10.411
 6972SOL    HW220941   0.949   8.893  10.544
 6973SOL     OW20942   1.351   8.038  10.743
 6973SOL    HW120943   1.379   7.995  10.828
 6973SOL    HW220944   1.376   8.134  10.744
 6974SOL     OW20945   0.803   8.850  10.234
 6974SOL    HW120946   0.893   8.864  10.192
 6974SOL    HW220947   0.732   8.852  10.163
 6975SOL     OW20948   0.922   7.951  10.209
 6975SOL    HW120949   0.897   7.942  10.113
 6975SOL    HW220950   0.970   7.869  10.240
 6976SOL     OW20951   0.539   7.512   9.822
 6976SOL    HW120952   0.458   7.513   9.880
 6976SOL    HW220953   0.542   7.595   9.767
 6977SOL     OW20954   1.434   8.636   9.351
 6977SOL    HW120955   1.466   8.560   9.408
 6977SOL    HW220956   1.342   8.663   9.381
 6978SOL     OW20957   0.297   7.483   9.481
 6978SOL    HW120958   0.346   7.567   9.460
 6978SOL    HW220959   0.359   7.418   9.526
 6979SOL     OW20960   0.935   7.684   9.790
 6979SOL    HW120961   0.887   7.725   9.712
 6979SOL    HW220962   1.034   7.682   9.771
 6980SOL     OW20963   1.076   8.131  10.774
 6980SOL    HW120964   0.996   8.070  10.777
 6980SOL    HW220965   1.157   8.078  10.750
 6981SOL     OW20966   1.227   9.018  10.103
 6981SOL    HW120967   1.248   9.092  10.038
 6981SOL    HW220968   1.295   9.018  10.176
 6982SOL     OW20969   0.459   8.600  10.051
 6982SOL    HW120970   0.388   8.573  10.116
 6982SOL    HW220971   0.433   8.572   9.958
 6983SOL     OW20972   1.271   9.245   9.901
 6983SOL    HW120973   1.315   9.309   9.837
 6983SOL    HW220974   1.221   9.297   9.971
 6984SOL     OW20975   1.032   7.997   9.326
 6984SOL    HW120976   0.991   8.079   9.287
 6984SOL    HW220977   1.096   8.023   9.399
 6985SOL     OW20978   0.078   8.004  10.696
 6985SOL    HW120979   0.170   8.003  10.655
 6985SOL    HW220980   0.072   8.078  10.763
 6986SOL     OW20981   0.561   7.670  10.457
 6986SOL    HW120982   0.599   7.586  10.494
 6986SOL    HW220983   0.473   7.689  10.501
 6987SOL     OW20984   0.866   7.902   9.952
 6987SOL    HW120985   0.834   7.974   9.890
 6987SOL    HW220986   0.890   7.821   9.899
 6988SOL     OW20987   1.017   7.487  10.063
 6988SOL    HW120988   0.945   7.492   9.994
 6988SOL    HW220989   0.993   7.418  10.132
 6989SOL     OW20990   1.429   8.621  10.177
 6989SOL    HW120991   1.374   8.537  10.170
 6989SOL    HW220992   1.455   8.650  10.085
 6990SOL     OW20993   1.466   8.038  10.302
 6990SOL    HW120994   1.436   7.943  10.309
 6990SOL    HW220995   1.539   8.054  10.368
 6991SOL     OW20996   1.857   8.281   9.687
 6991SOL    HW120997   1.899   8.217   9.751
 6991SOL    HW220998   1.819   8.230   9.609
 6992SOL     OW20999   0.488   8.833   9.484
 6992SOL    HW121000   0.401   8.818   9.531
 6992SOL    HW221001   0.471   8.859   9.389
 6993SOL     OW21002   1.664   8.728   9.967
 6993SOL    HW121003   1.763   8.736   9.981
 6993SOL    HW221004   1.619   8.812   9.998
 6994SOL     OW21005   1.390   8.023   9.388
 6994SOL    HW121006   1.336   8.002   9.469
 6994SOL    HW221007   1.481   7.982   9.397
 6995SOL     OW21008   0.527   7.704   9.638
 6995SOL    HW121009   0.554   7.645   9.563
 6995SOL    HW221010   0.527   7.799   9.607
 6996SOL     OW21011   1.754   8.671  10.898
 6996SOL    HW121012   1.845   8.632  10.885
 6996SOL    HW221013   1.762   8.767  10.922
 6997SOL     OW21014   1.064   8.795  10.650
 6997SOL    HW121015   0.984   8.772  10.705
 6997SOL    HW221016   1.147   8.769  10.699
 6998SOL     OW21017   1.592   9.077  10.935
 6998SOL    HW121018   1.619   9.111  10.845
 6998SOL    HW221019   1.671   9.039  10.981
 6999SOL     OW21020   1.111   8.643  10.410
 6999SOL    HW121021   1.071   8.687  10.491
 6999SOL    HW221022   1.070   8.680  10.327
 7000SOL     OW21023   1.638   8.547  10.389
 7000SOL    HW121024   1.643   8.628  10.448
 7000SOL    HW221025   1.552   8.549  10.338
 7001SOL     OW21026   0.915   7.537  10.712
 7001SOL    HW121027   0.940   7.517  10.617
 7001SOL    HW221028   0.987   7.593  10.754
 7002SOL     OW21029   0.980   8.564  11.029
 7002SOL    HW121030   0.881   8.570  11.039
 7002SOL    HW221031   1.003   8.484  10.973
 7003SOL     OW21032   0.705   8.498   9.678
 7003SOL    HW121033   0.691   8.505   9.777
 7003SOL    HW221034   0.789   8.447   9.660
 7004SOL     OW21035   0.410   8.261  10.561
 7004SOL    HW121036   0.496   8.273  10.611
 7004SOL    HW221037   0.368   8.174  10.588
 7005SOL     OW21038   1.274   7.834  10.572
 7005SOL    HW121039   1.295   7.908  10.636
 7005SOL    HW221040   1.185   7.851  10.529
 7006SOL     OW21041   0.064   9.012  10.641
 7006SOL    HW121042   0.018   9.094  10.607
 7006SOL    HW221043   0.162   9.031  10.650
 7007SOL     OW21044   0.367   8.548   9.811
 7007SOL    HW121045   0.360   8.631   9.755
 7007SOL    HW221046   0.371   8.468   9.751
 7008SOL     OW21047   0.566   7.985  10.175
 7008SOL    HW121048   0.578   8.051  10.101
 7008SOL    HW221049   0.612   8.019  10.258
 7009SOL     OW21050   1.252   8.796   9.698
 7009SOL    HW121051   1.302   8.873   9.738
 7009SOL    HW221052   1.157   8.798   9.730
 7010SOL     OW21053   1.272   8.893  10.452
 7010SOL    HW121054   1.319   8.906  10.539
 7010SOL    HW221055   1.206   8.819  10.461
 7011SOL     OW21056   1.582   8.087   9.782
 7011SOL    HW121057   1.551   8.148   9.855
 7011SOL    HW221058   1.632   8.139   9.713
 7012SOL     OW21059   0.354   8.958  10.639
 7012SOL    HW121060   0.333   8.914  10.552
 7012SOL    HW221061   0.451   8.984  10.642
 7013SOL     OW21062   0.402   8.199  10.908
 7013SOL    HW121063   0.470   8.254  10.861
 7013SOL    HW221064   0.442   8.111  10.935
 7014SOL     OW21065   1.587   8.227  10.980
 7014SOL    HW121066   1.495   8.265  10.975
 7014SOL    HW221067   1.647   8.274  10.915
 7015SOL     OW21068   1.013   7.553  11.080
 7015SOL    HW121069   1.019   7.638  11.028
 7015SOL    HW221070   1.045   7.477  11.023
 7016SOL     OW21071   0.504   7.498  11.050
 7016SOL    HW121072   0.462   7.441  10.980
 7016SOL    HW221073   0.438   7.567  11.082
 7017SOL     OW21074   0.573   8.318  10.339
 7017SOL    HW121075   0.617   8.407  10.330
 7017SOL    HW221076   0.510   8.318  10.416
 7018SOL     OW21077   1.360   8.310  10.355
 7018SOL    HW121078   1.285   8.310  10.289
 7018SOL    HW221079   1.397   8.218  10.364
 7019SOL     OW21080   1.209   7.973   9.585
 7019SOL    HW121081   1.222   7.889   9.639
 7019SOL    HW221082   1.180   8.047   9.645
 7020SOL     OW21083   0.307   7.661  10.541
 7020SOL    HW121084   0.284   7.698  10.631
 7020SOL    HW221085   0.277   7.566  10.535
 7021SOL     OW21086   0.037   8.758  10.592
 7021SOL    HW121087   0.090   8.709  10.660
 7021SOL    HW221088   0.059   8.856  10.597
 7022SOL     OW21089   0.732   8.082  10.374
 7022SOL    HW121090   0.791   8.056  10.298
 7022SOL    HW221091   0.704   8.178  10.363
 7023SOL     OW21092   1.728   8.383  11.164
 7023SOL    HW121093   1.682   8.376  11.075
 7023SOL    HW221094   1.666   8.427  11.230
 7024SOL     OW21095   0.307   7.511   9.928
 7024SOL    HW121096   0.296   7.605   9.961
 7024SOL    HW221097   0.302   7.448  10.005
 7025SOL     OW21098   1.622   7.815   9.684
 7025SOL    HW121099   1.624   7.739   9.748
 7025SOL    HW221100   1.574   7.892   9.724
 7026SOL     OW21101   1.023   8.214  10.276
 7026SOL    HW121102   1.038   8.235  10.372
 7026SOL    HW221103   0.993   8.119  10.267
 7027SOL     OW21104   0.980   9.021  11.010
 7027SOL    HW121105   0.960   9.065  10.922
 7027SOL    HW221106   1.019   8.930  10.994
 7028SOL     OW21107   1.859   8.966  10.915
 7028SOL    HW121108   1.873   8.993  10.820
 7028SOL    HW221109   1.942   8.988  10.968
 7029SOL     OW21110   0.350   8.346  11.114
 7029SOL    HW121111   0.426   8.390  11.162
 7029SOL    HW221112   0.385   8.299  11.032
 7030SOL     OW21113   1.540   7.722   9.435
 7030SOL    HW121114   1.479   7.647   9.458
 7030SOL    HW221115   1.562   7.774   9.518
 7031SOL     OW21116   1.303   8.286   9.352
 7031SOL    HW121117   1.337   8.193   9.367
 7031SOL    HW221118   1.321   8.313   9.257
 7032SOL     OW21119   1.068   8.781  10.159
 7032SOL    HW121120   1.075   8.697  10.104
 7032SOL    HW221121   1.130   8.850  10.123
 7033SOL     OW21122   0.319   8.258  10.259
 7033SOL    HW121123   0.412   8.294  10.264
 7033SOL    HW221124   0.313   8.173  10.311
 7034SOL     OW21125   0.339   7.957  10.316
 7034SOL    HW121126   0.287   7.874  10.299
 7034SOL    HW221127   0.416   7.962  10.252
 7035SOL     OW21128   1.138   7.828  10.988
 7035SOL    HW121129   1.093   7.891  11.052
 7035SOL    HW221130   1.231   7.859  10.971
 7036SOL     OW21131   1.160   7.655  10.787
 7036SOL    HW121132   1.160   7.719  10.864
 7036SOL    HW221133   1.188   7.703  10.704
 7037SOL     OW21134   0.008   8.774   9.510
 7037SOL    HW121135  -0.085   8.795   9.479
 7037SOL    HW221136   0.018   8.675   9.523
 7038SOL     OW21137   0.088   9.249  10.237
 7038SOL    HW121138   0.046   9.163  10.210
 7038SOL    HW221139   0.182   9.252  10.203
 7039SOL     OW21140   0.504   9.016  10.220
 7039SOL    HW121141   0.570   9.090  10.229
 7039SOL    HW221142   0.548   8.937  10.178
 7040SOL     OW21143   1.002   8.244  10.548
 7040SOL    HW121144   1.043   8.212  10.634
 7040SOL    HW221145   0.906   8.217  10.545
 7041SOL     OW21146   0.040   7.992  10.424
 7041SOL    HW121147   0.125   7.959  10.383
 7041SOL    HW221148   0.053   8.007  10.522
 7042SOL     OW21149   0.189   7.968  11.032
 7042SOL    HW121150   0.248   7.928  10.962
 7042SOL    HW221151   0.131   8.039  10.991
 7043SOL     OW21152   1.369   8.398  10.970
 7043SOL    HW121153   1.408   8.487  10.990
 7043SOL    HW221154   1.379   8.378  10.873
 7044SOL     OW21155   0.815   8.020   9.635
 7044SOL    HW121156   0.822   7.931   9.589
 7044SOL    HW221157   0.721   8.054   9.627
 7045SOL     OW21158   1.657   8.052  10.516
 7045SOL    HW121159   1.619   7.983  10.578
 7045SOL    HW221160   1.739   8.016  10.472
 7046SOL     OW21161   0.252   9.012  11.054
 7046SOL    HW121162   0.222   9.069  11.130
 7046SOL    HW221163   0.245   8.915  11.080
 7047SOL     OW21164   0.671   7.912  10.579
 7047SOL    HW121165   0.637   7.823  10.549
 7047SOL    HW221166   0.697   7.966  10.499
 7048SOL     OW21167   0.930   9.126  10.775
 7048SOL    HW121168   0.906   9.108  10.680
 7048SOL    HW221169   0.960   9.220  10.785
 7049SOL     OW21170   0.473   7.948   9.501
 7049SOL    HW121171   0.534   8.028   9.505
 7049SOL    HW221172   0.378   7.979   9.508
 7050SOL     OW21173   0.159   8.585  10.776
 7050SOL    HW121174   0.181   8.524  10.852
 7050SOL    HW221175   0.169   8.536  10.690
 7051SOL     OW21176   1.347   8.507  10.544
 7051SOL    HW121177   1.371   8.444  10.470
 7051SOL    HW221178   1.257   8.547  10.526
 7052SOL     OW21179   1.302   8.303   9.619
 7052SOL    HW121180   1.216   8.272   9.661
 7052SOL    HW221181   1.298   8.289   9.520
 7053SOL     OW21182   1.759   9.195  10.464
 7053SOL    HW121183   1.820   9.225  10.391
 7053SOL    HW221184   1.721   9.106  10.442
 7054SOL     OW21185   1.252   9.179  10.438
 7054SOL    HW121186   1.336   9.184  10.384
 7054SOL    HW221187   1.229   9.083  10.456
 7055SOL     OW21188   0.083   8.706  10.332
 7055SOL    HW121189   0.078   8.705  10.432
 7055SOL    HW221190   0.000   8.665  10.294
 7056SOL     OW21191   0.688   9.110  11.026
 7056SOL    HW121192   0.632   9.191  11.035
 7056SOL    HW221193   0.740   9.114  10.940
 7057SOL     OW21194   1.726   7.583   9.833
 7057SOL    HW121195   1.799   7.566   9.766
 7057SOL    HW221196   1.695   7.496   9.871
 7058SOL     OW21197   1.388   9.021   9.787
 7058SOL    HW121198   1.455   9.033   9.713
 7058SOL    HW221199   1.348   9.110   9.810
 7059SOL     OW21200   0.130   9.242  11.161
 7059SOL    HW121201   0.089   9.168  11.214
 7059SOL    HW221202   0.194   9.293  11.219
 7060SOL     OW21203   1.280   8.375   9.982
 7060SOL    HW121204   1.340   8.294   9.984
 7060SOL    HW221205   1.320   8.444   9.922
 7061SOL     OW21206   0.830   8.721  10.732
 7061SOL    HW121207   0.825   8.754  10.827
 7061SOL    HW221208   0.744   8.740  10.686
 7062SOL     OW21209   0.672   9.064   9.464
 7062SOL    HW121210   0.681   9.074   9.365
 7062SOL    HW221211   0.632   8.975   9.485
 7063SOL     OW21212   1.650   9.168  10.704
 7063SOL    HW121213   1.703   9.178  10.620
 7063SOL    HW221214   1.623   9.258  10.738
 7064SOL     OW21215   1.841   7.623  10.273
 7064SOL    HW121216   1.880   7.538  10.237
 7064SOL    HW221217   1.743   7.625  10.254
 7065SOL     OW21218   0.263   7.774  10.030
 7065SOL    HW121219   0.184   7.825   9.996
 7065SOL    HW221220   0.254   7.759  10.128
 7066SOL     OW21221   1.194   9.060   9.341
 7066SOL    HW121222   1.200   8.967   9.378
 7066SOL    HW221223   1.135   9.060   9.261
 7067SOL     OW21224   0.822   8.450  10.682
 7067SOL    HW121225   0.862   8.449  10.590
 7067SOL    HW221226   0.832   8.542  10.722
 7068SOL     OW21227   0.916   8.358   9.601
 7068SOL    HW121228   0.979   8.396   9.533
 7068SOL    HW221229   0.956   8.275   9.640
 7069SOL     OW21230   1.504   9.055   9.354
 7069SOL    HW121231   1.412   9.092   9.361
 7069SOL    HW221232   1.542   9.075   9.264
 7070SOL     OW21233   0.372   8.736  10.800
 7070SOL    HW121234   0.359   8.829  10.766
 7070SOL    HW221235   0.288   8.684  10.787
 7071SOL     OW21236   1.614   8.740  10.599
 7071SOL    HW121237   1.674   8.743  10.679
 7071SOL    HW221238   1.539   8.804  10.612
 7072SOL     OW21239   1.039   8.546  10.006
 7072SOL    HW121240   0.969   8.499  10.060
 7072SOL    HW221241   1.098   8.478   9.963
 7073SOL     OW21242   1.014   7.684  10.281
 7073SOL    HW121243   1.006   7.648  10.188
 7073SOL    HW221244   1.012   7.608  10.346
 7074SOL     OW21245   0.590   8.935   9.801
 7074SOL    HW121246   0.632   8.877   9.731
 7074SOL    HW221247   0.546   9.014   9.757
 7075SOL     OW21248   1.709   7.833  10.691
 7075SOL    HW121249   1.782   7.902  10.695
 7075SOL    HW221250   1.737   7.758  10.632
 7076SOL     OW21251   0.255   8.796   9.600
 7076SOL    HW121252   0.159   8.797   9.573
 7076SOL    HW221253   0.267   8.849   9.684
 7077SOL     OW21254   0.105   8.461  11.036
 7077SOL    HW121255   0.028   8.428  11.090
 7077SOL    HW221256   0.190   8.431  11.078
 7078SOL     OW21257   0.672   7.651  10.799
 7078SOL    HW121258   0.762   7.635  10.759
 7078SOL    HW221259   0.680   7.656  10.898
 7079SOL     OW21260   0.075   7.793   9.343
 7079SOL    HW121261  -0.017   7.765   9.314
 7079SOL    HW221262   0.106   7.870   9.287
 7080SOL     OW21263   1.440   8.304  10.708
 7080SOL    HW121264   1.383   8.356  10.645
 7080SOL    HW221265   1.536   8.316  10.684
 7081SOL     OW21266   0.072   7.614   9.628
 7081SOL    HW121267   0.055   7.697   9.574
 7081SOL    HW221268   0.162   7.577   9.606
 7082SOL     OW21269   1.183   8.783   9.429
 7082SOL    HW121270   1.084   8.772   9.431
 7082SOL    HW221271   1.217   8.798   9.522
 7083SOL     OW21272   0.613   8.290  10.741
 7083SOL    HW121273   0.669   8.371  10.724
 7083SOL    HW221274   0.672   8.210  10.744
 7084SOL     OW21275   1.493   9.215  10.269
 7084SOL    HW121276   1.526   9.279  10.200
 7084SOL    HW221277   1.559   9.209  10.344
 7085SOL     OW21278   0.716   8.013  11.018
 7085SOL    HW121279   0.735   8.078  11.092
 7085SOL    HW221280   0.776   7.933  11.027
 7086SOL     OW21281   1.450   8.668  10.943
 7086SOL    HW121282   1.441   8.658  11.042
 7086SOL    HW221283   1.546   8.661  10.917
 7087SOL     OW21284   0.390   9.189  10.870
 7087SOL    HW121285   0.299   9.230  10.868
 7087SOL    HW221286   0.383   9.095  10.902
 7088SOL     OW21287   1.674   8.331  10.564
 7088SOL    HW121288   1.647   8.242  10.527
 7088SOL    HW221289   1.675   8.399  10.491
 7089SOL     OW21290   1.225   7.773   9.759
 7089SOL    HW121291   1.290   7.699   9.748
 7089SOL    HW221292   1.245   7.823   9.843
 7090SOL     OW21293   0.594   8.193   9.962
 7090SOL    HW121294   0.644   8.278   9.943
 7090SOL    HW221295   0.506   8.195   9.914
 7091SOL     OW21296   1.777   7.790  10.952
 7091SOL    HW121297   1.760   7.821  10.858
 7091SOL    HW221298   1.693   7.753  10.990
 7092SOL     OW21299   1.730   8.382  10.827
 7092SOL    HW121300   1.768   8.473  10.842
 7092SOL    HW221301   1.722   8.365  10.728
 7093SOL     OW21302   0.859   8.822   9.326
 7093SOL    HW121303   0.813   8.837   9.414
 7093SOL    HW221304   0.903   8.907   9.296
 7094SOL     OW21305   0.661   9.238  10.263
 7094SOL    HW121306   0.615   9.326  10.250
 7094SOL    HW221307   0.760   9.250  10.256
 7095SOL     OW21308   0.859   8.404  10.171
 7095SOL    HW121309   0.913   8.335  10.219
 7095SOL    HW221310   0.827   8.473  10.237
 7096SOL     OW21311   1.083   8.432   9.397
 7096SOL    HW121312   1.060   8.485   9.315
 7096SOL    HW221313   1.164   8.376   9.378
 7097SOL     OW21314   1.861   9.017  10.161
 7097SOL    HW121315   1.790   9.005  10.091
 7097SOL    HW221316   1.862   8.938  10.221
 7098SOL     OW21317   0.221   8.762  11.154
 7098SOL    HW121318   0.156   8.689  11.133
 7098SOL    HW221319   0.225   8.776  11.252
 7099SOL     OW21320   0.079   8.688   9.963
 7099SOL    HW121321   0.078   8.641  10.051
 7099SOL    HW221322   0.161   8.660   9.912
 7100SOL     OW21323   0.672   8.839  10.934
 7100SOL    HW121324   0.594   8.789  10.972
 7100SOL    HW221325   0.669   8.934  10.965
 7101SOL     OW21326   1.824   7.640  10.537
 7101SOL    HW121327   1.820   7.550  10.581
 7101SOL    HW221328   1.827   7.629  10.438
 7102SOL     OW21329   0.428   7.872   9.830
 7102SOL    HW121330   0.458   7.800   9.768
 7102SOL    HW221331   0.389   7.832   9.913
 7103SOL     OW21332   1.705   8.935  10.414
 7103SOL    HW121333   1.612   8.910  10.387
 7103SOL    HW221334   1.731   8.885  10.496
 7104SOL     OW21335   0.317   7.995  10.590
 7104SOL    HW121336   0.355   7.936  10.662
 7104SOL    HW221337   0.357   7.969  10.502
 7105SOL     OW21338   0.812   9.034   9.997
 7105SOL    HW121339   0.844   9.044   9.903
 7105SOL    HW221340   0.733   8.972   9.999
 7106SOL     OW21341   1.424   7.662  10.422
 7106SOL    HW121342   1.476   7.597  10.477
 7106SOL    HW221343   1.375   7.725  10.483
 7107SOL     OW21344   1.001   7.482  10.464
 7107SOL    HW121345   0.938   7.410  10.433
 7107SOL    HW221346   1.094   7.446  10.464
 7108SOL     OW21347   0.770   8.778   9.611
 7108SOL    HW121348   0.724   8.691   9.628
 7108SOL    HW221349   0.861   8.775   9.652
 7109SOL     OW21350   0.618   9.015  10.594
 7109SOL    HW121351   0.613   9.097  10.651
 7109SOL    HW221352   0.707   9.012  10.549
 7110SOL     OW21353   1.352   7.500   9.478
 7110SOL    HW121354   1.387   7.459   9.394
 7110SOL    HW221355   1.262   7.462   9.498
 7111SOL     OW21356   1.300   7.901  10.001
 7111SOL    HW121357   1.241   7.981  10.005
 7111SOL    HW221358   1.315   7.866  10.094
 7112SOL     OW21359   1.593   7.669  10.192
 7112SOL    HW121360   1.509   7.668  10.246
 7112SOL    HW221361   1.595   7.752  10.136
 7113SOL     OW21362   0.039   8.525   9.610
 7113SOL    HW121363   0.138   8.514   9.601
 7113SOL    HW221364  -0.001   8.439   9.642
 7114SOL     OW21365   0.875   9.094   9.647
 7114SOL    HW121366   0.798   9.059   9.593
 7114SOL    HW221367   0.843   9.165   9.709
 7115SOL     OW21368   0.230   8.076  11.285
 7115SOL    HW121369   0.137   8.074  11.322
 7115SOL    HW221370   0.231   8.037  11.193
 7116SOL     OW21371   0.225   7.723  12.168
 7116SOL    HW121372   0.260   7.706  12.260
 7116SOL    HW221373   0.137   7.678  12.156
 7117SOL     OW21374   0.019   7.816  11.819
 7117SOL    HW121375  -0.063   7.859  11.858
 7117SOL    HW221376  -0.009   7.743  11.756
 7118SOL     OW21377   0.569   8.723  12.337
 7118SOL    HW121378   0.476   8.716  12.300
 7118SOL    HW221379   0.580   8.812  12.381
 7119SOL     OW21380   1.555   8.959  11.875
 7119SOL    HW121381   1.498   8.943  11.956
 7119SOL    HW221382   1.496   8.969  11.795
 7120SOL     OW21383   1.135   8.151  11.889
 7120SOL    HW121384   1.192   8.229  11.864
 7120SOL    HW221385   1.075   8.177  11.965
 7121SOL     OW21386   1.755   8.055  11.403
 7121SOL    HW121387   1.743   8.042  11.304
 7121SOL    HW221388   1.725   7.974  11.452
 7122SOL     OW21389   0.768   8.592  12.195
 7122SOL    HW121390   0.690   8.609  12.255
 7122SOL    HW221391   0.802   8.679  12.159
 7123SOL     OW21392   0.685   8.460  11.837
 7123SOL    HW121393   0.754   8.444  11.907
 7123SOL    HW221394   0.612   8.517  11.875
 7124SOL     OW21395   0.335   8.883  12.233
 7124SOL    HW121396   0.257   8.852  12.180
 7124SOL    HW221397   0.393   8.941  12.176
 7125SOL     OW21398   1.460   8.953  12.511
 7125SOL    HW121399   1.484   9.047  12.537
 7125SOL    HW221400   1.444   8.899  12.593
 7126SOL     OW21401   0.438   7.840  12.671
 7126SOL    HW121402   0.520   7.784  12.680
 7126SOL    HW221403   0.357   7.782  12.675
 7127SOL     OW21404   1.603   7.895  11.909
 7127SOL    HW121405   1.529   7.941  11.859
 7127SOL    HW221406   1.654   7.963  11.962
 7128SOL     OW21407   0.231   9.161  11.655
 7128SOL    HW121408   0.265   9.238  11.709
 7128SOL    HW221409   0.275   9.161  11.565
 7129SOL     OW21410   0.230   8.882  11.710
 7129SOL    HW121411   0.204   8.978  11.710
 7129SOL    HW221412   0.159   8.828  11.755
 7130SOL     OW21413   0.240   8.539  12.058
 7130SOL    HW121414   0.254   8.455  12.110
 7130SOL    HW221415   0.185   8.603  12.113
 7131SOL     OW21416   0.620   9.234  12.611
 7131SOL    HW121417   0.528   9.217  12.646
 7131SOL    HW221418   0.648   9.326  12.637
 7132SOL     OW21419   0.606   8.412  11.295
 7132SOL    HW121420   0.613   8.496  11.241
 7132SOL    HW221421   0.652   8.425  11.383
 7133SOL     OW21422   1.594   7.562  12.652
 7133SOL    HW121423   1.576   7.629  12.580
 7133SOL    HW221424   1.591   7.608  12.741
 7134SOL     OW21425   0.122   8.091  11.735
 7134SOL    HW121426   0.077   8.003  11.752
 7134SOL    HW221427   0.121   8.145  11.819
 7135SOL     OW21428   1.842   9.215  11.531
 7135SOL    HW121429   1.896   9.186  11.611
 7135SOL    HW221430   1.872   9.305  11.502
 7136SOL     OW21431   0.027   9.044  11.289
 7136SOL    HW121432   0.008   8.948  11.310
 7136SOL    HW221433  -0.006   9.102  11.364
 7137SOL     OW21434   1.689   8.370  11.784
 7137SOL    HW121435   1.784   8.341  11.792
 7137SOL    HW221436   1.681   8.435  11.709
 7138SOL     OW21437   1.641   8.556  11.604
 7138SOL    HW121438   1.727   8.558  11.552
 7138SOL    HW221439   1.655   8.603  11.692
 7139SOL     OW21440   0.113   8.185  12.769
 7139SOL    HW121441   0.201   8.172  12.814
 7139SOL    HW221442   0.100   8.282  12.747
 7140SOL     OW21443   0.613   8.813  11.898
 7140SOL    HW121444   0.564   8.726  11.907
 7140SOL    HW221445   0.590   8.856  11.811
 7141SOL     OW21446   1.293   8.676  12.595
 7141SOL    HW121447   1.330   8.603  12.537
 7141SOL    HW221448   1.345   8.681  12.680
 7142SOL     OW21449   0.809   7.452  11.674
 7142SOL    HW121450   0.849   7.543  11.665
 7142SOL    HW221451   0.709   7.460  11.680
 7143SOL     OW21452   0.197   8.424  12.436
 7143SOL    HW121453   0.286   8.379  12.422
 7143SOL    HW221454   0.124   8.359  12.417
 7144SOL     OW21455   1.525   8.447  11.362
 7144SOL    HW121456   1.462   8.371  11.375
 7144SOL    HW221457   1.573   8.465  11.448
 7145SOL     OW21458   1.466   8.865  12.125
 7145SOL    HW121459   1.407   8.871  12.205
 7145SOL    HW221460   1.451   8.777  12.079
 7146SOL     OW21461   1.667   9.162  11.744
 7146SOL    HW121462   1.626   9.139  11.656
 7146SOL    HW221463   1.649   9.088  11.809
 7147SOL     OW21464   0.598   8.177  11.442
 7147SOL    HW121465   0.622   8.246  11.374
 7147SOL    HW221466   0.520   8.210  11.496
 7148SOL     OW21467   1.281   7.793  12.116
 7148SOL    HW121468   1.195   7.743  12.103
 7148SOL    HW221469   1.343   7.739  12.172
 7149SOL     OW21470   1.576   9.110  11.479
 7149SOL    HW121471   1.665   9.156  11.482
 7149SOL    HW221472   1.555   9.086  11.384
 7150SOL     OW21473   0.807   8.053  12.637
 7150SOL    HW121474   0.760   8.050  12.726
 7150SOL    HW221475   0.756   7.998  12.571
 7151SOL     OW21476   0.973   8.338  12.744
 7151SOL    HW121477   1.019   8.254  12.715
 7151SOL    HW221478   0.917   8.372  12.669
 7152SOL     OW21479   0.991   7.858  12.414
 7152SOL    HW121480   0.914   7.892  12.468
 7152SOL    HW221481   0.957   7.807  12.335
 7153SOL     OW21482   1.041   8.149  11.601
 7153SOL    HW121483   1.067   8.145  11.697
 7153SOL    HW221484   0.956   8.098  11.587
 7154SOL     OW21485   0.076   8.259  11.961
 7154SOL    HW121486   0.175   8.247  11.970
 7154SOL    HW221487   0.052   8.354  11.982
 7155SOL     OW21488   0.130   9.269  12.743
 7155SOL    HW121489   0.120   9.254  12.842
 7155SOL    HW221490   0.044   9.305  12.707
 7156SOL     OW21491   0.865   7.796  11.367
 7156SOL    HW121492   0.924   7.859  11.318
 7156SOL    HW221493   0.884   7.702  11.338
 7157SOL     OW21494   1.362   8.592  11.717
 7157SOL    HW121495   1.445   8.563  11.669
 7157SOL    HW221496   1.313   8.659  11.661
 7158SOL     OW21497   0.550   7.644  12.057
 7158SOL    HW121498   0.545   7.639  12.157
 7158SOL    HW221499   0.552   7.740  12.028
 7159SOL     OW21500   1.008   8.904  11.649
 7159SOL    HW121501   0.962   8.976  11.597
 7159SOL    HW221502   1.004   8.924  11.747
 7160SOL     OW21503   0.351   9.249  12.025
 7160SOL    HW121504   0.401   9.163  12.031
 7160SOL    HW221505   0.416   9.326  12.022
 7161SOL     OW21506   1.795   8.514  12.045
 7161SOL    HW121507   1.733   8.499  11.969
 7161SOL    HW221508   1.743   8.525  12.130
 7162SOL     OW21509   1.227   8.998  12.678
 7162SOL    HW121510   1.233   8.921  12.742
 7162SOL    HW221511   1.175   8.972  12.598
 7163SOL     OW21512   0.321   8.391  11.414
 7163SOL    HW121513   0.403   8.430  11.372
 7163SOL    HW221514   0.294   8.309  11.365
 7164SOL     OW21515   1.458   8.183  11.900
 7164SOL    HW121516   1.453   8.118  11.975
 7164SOL    HW221517   1.538   8.242  11.913
 7165SOL     OW21518   1.111   9.224  11.409
 7165SOL    HW121519   1.051   9.162  11.459
 7165SOL    HW221520   1.142   9.180  11.324
 7166SOL     OW21521   0.202   7.733  12.670
 7166SOL    HW121522   0.122   7.793  12.657
 7166SOL    HW221523   0.192   7.684  12.756
 7167SOL     OW21524   1.632   8.825  11.253
 7167SOL    HW121525   1.600   8.919  11.243
 7167SOL    HW221526   1.556   8.762  11.241
 7168SOL     OW21527   0.464   9.191  11.495
 7168SOL    HW121528   0.497   9.230  11.581
 7168SOL    HW221529   0.540   9.184  11.430
 7169SOL     OW21530   1.400   7.555  11.598
 7169SOL    HW121531   1.376   7.518  11.508
 7169SOL    HW221532   1.499   7.571  11.602
 7170SOL     OW21533   0.249   9.233  12.413
 7170SOL    HW121534   0.306   9.168  12.463
 7170SOL    HW221535   0.233   9.200  12.320
 7171SOL     OW21536   0.940   9.146  12.076
 7171SOL    HW121537   1.020   9.089  12.097
 7171SOL    HW221538   0.891   9.106  11.999
 7172SOL     OW21539   0.382   8.148  11.652
 7172SOL    HW121540   0.427   8.058  11.649
 7172SOL    HW221541   0.288   8.137  11.685
 7173SOL     OW21542   0.614   7.570  11.289
 7173SOL    HW121543   0.712   7.548  11.296
 7173SOL    HW221544   0.583   7.553  11.196
 7174SOL     OW21545   0.888   8.962  12.367
 7174SOL    HW121546   0.865   8.937  12.273
 7174SOL    HW221547   0.949   8.893  12.406
 7175SOL     OW21548   1.351   8.038  12.605
 7175SOL    HW121549   1.379   7.995  12.690
 7175SOL    HW221550   1.376   8.134  12.606
 7176SOL     OW21551   0.803   8.850  12.096
 7176SOL    HW121552   0.893   8.864  12.054
 7176SOL    HW221553   0.732   8.852  12.025
 7177SOL     OW21554   0.922   7.951  12.071
 7177SOL    HW121555   0.897   7.942  11.975
 7177SOL    HW221556   0.970   7.869  12.102
 7178SOL     OW21557   0.539   7.512  11.684
 7178SOL    HW121558   0.458   7.513  11.742
 7178SOL    HW221559   0.542   7.595  11.629
 7179SOL     OW21560   1.434   8.636  11.213
 7179SOL    HW121561   1.466   8.560  11.270
 7179SOL    HW221562   1.342   8.663  11.243
 7180SOL     OW21563   0.297   7.483  11.343
 7180SOL    HW121564   0.346   7.567  11.322
 7180SOL    HW221565   0.359   7.418  11.388
 7181SOL     OW21566   0.935   7.684  11.652
 7181SOL    HW121567   0.887   7.725  11.574
 7181SOL    HW221568   1.034   7.682  11.633
 7182SOL     OW21569   1.076   8.131  12.636
 7182SOL    HW121570   0.996   8.070  12.639
 7182SOL    HW221571   1.157   8.078  12.612
 7183SOL     OW21572   1.227   9.018  11.965
 7183SOL    HW121573   1.248   9.092  11.900
 7183SOL    HW221574   1.295   9.018  12.038
 7184SOL     OW21575   0.459   8.600  11.913
 7184SOL    HW121576   0.388   8.573  11.978
 7184SOL    HW221577   0.433   8.572  11.820
 7185SOL     OW21578   1.271   9.245  11.763
 7185SOL    HW121579   1.315   9.309  11.699
 7185SOL    HW221580   1.221   9.297  11.833
 7186SOL     OW21581   1.032   7.997  11.188
 7186SOL    HW121582   0.991   8.079  11.149
 7186SOL    HW221583   1.096   8.023  11.261
 7187SOL     OW21584   0.078   8.004  12.558
 7187SOL    HW121585   0.170   8.003  12.517
 7187SOL    HW221586   0.072   8.078  12.625
 7188SOL     OW21587   0.561   7.670  12.319
 7188SOL    HW121588   0.599   7.586  12.356
 7188SOL    HW221589   0.473   7.689  12.363
 7189SOL     OW21590   0.866   7.902  11.814
 7189SOL    HW121591   0.834   7.974  11.752
 7189SOL    HW221592   0.890   7.821  11.761
 7190SOL     OW21593   1.017   7.487  11.925
 7190SOL    HW121594   0.945   7.492  11.856
 7190SOL    HW221595   0.993   7.418  11.994
 7191SOL     OW21596   1.429   8.621  12.039
 7191SOL    HW121597   1.374   8.537  12.032
 7191SOL    HW221598   1.455   8.650  11.947
 7192SOL     OW21599   1.466   8.038  12.164
 7192SOL    HW121600   1.436   7.943  12.171
 7192SOL    HW221601   1.539   8.054  12.230
 7193SOL     OW21602   1.857   8.281  11.549
 7193SOL    HW121603   1.899   8.217  11.613
 7193SOL    HW221604   1.819   8.230  11.471
 7194SOL     OW21605   0.488   8.833  11.346
 7194SOL    HW121606   0.401   8.818  11.393
 7194SOL    HW221607   0.471   8.859  11.251
 7195SOL     OW21608   1.664   8.728  11.829
 7195SOL    HW121609   1.763   8.736  11.843
 7195SOL    HW221610   1.619   8.812  11.860
 7196SOL     OW21611   1.390   8.023  11.250
 7196SOL    HW121612   1.336   8.002  11.331
 7196SOL    HW221613   1.481   7.982  11.259
 7197SOL     OW21614   0.527   7.704  11.500
 7197SOL    HW121615   0.554   7.645  11.425
 7197SOL    HW221616   0.527   7.799  11.469
 7198SOL     OW21617   1.754   8.671  12.760
 7198SOL    HW121618   1.845   8.632  12.747
 7198SOL    HW221619   1.762   8.767  12.784
 7199SOL     OW21620   1.064   8.795  12.512
 7199SOL    HW121621   0.984   8.772  12.567
 7199SOL    HW221622   1.147   8.769  12.561
 7200SOL     OW21623   1.111   8.643  12.272
 7200SOL    HW121624   1.071   8.687  12.353
 7200SOL    HW221625   1.070   8.680  12.189
 7201SOL     OW21626   1.638   8.547  12.251
 7201SOL    HW121627   1.643   8.628  12.310
 7201SOL    HW221628   1.552   8.549  12.200
 7202SOL     OW21629   0.915   7.537  12.574
 7202SOL    HW121630   0.940   7.517  12.479
 7202SOL    HW221631   0.987   7.593  12.616
 7203SOL     OW21632   0.705   8.498  11.540
 7203SOL    HW121633   0.691   8.505  11.639
 7203SOL    HW221634   0.789   8.447  11.522
 7204SOL     OW21635   0.410   8.261  12.423
 7204SOL    HW121636   0.496   8.273  12.473
 7204SOL    HW221637   0.368   8.174  12.450
 7205SOL     OW21638   1.274   7.834  12.434
 7205SOL    HW121639   1.295   7.908  12.498
 7205SOL    HW221640   1.185   7.851  12.391
 7206SOL     OW21641   0.064   9.012  12.503
 7206SOL    HW121642   0.018   9.094  12.469
 7206SOL    HW221643   0.162   9.031  12.512
 7207SOL     OW21644   0.367   8.548  11.673
 7207SOL    HW121645   0.360   8.631  11.617
 7207SOL    HW221646   0.371   8.468  11.613
 7208SOL     OW21647   0.566   7.985  12.037
 7208SOL    HW121648   0.578   8.051  11.963
 7208SOL    HW221649   0.612   8.019  12.120
 7209SOL     OW21650   1.252   8.796  11.560
 7209SOL    HW121651   1.302   8.873  11.600
 7209SOL    HW221652   1.157   8.798  11.592
 7210SOL     OW21653   1.272   8.893  12.314
 7210SOL    HW121654   1.319   8.906  12.401
 7210SOL    HW221655   1.206   8.819  12.323
 7211SOL     OW21656   1.582   8.087  11.644
 7211SOL    HW121657   1.551   8.148  11.717
 7211SOL    HW221658   1.632   8.139  11.575
 7212SOL     OW21659   0.354   8.958  12.501
 7212SOL    HW121660   0.333   8.914  12.414
 7212SOL    HW221661   0.451   8.984  12.504
 7213SOL     OW21662   0.402   8.199  12.770
 7213SOL    HW121663   0.470   8.254  12.723
 7213SOL    HW221664   0.442   8.111  12.797
 7214SOL     OW21665   1.587   8.227  12.842
 7214SOL    HW121666   1.495   8.265  12.837
 7214SOL    HW221667   1.647   8.274  12.777
 7215SOL     OW21668   0.573   8.318  12.201
 7215SOL    HW121669   0.617   8.407  12.192
 7215SOL    HW221670   0.510   8.318  12.278
 7216SOL     OW21671   1.360   8.310  12.217
 7216SOL    HW121672   1.285   8.310  12.151
 7216SOL    HW221673   1.397   8.218  12.226
 7217SOL     OW21674   1.209   7.973  11.447
 7217SOL    HW121675   1.222   7.889  11.501
 7217SOL    HW221676   1.180   8.047  11.507
 7218SOL     OW21677   0.307   7.661  12.403
 7218SOL    HW121678   0.284   7.698  12.493
 7218SOL    HW221679   0.277   7.566  12.397
 7219SOL     OW21680   0.037   8.758  12.454
 7219SOL    HW121681   0.090   8.709  12.522
 7219SOL    HW221682   0.059   8.856  12.459
 7220SOL     OW21683   0.732   8.082  12.236
 7220SOL    HW121684   0.791   8.056  12.160
 7220SOL    HW221685   0.704   8.178  12.225
 7221SOL     OW21686   0.307   7.511  11.790
 7221SOL    HW121687   0.296   7.605  11.823
 7221SOL    HW221688   0.302   7.448  11.867
 7222SOL     OW21689   1.622   7.815  11.546
 7222SOL    HW121690   1.624   7.739  11.610
 7222SOL    HW221691   1.574   7.892  11.586
 7223SOL     OW21692   1.023   8.214  12.138
 7223SOL    HW121693   1.038   8.235  12.234
 7223SOL    HW221694   0.993   8.119  12.129
 7224SOL     OW21695   1.540   7.722  11.297
 7224SOL    HW121696   1.479   7.647  11.320
 7224SOL    HW221697   1.562   7.774  11.380
 7225SOL     OW21698   1.303   8.286  11.214
 7225SOL    HW121699   1.337   8.193  11.229
 7225SOL    HW221700   1.321   8.313  11.119
 7226SOL     OW21701   1.068   8.781  12.021
 7226SOL    HW121702   1.075   8.697  11.966
 7226SOL    HW221703   1.130   8.850  11.985
 7227SOL     OW21704   0.319   8.258  12.121
 7227SOL    HW121705   0.412   8.294  12.126
 7227SOL    HW221706   0.313   8.173  12.173
 7228SOL     OW21707   0.339   7.957  12.178
 7228SOL    HW121708   0.287   7.874  12.161
 7228SOL    HW221709   0.416   7.962  12.114
 7229SOL     OW21710   1.160   7.655  12.649
 7229SOL    HW121711   1.160   7.719  12.726
 7229SOL    HW221712   1.188   7.703  12.566
 7230SOL     OW21713   0.008   8.774  11.372
 7230SOL    HW121714  -0.085   8.795  11.341
 7230SOL    HW221715   0.018   8.675  11.385
 7231SOL     OW21716   0.088   9.249  12.099
 7231SOL    HW121717   0.046   9.163  12.072
 7231SOL    HW221718   0.182   9.252  12.065
 7232SOL     OW21719   0.504   9.016  12.082
 7232SOL    HW121720   0.570   9.090  12.091
 7232SOL    HW221721   0.548   8.937  12.040
 7233SOL     OW21722   1.002   8.244  12.410
 7233SOL    HW121723   1.043   8.212  12.496
 7233SOL    HW221724   0.906   8.217  12.407
 7234SOL     OW21725   0.040   7.992  12.286
 7234SOL    HW121726   0.125   7.959  12.245
 7234SOL    HW221727   0.053   8.007  12.384
 7235SOL     OW21728   0.815   8.020  11.497
 7235SOL    HW121729   0.822   7.931  11.451
 7235SOL    HW221730   0.721   8.054  11.489
 7236SOL     OW21731   1.657   8.052  12.378
 7236SOL    HW121732   1.619   7.983  12.440
 7236SOL    HW221733   1.739   8.016  12.334
 7237SOL     OW21734   0.252   9.012  12.916
 7237SOL    HW121735   0.222   9.069  12.992
 7237SOL    HW221736   0.245   8.915  12.942
 7238SOL     OW21737   0.671   7.912  12.441
 7238SOL    HW121738   0.637   7.823  12.411
 7238SOL    HW221739   0.697   7.966  12.361
 7239SOL     OW21740   0.930   9.126  12.637
 7239SOL    HW121741   0.906   9.108  12.542
 7239SOL    HW221742   0.960   9.220  12.647
 7240SOL     OW21743   0.473   7.948  11.363
 7240SOL    HW121744   0.534   8.028  11.367
 7240SOL    HW221745   0.378   7.979  11.370
 7241SOL     OW21746   0.159   8.585  12.638
 7241SOL    HW121747   0.181   8.524  12.714
 7241SOL    HW221748   0.169   8.536  12.552
 7242SOL     OW21749   1.347   8.507  12.406
 7242SOL    HW121750   1.371   8.444  12.332
 7242SOL    HW221751   1.257   8.547  12.388
 7243SOL     OW21752   1.302   8.303  11.481
 7243SOL    HW121753   1.216   8.272  11.523
 7243SOL    HW221754   1.298   8.289  11.382
 7244SOL     OW21755   1.759   9.195  12.326
 7244SOL    HW121756   1.820   9.225  12.253
 7244SOL    HW221757   1.721   9.106  12.304
 7245SOL     OW21758   1.252   9.179  12.300
 7245SOL    HW121759   1.336   9.184  12.246
 7245SOL    HW221760   1.229   9.083  12.318
 7246SOL     OW21761   0.083   8.706  12.194
 7246SOL    HW121762   0.078   8.705  12.294
 7246SOL    HW221763   0.000   8.665  12.156
 7247SOL     OW21764   1.726   7.583  11.695
 7247SOL    HW121765   1.799   7.566  11.628
 7247SOL    HW221766   1.695   7.496  11.733
 7248SOL     OW21767   1.388   9.021  11.649
 7248SOL    HW121768   1.455   9.033  11.575
 7248SOL    HW221769   1.348   9.110  11.672
 7249SOL     OW21770   1.280   8.375  11.844
 7249SOL    HW121771   1.340   8.294  11.846
 7249SOL    HW221772   1.320   8.444  11.784
 7250SOL     OW21773   0.830   8.721  12.594
 7250SOL    HW121774   0.825   8.754  12.689
 7250SOL    HW221775   0.744   8.740  12.548
 7251SOL     OW21776   0.672   9.064  11.326
 7251SOL    HW121777   0.681   9.074  11.227
 7251SOL    HW221778   0.632   8.975  11.347
 7252SOL     OW21779   1.650   9.168  12.566
 7252SOL    HW121780   1.703   9.178  12.482
 7252SOL    HW221781   1.623   9.258  12.600
 7253SOL     OW21782   1.841   7.623  12.135
 7253SOL    HW121783   1.880   7.538  12.099
 7253SOL    HW221784   1.743   7.625  12.116
 7254SOL     OW21785   0.263   7.774  11.892
 7254SOL    HW121786   0.184   7.825  11.858
 7254SOL    HW221787   0.254   7.759  11.990
 7255SOL     OW21788   1.194   9.060  11.203
 7255SOL    HW121789   1.200   8.967  11.240
 7255SOL    HW221790   1.135   9.060  11.123
 7256SOL     OW21791   0.822   8.450  12.544
 7256SOL    HW121792   0.862   8.449  12.452
 7256SOL    HW221793   0.832   8.542  12.584
 7257SOL     OW21794   0.916   8.358  11.463
 7257SOL    HW121795   0.979   8.396  11.395
 7257SOL    HW221796   0.956   8.275  11.502
 7258SOL     OW21797   1.504   9.055  11.216
 7258SOL    HW121798   1.412   9.092  11.223
 7258SOL    HW221799   1.542   9.075  11.126
 7259SOL     OW21800   0.372   8.736  12.662
 7259SOL    HW121801   0.359   8.829  12.628
 7259SOL    HW221802   0.288   8.684  12.649
 7260SOL     OW21803   1.614   8.740  12.461
 7260SOL    HW121804   1.674   8.743  12.541
 7260SOL    HW221805   1.539   8.804  12.474
 7261SOL     OW21806   1.039   8.546  11.868
 7261SOL    HW121807   0.969   8.499  11.922
 7261SOL    HW221808   1.098   8.478  11.825
 7262SOL     OW21809   1.014   7.684  12.143
 7262SOL    HW121810   1.006   7.648  12.050
 7262SOL    HW221811   1.012   7.608  12.208
 7263SOL     OW21812   0.590   8.935  11.663
 7263SOL    HW121813   0.632   8.877  11.593
 7263SOL    HW221814   0.546   9.014  11.619
 7264SOL     OW21815   1.709   7.833  12.553
 7264SOL    HW121816   1.782   7.902  12.557
 7264SOL    HW221817   1.737   7.758  12.494
 7265SOL     OW21818   0.255   8.796  11.462
 7265SOL    HW121819   0.159   8.797  11.435
 7265SOL    HW221820   0.267   8.849  11.546
 7266SOL     OW21821   0.105   8.461  12.898
 7266SOL    HW121822   0.028   8.428  12.952
 7266SOL    HW221823   0.190   8.431  12.940
 7267SOL     OW21824   0.672   7.651  12.661
 7267SOL    HW121825   0.762   7.635  12.621
 7267SOL    HW221826   0.680   7.656  12.760
 7268SOL     OW21827   0.075   7.793  11.205
 7268SOL    HW121828  -0.017   7.765  11.176
 7268SOL    HW221829   0.106   7.870  11.149
 7269SOL     OW21830   1.440   8.304  12.570
 7269SOL    HW121831   1.383   8.356  12.507
 7269SOL    HW221832   1.536   8.316  12.546
 7270SOL     OW21833   0.072   7.614  11.490
 7270SOL    HW121834   0.055   7.697  11.436
 7270SOL    HW221835   0.162   7.577  11.468
 7271SOL     OW21836   1.183   8.783  11.291
 7271SOL    HW121837   1.084   8.772  11.293
 7271SOL    HW221838   1.217   8.798  11.384
 7272SOL     OW21839   0.613   8.290  12.603
 7272SOL    HW121840   0.669   8.371  12.586
 7272SOL    HW221841   0.672   8.210  12.606
 7273SOL     OW21842   1.493   9.215  12.131
 7273SOL    HW121843   1.526   9.279  12.062
 7273SOL    HW221844   1.559   9.209  12.206
 7274SOL     OW21845   0.716   8.013  12.880
 7274SOL    HW121846   0.735   8.078  12.954
 7274SOL    HW221847   0.776   7.933  12.889
 7275SOL     OW21848   0.390   9.189  12.732
 7275SOL    HW121849   0.299   9.230  12.730
 7275SOL    HW221850   0.383   9.095  12.764
 7276SOL     OW21851   1.674   8.331  12.426
 7276SOL    HW121852   1.647   8.242  12.389
 7276SOL    HW221853   1.675   8.399  12.353
 7277SOL     OW21854   1.225   7.773  11.621
 7277SOL    HW121855   1.290   7.699  11.610
 7277SOL    HW221856   1.245   7.823  11.705
 7278SOL     OW21857   0.594   8.193  11.824
 7278SOL    HW121858   0.644   8.278  11.805
 7278SOL    HW221859   0.506   8.195  11.776
 7279SOL     OW21860   1.777   7.790  12.814
 7279SOL    HW121861   1.760   7.821  12.720
 7279SOL    HW221862   1.693   7.753  12.852
 7280SOL     OW21863   1.730   8.382  12.689
 7280SOL    HW121864   1.768   8.473  12.704
 7280SOL    HW221865   1.722   8.365  12.590
 7281SOL     OW21866   0.859   8.822  11.188
 7281SOL    HW121867   0.813   8.837  11.276
 7281SOL    HW221868   0.903   8.907  11.158
 7282SOL     OW21869   0.661   9.238  12.125
 7282SOL    HW121870   0.615   9.326  12.112
 7282SOL    HW221871   0.760   9.250  12.118
 7283SOL     OW21872   0.859   8.404  12.033
 7283SOL    HW121873   0.913   8.335  12.081
 7283SOL    HW221874   0.827   8.473  12.099
 7284SOL     OW21875   1.083   8.432  11.259
 7284SOL    HW121876   1.060   8.485  11.177
 7284SOL    HW221877   1.164   8.376  11.240
 7285SOL     OW21878   1.861   9.017  12.023
 7285SOL    HW121879   1.790   9.005  11.953
 7285SOL    HW221880   1.862   8.938  12.083
 7286SOL     OW21881   0.079   8.688  11.825
 7286SOL    HW121882   0.078   8.641  11.913
 7286SOL    HW221883   0.161   8.660  11.774
 7287SOL     OW21884   0.672   8.839  12.796
 7287SOL    HW121885   0.594   8.789  12.834
 7287SOL    HW221886   0.669   8.934  12.827
 7288SOL     OW21887   1.824   7.640  12.399
 7288SOL    HW121888   1.820   7.550  12.443
 7288SOL    HW221889   1.827   7.629  12.300
 7289SOL     OW21890   0.428   7.872  11.692
 7289SOL    HW121891   0.458   7.800  11.630
 7289SOL    HW221892   0.389   7.832  11.775
 7290SOL     OW21893   1.705   8.935  12.276
 7290SOL    HW121894   1.612   8.910  12.249
 7290SOL    HW221895   1.731   8.885  12.358
 7291SOL     OW21896   0.317   7.995  12.452
 7291SOL    HW121897   0.355   7.936  12.524
 7291SOL    HW221898   0.357   7.969  12.364
 7292SOL     OW21899   0.812   9.034  11.859
 7292SOL    HW121900   0.844   9.044  11.765
 7292SOL    HW221901   0.733   8.972  11.861
 7293SOL     OW21902   1.424   7.662  12.284
 7293SOL    HW121903   1.476   7.597  12.339
 7293SOL    HW221904   1.375   7.725  12.345
 7294SOL     OW21905   1.001   7.482  12.326
 7294SOL    HW121906   0.938   7.410  12.295
 7294SOL    HW221907   1.094   7.446  12.326
 7295SOL     OW21908   0.770   8.778  11.473
 7295SOL    HW121909   0.724   8.691  11.490
 7295SOL    HW221910   0.861   8.775  11.514
 7296SOL     OW21911   0.618   9.015  12.456
 7296SOL    HW121912   0.613   9.097  12.513
 7296SOL    HW221913   0.707   9.012  12.411
 7297SOL     OW21914   1.352   7.500  11.340
 7297SOL    HW121915   1.387   7.459  11.256
 7297SOL    HW221916   1.262   7.462  11.360
 7298SOL     OW21917   1.300   7.901  11.863
 7298SOL    HW121918   1.241   7.981  11.867
 7298SOL    HW221919   1.315   7.866  11.956
 7299SOL     OW21920   1.593   7.669  12.054
 7299SOL    HW121921   1.509   7.668  12.108
 7299SOL    HW221922   1.595   7.752  11.998
 7300SOL     OW21923   0.039   8.525  11.472
 7300SOL    HW121924   0.138   8.514  11.463
 7300SOL    HW221925  -0.001   8.439  11.504
 7301SOL     OW21926   0.875   9.094  11.509
 7301SOL    HW121927   0.798   9.059  11.455
 7301SOL    HW221928   0.843   9.165  11.571
 7302SOL     OW21929   0.230   9.938   0.113
 7302SOL    HW121930   0.137   9.936   0.150
 7302SOL    HW221931   0.231   9.899   0.021
 7303SOL     OW21932   0.225   9.585   0.996
 7303SOL    HW121933   0.260   9.568   1.088
 7303SOL    HW221934   0.137   9.540   0.984
 7304SOL     OW21935   0.019   9.678   0.647
 7304SOL    HW121936  -0.063   9.721   0.686
 7304SOL    HW221937  -0.009   9.605   0.584
 7305SOL     OW21938   0.569  10.585   1.165
 7305SOL    HW121939   0.476  10.578   1.128
 7305SOL    HW221940   0.580  10.674   1.209
 7306SOL     OW21941   1.555  10.821   0.703
 7306SOL    HW121942   1.498  10.805   0.784
 7306SOL    HW221943   1.496  10.831   0.623
 7307SOL     OW21944   1.135  10.013   0.717
 7307SOL    HW121945   1.192  10.091   0.692
 7307SOL    HW221946   1.075  10.039   0.793
 7308SOL     OW21947   1.755   9.917   0.231
 7308SOL    HW121948   1.743   9.904   0.132
 7308SOL    HW221949   1.725   9.836   0.280
 7309SOL     OW21950   0.768  10.454   1.023
 7309SOL    HW121951   0.690  10.471   1.083
 7309SOL    HW221952   0.802  10.541   0.987
 7310SOL     OW21953   0.850  10.108   1.823
 7310SOL    HW121954   0.846  10.184   1.888
 7310SOL    HW221955   0.872  10.144   1.732
 7311SOL     OW21956   0.685  10.322   0.665
 7311SOL    HW121957   0.754  10.306   0.735
 7311SOL    HW221958   0.612  10.379   0.703
 7312SOL     OW21959   0.686  10.471   1.803
 7312SOL    HW121960   0.746  10.550   1.817
 7312SOL    HW221961   0.600  10.502   1.762
 7313SOL     OW21962   0.335  10.745   1.061
 7313SOL    HW121963   0.257  10.714   1.008
 7313SOL    HW221964   0.393  10.803   1.004
 7314SOL     OW21965   1.460  10.815   1.339
 7314SOL    HW121966   1.484  10.909   1.365
 7314SOL    HW221967   1.444  10.761   1.421
 7315SOL     OW21968   0.438   9.702   1.499
 7315SOL    HW121969   0.520   9.646   1.508
 7315SOL    HW221970   0.357   9.644   1.503
 7316SOL     OW21971   1.603   9.757   0.737
 7316SOL    HW121972   1.529   9.803   0.687
 7316SOL    HW221973   1.654   9.825   0.790
 7317SOL     OW21974   0.231  11.023   0.483
 7317SOL    HW121975   0.265  11.100   0.537
 7317SOL    HW221976   0.275  11.023   0.393
 7318SOL     OW21977   1.127  10.651   1.690
 7318SOL    HW121978   1.174  10.651   1.778
 7318SOL    HW221979   1.079  10.564   1.679
 7319SOL     OW21980   0.230  10.744   0.538
 7319SOL    HW121981   0.204  10.840   0.538
 7319SOL    HW221982   0.159  10.690   0.583
 7320SOL     OW21983   0.240  10.401   0.886
 7320SOL    HW121984   0.254  10.317   0.938
 7320SOL    HW221985   0.185  10.465   0.941
 7321SOL     OW21986   0.620  11.096   1.439
 7321SOL    HW121987   0.528  11.079   1.474
 7321SOL    HW221988   0.648  11.188   1.465
 7322SOL     OW21989   0.606  10.274   0.123
 7322SOL    HW121990   0.613  10.358   0.069
 7322SOL    HW221991   0.652  10.287   0.211
 7323SOL     OW21992   1.594   9.424   1.480
 7323SOL    HW121993   1.576   9.491   1.408
 7323SOL    HW221994   1.591   9.470   1.569
 7324SOL     OW21995   0.122   9.953   0.563
 7324SOL    HW121996   0.077   9.865   0.580
 7324SOL    HW221997   0.121  10.007   0.647
 7325SOL     OW21998   1.842  11.077   0.359
 7325SOL    HW121999   1.896  11.048   0.439
 7325SOL    HW222000   1.872  11.167   0.330
 7326SOL     OW22001   0.027  10.906   0.117
 7326SOL    HW122002   0.008  10.810   0.138
 7326SOL    HW222003  -0.006  10.964   0.192
 7327SOL     OW22004   1.689  10.232   0.612
 7327SOL    HW122005   1.784  10.203   0.620
 7327SOL    HW222006   1.681  10.297   0.537
 7328SOL     OW22007   1.641  10.418   0.432
 7328SOL    HW122008   1.727  10.420   0.380
 7328SOL    HW222009   1.655  10.465   0.520
 7329SOL     OW22010   0.113  10.047   1.597
 7329SOL    HW122011   0.201  10.034   1.642
 7329SOL    HW222012   0.100  10.144   1.575
 7330SOL     OW22013   0.613  10.675   0.726
 7330SOL    HW122014   0.564  10.588   0.735
 7330SOL    HW222015   0.590  10.718   0.639
 7331SOL     OW22016   1.293  10.538   1.423
 7331SOL    HW122017   1.330  10.465   1.365
 7331SOL    HW222018   1.345  10.543   1.508
 7332SOL     OW22019   0.809   9.314   0.502
 7332SOL    HW122020   0.849   9.405   0.493
 7332SOL    HW222021   0.709   9.322   0.508
 7333SOL     OW22022   0.197  10.286   1.264
 7333SOL    HW122023   0.286  10.241   1.250
 7333SOL    HW222024   0.124  10.221   1.245
 7334SOL     OW22025   1.525  10.309   0.190
 7334SOL    HW122026   1.462  10.233   0.203
 7334SOL    HW222027   1.573  10.327   0.276
 7335SOL     OW22028   1.187  11.102   1.616
 7335SOL    HW122029   1.211  11.162   1.540
 7335SOL    HW222030   1.194  11.007   1.586
 7336SOL     OW22031   0.317   9.561   1.801
 7336SOL    HW122032   0.388   9.632   1.807
 7336SOL    HW222033   0.229   9.600   1.829
 7337SOL     OW22034   1.466  10.727   0.953
 7337SOL    HW122035   1.407  10.733   1.033
 7337SOL    HW222036   1.451  10.639   0.907
 7338SOL     OW22037   1.667  11.024   0.572
 7338SOL    HW122038   1.626  11.001   0.484
 7338SOL    HW222039   1.649  10.950   0.637
 7339SOL     OW22040   0.598  10.039   0.270
 7339SOL    HW122041   0.622  10.108   0.202
 7339SOL    HW222042   0.520  10.072   0.324
 7340SOL     OW22043   1.281   9.655   0.944
 7340SOL    HW122044   1.195   9.605   0.931
 7340SOL    HW222045   1.343   9.601   1.000
 7341SOL     OW22046   1.576  10.972   0.307
 7341SOL    HW122047   1.665  11.018   0.310
 7341SOL    HW222048   1.555  10.948   0.212
 7342SOL     OW22049   0.807   9.915   1.465
 7342SOL    HW122050   0.760   9.912   1.554
 7342SOL    HW222051   0.756   9.860   1.399
 7343SOL     OW22052   1.394   9.779   1.674
 7343SOL    HW122053   1.374   9.822   1.762
 7343SOL    HW222054   1.472   9.717   1.683
 7344SOL     OW22055   0.973  10.200   1.572
 7344SOL    HW122056   1.019  10.116   1.543
 7344SOL    HW222057   0.917  10.234   1.497
 7345SOL     OW22058   0.991   9.720   1.242
 7345SOL    HW122059   0.914   9.754   1.296
 7345SOL    HW222060   0.957   9.669   1.163
 7346SOL     OW22061   1.041  10.011   0.429
 7346SOL    HW122062   1.067  10.007   0.525
 7346SOL    HW222063   0.956   9.960   0.415
 7347SOL     OW22064   0.076  10.121   0.789
 7347SOL    HW122065   0.175  10.109   0.798
 7347SOL    HW222066   0.052  10.216   0.810
 7348SOL     OW22067   0.130  11.131   1.571
 7348SOL    HW122068   0.120  11.116   1.670
 7348SOL    HW222069   0.044  11.167   1.535
 7349SOL     OW22070   0.865   9.658   0.195
 7349SOL    HW122071   0.924   9.721   0.146
 7349SOL    HW222072   0.884   9.564   0.166
 7350SOL     OW22073   1.719   9.895   1.831
 7350SOL    HW122074   1.693   9.984   1.795
 7350SOL    HW222075   1.717   9.827   1.758
 7351SOL     OW22076   1.362  10.454   0.545
 7351SOL    HW122077   1.445  10.425   0.497
 7351SOL    HW222078   1.313  10.521   0.489
 7352SOL     OW22079   0.550   9.506   0.885
 7352SOL    HW122080   0.545   9.501   0.985
 7352SOL    HW222081   0.552   9.602   0.856
 7353SOL     OW22082   1.008  10.766   0.477
 7353SOL    HW122083   0.962  10.838   0.425
 7353SOL    HW222084   1.004  10.786   0.575
 7354SOL     OW22085   0.351  11.111   0.853
 7354SOL    HW122086   0.401  11.025   0.859
 7354SOL    HW222087   0.416  11.188   0.850
 7355SOL     OW22088   1.795  10.376   0.873
 7355SOL    HW122089   1.733  10.361   0.797
 7355SOL    HW222090   1.743  10.387   0.958
 7356SOL     OW22091   1.227  10.860   1.506
 7356SOL    HW122092   1.233  10.783   1.570
 7356SOL    HW222093   1.175  10.834   1.426
 7357SOL     OW22094   0.321  10.253   0.242
 7357SOL    HW122095   0.403  10.292   0.200
 7357SOL    HW222096   0.294  10.171   0.193
 7358SOL     OW22097   1.458  10.045   0.728
 7358SOL    HW122098   1.453   9.980   0.803
 7358SOL    HW222099   1.538  10.104   0.741
 7359SOL     OW22100   0.461  10.576   1.727
 7359SOL    HW122101   0.411  10.577   1.641
 7359SOL    HW222102   0.398  10.558   1.803
 7360SOL     OW22103   1.111  11.086   0.237
 7360SOL    HW122104   1.051  11.024   0.287
 7360SOL    HW222105   1.142  11.042   0.152
 7361SOL     OW22106   0.202   9.595   1.498
 7361SOL    HW122107   0.122   9.655   1.485
 7361SOL    HW222108   0.192   9.546   1.584
 7362SOL     OW22109   1.632  10.687   0.081
 7362SOL    HW122110   1.600  10.781   0.071
 7362SOL    HW222111   1.556  10.624   0.069
 7363SOL     OW22112   0.464  11.053   0.323
 7363SOL    HW122113   0.497  11.092   0.409
 7363SOL    HW222114   0.540  11.046   0.258
 7364SOL     OW22115   1.400   9.417   0.426
 7364SOL    HW122116   1.376   9.380   0.336
 7364SOL    HW222117   1.499   9.433   0.430
 7365SOL     OW22118   0.249  11.095   1.241
 7365SOL    HW122119   0.306  11.030   1.291
 7365SOL    HW222120   0.233  11.062   1.148
 7366SOL     OW22121   0.940  11.008   0.904
 7366SOL    HW122122   1.020  10.951   0.925
 7366SOL    HW222123   0.891  10.968   0.827
 7367SOL     OW22124   0.382  10.010   0.480
 7367SOL    HW122125   0.427   9.920   0.477
 7367SOL    HW222126   0.288   9.999   0.513
 7368SOL     OW22127   1.547   9.532   1.729
 7368SOL    HW122128   1.542   9.569   1.821
 7368SOL    HW222129   1.475   9.463   1.717
 7369SOL     OW22130   0.614   9.432   0.117
 7369SOL    HW122131   0.712   9.410   0.124
 7369SOL    HW222132   0.583   9.415   0.024
 7370SOL     OW22133   0.781   9.574   1.749
 7370SOL    HW122134   0.848   9.513   1.792
 7370SOL    HW222135   0.708   9.593   1.814
 7371SOL     OW22136   0.888  10.824   1.195
 7371SOL    HW122137   0.865  10.799   1.101
 7371SOL    HW222138   0.949  10.755   1.234
 7372SOL     OW22139   1.351   9.900   1.433
 7372SOL    HW122140   1.379   9.857   1.518
 7372SOL    HW222141   1.376   9.996   1.434
 7373SOL     OW22142   0.803  10.712   0.924
 7373SOL    HW122143   0.893  10.726   0.882
 7373SOL    HW222144   0.732  10.714   0.853
 7374SOL     OW22145   0.922   9.813   0.899
 7374SOL    HW122146   0.897   9.804   0.803
 7374SOL    HW222147   0.970   9.731   0.930
 7375SOL     OW22148   0.539   9.374   0.512
 7375SOL    HW122149   0.458   9.375   0.570
 7375SOL    HW222150   0.542   9.457   0.457
 7376SOL     OW22151   1.434  10.498   0.041
 7376SOL    HW122152   1.466  10.422   0.098
 7376SOL    HW222153   1.342  10.525   0.071
 7377SOL     OW22154   0.297   9.345   0.171
 7377SOL    HW122155   0.346   9.429   0.150
 7377SOL    HW222156   0.359   9.280   0.216
 7378SOL     OW22157   0.935   9.546   0.480
 7378SOL    HW122158   0.887   9.587   0.402
 7378SOL    HW222159   1.034   9.544   0.461
 7379SOL     OW22160   1.076   9.993   1.464
 7379SOL    HW122161   0.996   9.932   1.467
 7379SOL    HW222162   1.157   9.940   1.440
 7380SOL     OW22163   1.227  10.880   0.793
 7380SOL    HW122164   1.248  10.954   0.728
 7380SOL    HW222165   1.295  10.880   0.866
 7381SOL     OW22166   0.459  10.462   0.741
 7381SOL    HW122167   0.388  10.435   0.806
 7381SOL    HW222168   0.433  10.434   0.648
 7382SOL     OW22169   1.271  11.107   0.591
 7382SOL    HW122170   1.315  11.171   0.527
 7382SOL    HW222171   1.221  11.159   0.661
 7383SOL     OW22172   1.032   9.859   0.016
 7383SOL    HW122173   0.991   9.941  -0.023
 7383SOL    HW222174   1.096   9.885   0.089
 7384SOL     OW22175   0.078   9.866   1.386
 7384SOL    HW122176   0.170   9.865   1.345
 7384SOL    HW222177   0.072   9.940   1.453
 7385SOL     OW22178   0.561   9.532   1.147
 7385SOL    HW122179   0.599   9.448   1.184
 7385SOL    HW222180   0.473   9.551   1.191
 7386SOL     OW22181   0.866   9.764   0.642
 7386SOL    HW122182   0.834   9.836   0.580
 7386SOL    HW222183   0.890   9.683   0.589
 7387SOL     OW22184   1.017   9.349   0.753
 7387SOL    HW122185   0.945   9.354   0.684
 7387SOL    HW222186   0.993   9.280   0.822
 7388SOL     OW22187   1.429  10.483   0.867
 7388SOL    HW122188   1.374  10.399   0.860
 7388SOL    HW222189   1.455  10.512   0.775
 7389SOL     OW22190   1.466   9.900   0.992
 7389SOL    HW122191   1.436   9.805   0.999
 7389SOL    HW222192   1.539   9.916   1.058
 7390SOL     OW22193   1.857  10.143   0.377
 7390SOL    HW122194   1.899  10.079   0.441
 7390SOL    HW222195   1.819  10.092   0.299
 7391SOL     OW22196   0.488  10.695   0.174
 7391SOL    HW122197   0.401  10.680   0.221
 7391SOL    HW222198   0.471  10.721   0.079
 7392SOL     OW22199   1.664  10.590   0.657
 7392SOL    HW122200   1.763  10.598   0.671
 7392SOL    HW222201   1.619  10.674   0.688
 7393SOL     OW22202   1.390   9.885   0.078
 7393SOL    HW122203   1.336   9.864   0.159
 7393SOL    HW222204   1.481   9.844   0.087
 7394SOL     OW22205   0.527   9.566   0.328
 7394SOL    HW122206   0.554   9.507   0.253
 7394SOL    HW222207   0.527   9.661   0.297
 7395SOL     OW22208   1.754  10.533   1.588
 7395SOL    HW122209   1.845  10.494   1.575
 7395SOL    HW222210   1.762  10.629   1.612
 7396SOL     OW22211   1.064  10.657   1.340
 7396SOL    HW122212   0.984  10.634   1.395
 7396SOL    HW222213   1.147  10.631   1.389
 7397SOL     OW22214   1.592  10.939   1.625
 7397SOL    HW122215   1.619  10.973   1.535
 7397SOL    HW222216   1.671  10.901   1.671
 7398SOL     OW22217   1.111  10.505   1.100
 7398SOL    HW122218   1.071  10.549   1.181
 7398SOL    HW222219   1.070  10.542   1.017
 7399SOL     OW22220   1.638  10.409   1.079
 7399SOL    HW122221   1.643  10.490   1.138
 7399SOL    HW222222   1.552  10.411   1.028
 7400SOL     OW22223   0.915   9.399   1.402
 7400SOL    HW122224   0.940   9.379   1.307
 7400SOL    HW222225   0.987   9.455   1.444
 7401SOL     OW22226   0.980  10.426   1.719
 7401SOL    HW122227   0.881  10.432   1.729
 7401SOL    HW222228   1.003  10.346   1.663
 7402SOL     OW22229   0.705  10.360   0.368
 7402SOL    HW122230   0.691  10.367   0.467
 7402SOL    HW222231   0.789  10.309   0.350
 7403SOL     OW22232   0.410  10.123   1.251
 7403SOL    HW122233   0.496  10.135   1.301
 7403SOL    HW222234   0.368  10.036   1.278
 7404SOL     OW22235   1.274   9.696   1.262
 7404SOL    HW122236   1.295   9.770   1.326
 7404SOL    HW222237   1.185   9.713   1.219
 7405SOL     OW22238   0.064  10.874   1.331
 7405SOL    HW122239   0.018  10.956   1.297
 7405SOL    HW222240   0.162  10.893   1.340
 7406SOL     OW22241   0.367  10.410   0.501
 7406SOL    HW122242   0.360  10.493   0.445
 7406SOL    HW222243   0.371  10.330   0.441
 7407SOL     OW22244   0.566   9.847   0.865
 7407SOL    HW122245   0.578   9.913   0.791
 7407SOL    HW222246   0.612   9.881   0.948
 7408SOL     OW22247   1.252  10.658   0.388
 7408SOL    HW122248   1.302  10.735   0.428
 7408SOL    HW222249   1.157  10.660   0.420
 7409SOL     OW22250   1.272  10.755   1.142
 7409SOL    HW122251   1.319  10.768   1.229
 7409SOL    HW222252   1.206  10.681   1.151
 7410SOL     OW22253   1.582   9.949   0.472
 7410SOL    HW122254   1.551  10.010   0.545
 7410SOL    HW222255   1.632  10.001   0.403
 7411SOL     OW22256   0.354  10.820   1.329
 7411SOL    HW122257   0.333  10.776   1.242
 7411SOL    HW222258   0.451  10.846   1.332
 7412SOL     OW22259   0.402  10.061   1.598
 7412SOL    HW122260   0.470  10.116   1.551
 7412SOL    HW222261   0.442   9.973   1.625
 7413SOL     OW22262   1.587  10.089   1.670
 7413SOL    HW122263   1.495  10.127   1.665
 7413SOL    HW222264   1.647  10.136   1.605
 7414SOL     OW22265   1.013   9.415   1.770
 7414SOL    HW122266   1.019   9.500   1.718
 7414SOL    HW222267   1.045   9.339   1.713
 7415SOL     OW22268   0.504   9.360   1.740
 7415SOL    HW122269   0.462   9.303   1.670
 7415SOL    HW222270   0.438   9.429   1.772
 7416SOL     OW22271   0.573  10.180   1.029
 7416SOL    HW122272   0.617  10.269   1.020
 7416SOL    HW222273   0.510  10.180   1.106
 7417SOL     OW22274   1.360  10.172   1.045
 7417SOL    HW122275   1.285  10.172   0.979
 7417SOL    HW222276   1.397  10.080   1.054
 7418SOL     OW22277   1.209   9.835   0.275
 7418SOL    HW122278   1.222   9.751   0.329
 7418SOL    HW222279   1.180   9.909   0.335
 7419SOL     OW22280   0.307   9.523   1.231
 7419SOL    HW122281   0.284   9.560   1.321
 7419SOL    HW222282   0.277   9.428   1.225
 7420SOL     OW22283   0.037  10.620   1.282
 7420SOL    HW122284   0.090  10.571   1.350
 7420SOL    HW222285   0.059  10.718   1.287
 7421SOL     OW22286   0.732   9.944   1.064
 7421SOL    HW122287   0.791   9.918   0.988
 7421SOL    HW222288   0.704  10.040   1.053
 7422SOL     OW22289   1.728  10.245   1.854
 7422SOL    HW122290   1.682  10.238   1.765
 7422SOL    HW222291   1.666  10.289   1.920
 7423SOL     OW22292   0.307   9.373   0.618
 7423SOL    HW122293   0.296   9.467   0.651
 7423SOL    HW222294   0.302   9.310   0.695
 7424SOL     OW22295   1.622   9.677   0.374
 7424SOL    HW122296   1.624   9.601   0.438
 7424SOL    HW222297   1.574   9.754   0.414
 7425SOL     OW22298   1.023  10.076   0.966
 7425SOL    HW122299   1.038  10.097   1.062
 7425SOL    HW222300   0.993   9.981   0.957
 7426SOL     OW22301   0.980  10.883   1.700
 7426SOL    HW122302   0.960  10.927   1.612
 7426SOL    HW222303   1.019  10.792   1.684
 7427SOL     OW22304   1.859  10.828   1.605
 7427SOL    HW122305   1.873  10.855   1.510
 7427SOL    HW222306   1.942  10.850   1.658
 7428SOL     OW22307   0.350  10.208   1.804
 7428SOL    HW122308   0.426  10.252   1.852
 7428SOL    HW222309   0.385  10.161   1.722
 7429SOL     OW22310   1.540   9.584   0.125
 7429SOL    HW122311   1.479   9.509   0.148
 7429SOL    HW222312   1.562   9.636   0.208
 7430SOL     OW22313   1.303  10.148   0.042
 7430SOL    HW122314   1.337  10.055   0.057
 7430SOL    HW222315   1.321  10.175  -0.053
 7431SOL     OW22316   1.068  10.643   0.849
 7431SOL    HW122317   1.075  10.559   0.794
 7431SOL    HW222318   1.130  10.712   0.813
 7432SOL     OW22319   0.319  10.120   0.949
 7432SOL    HW122320   0.412  10.156   0.954
 7432SOL    HW222321   0.313  10.035   1.001
 7433SOL     OW22322   0.339   9.819   1.006
 7433SOL    HW122323   0.287   9.736   0.989
 7433SOL    HW222324   0.416   9.824   0.942
 7434SOL     OW22325   1.138   9.690   1.678
 7434SOL    HW122326   1.093   9.753   1.742
 7434SOL    HW222327   1.231   9.721   1.661
 7435SOL     OW22328   1.160   9.517   1.477
 7435SOL    HW122329   1.160   9.581   1.554
 7435SOL    HW222330   1.188   9.565   1.394
 7436SOL     OW22331   0.008  10.636   0.200
 7436SOL    HW122332  -0.085  10.657   0.169
 7436SOL    HW222333   0.018  10.537   0.213
 7437SOL     OW22334   0.088  11.111   0.927
 7437SOL    HW122335   0.046  11.025   0.900
 7437SOL    HW222336   0.182  11.114   0.893
 7438SOL     OW22337   0.504  10.878   0.910
 7438SOL    HW122338   0.570  10.952   0.919
 7438SOL    HW222339   0.548  10.799   0.868
 7439SOL     OW22340   1.002  10.106   1.238
 7439SOL    HW122341   1.043  10.074   1.324
 7439SOL    HW222342   0.906  10.079   1.235
 7440SOL     OW22343   0.040   9.854   1.114
 7440SOL    HW122344   0.125   9.821   1.073
 7440SOL    HW222345   0.053   9.869   1.212
 7441SOL     OW22346   0.189   9.830   1.722
 7441SOL    HW122347   0.248   9.790   1.652
 7441SOL    HW222348   0.131   9.901   1.681
 7442SOL     OW22349   1.369  10.260   1.660
 7442SOL    HW122350   1.408  10.349   1.680
 7442SOL    HW222351   1.379  10.240   1.563
 7443SOL     OW22352   0.815   9.882   0.325
 7443SOL    HW122353   0.822   9.793   0.279
 7443SOL    HW222354   0.721   9.916   0.317
 7444SOL     OW22355   1.657   9.914   1.206
 7444SOL    HW122356   1.619   9.845   1.268
 7444SOL    HW222357   1.739   9.878   1.162
 7445SOL     OW22358   0.252  10.874   1.744
 7445SOL    HW122359   0.222  10.931   1.820
 7445SOL    HW222360   0.245  10.777   1.770
 7446SOL     OW22361   0.671   9.774   1.269
 7446SOL    HW122362   0.637   9.685   1.239
 7446SOL    HW222363   0.697   9.828   1.189
 7447SOL     OW22364   0.930  10.988   1.465
 7447SOL    HW122365   0.906  10.970   1.370
 7447SOL    HW222366   0.960  11.082   1.475
 7448SOL     OW22367   0.473   9.810   0.191
 7448SOL    HW122368   0.534   9.890   0.195
 7448SOL    HW222369   0.378   9.841   0.198
 7449SOL     OW22370   0.159  10.447   1.466
 7449SOL    HW122371   0.181  10.386   1.542
 7449SOL    HW222372   0.169  10.398   1.380
 7450SOL     OW22373   1.347  10.369   1.234
 7450SOL    HW122374   1.371  10.306   1.160
 7450SOL    HW222375   1.257  10.409   1.216
 7451SOL     OW22376   1.302  10.165   0.309
 7451SOL    HW122377   1.216  10.134   0.351
 7451SOL    HW222378   1.298  10.151   0.210
 7452SOL     OW22379   1.759  11.057   1.154
 7452SOL    HW122380   1.820  11.087   1.081
 7452SOL    HW222381   1.721  10.968   1.132
 7453SOL     OW22382   1.252  11.041   1.128
 7453SOL    HW122383   1.336  11.046   1.074
 7453SOL    HW222384   1.229  10.945   1.146
 7454SOL     OW22385   0.083  10.568   1.022
 7454SOL    HW122386   0.078  10.567   1.122
 7454SOL    HW222387   0.000  10.527   0.984
 7455SOL     OW22388   0.688  10.972   1.716
 7455SOL    HW122389   0.632  11.053   1.725
 7455SOL    HW222390   0.740  10.976   1.630
 7456SOL     OW22391   0.903   9.396   0.133
 7456SOL    HW122392   0.954   9.397   0.047
 7456SOL    HW222393   0.959   9.354   0.204
 7457SOL     OW22394   1.726   9.445   0.523
 7457SOL    HW122395   1.799   9.428   0.456
 7457SOL    HW222396   1.695   9.358   0.561
 7458SOL     OW22397   1.388  10.883   0.477
 7458SOL    HW122398   1.455  10.895   0.403
 7458SOL    HW222399   1.348  10.972   0.500
 7459SOL     OW22400   0.130  11.104   1.851
 7459SOL    HW122401   0.089  11.030   1.904
 7459SOL    HW222402   0.194  11.155   1.909
 7460SOL     OW22403   1.280  10.237   0.672
 7460SOL    HW122404   1.340  10.156   0.674
 7460SOL    HW222405   1.320  10.306   0.612
 7461SOL     OW22406   0.830  10.583   1.422
 7461SOL    HW122407   0.825  10.616   1.517
 7461SOL    HW222408   0.744  10.602   1.376
 7462SOL     OW22409   0.672  10.926   0.154
 7462SOL    HW122410   0.681  10.936   0.055
 7462SOL    HW222411   0.632  10.837   0.175
 7463SOL     OW22412   1.650  11.030   1.394
 7463SOL    HW122413   1.703  11.040   1.310
 7463SOL    HW222414   1.623  11.120   1.428
 7464SOL     OW22415   1.841   9.485   0.963
 7464SOL    HW122416   1.880   9.400   0.927
 7464SOL    HW222417   1.743   9.487   0.944
 7465SOL     OW22418   0.263   9.636   0.720
 7465SOL    HW122419   0.184   9.687   0.686
 7465SOL    HW222420   0.254   9.621   0.818
 7466SOL     OW22421   1.194  10.922   0.031
 7466SOL    HW122422   1.200  10.829   0.068
 7466SOL    HW222423   1.135  10.922  -0.049
 7467SOL     OW22424   0.822  10.312   1.372
 7467SOL    HW122425   0.862  10.311   1.280
 7467SOL    HW222426   0.832  10.404   1.412
 7468SOL     OW22427   0.916  10.220   0.291
 7468SOL    HW122428   0.979  10.258   0.223
 7468SOL    HW222429   0.956  10.137   0.330
 7469SOL     OW22430   1.504  10.917   0.044
 7469SOL    HW122431   1.412  10.954   0.051
 7469SOL    HW222432   1.542  10.937  -0.046
 7470SOL     OW22433   0.372  10.598   1.490
 7470SOL    HW122434   0.359  10.691   1.456
 7470SOL    HW222435   0.288  10.546   1.477
 7471SOL     OW22436   1.614  10.602   1.289
 7471SOL    HW122437   1.674  10.605   1.369
 7471SOL    HW222438   1.539  10.666   1.302
 7472SOL     OW22439   1.039  10.408   0.696
 7472SOL    HW122440   0.969  10.361   0.750
 7472SOL    HW222441   1.098  10.340   0.653
 7473SOL     OW22442   1.014   9.546   0.971
 7473SOL    HW122443   1.006   9.510   0.878
 7473SOL    HW222444   1.012   9.470   1.036
 7474SOL     OW22445   0.590  10.797   0.491
 7474SOL    HW122446   0.632  10.739   0.421
 7474SOL    HW222447   0.546  10.876   0.447
 7475SOL     OW22448   1.709   9.695   1.381
 7475SOL    HW122449   1.782   9.764   1.385
 7475SOL    HW222450   1.737   9.620   1.322
 7476SOL     OW22451   0.255  10.658   0.290
 7476SOL    HW122452   0.159  10.659   0.263
 7476SOL    HW222453   0.267  10.711   0.374
 7477SOL     OW22454   0.105  10.323   1.726
 7477SOL    HW122455   0.028  10.290   1.780
 7477SOL    HW222456   0.190  10.293   1.768
 7478SOL     OW22457   0.672   9.513   1.489
 7478SOL    HW122458   0.762   9.497   1.449
 7478SOL    HW222459   0.680   9.518   1.588
 7479SOL     OW22460   0.075   9.655   0.033
 7479SOL    HW122461  -0.017   9.627   0.004
 7479SOL    HW222462   0.106   9.732  -0.023
 7480SOL     OW22463   1.440  10.166   1.398
 7480SOL    HW122464   1.383  10.218   1.335
 7480SOL    HW222465   1.536  10.178   1.374
 7481SOL     OW22466   0.072   9.476   0.318
 7481SOL    HW122467   0.055   9.559   0.264
 7481SOL    HW222468   0.162   9.439   0.296
 7482SOL     OW22469   1.183  10.645   0.119
 7482SOL    HW122470   1.084  10.634   0.121
 7482SOL    HW222471   1.217  10.660   0.212
 7483SOL     OW22472   0.613  10.152   1.431
 7483SOL    HW122473   0.669  10.233   1.414
 7483SOL    HW222474   0.672  10.072   1.434
 7484SOL     OW22475   1.493  11.077   0.959
 7484SOL    HW122476   1.526  11.141   0.890
 7484SOL    HW222477   1.559  11.071   1.034
 7485SOL     OW22478   0.716   9.875   1.708
 7485SOL    HW122479   0.735   9.940   1.782
 7485SOL    HW222480   0.776   9.795   1.717
 7486SOL     OW22481   1.450  10.530   1.633
 7486SOL    HW122482   1.441  10.520   1.732
 7486SOL    HW222483   1.546  10.523   1.607
 7487SOL     OW22484   0.390  11.051   1.560
 7487SOL    HW122485   0.299  11.092   1.558
 7487SOL    HW222486   0.383  10.957   1.592
 7488SOL     OW22487   1.674  10.193   1.254
 7488SOL    HW122488   1.647  10.104   1.217
 7488SOL    HW222489   1.675  10.261   1.181
 7489SOL     OW22490   1.225   9.635   0.449
 7489SOL    HW122491   1.290   9.561   0.438
 7489SOL    HW222492   1.245   9.685   0.533
 7490SOL     OW22493   0.594  10.055   0.652
 7490SOL    HW122494   0.644  10.140   0.633
 7490SOL    HW222495   0.506  10.057   0.604
 7491SOL     OW22496   1.777   9.652   1.642
 7491SOL    HW122497   1.760   9.683   1.548
 7491SOL    HW222498   1.693   9.615   1.680
 7492SOL     OW22499   1.730  10.244   1.517
 7492SOL    HW122500   1.768  10.335   1.532
 7492SOL    HW222501   1.722  10.227   1.418
 7493SOL     OW22502   0.859  10.684   0.016
 7493SOL    HW122503   0.813  10.699   0.104
 7493SOL    HW222504   0.903  10.769  -0.014
 7494SOL     OW22505   0.661  11.100   0.953
 7494SOL    HW122506   0.615  11.188   0.940
 7494SOL    HW222507   0.760  11.112   0.946
 7495SOL     OW22508   0.859  10.266   0.861
 7495SOL    HW122509   0.913  10.197   0.909
 7495SOL    HW222510   0.827  10.335   0.927
 7496SOL     OW22511   1.083  10.294   0.087
 7496SOL    HW122512   1.060  10.347   0.005
 7496SOL    HW222513   1.164  10.238   0.068
 7497SOL     OW22514   1.861  10.879   0.851
 7497SOL    HW122515   1.790  10.867   0.781
 7497SOL    HW222516   1.862  10.800   0.911
 7498SOL     OW22517   0.221  10.624   1.844
 7498SOL    HW122518   0.156  10.551   1.823
 7498SOL    HW222519   0.225  10.638   1.942
 7499SOL     OW22520   0.079  10.550   0.653
 7499SOL    HW122521   0.078  10.503   0.741
 7499SOL    HW222522   0.161  10.522   0.602
 7500SOL     OW22523   0.672  10.701   1.624
 7500SOL    HW122524   0.594  10.651   1.662
 7500SOL    HW222525   0.669  10.796   1.655
 7501SOL     OW22526   1.824   9.502   1.227
 7501SOL    HW122527   1.820   9.412   1.271
 7501SOL    HW222528   1.827   9.491   1.128
 7502SOL     OW22529   0.428   9.734   0.520
 7502SOL    HW122530   0.458   9.662   0.458
 7502SOL    HW222531   0.389   9.694   0.603
 7503SOL     OW22532   1.705  10.797   1.104
 7503SOL    HW122533   1.612  10.772   1.077
 7503SOL    HW222534   1.731  10.747   1.186
 7504SOL     OW22535   0.317   9.857   1.280
 7504SOL    HW122536   0.355   9.798   1.352
 7504SOL    HW222537   0.357   9.831   1.192
 7505SOL     OW22538   0.812  10.896   0.687
 7505SOL    HW122539   0.844  10.906   0.593
 7505SOL    HW222540   0.733  10.834   0.689
 7506SOL     OW22541   1.424   9.524   1.112
 7506SOL    HW122542   1.476   9.459   1.167
 7506SOL    HW222543   1.375   9.587   1.173
 7507SOL     OW22544   1.001   9.344   1.154
 7507SOL    HW122545   0.938   9.272   1.123
 7507SOL    HW222546   1.094   9.308   1.154
 7508SOL     OW22547   0.770  10.640   0.301
 7508SOL    HW122548   0.724  10.553   0.318
 7508SOL    HW222549   0.861  10.637   0.342
 7509SOL     OW22550   0.618  10.877   1.284
 7509SOL    HW122551   0.613  10.959   1.341
 7509SOL    HW222552   0.707  10.874   1.239
 7510SOL     OW22553   1.352   9.362   0.168
 7510SOL    HW122554   1.387   9.321   0.084
 7510SOL    HW222555   1.262   9.324   0.188
 7511SOL     OW22556   1.300   9.763   0.691
 7511SOL    HW122557   1.241   9.843   0.695
 7511SOL    HW222558   1.315   9.728   0.784
 7512SOL     OW22559   1.593   9.531   0.882
 7512SOL    HW122560   1.509   9.530   0.936
 7512SOL    HW222561   1.595   9.614   0.826
 7513SOL     OW22562   0.039  10.387   0.300
 7513SOL    HW122563   0.138  10.376   0.291
 7513SOL    HW222564  -0.001  10.301   0.332
 7514SOL     OW22565   0.875  10.956   0.337
 7514SOL    HW122566   0.798  10.921   0.283
 7514SOL    HW222567   0.843  11.027   0.399
 7515SOL     OW22568   0.230   9.938   1.975
 7515SOL    HW122569   0.137   9.936   2.012
 7515SOL    HW222570   0.231   9.899   1.883
 7516SOL     OW22571   0.225   9.585   2.858
 7516SOL    HW122572   0.260   9.568   2.950
 7516SOL    HW222573   0.137   9.540   2.846
 7517SOL     OW22574   0.019   9.678   2.509
 7517SOL    HW122575  -0.063   9.721   2.548
 7517SOL    HW222576  -0.009   9.605   2.446
 7518SOL     OW22577   0.569  10.585   3.027
 7518SOL    HW122578   0.476  10.578   2.990
 7518SOL    HW222579   0.580  10.674   3.071
 7519SOL     OW22580   1.555  10.821   2.565
 7519SOL    HW122581   1.498  10.805   2.646
 7519SOL    HW222582   1.496  10.831   2.485
 7520SOL     OW22583   1.135  10.013   2.579
 7520SOL    HW122584   1.192  10.091   2.554
 7520SOL    HW222585   1.075  10.039   2.655
 7521SOL     OW22586   1.755   9.917   2.093
 7521SOL    HW122587   1.743   9.904   1.994
 7521SOL    HW222588   1.725   9.836   2.142
 7522SOL     OW22589   0.768  10.454   2.885
 7522SOL    HW122590   0.690  10.471   2.945
 7522SOL    HW222591   0.802  10.541   2.849
 7523SOL     OW22592   0.850  10.108   3.685
 7523SOL    HW122593   0.846  10.184   3.750
 7523SOL    HW222594   0.872  10.144   3.594
 7524SOL     OW22595   0.685  10.322   2.527
 7524SOL    HW122596   0.754  10.306   2.597
 7524SOL    HW222597   0.612  10.379   2.565
 7525SOL     OW22598   0.686  10.471   3.665
 7525SOL    HW122599   0.746  10.550   3.679
 7525SOL    HW222600   0.600  10.502   3.624
 7526SOL     OW22601   0.335  10.745   2.923
 7526SOL    HW122602   0.257  10.714   2.870
 7526SOL    HW222603   0.393  10.803   2.866
 7527SOL     OW22604   1.460  10.815   3.201
 7527SOL    HW122605   1.484  10.909   3.227
 7527SOL    HW222606   1.444  10.761   3.283
 7528SOL     OW22607   0.438   9.702   3.361
 7528SOL    HW122608   0.520   9.646   3.370
 7528SOL    HW222609   0.357   9.644   3.365
 7529SOL     OW22610   1.603   9.757   2.599
 7529SOL    HW122611   1.529   9.803   2.549
 7529SOL    HW222612   1.654   9.825   2.652
 7530SOL     OW22613   0.231  11.023   2.345
 7530SOL    HW122614   0.265  11.100   2.399
 7530SOL    HW222615   0.275  11.023   2.255
 7531SOL     OW22616   1.127  10.651   3.552
 7531SOL    HW122617   1.174  10.651   3.640
 7531SOL    HW222618   1.079  10.564   3.541
 7532SOL     OW22619   0.230  10.744   2.400
 7532SOL    HW122620   0.204  10.840   2.400
 7532SOL    HW222621   0.159  10.690   2.445
 7533SOL     OW22622   0.240  10.401   2.748
 7533SOL    HW122623   0.254  10.317   2.800
 7533SOL    HW222624   0.185  10.465   2.803
 7534SOL     OW22625   0.620  11.096   3.301
 7534SOL    HW122626   0.528  11.079   3.336
 7534SOL    HW222627   0.648  11.188   3.327
 7535SOL     OW22628   0.606  10.274   1.985
 7535SOL    HW122629   0.613  10.358   1.931
 7535SOL    HW222630   0.652  10.287   2.073
 7536SOL     OW22631   1.594   9.424   3.342
 7536SOL    HW122632   1.576   9.491   3.270
 7536SOL    HW222633   1.591   9.470   3.431
 7537SOL     OW22634   0.122   9.953   2.425
 7537SOL    HW122635   0.077   9.865   2.442
 7537SOL    HW222636   0.121  10.007   2.509
 7538SOL     OW22637   1.842  11.077   2.221
 7538SOL    HW122638   1.896  11.048   2.301
 7538SOL    HW222639   1.872  11.167   2.192
 7539SOL     OW22640   0.027  10.906   1.979
 7539SOL    HW122641   0.008  10.810   2.000
 7539SOL    HW222642  -0.006  10.964   2.054
 7540SOL     OW22643   1.689  10.232   2.474
 7540SOL    HW122644   1.784  10.203   2.482
 7540SOL    HW222645   1.681  10.297   2.399
 7541SOL     OW22646   1.641  10.418   2.294
 7541SOL    HW122647   1.727  10.420   2.242
 7541SOL    HW222648   1.655  10.465   2.382
 7542SOL     OW22649   0.113  10.047   3.459
 7542SOL    HW122650   0.201  10.034   3.504
 7542SOL    HW222651   0.100  10.144   3.437
 7543SOL     OW22652   0.613  10.675   2.588
 7543SOL    HW122653   0.564  10.588   2.597
 7543SOL    HW222654   0.590  10.718   2.501
 7544SOL     OW22655   1.293  10.538   3.285
 7544SOL    HW122656   1.330  10.465   3.227
 7544SOL    HW222657   1.345  10.543   3.370
 7545SOL     OW22658   0.809   9.314   2.364
 7545SOL    HW122659   0.849   9.405   2.355
 7545SOL    HW222660   0.709   9.322   2.370
 7546SOL     OW22661   0.197  10.286   3.126
 7546SOL    HW122662   0.286  10.241   3.112
 7546SOL    HW222663   0.124  10.221   3.107
 7547SOL     OW22664   1.525  10.309   2.052
 7547SOL    HW122665   1.462  10.233   2.065
 7547SOL    HW222666   1.573  10.327   2.138
 7548SOL     OW22667   1.187  11.102   3.478
 7548SOL    HW122668   1.211  11.162   3.402
 7548SOL    HW222669   1.194  11.007   3.448
 7549SOL     OW22670   0.317   9.561   3.663
 7549SOL    HW122671   0.388   9.632   3.669
 7549SOL    HW222672   0.229   9.600   3.691
 7550SOL     OW22673   1.466  10.727   2.815
 7550SOL    HW122674   1.407  10.733   2.895
 7550SOL    HW222675   1.451  10.639   2.769
 7551SOL     OW22676   1.667  11.024   2.434
 7551SOL    HW122677   1.626  11.001   2.346
 7551SOL    HW222678   1.649  10.950   2.499
 7552SOL     OW22679   0.598  10.039   2.132
 7552SOL    HW122680   0.622  10.108   2.064
 7552SOL    HW222681   0.520  10.072   2.186
 7553SOL     OW22682   1.281   9.655   2.806
 7553SOL    HW122683   1.195   9.605   2.793
 7553SOL    HW222684   1.343   9.601   2.862
 7554SOL     OW22685   1.576  10.972   2.169
 7554SOL    HW122686   1.665  11.018   2.172
 7554SOL    HW222687   1.555  10.948   2.074
 7555SOL     OW22688   0.807   9.915   3.327
 7555SOL    HW122689   0.760   9.912   3.416
 7555SOL    HW222690   0.756   9.860   3.261
 7556SOL     OW22691   1.394   9.779   3.536
 7556SOL    HW122692   1.374   9.822   3.624
 7556SOL    HW222693   1.472   9.717   3.545
 7557SOL     OW22694   0.973  10.200   3.434
 7557SOL    HW122695   1.019  10.116   3.405
 7557SOL    HW222696   0.917  10.234   3.359
 7558SOL     OW22697   0.991   9.720   3.104
 7558SOL    HW122698   0.914   9.754   3.158
 7558SOL    HW222699   0.957   9.669   3.025
 7559SOL     OW22700   1.041  10.011   2.291
 7559SOL    HW122701   1.067  10.007   2.387
 7559SOL    HW222702   0.956   9.960   2.277
 7560SOL     OW22703   0.076  10.121   2.651
 7560SOL    HW122704   0.175  10.109   2.660
 7560SOL    HW222705   0.052  10.216   2.672
 7561SOL     OW22706   0.130  11.131   3.433
 7561SOL    HW122707   0.120  11.116   3.532
 7561SOL    HW222708   0.044  11.167   3.397
 7562SOL     OW22709   0.865   9.658   2.057
 7562SOL    HW122710   0.924   9.721   2.008
 7562SOL    HW222711   0.884   9.564   2.028
 7563SOL     OW22712   1.719   9.895   3.693
 7563SOL    HW122713   1.693   9.984   3.657
 7563SOL    HW222714   1.717   9.827   3.620
 7564SOL     OW22715   1.362  10.454   2.407
 7564SOL    HW122716   1.445  10.425   2.359
 7564SOL    HW222717   1.313  10.521   2.351
 7565SOL     OW22718   0.550   9.506   2.747
 7565SOL    HW122719   0.545   9.501   2.847
 7565SOL    HW222720   0.552   9.602   2.718
 7566SOL     OW22721   1.008  10.766   2.339
 7566SOL    HW122722   0.962  10.838   2.287
 7566SOL    HW222723   1.004  10.786   2.437
 7567SOL     OW22724   0.351  11.111   2.715
 7567SOL    HW122725   0.401  11.025   2.721
 7567SOL    HW222726   0.416  11.188   2.712
 7568SOL     OW22727   1.795  10.376   2.735
 7568SOL    HW122728   1.733  10.361   2.659
 7568SOL    HW222729   1.743  10.387   2.820
 7569SOL     OW22730   1.227  10.860   3.368
 7569SOL    HW122731   1.233  10.783   3.432
 7569SOL    HW222732   1.175  10.834   3.288
 7570SOL     OW22733   0.321  10.253   2.104
 7570SOL    HW122734   0.403  10.292   2.062
 7570SOL    HW222735   0.294  10.171   2.055
 7571SOL     OW22736   1.458  10.045   2.590
 7571SOL    HW122737   1.453   9.980   2.665
 7571SOL    HW222738   1.538  10.104   2.603
 7572SOL     OW22739   0.461  10.576   3.589
 7572SOL    HW122740   0.411  10.577   3.503
 7572SOL    HW222741   0.398  10.558   3.665
 7573SOL     OW22742   1.111  11.086   2.099
 7573SOL    HW122743   1.051  11.024   2.149
 7573SOL    HW222744   1.142  11.042   2.014
 7574SOL     OW22745   0.202   9.595   3.360
 7574SOL    HW122746   0.122   9.655   3.347
 7574SOL    HW222747   0.192   9.546   3.446
 7575SOL     OW22748   1.632  10.687   1.943
 7575SOL    HW122749   1.600  10.781   1.933
 7575SOL    HW222750   1.556  10.624   1.931
 7576SOL     OW22751   0.464  11.053   2.185
 7576SOL    HW122752   0.497  11.092   2.271
 7576SOL    HW222753   0.540  11.046   2.120
 7577SOL     OW22754   1.400   9.417   2.288
 7577SOL    HW122755   1.376   9.380   2.198
 7577SOL    HW222756   1.499   9.433   2.292
 7578SOL     OW22757   0.249  11.095   3.103
 7578SOL    HW122758   0.306  11.030   3.153
 7578SOL    HW222759   0.233  11.062   3.010
 7579SOL     OW22760   0.940  11.008   2.766
 7579SOL    HW122761   1.020  10.951   2.787
 7579SOL    HW222762   0.891  10.968   2.689
 7580SOL     OW22763   0.382  10.010   2.342
 7580SOL    HW122764   0.427   9.920   2.339
 7580SOL    HW222765   0.288   9.999   2.375
 7581SOL     OW22766   1.547   9.532   3.591
 7581SOL    HW122767   1.542   9.569   3.683
 7581SOL    HW222768   1.475   9.463   3.579
 7582SOL     OW22769   0.614   9.432   1.979
 7582SOL    HW122770   0.712   9.410   1.986
 7582SOL    HW222771   0.583   9.415   1.886
 7583SOL     OW22772   0.781   9.574   3.611
 7583SOL    HW122773   0.848   9.513   3.654
 7583SOL    HW222774   0.708   9.593   3.676
 7584SOL     OW22775   0.888  10.824   3.057
 7584SOL    HW122776   0.865  10.799   2.963
 7584SOL    HW222777   0.949  10.755   3.096
 7585SOL     OW22778   1.351   9.900   3.295
 7585SOL    HW122779   1.379   9.857   3.380
 7585SOL    HW222780   1.376   9.996   3.296
 7586SOL     OW22781   0.803  10.712   2.786
 7586SOL    HW122782   0.893  10.726   2.744
 7586SOL    HW222783   0.732  10.714   2.715
 7587SOL     OW22784   0.922   9.813   2.761
 7587SOL    HW122785   0.897   9.804   2.665
 7587SOL    HW222786   0.970   9.731   2.792
 7588SOL     OW22787   0.539   9.374   2.374
 7588SOL    HW122788   0.458   9.375   2.432
 7588SOL    HW222789   0.542   9.457   2.319
 7589SOL     OW22790   1.434  10.498   1.903
 7589SOL    HW122791   1.466  10.422   1.960
 7589SOL    HW222792   1.342  10.525   1.933
 7590SOL     OW22793   0.297   9.345   2.033
 7590SOL    HW122794   0.346   9.429   2.012
 7590SOL    HW222795   0.359   9.280   2.078
 7591SOL     OW22796   0.935   9.546   2.342
 7591SOL    HW122797   0.887   9.587   2.264
 7591SOL    HW222798   1.034   9.544   2.323
 7592SOL     OW22799   1.076   9.993   3.326
 7592SOL    HW122800   0.996   9.932   3.329
 7592SOL    HW222801   1.157   9.940   3.302
 7593SOL     OW22802   1.227  10.880   2.655
 7593SOL    HW122803   1.248  10.954   2.590
 7593SOL    HW222804   1.295  10.880   2.728
 7594SOL     OW22805   0.459  10.462   2.603
 7594SOL    HW122806   0.388  10.435   2.668
 7594SOL    HW222807   0.433  10.434   2.510
 7595SOL     OW22808   1.271  11.107   2.453
 7595SOL    HW122809   1.315  11.171   2.389
 7595SOL    HW222810   1.221  11.159   2.523
 7596SOL     OW22811   1.032   9.859   1.878
 7596SOL    HW122812   0.991   9.941   1.839
 7596SOL    HW222813   1.096   9.885   1.951
 7597SOL     OW22814   0.078   9.866   3.248
 7597SOL    HW122815   0.170   9.865   3.207
 7597SOL    HW222816   0.072   9.940   3.315
 7598SOL     OW22817   0.561   9.532   3.009
 7598SOL    HW122818   0.599   9.448   3.046
 7598SOL    HW222819   0.473   9.551   3.053
 7599SOL     OW22820   0.866   9.764   2.504
 7599SOL    HW122821   0.834   9.836   2.442
 7599SOL    HW222822   0.890   9.683   2.451
 7600SOL     OW22823   1.017   9.349   2.615
 7600SOL    HW122824   0.945   9.354   2.546
 7600SOL    HW222825   0.993   9.280   2.684
 7601SOL     OW22826   1.429  10.483   2.729
 7601SOL    HW122827   1.374  10.399   2.722
 7601SOL    HW222828   1.455  10.512   2.637
 7602SOL     OW22829   1.466   9.900   2.854
 7602SOL    HW122830   1.436   9.805   2.861
 7602SOL    HW222831   1.539   9.916   2.920
 7603SOL     OW22832   1.857  10.143   2.239
 7603SOL    HW122833   1.899  10.079   2.303
 7603SOL    HW222834   1.819  10.092   2.161
 7604SOL     OW22835   0.488  10.695   2.036
 7604SOL    HW122836   0.401  10.680   2.083
 7604SOL    HW222837   0.471  10.721   1.941
 7605SOL     OW22838   1.664  10.590   2.519
 7605SOL    HW122839   1.763  10.598   2.533
 7605SOL    HW222840   1.619  10.674   2.550
 7606SOL     OW22841   1.390   9.885   1.940
 7606SOL    HW122842   1.336   9.864   2.021
 7606SOL    HW222843   1.481   9.844   1.949
 7607SOL     OW22844   0.527   9.566   2.190
 7607SOL    HW122845   0.554   9.507   2.115
 7607SOL    HW222846   0.527   9.661   2.159
 7608SOL     OW22847   1.754  10.533   3.450
 7608SOL    HW122848   1.845  10.494   3.437
 7608SOL    HW222849   1.762  10.629   3.474
 7609SOL     OW22850   1.064  10.657   3.202
 7609SOL    HW122851   0.984  10.634   3.257
 7609SOL    HW222852   1.147  10.631   3.251
 7610SOL     OW22853   1.592  10.939   3.487
 7610SOL    HW122854   1.619  10.973   3.397
 7610SOL    HW222855   1.671  10.901   3.533
 7611SOL     OW22856   1.111  10.505   2.962
 7611SOL    HW122857   1.071  10.549   3.043
 7611SOL    HW222858   1.070  10.542   2.879
 7612SOL     OW22859   1.638  10.409   2.941
 7612SOL    HW122860   1.643  10.490   3.000
 7612SOL    HW222861   1.552  10.411   2.890
 7613SOL     OW22862   0.915   9.399   3.264
 7613SOL    HW122863   0.940   9.379   3.169
 7613SOL    HW222864   0.987   9.455   3.306
 7614SOL     OW22865   0.980  10.426   3.581
 7614SOL    HW122866   0.881  10.432   3.591
 7614SOL    HW222867   1.003  10.346   3.525
 7615SOL     OW22868   0.705  10.360   2.230
 7615SOL    HW122869   0.691  10.367   2.329
 7615SOL    HW222870   0.789  10.309   2.212
 7616SOL     OW22871   0.410  10.123   3.113
 7616SOL    HW122872   0.496  10.135   3.163
 7616SOL    HW222873   0.368  10.036   3.140
 7617SOL     OW22874   1.274   9.696   3.124
 7617SOL    HW122875   1.295   9.770   3.188
 7617SOL    HW222876   1.185   9.713   3.081
 7618SOL     OW22877   0.064  10.874   3.193
 7618SOL    HW122878   0.018  10.956   3.159
 7618SOL    HW222879   0.162  10.893   3.202
 7619SOL     OW22880   0.367  10.410   2.363
 7619SOL    HW122881   0.360  10.493   2.307
 7619SOL    HW222882   0.371  10.330   2.303
 7620SOL     OW22883   0.566   9.847   2.727
 7620SOL    HW122884   0.578   9.913   2.653
 7620SOL    HW222885   0.612   9.881   2.810
 7621SOL     OW22886   1.252  10.658   2.250
 7621SOL    HW122887   1.302  10.735   2.290
 7621SOL    HW222888   1.157  10.660   2.282
 7622SOL     OW22889   1.272  10.755   3.004
 7622SOL    HW122890   1.319  10.768   3.091
 7622SOL    HW222891   1.206  10.681   3.013
 7623SOL     OW22892   1.582   9.949   2.334
 7623SOL    HW122893   1.551  10.010   2.407
 7623SOL    HW222894   1.632  10.001   2.265
 7624SOL     OW22895   0.354  10.820   3.191
 7624SOL    HW122896   0.333  10.776   3.104
 7624SOL    HW222897   0.451  10.846   3.194
 7625SOL     OW22898   0.402  10.061   3.460
 7625SOL    HW122899   0.470  10.116   3.413
 7625SOL    HW222900   0.442   9.973   3.487
 7626SOL     OW22901   1.587  10.089   3.532
 7626SOL    HW122902   1.495  10.127   3.527
 7626SOL    HW222903   1.647  10.136   3.467
 7627SOL     OW22904   1.013   9.415   3.632
 7627SOL    HW122905   1.019   9.500   3.580
 7627SOL    HW222906   1.045   9.339   3.575
 7628SOL     OW22907   0.504   9.360   3.602
 7628SOL    HW122908   0.462   9.303   3.532
 7628SOL    HW222909   0.438   9.429   3.634
 7629SOL     OW22910   0.573  10.180   2.891
 7629SOL    HW122911   0.617  10.269   2.882
 7629SOL    HW222912   0.510  10.180   2.968
 7630SOL     OW22913   1.360  10.172   2.907
 7630SOL    HW122914   1.285  10.172   2.841
 7630SOL    HW222915   1.397  10.080   2.916
 7631SOL     OW22916   1.209   9.835   2.137
 7631SOL    HW122917   1.222   9.751   2.191
 7631SOL    HW222918   1.180   9.909   2.197
 7632SOL     OW22919   0.307   9.523   3.093
 7632SOL    HW122920   0.284   9.560   3.183
 7632SOL    HW222921   0.277   9.428   3.087
 7633SOL     OW22922   0.037  10.620   3.144
 7633SOL    HW122923   0.090  10.571   3.212
 7633SOL    HW222924   0.059  10.718   3.149
 7634SOL     OW22925   0.732   9.944   2.926
 7634SOL    HW122926   0.791   9.918   2.850
 7634SOL    HW222927   0.704  10.040   2.915
 7635SOL     OW22928   1.728  10.245   3.716
 7635SOL    HW122929   1.682  10.238   3.627
 7635SOL    HW222930   1.666  10.289   3.782
 7636SOL     OW22931   0.307   9.373   2.480
 7636SOL    HW122932   0.296   9.467   2.513
 7636SOL    HW222933   0.302   9.310   2.557
 7637SOL     OW22934   1.622   9.677   2.236
 7637SOL    HW122935   1.624   9.601   2.300
 7637SOL    HW222936   1.574   9.754   2.276
 7638SOL     OW22937   1.023  10.076   2.828
 7638SOL    HW122938   1.038  10.097   2.924
 7638SOL    HW222939   0.993   9.981   2.819
 7639SOL     OW22940   0.980  10.883   3.562
 7639SOL    HW122941   0.960  10.927   3.474
 7639SOL    HW222942   1.019  10.792   3.546
 7640SOL     OW22943   1.859  10.828   3.467
 7640SOL    HW122944   1.873  10.855   3.372
 7640SOL    HW222945   1.942  10.850   3.520
 7641SOL     OW22946   0.350  10.208   3.666
 7641SOL    HW122947   0.426  10.252   3.714
 7641SOL    HW222948   0.385  10.161   3.584
 7642SOL     OW22949   1.540   9.584   1.987
 7642SOL    HW122950   1.479   9.509   2.010
 7642SOL    HW222951   1.562   9.636   2.070
 7643SOL     OW22952   1.303  10.148   1.904
 7643SOL    HW122953   1.337  10.055   1.919
 7643SOL    HW222954   1.321  10.175   1.809
 7644SOL     OW22955   1.068  10.643   2.711
 7644SOL    HW122956   1.075  10.559   2.656
 7644SOL    HW222957   1.130  10.712   2.675
 7645SOL     OW22958   0.319  10.120   2.811
 7645SOL    HW122959   0.412  10.156   2.816
 7645SOL    HW222960   0.313  10.035   2.863
 7646SOL     OW22961   0.339   9.819   2.868
 7646SOL    HW122962   0.287   9.736   2.851
 7646SOL    HW222963   0.416   9.824   2.804
 7647SOL     OW22964   1.138   9.690   3.540
 7647SOL    HW122965   1.093   9.753   3.604
 7647SOL    HW222966   1.231   9.721   3.523
 7648SOL     OW22967   1.160   9.517   3.339
 7648SOL    HW122968   1.160   9.581   3.416
 7648SOL    HW222969   1.188   9.565   3.256
 7649SOL     OW22970   0.008  10.636   2.062
 7649SOL    HW122971  -0.085  10.657   2.031
 7649SOL    HW222972   0.018  10.537   2.075
 7650SOL     OW22973   0.088  11.111   2.789
 7650SOL    HW122974   0.046  11.025   2.762
 7650SOL    HW222975   0.182  11.114   2.755
 7651SOL     OW22976   0.504  10.878   2.772
 7651SOL    HW122977   0.570  10.952   2.781
 7651SOL    HW222978   0.548  10.799   2.730
 7652SOL     OW22979   1.002  10.106   3.100
 7652SOL    HW122980   1.043  10.074   3.186
 7652SOL    HW222981   0.906  10.079   3.097
 7653SOL     OW22982   0.040   9.854   2.976
 7653SOL    HW122983   0.125   9.821   2.935
 7653SOL    HW222984   0.053   9.869   3.074
 7654SOL     OW22985   0.189   9.830   3.584
 7654SOL    HW122986   0.248   9.790   3.514
 7654SOL    HW222987   0.131   9.901   3.543
 7655SOL     OW22988   1.369  10.260   3.522
 7655SOL    HW122989   1.408  10.349   3.542
 7655SOL    HW222990   1.379  10.240   3.425
 7656SOL     OW22991   0.815   9.882   2.187
 7656SOL    HW122992   0.822   9.793   2.141
 7656SOL    HW222993   0.721   9.916   2.179
 7657SOL     OW22994   1.657   9.914   3.068
 7657SOL    HW122995   1.619   9.845   3.130
 7657SOL    HW222996   1.739   9.878   3.024
 7658SOL     OW22997   0.252  10.874   3.606
 7658SOL    HW122998   0.222  10.931   3.682
 7658SOL    HW222999   0.245  10.777   3.632
 7659SOL     OW23000   0.671   9.774   3.131
 7659SOL    HW123001   0.637   9.685   3.101
 7659SOL    HW223002   0.697   9.828   3.051
 7660SOL     OW23003   0.930  10.988   3.327
 7660SOL    HW123004   0.906  10.970   3.232
 7660SOL    HW223005   0.960  11.082   3.337
 7661SOL     OW23006   0.473   9.810   2.053
 7661SOL    HW123007   0.534   9.890   2.057
 7661SOL    HW223008   0.378   9.841   2.060
 7662SOL     OW23009   0.159  10.447   3.328
 7662SOL    HW123010   0.181  10.386   3.404
 7662SOL    HW223011   0.169  10.398   3.242
 7663SOL     OW23012   1.347  10.369   3.096
 7663SOL    HW123013   1.371  10.306   3.022
 7663SOL    HW223014   1.257  10.409   3.078
 7664SOL     OW23015   1.302  10.165   2.171
 7664SOL    HW123016   1.216  10.134   2.213
 7664SOL    HW223017   1.298  10.151   2.072
 7665SOL     OW23018   1.759  11.057   3.016
 7665SOL    HW123019   1.820  11.087   2.943
 7665SOL    HW223020   1.721  10.968   2.994
 7666SOL     OW23021   1.252  11.041   2.990
 7666SOL    HW123022   1.336  11.046   2.936
 7666SOL    HW223023   1.229  10.945   3.008
 7667SOL     OW23024   0.083  10.568   2.884
 7667SOL    HW123025   0.078  10.567   2.984
 7667SOL    HW223026   0.000  10.527   2.846
 7668SOL     OW23027   0.688  10.972   3.578
 7668SOL    HW123028   0.632  11.053   3.587
 7668SOL    HW223029   0.740  10.976   3.492
 7669SOL     OW23030   1.726   9.445   2.385
 7669SOL    HW123031   1.799   9.428   2.318
 7669SOL    HW223032   1.695   9.358   2.423
 7670SOL     OW23033   1.388  10.883   2.339
 7670SOL    HW123034   1.455  10.895   2.265
 7670SOL    HW223035   1.348  10.972   2.362
 7671SOL     OW23036   0.130  11.104   3.713
 7671SOL    HW123037   0.089  11.030   3.766
 7671SOL    HW223038   0.194  11.155   3.771
 7672SOL     OW23039   1.280  10.237   2.534
 7672SOL    HW123040   1.340  10.156   2.536
 7672SOL    HW223041   1.320  10.306   2.474
 7673SOL     OW23042   0.830  10.583   3.284
 7673SOL    HW123043   0.825  10.616   3.379
 7673SOL    HW223044   0.744  10.602   3.238
 7674SOL     OW23045   0.672  10.926   2.016
 7674SOL    HW123046   0.681  10.936   1.917
 7674SOL    HW223047   0.632  10.837   2.037
 7675SOL     OW23048   1.650  11.030   3.256
 7675SOL    HW123049   1.703  11.040   3.172
 7675SOL    HW223050   1.623  11.120   3.290
 7676SOL     OW23051   1.841   9.485   2.825
 7676SOL    HW123052   1.880   9.400   2.789
 7676SOL    HW223053   1.743   9.487   2.806
 7677SOL     OW23054   0.263   9.636   2.582
 7677SOL    HW123055   0.184   9.687   2.548
 7677SOL    HW223056   0.254   9.621   2.680
 7678SOL     OW23057   1.194  10.922   1.893
 7678SOL    HW123058   1.200  10.829   1.930
 7678SOL    HW223059   1.135  10.922   1.813
 7679SOL     OW23060   0.822  10.312   3.234
 7679SOL    HW123061   0.862  10.311   3.142
 7679SOL    HW223062   0.832  10.404   3.274
 7680SOL     OW23063   0.916  10.220   2.153
 7680SOL    HW123064   0.979  10.258   2.085
 7680SOL    HW223065   0.956  10.137   2.192
 7681SOL     OW23066   1.504  10.917   1.906
 7681SOL    HW123067   1.412  10.954   1.913
 7681SOL    HW223068   1.542  10.937   1.816
 7682SOL     OW23069   0.372  10.598   3.352
 7682SOL    HW123070   0.359  10.691   3.318
 7682SOL    HW223071   0.288  10.546   3.339
 7683SOL     OW23072   1.614  10.602   3.151
 7683SOL    HW123073   1.674  10.605   3.231
 7683SOL    HW223074   1.539  10.666   3.164
 7684SOL     OW23075   1.039  10.408   2.558
 7684SOL    HW123076   0.969  10.361   2.612
 7684SOL    HW223077   1.098  10.340   2.515
 7685SOL     OW23078   1.014   9.546   2.833
 7685SOL    HW123079   1.006   9.510   2.740
 7685SOL    HW223080   1.012   9.470   2.898
 7686SOL     OW23081   0.590  10.797   2.353
 7686SOL    HW123082   0.632  10.739   2.283
 7686SOL    HW223083   0.546  10.876   2.309
 7687SOL     OW23084   1.709   9.695   3.243
 7687SOL    HW123085   1.782   9.764   3.247
 7687SOL    HW223086   1.737   9.620   3.184
 7688SOL     OW23087   0.255  10.658   2.152
 7688SOL    HW123088   0.159  10.659   2.125
 7688SOL    HW223089   0.267  10.711   2.236
 7689SOL     OW23090   0.105  10.323   3.588
 7689SOL    HW123091   0.028  10.290   3.642
 7689SOL    HW223092   0.190  10.293   3.630
 7690SOL     OW23093   0.672   9.513   3.351
 7690SOL    HW123094   0.762   9.497   3.311
 7690SOL    HW223095   0.680   9.518   3.450
 7691SOL     OW23096   0.075   9.655   1.895
 7691SOL    HW123097  -0.017   9.627   1.866
 7691SOL    HW223098   0.106   9.732   1.839
 7692SOL     OW23099   1.440  10.166   3.260
 7692SOL    HW123100   1.383  10.218   3.197
 7692SOL    HW223101   1.536  10.178   3.236
 7693SOL     OW23102   0.072   9.476   2.180
 7693SOL    HW123103   0.055   9.559   2.126
 7693SOL    HW223104   0.162   9.439   2.158
 7694SOL     OW23105   1.183  10.645   1.981
 7694SOL    HW123106   1.084  10.634   1.983
 7694SOL    HW223107   1.217  10.660   2.074
 7695SOL     OW23108   0.613  10.152   3.293
 7695SOL    HW123109   0.669  10.233   3.276
 7695SOL    HW223110   0.672  10.072   3.296
 7696SOL     OW23111   1.493  11.077   2.821
 7696SOL    HW123112   1.526  11.141   2.752
 7696SOL    HW223113   1.559  11.071   2.896
 7697SOL     OW23114   0.716   9.875   3.570
 7697SOL    HW123115   0.735   9.940   3.644
 7697SOL    HW223116   0.776   9.795   3.579
 7698SOL     OW23117   1.450  10.530   3.495
 7698SOL    HW123118   1.441  10.520   3.594
 7698SOL    HW223119   1.546  10.523   3.469
 7699SOL     OW23120   0.390  11.051   3.422
 7699SOL    HW123121   0.299  11.092   3.420
 7699SOL    HW223122   0.383  10.957   3.454
 7700SOL     OW23123   1.674  10.193   3.116
 7700SOL    HW123124   1.647  10.104   3.079
 7700SOL    HW223125   1.675  10.261   3.043
 7701SOL     OW23126   1.225   9.635   2.311
 7701SOL    HW123127   1.290   9.561   2.300
 7701SOL    HW223128   1.245   9.685   2.395
 7702SOL     OW23129   0.594  10.055   2.514
 7702SOL    HW123130   0.644  10.140   2.495
 7702SOL    HW223131   0.506  10.057   2.466
 7703SOL     OW23132   1.777   9.652   3.504
 7703SOL    HW123133   1.760   9.683   3.410
 7703SOL    HW223134   1.693   9.615   3.542
 7704SOL     OW23135   1.730  10.244   3.379
 7704SOL    HW123136   1.768  10.335   3.394
 7704SOL    HW223137   1.722  10.227   3.280
 7705SOL     OW23138   0.859  10.684   1.878
 7705SOL    HW123139   0.813  10.699   1.966
 7705SOL    HW223140   0.903  10.769   1.848
 7706SOL     OW23141   0.661  11.100   2.815
 7706SOL    HW123142   0.615  11.188   2.802
 7706SOL    HW223143   0.760  11.112   2.808
 7707SOL     OW23144   0.859  10.266   2.723
 7707SOL    HW123145   0.913  10.197   2.771
 7707SOL    HW223146   0.827  10.335   2.789
 7708SOL     OW23147   1.083  10.294   1.949
 7708SOL    HW123148   1.060  10.347   1.867
 7708SOL    HW223149   1.164  10.238   1.930
 7709SOL     OW23150   1.861  10.879   2.713
 7709SOL    HW123151   1.790  10.867   2.643
 7709SOL    HW223152   1.862  10.800   2.773
 7710SOL     OW23153   0.221  10.624   3.706
 7710SOL    HW123154   0.156  10.551   3.685
 7710SOL    HW223155   0.225  10.638   3.804
 7711SOL     OW23156   0.079  10.550   2.515
 7711SOL    HW123157   0.078  10.503   2.603
 7711SOL    HW223158   0.161  10.522   2.464
 7712SOL     OW23159   0.672  10.701   3.486
 7712SOL    HW123160   0.594  10.651   3.524
 7712SOL    HW223161   0.669  10.796   3.517
 7713SOL     OW23162   1.824   9.502   3.089
 7713SOL    HW123163   1.820   9.412   3.133
 7713SOL    HW223164   1.827   9.491   2.990
 7714SOL     OW23165   0.428   9.734   2.382
 7714SOL    HW123166   0.458   9.662   2.320
 7714SOL    HW223167   0.389   9.694   2.465
 7715SOL     OW23168   1.705  10.797   2.966
 7715SOL    HW123169   1.612  10.772   2.939
 7715SOL    HW223170   1.731  10.747   3.048
 7716SOL     OW23171   0.317   9.857   3.142
 7716SOL    HW123172   0.355   9.798   3.214
 7716SOL    HW223173   0.357   9.831   3.054
 7717SOL     OW23174   0.812  10.896   2.549
 7717SOL    HW123175   0.844  10.906   2.455
 7717SOL    HW223176   0.733  10.834   2.551
 7718SOL     OW23177   1.424   9.524   2.974
 7718SOL    HW123178   1.476   9.459   3.029
 7718SOL    HW223179   1.375   9.587   3.035
 7719SOL     OW23180   1.001   9.344   3.016
 7719SOL    HW123181   0.938   9.272   2.985
 7719SOL    HW223182   1.094   9.308   3.016
 7720SOL     OW23183   0.770  10.640   2.163
 7720SOL    HW123184   0.724  10.553   2.180
 7720SOL    HW223185   0.861  10.637   2.204
 7721SOL     OW23186   0.618  10.877   3.146
 7721SOL    HW123187   0.613  10.959   3.203
 7721SOL    HW223188   0.707  10.874   3.101
 7722SOL     OW23189   1.352   9.362   2.030
 7722SOL    HW123190   1.387   9.321   1.946
 7722SOL    HW223191   1.262   9.324   2.050
 7723SOL     OW23192   1.300   9.763   2.553
 7723SOL    HW123193   1.241   9.843   2.557
 7723SOL    HW223194   1.315   9.728   2.646
 7724SOL     OW23195   1.593   9.531   2.744
 7724SOL    HW123196   1.509   9.530   2.798
 7724SOL    HW223197   1.595   9.614   2.688
 7725SOL     OW23198   0.039  10.387   2.162
 7725SOL    HW123199   0.138  10.376   2.153
 7725SOL    HW223200  -0.001  10.301   2.194
 7726SOL     OW23201   0.875  10.956   2.199
 7726SOL    HW123202   0.798  10.921   2.145
 7726SOL    HW223203   0.843  11.027   2.261
 7727SOL     OW23204   0.230   9.938   3.837
 7727SOL    HW123205   0.137   9.936   3.874
 7727SOL    HW223206   0.231   9.899   3.745
 7728SOL     OW23207   0.225   9.585   4.720
 7728SOL    HW123208   0.260   9.568   4.812
 7728SOL    HW223209   0.137   9.540   4.708
 7729SOL     OW23210   0.019   9.678   4.371
 7729SOL    HW123211  -0.063   9.721   4.410
 7729SOL    HW223212  -0.009   9.605   4.308
 7730SOL     OW23213   0.569  10.585   4.889
 7730SOL    HW123214   0.476  10.578   4.852
 7730SOL    HW223215   0.580  10.674   4.933
 7731SOL     OW23216   1.555  10.821   4.427
 7731SOL    HW123217   1.498  10.805   4.508
 7731SOL    HW223218   1.496  10.831   4.347
 7732SOL     OW23219   1.135  10.013   4.441
 7732SOL    HW123220   1.192  10.091   4.416
 7732SOL    HW223221   1.075  10.039   4.517
 7733SOL     OW23222   1.755   9.917   3.955
 7733SOL    HW123223   1.743   9.904   3.856
 7733SOL    HW223224   1.725   9.836   4.004
 7734SOL     OW23225   0.768  10.454   4.747
 7734SOL    HW123226   0.690  10.471   4.807
 7734SOL    HW223227   0.802  10.541   4.711
 7735SOL     OW23228   0.850  10.108   5.547
 7735SOL    HW123229   0.846  10.184   5.612
 7735SOL    HW223230   0.872  10.144   5.456
 7736SOL     OW23231   0.685  10.322   4.389
 7736SOL    HW123232   0.754  10.306   4.459
 7736SOL    HW223233   0.612  10.379   4.427
 7737SOL     OW23234   0.686  10.471   5.527
 7737SOL    HW123235   0.746  10.550   5.541
 7737SOL    HW223236   0.600  10.502   5.486
 7738SOL     OW23237   0.335  10.745   4.785
 7738SOL    HW123238   0.257  10.714   4.732
 7738SOL    HW223239   0.393  10.803   4.728
 7739SOL     OW23240   1.460  10.815   5.063
 7739SOL    HW123241   1.484  10.909   5.089
 7739SOL    HW223242   1.444  10.761   5.145
 7740SOL     OW23243   0.438   9.702   5.223
 7740SOL    HW123244   0.520   9.646   5.232
 7740SOL    HW223245   0.357   9.644   5.227
 7741SOL     OW23246   1.603   9.757   4.461
 7741SOL    HW123247   1.529   9.803   4.411
 7741SOL    HW223248   1.654   9.825   4.514
 7742SOL     OW23249   0.231  11.023   4.207
 7742SOL    HW123250   0.265  11.100   4.261
 7742SOL    HW223251   0.275  11.023   4.117
 7743SOL     OW23252   1.127  10.651   5.414
 7743SOL    HW123253   1.174  10.651   5.502
 7743SOL    HW223254   1.079  10.564   5.403
 7744SOL     OW23255   0.230  10.744   4.262
 7744SOL    HW123256   0.204  10.840   4.262
 7744SOL    HW223257   0.159  10.690   4.307
 7745SOL     OW23258   0.240  10.401   4.610
 7745SOL    HW123259   0.254  10.317   4.662
 7745SOL    HW223260   0.185  10.465   4.665
 7746SOL     OW23261   0.620  11.096   5.163
 7746SOL    HW123262   0.528  11.079   5.198
 7746SOL    HW223263   0.648  11.188   5.189
 7747SOL     OW23264   0.606  10.274   3.847
 7747SOL    HW123265   0.613  10.358   3.793
 7747SOL    HW223266   0.652  10.287   3.935
 7748SOL     OW23267   1.594   9.424   5.204
 7748SOL    HW123268   1.576   9.491   5.132
 7748SOL    HW223269   1.591   9.470   5.293
 7749SOL     OW23270   0.122   9.953   4.287
 7749SOL    HW123271   0.077   9.865   4.304
 7749SOL    HW223272   0.121  10.007   4.371
 7750SOL     OW23273   1.842  11.077   4.083
 7750SOL    HW123274   1.896  11.048   4.163
 7750SOL    HW223275   1.872  11.167   4.054
 7751SOL     OW23276   0.027  10.906   3.841
 7751SOL    HW123277   0.008  10.810   3.862
 7751SOL    HW223278  -0.006  10.964   3.916
 7752SOL     OW23279   1.689  10.232   4.336
 7752SOL    HW123280   1.784  10.203   4.344
 7752SOL    HW223281   1.681  10.297   4.261
 7753SOL     OW23282   1.641  10.418   4.156
 7753SOL    HW123283   1.727  10.420   4.104
 7753SOL    HW223284   1.655  10.465   4.244
 7754SOL     OW23285   0.113  10.047   5.321
 7754SOL    HW123286   0.201  10.034   5.366
 7754SOL    HW223287   0.100  10.144   5.299
 7755SOL     OW23288   0.613  10.675   4.450
 7755SOL    HW123289   0.564  10.588   4.459
 7755SOL    HW223290   0.590  10.718   4.363
 7756SOL     OW23291   1.293  10.538   5.147
 7756SOL    HW123292   1.330  10.465   5.089
 7756SOL    HW223293   1.345  10.543   5.232
 7757SOL     OW23294   0.809   9.314   4.226
 7757SOL    HW123295   0.849   9.405   4.217
 7757SOL    HW223296   0.709   9.322   4.232
 7758SOL     OW23297   0.197  10.286   4.988
 7758SOL    HW123298   0.286  10.241   4.974
 7758SOL    HW223299   0.124  10.221   4.969
 7759SOL     OW23300   1.525  10.309   3.914
 7759SOL    HW123301   1.462  10.233   3.927
 7759SOL    HW223302   1.573  10.327   4.000
 7760SOL     OW23303   1.187  11.102   5.340
 7760SOL    HW123304   1.211  11.162   5.264
 7760SOL    HW223305   1.194  11.007   5.310
 7761SOL     OW23306   0.317   9.561   5.525
 7761SOL    HW123307   0.388   9.632   5.531
 7761SOL    HW223308   0.229   9.600   5.553
 7762SOL     OW23309   1.466  10.727   4.677
 7762SOL    HW123310   1.407  10.733   4.757
 7762SOL    HW223311   1.451  10.639   4.631
 7763SOL     OW23312   1.667  11.024   4.296
 7763SOL    HW123313   1.626  11.001   4.208
 7763SOL    HW223314   1.649  10.950   4.361
 7764SOL     OW23315   0.598  10.039   3.994
 7764SOL    HW123316   0.622  10.108   3.926
 7764SOL    HW223317   0.520  10.072   4.048
 7765SOL     OW23318   1.281   9.655   4.668
 7765SOL    HW123319   1.195   9.605   4.655
 7765SOL    HW223320   1.343   9.601   4.724
 7766SOL     OW23321   1.576  10.972   4.031
 7766SOL    HW123322   1.665  11.018   4.034
 7766SOL    HW223323   1.555  10.948   3.936
 7767SOL     OW23324   0.807   9.915   5.189
 7767SOL    HW123325   0.760   9.912   5.278
 7767SOL    HW223326   0.756   9.860   5.123
 7768SOL     OW23327   1.394   9.779   5.398
 7768SOL    HW123328   1.374   9.822   5.486
 7768SOL    HW223329   1.472   9.717   5.407
 7769SOL     OW23330   0.973  10.200   5.296
 7769SOL    HW123331   1.019  10.116   5.267
 7769SOL    HW223332   0.917  10.234   5.221
 7770SOL     OW23333   0.991   9.720   4.966
 7770SOL    HW123334   0.914   9.754   5.020
 7770SOL    HW223335   0.957   9.669   4.887
 7771SOL     OW23336   1.041  10.011   4.153
 7771SOL    HW123337   1.067  10.007   4.249
 7771SOL    HW223338   0.956   9.960   4.139
 7772SOL     OW23339   0.076  10.121   4.513
 7772SOL    HW123340   0.175  10.109   4.522
 7772SOL    HW223341   0.052  10.216   4.534
 7773SOL     OW23342   0.130  11.131   5.295
 7773SOL    HW123343   0.120  11.116   5.394
 7773SOL    HW223344   0.044  11.167   5.259
 7774SOL     OW23345   0.865   9.658   3.919
 7774SOL    HW123346   0.924   9.721   3.870
 7774SOL    HW223347   0.884   9.564   3.890
 7775SOL     OW23348   1.719   9.895   5.555
 7775SOL    HW123349   1.693   9.984   5.519
 7775SOL    HW223350   1.717   9.827   5.482
 7776SOL     OW23351   1.362  10.454   4.269
 7776SOL    HW123352   1.445  10.425   4.221
 7776SOL    HW223353   1.313  10.521   4.213
 7777SOL     OW23354   0.550   9.506   4.609
 7777SOL    HW123355   0.545   9.501   4.709
 7777SOL    HW223356   0.552   9.602   4.580
 7778SOL     OW23357   1.008  10.766   4.201
 7778SOL    HW123358   0.962  10.838   4.149
 7778SOL    HW223359   1.004  10.786   4.299
 7779SOL     OW23360   0.351  11.111   4.577
 7779SOL    HW123361   0.401  11.025   4.583
 7779SOL    HW223362   0.416  11.188   4.574
 7780SOL     OW23363   1.795  10.376   4.597
 7780SOL    HW123364   1.733  10.361   4.521
 7780SOL    HW223365   1.743  10.387   4.682
 7781SOL     OW23366   1.227  10.860   5.230
 7781SOL    HW123367   1.233  10.783   5.294
 7781SOL    HW223368   1.175  10.834   5.150
 7782SOL     OW23369   0.321  10.253   3.966
 7782SOL    HW123370   0.403  10.292   3.924
 7782SOL    HW223371   0.294  10.171   3.917
 7783SOL     OW23372   1.458  10.045   4.452
 7783SOL    HW123373   1.453   9.980   4.527
 7783SOL    HW223374   1.538  10.104   4.465
 7784SOL     OW23375   0.461  10.576   5.451
 7784SOL    HW123376   0.411  10.577   5.365
 7784SOL    HW223377   0.398  10.558   5.527
 7785SOL     OW23378   1.111  11.086   3.961
 7785SOL    HW123379   1.051  11.024   4.011
 7785SOL    HW223380   1.142  11.042   3.876
 7786SOL     OW23381   0.202   9.595   5.222
 7786SOL    HW123382   0.122   9.655   5.209
 7786SOL    HW223383   0.192   9.546   5.308
 7787SOL     OW23384   1.632  10.687   3.805
 7787SOL    HW123385   1.600  10.781   3.795
 7787SOL    HW223386   1.556  10.624   3.793
 7788SOL     OW23387   0.464  11.053   4.047
 7788SOL    HW123388   0.497  11.092   4.133
 7788SOL    HW223389   0.540  11.046   3.982
 7789SOL     OW23390   1.400   9.417   4.150
 7789SOL    HW123391   1.376   9.380   4.060
 7789SOL    HW223392   1.499   9.433   4.154
 7790SOL     OW23393   0.249  11.095   4.965
 7790SOL    HW123394   0.306  11.030   5.015
 7790SOL    HW223395   0.233  11.062   4.872
 7791SOL     OW23396   0.940  11.008   4.628
 7791SOL    HW123397   1.020  10.951   4.649
 7791SOL    HW223398   0.891  10.968   4.551
 7792SOL     OW23399   0.382  10.010   4.204
 7792SOL    HW123400   0.427   9.920   4.201
 7792SOL    HW223401   0.288   9.999   4.237
 7793SOL     OW23402   1.547   9.532   5.453
 7793SOL    HW123403   1.542   9.569   5.545
 7793SOL    HW223404   1.475   9.463   5.441
 7794SOL     OW23405   0.614   9.432   3.841
 7794SOL    HW123406   0.712   9.410   3.848
 7794SOL    HW223407   0.583   9.415   3.748
 7795SOL     OW23408   0.781   9.574   5.473
 7795SOL    HW123409   0.848   9.513   5.516
 7795SOL    HW223410   0.708   9.593   5.538
 7796SOL     OW23411   0.888  10.824   4.919
 7796SOL    HW123412   0.865  10.799   4.825
 7796SOL    HW223413   0.949  10.755   4.958
 7797SOL     OW23414   1.351   9.900   5.157
 7797SOL    HW123415   1.379   9.857   5.242
 7797SOL    HW223416   1.376   9.996   5.158
 7798SOL     OW23417   0.803  10.712   4.648
 7798SOL    HW123418   0.893  10.726   4.606
 7798SOL    HW223419   0.732  10.714   4.577
 7799SOL     OW23420   0.922   9.813   4.623
 7799SOL    HW123421   0.897   9.804   4.527
 7799SOL    HW223422   0.970   9.731   4.654
 7800SOL     OW23423   0.539   9.374   4.236
 7800SOL    HW123424   0.458   9.375   4.294
 7800SOL    HW223425   0.542   9.457   4.181
 7801SOL     OW23426   1.434  10.498   3.765
 7801SOL    HW123427   1.466  10.422   3.822
 7801SOL    HW223428   1.342  10.525   3.795
 7802SOL     OW23429   0.297   9.345   3.895
 7802SOL    HW123430   0.346   9.429   3.874
 7802SOL    HW223431   0.359   9.280   3.940
 7803SOL     OW23432   0.935   9.546   4.204
 7803SOL    HW123433   0.887   9.587   4.126
 7803SOL    HW223434   1.034   9.544   4.185
 7804SOL     OW23435   1.076   9.993   5.188
 7804SOL    HW123436   0.996   9.932   5.191
 7804SOL    HW223437   1.157   9.940   5.164
 7805SOL     OW23438   1.227  10.880   4.517
 7805SOL    HW123439   1.248  10.954   4.452
 7805SOL    HW223440   1.295  10.880   4.590
 7806SOL     OW23441   0.459  10.462   4.465
 7806SOL    HW123442   0.388  10.435   4.530
 7806SOL    HW223443   0.433  10.434   4.372
 7807SOL     OW23444   1.271  11.107   4.315
 7807SOL    HW123445   1.315  11.171   4.251
 7807SOL    HW223446   1.221  11.159   4.385
 7808SOL     OW23447   1.032   9.859   3.740
 7808SOL    HW123448   0.991   9.941   3.701
 7808SOL    HW223449   1.096   9.885   3.813
 7809SOL     OW23450   0.078   9.866   5.110
 7809SOL    HW123451   0.170   9.865   5.069
 7809SOL    HW223452   0.072   9.940   5.177
 7810SOL     OW23453   0.561   9.532   4.871
 7810SOL    HW123454   0.599   9.448   4.908
 7810SOL    HW223455   0.473   9.551   4.915
 7811SOL     OW23456   0.866   9.764   4.366
 7811SOL    HW123457   0.834   9.836   4.304
 7811SOL    HW223458   0.890   9.683   4.313
 7812SOL     OW23459   1.017   9.349   4.477
 7812SOL    HW123460   0.945   9.354   4.408
 7812SOL    HW223461   0.993   9.280   4.546
 7813SOL     OW23462   1.429  10.483   4.591
 7813SOL    HW123463   1.374  10.399   4.584
 7813SOL    HW223464   1.455  10.512   4.499
 7814SOL     OW23465   1.466   9.900   4.716
 7814SOL    HW123466   1.436   9.805   4.723
 7814SOL    HW223467   1.539   9.916   4.782
 7815SOL     OW23468   1.857  10.143   4.101
 7815SOL    HW123469   1.899  10.079   4.165
 7815SOL    HW223470   1.819  10.092   4.023
 7816SOL     OW23471   0.488  10.695   3.898
 7816SOL    HW123472   0.401  10.680   3.945
 7816SOL    HW223473   0.471  10.721   3.803
 7817SOL     OW23474   1.664  10.590   4.381
 7817SOL    HW123475   1.763  10.598   4.395
 7817SOL    HW223476   1.619  10.674   4.412
 7818SOL     OW23477   1.390   9.885   3.802
 7818SOL    HW123478   1.336   9.864   3.883
 7818SOL    HW223479   1.481   9.844   3.811
 7819SOL     OW23480   0.527   9.566   4.052
 7819SOL    HW123481   0.554   9.507   3.977
 7819SOL    HW223482   0.527   9.661   4.021
 7820SOL     OW23483   1.754  10.533   5.312
 7820SOL    HW123484   1.845  10.494   5.299
 7820SOL    HW223485   1.762  10.629   5.336
 7821SOL     OW23486   1.064  10.657   5.064
 7821SOL    HW123487   0.984  10.634   5.119
 7821SOL    HW223488   1.147  10.631   5.113
 7822SOL     OW23489   1.592  10.939   5.349
 7822SOL    HW123490   1.619  10.973   5.259
 7822SOL    HW223491   1.671  10.901   5.395
 7823SOL     OW23492   1.111  10.505   4.824
 7823SOL    HW123493   1.071  10.549   4.905
 7823SOL    HW223494   1.070  10.542   4.741
 7824SOL     OW23495   1.638  10.409   4.803
 7824SOL    HW123496   1.643  10.490   4.862
 7824SOL    HW223497   1.552  10.411   4.752
 7825SOL     OW23498   0.915   9.399   5.126
 7825SOL    HW123499   0.940   9.379   5.031
 7825SOL    HW223500   0.987   9.455   5.168
 7826SOL     OW23501   0.980  10.426   5.443
 7826SOL    HW123502   0.881  10.432   5.453
 7826SOL    HW223503   1.003  10.346   5.387
 7827SOL     OW23504   0.705  10.360   4.092
 7827SOL    HW123505   0.691  10.367   4.191
 7827SOL    HW223506   0.789  10.309   4.074
 7828SOL     OW23507   0.410  10.123   4.975
 7828SOL    HW123508   0.496  10.135   5.025
 7828SOL    HW223509   0.368  10.036   5.002
 7829SOL     OW23510   1.274   9.696   4.986
 7829SOL    HW123511   1.295   9.770   5.050
 7829SOL    HW223512   1.185   9.713   4.943
 7830SOL     OW23513   0.064  10.874   5.055
 7830SOL    HW123514   0.018  10.956   5.021
 7830SOL    HW223515   0.162  10.893   5.064
 7831SOL     OW23516   0.367  10.410   4.225
 7831SOL    HW123517   0.360  10.493   4.169
 7831SOL    HW223518   0.371  10.330   4.165
 7832SOL     OW23519   0.566   9.847   4.589
 7832SOL    HW123520   0.578   9.913   4.515
 7832SOL    HW223521   0.612   9.881   4.672
 7833SOL     OW23522   1.252  10.658   4.112
 7833SOL    HW123523   1.302  10.735   4.152
 7833SOL    HW223524   1.157  10.660   4.144
 7834SOL     OW23525   1.272  10.755   4.866
 7834SOL    HW123526   1.319  10.768   4.953
 7834SOL    HW223527   1.206  10.681   4.875
 7835SOL     OW23528   1.582   9.949   4.196
 7835SOL    HW123529   1.551  10.010   4.269
 7835SOL    HW223530   1.632  10.001   4.127
 7836SOL     OW23531   0.354  10.820   5.053
 7836SOL    HW123532   0.333  10.776   4.966
 7836SOL    HW223533   0.451  10.846   5.056
 7837SOL     OW23534   0.402  10.061   5.322
 7837SOL    HW123535   0.470  10.116   5.275
 7837SOL    HW223536   0.442   9.973   5.349
 7838SOL     OW23537   1.587  10.089   5.394
 7838SOL    HW123538   1.495  10.127   5.389
 7838SOL    HW223539   1.647  10.136   5.329
 7839SOL     OW23540   1.013   9.415   5.494
 7839SOL    HW123541   1.019   9.500   5.442
 7839SOL    HW223542   1.045   9.339   5.437
 7840SOL     OW23543   0.504   9.360   5.464
 7840SOL    HW123544   0.462   9.303   5.394
 7840SOL    HW223545   0.438   9.429   5.496
 7841SOL     OW23546   0.573  10.180   4.753
 7841SOL    HW123547   0.617  10.269   4.744
 7841SOL    HW223548   0.510  10.180   4.830
 7842SOL     OW23549   1.360  10.172   4.769
 7842SOL    HW123550   1.285  10.172   4.703
 7842SOL    HW223551   1.397  10.080   4.778
 7843SOL     OW23552   1.209   9.835   3.999
 7843SOL    HW123553   1.222   9.751   4.053
 7843SOL    HW223554   1.180   9.909   4.059
 7844SOL     OW23555   0.307   9.523   4.955
 7844SOL    HW123556   0.284   9.560   5.045
 7844SOL    HW223557   0.277   9.428   4.949
 7845SOL     OW23558   0.037  10.620   5.006
 7845SOL    HW123559   0.090  10.571   5.074
 7845SOL    HW223560   0.059  10.718   5.011
 7846SOL     OW23561   0.732   9.944   4.788
 7846SOL    HW123562   0.791   9.918   4.712
 7846SOL    HW223563   0.704  10.040   4.777
 7847SOL     OW23564   1.728  10.245   5.578
 7847SOL    HW123565   1.682  10.238   5.489
 7847SOL    HW223566   1.666  10.289   5.644
 7848SOL     OW23567   0.307   9.373   4.342
 7848SOL    HW123568   0.296   9.467   4.375
 7848SOL    HW223569   0.302   9.310   4.419
 7849SOL     OW23570   1.622   9.677   4.098
 7849SOL    HW123571   1.624   9.601   4.162
 7849SOL    HW223572   1.574   9.754   4.138
 7850SOL     OW23573   1.023  10.076   4.690
 7850SOL    HW123574   1.038  10.097   4.786
 7850SOL    HW223575   0.993   9.981   4.681
 7851SOL     OW23576   0.980  10.883   5.424
 7851SOL    HW123577   0.960  10.927   5.336
 7851SOL    HW223578   1.019  10.792   5.408
 7852SOL     OW23579   1.859  10.828   5.329
 7852SOL    HW123580   1.873  10.855   5.234
 7852SOL    HW223581   1.942  10.850   5.382
 7853SOL     OW23582   0.350  10.208   5.528
 7853SOL    HW123583   0.426  10.252   5.576
 7853SOL    HW223584   0.385  10.161   5.446
 7854SOL     OW23585   1.540   9.584   3.849
 7854SOL    HW123586   1.479   9.509   3.872
 7854SOL    HW223587   1.562   9.636   3.932
 7855SOL     OW23588   1.303  10.148   3.766
 7855SOL    HW123589   1.337  10.055   3.781
 7855SOL    HW223590   1.321  10.175   3.671
 7856SOL     OW23591   1.068  10.643   4.573
 7856SOL    HW123592   1.075  10.559   4.518
 7856SOL    HW223593   1.130  10.712   4.537
 7857SOL     OW23594   0.319  10.120   4.673
 7857SOL    HW123595   0.412  10.156   4.678
 7857SOL    HW223596   0.313  10.035   4.725
 7858SOL     OW23597   0.339   9.819   4.730
 7858SOL    HW123598   0.287   9.736   4.713
 7858SOL    HW223599   0.416   9.824   4.666
 7859SOL     OW23600   1.138   9.690   5.402
 7859SOL    HW123601   1.093   9.753   5.466
 7859SOL    HW223602   1.231   9.721   5.385
 7860SOL     OW23603   1.160   9.517   5.201
 7860SOL    HW123604   1.160   9.581   5.278
 7860SOL    HW223605   1.188   9.565   5.118
 7861SOL     OW23606   0.008  10.636   3.924
 7861SOL    HW123607  -0.085  10.657   3.893
 7861SOL    HW223608   0.018  10.537   3.937
 7862SOL     OW23609   0.088  11.111   4.651
 7862SOL    HW123610   0.046  11.025   4.624
 7862SOL    HW223611   0.182  11.114   4.617
 7863SOL     OW23612   0.504  10.878   4.634
 7863SOL    HW123613   0.570  10.952   4.643
 7863SOL    HW223614   0.548  10.799   4.592
 7864SOL     OW23615   1.002  10.106   4.962
 7864SOL    HW123616   1.043  10.074   5.048
 7864SOL    HW223617   0.906  10.079   4.959
 7865SOL     OW23618   0.040   9.854   4.838
 7865SOL    HW123619   0.125   9.821   4.797
 7865SOL    HW223620   0.053   9.869   4.936
 7866SOL     OW23621   0.189   9.830   5.446
 7866SOL    HW123622   0.248   9.790   5.376
 7866SOL    HW223623   0.131   9.901   5.405
 7867SOL     OW23624   1.369  10.260   5.384
 7867SOL    HW123625   1.408  10.349   5.404
 7867SOL    HW223626   1.379  10.240   5.287
 7868SOL     OW23627   0.815   9.882   4.049
 7868SOL    HW123628   0.822   9.793   4.003
 7868SOL    HW223629   0.721   9.916   4.041
 7869SOL     OW23630   1.657   9.914   4.930
 7869SOL    HW123631   1.619   9.845   4.992
 7869SOL    HW223632   1.739   9.878   4.886
 7870SOL     OW23633   0.252  10.874   5.468
 7870SOL    HW123634   0.222  10.931   5.544
 7870SOL    HW223635   0.245  10.777   5.494
 7871SOL     OW23636   0.671   9.774   4.993
 7871SOL    HW123637   0.637   9.685   4.963
 7871SOL    HW223638   0.697   9.828   4.913
 7872SOL     OW23639   0.930  10.988   5.189
 7872SOL    HW123640   0.906  10.970   5.094
 7872SOL    HW223641   0.960  11.082   5.199
 7873SOL     OW23642   0.473   9.810   3.915
 7873SOL    HW123643   0.534   9.890   3.919
 7873SOL    HW223644   0.378   9.841   3.922
 7874SOL     OW23645   0.159  10.447   5.190
 7874SOL    HW123646   0.181  10.386   5.266
 7874SOL    HW223647   0.169  10.398   5.104
 7875SOL     OW23648   1.347  10.369   4.958
 7875SOL    HW123649   1.371  10.306   4.884
 7875SOL    HW223650   1.257  10.409   4.940
 7876SOL     OW23651   1.302  10.165   4.033
 7876SOL    HW123652   1.216  10.134   4.075
 7876SOL    HW223653   1.298  10.151   3.934
 7877SOL     OW23654   1.759  11.057   4.878
 7877SOL    HW123655   1.820  11.087   4.805
 7877SOL    HW223656   1.721  10.968   4.856
 7878SOL     OW23657   1.252  11.041   4.852
 7878SOL    HW123658   1.336  11.046   4.798
 7878SOL    HW223659   1.229  10.945   4.870
 7879SOL     OW23660   0.083  10.568   4.746
 7879SOL    HW123661   0.078  10.567   4.846
 7879SOL    HW223662   0.000  10.527   4.708
 7880SOL     OW23663   0.688  10.972   5.440
 7880SOL    HW123664   0.632  11.053   5.449
 7880SOL    HW223665   0.740  10.976   5.354
 7881SOL     OW23666   1.726   9.445   4.247
 7881SOL    HW123667   1.799   9.428   4.180
 7881SOL    HW223668   1.695   9.358   4.285
 7882SOL     OW23669   1.388  10.883   4.201
 7882SOL    HW123670   1.455  10.895   4.127
 7882SOL    HW223671   1.348  10.972   4.224
 7883SOL     OW23672   0.130  11.104   5.575
 7883SOL    HW123673   0.089  11.030   5.628
 7883SOL    HW223674   0.194  11.155   5.633
 7884SOL     OW23675   1.280  10.237   4.396
 7884SOL    HW123676   1.340  10.156   4.398
 7884SOL    HW223677   1.320  10.306   4.336
 7885SOL     OW23678   0.830  10.583   5.146
 7885SOL    HW123679   0.825  10.616   5.241
 7885SOL    HW223680   0.744  10.602   5.100
 7886SOL     OW23681   0.672  10.926   3.878
 7886SOL    HW123682   0.681  10.936   3.779
 7886SOL    HW223683   0.632  10.837   3.899
 7887SOL     OW23684   1.650  11.030   5.118
 7887SOL    HW123685   1.703  11.040   5.034
 7887SOL    HW223686   1.623  11.120   5.152
 7888SOL     OW23687   1.841   9.485   4.687
 7888SOL    HW123688   1.880   9.400   4.651
 7888SOL    HW223689   1.743   9.487   4.668
 7889SOL     OW23690   0.263   9.636   4.444
 7889SOL    HW123691   0.184   9.687   4.410
 7889SOL    HW223692   0.254   9.621   4.542
 7890SOL     OW23693   1.194  10.922   3.755
 7890SOL    HW123694   1.200  10.829   3.792
 7890SOL    HW223695   1.135  10.922   3.675
 7891SOL     OW23696   0.822  10.312   5.096
 7891SOL    HW123697   0.862  10.311   5.004
 7891SOL    HW223698   0.832  10.404   5.136
 7892SOL     OW23699   0.916  10.220   4.015
 7892SOL    HW123700   0.979  10.258   3.947
 7892SOL    HW223701   0.956  10.137   4.054
 7893SOL     OW23702   1.504  10.917   3.768
 7893SOL    HW123703   1.412  10.954   3.775
 7893SOL    HW223704   1.542  10.937   3.678
 7894SOL     OW23705   0.372  10.598   5.214
 7894SOL    HW123706   0.359  10.691   5.180
 7894SOL    HW223707   0.288  10.546   5.201
 7895SOL     OW23708   1.614  10.602   5.013
 7895SOL    HW123709   1.674  10.605   5.093
 7895SOL    HW223710   1.539  10.666   5.026
 7896SOL     OW23711   1.039  10.408   4.420
 7896SOL    HW123712   0.969  10.361   4.474
 7896SOL    HW223713   1.098  10.340   4.377
 7897SOL     OW23714   1.014   9.546   4.695
 7897SOL    HW123715   1.006   9.510   4.602
 7897SOL    HW223716   1.012   9.470   4.760
 7898SOL     OW23717   0.590  10.797   4.215
 7898SOL    HW123718   0.632  10.739   4.145
 7898SOL    HW223719   0.546  10.876   4.171
 7899SOL     OW23720   1.709   9.695   5.105
 7899SOL    HW123721   1.782   9.764   5.109
 7899SOL    HW223722   1.737   9.620   5.046
 7900SOL     OW23723   0.255  10.658   4.014
 7900SOL    HW123724   0.159  10.659   3.987
 7900SOL    HW223725   0.267  10.711   4.098
 7901SOL     OW23726   0.105  10.323   5.450
 7901SOL    HW123727   0.028  10.290   5.504
 7901SOL    HW223728   0.190  10.293   5.492
 7902SOL     OW23729   0.672   9.513   5.213
 7902SOL    HW123730   0.762   9.497   5.173
 7902SOL    HW223731   0.680   9.518   5.312
 7903SOL     OW23732   0.075   9.655   3.757
 7903SOL    HW123733  -0.017   9.627   3.728
 7903SOL    HW223734   0.106   9.732   3.701
 7904SOL     OW23735   1.440  10.166   5.122
 7904SOL    HW123736   1.383  10.218   5.059
 7904SOL    HW223737   1.536  10.178   5.098
 7905SOL     OW23738   0.072   9.476   4.042
 7905SOL    HW123739   0.055   9.559   3.988
 7905SOL    HW223740   0.162   9.439   4.020
 7906SOL     OW23741   1.183  10.645   3.843
 7906SOL    HW123742   1.084  10.634   3.845
 7906SOL    HW223743   1.217  10.660   3.936
 7907SOL     OW23744   0.613  10.152   5.155
 7907SOL    HW123745   0.669  10.233   5.138
 7907SOL    HW223746   0.672  10.072   5.158
 7908SOL     OW23747   1.493  11.077   4.683
 7908SOL    HW123748   1.526  11.141   4.614
 7908SOL    HW223749   1.559  11.071   4.758
 7909SOL     OW23750   0.716   9.875   5.432
 7909SOL    HW123751   0.735   9.940   5.506
 7909SOL    HW223752   0.776   9.795   5.441
 7910SOL     OW23753   1.450  10.530   5.357
 7910SOL    HW123754   1.441  10.520   5.456
 7910SOL    HW223755   1.546  10.523   5.331
 7911SOL     OW23756   0.390  11.051   5.284
 7911SOL    HW123757   0.299  11.092   5.282
 7911SOL    HW223758   0.383  10.957   5.316
 7912SOL     OW23759   1.674  10.193   4.978
 7912SOL    HW123760   1.647  10.104   4.941
 7912SOL    HW223761   1.675  10.261   4.905
 7913SOL     OW23762   1.225   9.635   4.173
 7913SOL    HW123763   1.290   9.561   4.162
 7913SOL    HW223764   1.245   9.685   4.257
 7914SOL     OW23765   0.594  10.055   4.376
 7914SOL    HW123766   0.644  10.140   4.357
 7914SOL    HW223767   0.506  10.057   4.328
 7915SOL     OW23768   1.777   9.652   5.366
 7915SOL    HW123769   1.760   9.683   5.272
 7915SOL    HW223770   1.693   9.615   5.404
 7916SOL     OW23771   1.730  10.244   5.241
 7916SOL    HW123772   1.768  10.335   5.256
 7916SOL    HW223773   1.722  10.227   5.142
 7917SOL     OW23774   0.859  10.684   3.740
 7917SOL    HW123775   0.813  10.699   3.828
 7917SOL    HW223776   0.903  10.769   3.710
 7918SOL     OW23777   0.661  11.100   4.677
 7918SOL    HW123778   0.615  11.188   4.664
 7918SOL    HW223779   0.760  11.112   4.670
 7919SOL     OW23780   0.859  10.266   4.585
 7919SOL    HW123781   0.913  10.197   4.633
 7919SOL    HW223782   0.827  10.335   4.651
 7920SOL     OW23783   1.083  10.294   3.811
 7920SOL    HW123784   1.060  10.347   3.729
 7920SOL    HW223785   1.164  10.238   3.792
 7921SOL     OW23786   1.861  10.879   4.575
 7921SOL    HW123787   1.790  10.867   4.505
 7921SOL    HW223788   1.862  10.800   4.635
 7922SOL     OW23789   0.221  10.624   5.568
 7922SOL    HW123790   0.156  10.551   5.547
 7922SOL    HW223791   0.225  10.638   5.666
 7923SOL     OW23792   0.079  10.550   4.377
 7923SOL    HW123793   0.078  10.503   4.465
 7923SOL    HW223794   0.161  10.522   4.326
 7924SOL     OW23795   0.672  10.701   5.348
 7924SOL    HW123796   0.594  10.651   5.386
 7924SOL    HW223797   0.669  10.796   5.379
 7925SOL     OW23798   1.824   9.502   4.951
 7925SOL    HW123799   1.820   9.412   4.995
 7925SOL    HW223800   1.827   9.491   4.852
 7926SOL     OW23801   0.428   9.734   4.244
 7926SOL    HW123802   0.458   9.662   4.182
 7926SOL    HW223803   0.389   9.694   4.327
 7927SOL     OW23804   1.705  10.797   4.828
 7927SOL    HW123805   1.612  10.772   4.801
 7927SOL    HW223806   1.731  10.747   4.910
 7928SOL     OW23807   0.317   9.857   5.004
 7928SOL    HW123808   0.355   9.798   5.076
 7928SOL    HW223809   0.357   9.831   4.916
 7929SOL     OW23810   0.812  10.896   4.411
 7929SOL    HW123811   0.844  10.906   4.317
 7929SOL    HW223812   0.733  10.834   4.413
 7930SOL     OW23813   1.424   9.524   4.836
 7930SOL    HW123814   1.476   9.459   4.891
 7930SOL    HW223815   1.375   9.587   4.897
 7931SOL     OW23816   1.001   9.344   4.878
 7931SOL    HW123817   0.938   9.272   4.847
 7931SOL    HW223818   1.094   9.308   4.878
 7932SOL     OW23819   0.770  10.640   4.025
 7932SOL    HW123820   0.724  10.553   4.042
 7932SOL    HW223821   0.861  10.637   4.066
 7933SOL     OW23822   0.618  10.877   5.008
 7933SOL    HW123823   0.613  10.959   5.065
 7933SOL    HW223824   0.707  10.874   4.963
 7934SOL     OW23825   1.352   9.362   3.892
 7934SOL    HW123826   1.387   9.321   3.808
 7934SOL    HW223827   1.262   9.324   3.912
 7935SOL     OW23828   1.300   9.763   4.415
 7935SOL    HW123829   1.241   9.843   4.419
 7935SOL    HW223830   1.315   9.728   4.508
 7936SOL     OW23831   1.593   9.531   4.606
 7936SOL    HW123832   1.509   9.530   4.660
 7936SOL    HW223833   1.595   9.614   4.550
 7937SOL     OW23834   0.039  10.387   4.024
 7937SOL    HW123835   0.138  10.376   4.015
 7937SOL    HW223836  -0.001  10.301   4.056
 7938SOL     OW23837   0.875  10.956   4.061
 7938SOL    HW123838   0.798  10.921   4.007
 7938SOL    HW223839   0.843  11.027   4.123
 7939SOL     OW23840   0.230   9.938   5.699
 7939SOL    HW123841   0.137   9.936   5.736
 7939SOL    HW223842   0.231   9.899   5.607
 7940SOL     OW23843   0.225   9.585   6.582
 7940SOL    HW123844   0.260   9.568   6.674
 7940SOL    HW223845   0.137   9.540   6.570
 7941SOL     OW23846   0.019   9.678   6.233
 7941SOL    HW123847  -0.063   9.721   6.272
 7941SOL    HW223848  -0.009   9.605   6.170
 7942SOL     OW23849   0.569  10.585   6.751
 7942SOL    HW123850   0.476  10.578   6.714
 7942SOL    HW223851   0.580  10.674   6.795
 7943SOL     OW23852   1.555  10.821   6.289
 7943SOL    HW123853   1.498  10.805   6.370
 7943SOL    HW223854   1.496  10.831   6.209
 7944SOL     OW23855   1.135  10.013   6.303
 7944SOL    HW123856   1.192  10.091   6.278
 7944SOL    HW223857   1.075  10.039   6.379
 7945SOL     OW23858   1.755   9.917   5.817
 7945SOL    HW123859   1.743   9.904   5.718
 7945SOL    HW223860   1.725   9.836   5.866
 7946SOL     OW23861   0.768  10.454   6.609
 7946SOL    HW123862   0.690  10.471   6.669
 7946SOL    HW223863   0.802  10.541   6.573
 7947SOL     OW23864   0.850  10.108   7.409
 7947SOL    HW123865   0.846  10.184   7.474
 7947SOL    HW223866   0.872  10.144   7.318
 7948SOL     OW23867   0.685  10.322   6.251
 7948SOL    HW123868   0.754  10.306   6.321
 7948SOL    HW223869   0.612  10.379   6.289
 7949SOL     OW23870   0.686  10.471   7.389
 7949SOL    HW123871   0.746  10.550   7.403
 7949SOL    HW223872   0.600  10.502   7.348
 7950SOL     OW23873   0.335  10.745   6.647
 7950SOL    HW123874   0.257  10.714   6.594
 7950SOL    HW223875   0.393  10.803   6.590
 7951SOL     OW23876   1.460  10.815   6.925
 7951SOL    HW123877   1.484  10.909   6.951
 7951SOL    HW223878   1.444  10.761   7.007
 7952SOL     OW23879   0.438   9.702   7.085
 7952SOL    HW123880   0.520   9.646   7.094
 7952SOL    HW223881   0.357   9.644   7.089
 7953SOL     OW23882   1.603   9.757   6.323
 7953SOL    HW123883   1.529   9.803   6.273
 7953SOL    HW223884   1.654   9.825   6.376
 7954SOL     OW23885   0.231  11.023   6.069
 7954SOL    HW123886   0.265  11.100   6.123
 7954SOL    HW223887   0.275  11.023   5.979
 7955SOL     OW23888   1.127  10.651   7.276
 7955SOL    HW123889   1.174  10.651   7.364
 7955SOL    HW223890   1.079  10.564   7.265
 7956SOL     OW23891   0.230  10.744   6.124
 7956SOL    HW123892   0.204  10.840   6.124
 7956SOL    HW223893   0.159  10.690   6.169
 7957SOL     OW23894   0.240  10.401   6.472
 7957SOL    HW123895   0.254  10.317   6.524
 7957SOL    HW223896   0.185  10.465   6.527
 7958SOL     OW23897   0.620  11.096   7.025
 7958SOL    HW123898   0.528  11.079   7.060
 7958SOL    HW223899   0.648  11.188   7.051
 7959SOL     OW23900   0.606  10.274   5.709
 7959SOL    HW123901   0.613  10.358   5.655
 7959SOL    HW223902   0.652  10.287   5.797
 7960SOL     OW23903   1.594   9.424   7.066
 7960SOL    HW123904   1.576   9.491   6.994
 7960SOL    HW223905   1.591   9.470   7.155
 7961SOL     OW23906   0.122   9.953   6.149
 7961SOL    HW123907   0.077   9.865   6.166
 7961SOL    HW223908   0.121  10.007   6.233
 7962SOL     OW23909   1.842  11.077   5.945
 7962SOL    HW123910   1.896  11.048   6.025
 7962SOL    HW223911   1.872  11.167   5.916
 7963SOL     OW23912   0.027  10.906   5.703
 7963SOL    HW123913   0.008  10.810   5.724
 7963SOL    HW223914  -0.006  10.964   5.778
 7964SOL     OW23915   1.689  10.232   6.198
 7964SOL    HW123916   1.784  10.203   6.206
 7964SOL    HW223917   1.681  10.297   6.123
 7965SOL     OW23918   1.641  10.418   6.018
 7965SOL    HW123919   1.727  10.420   5.966
 7965SOL    HW223920   1.655  10.465   6.106
 7966SOL     OW23921   0.113  10.047   7.183
 7966SOL    HW123922   0.201  10.034   7.228
 7966SOL    HW223923   0.100  10.144   7.161
 7967SOL     OW23924   0.613  10.675   6.312
 7967SOL    HW123925   0.564  10.588   6.321
 7967SOL    HW223926   0.590  10.718   6.225
 7968SOL     OW23927   1.293  10.538   7.009
 7968SOL    HW123928   1.330  10.465   6.951
 7968SOL    HW223929   1.345  10.543   7.094
 7969SOL     OW23930   0.809   9.314   6.088
 7969SOL    HW123931   0.849   9.405   6.079
 7969SOL    HW223932   0.709   9.322   6.094
 7970SOL     OW23933   0.197  10.286   6.850
 7970SOL    HW123934   0.286  10.241   6.836
 7970SOL    HW223935   0.124  10.221   6.831
 7971SOL     OW23936   1.525  10.309   5.776
 7971SOL    HW123937   1.462  10.233   5.789
 7971SOL    HW223938   1.573  10.327   5.862
 7972SOL     OW23939   1.187  11.102   7.202
 7972SOL    HW123940   1.211  11.162   7.126
 7972SOL    HW223941   1.194  11.007   7.172
 7973SOL     OW23942   0.317   9.561   7.387
 7973SOL    HW123943   0.388   9.632   7.393
 7973SOL    HW223944   0.229   9.600   7.415
 7974SOL     OW23945   1.466  10.727   6.539
 7974SOL    HW123946   1.407  10.733   6.619
 7974SOL    HW223947   1.451  10.639   6.493
 7975SOL     OW23948   1.667  11.024   6.158
 7975SOL    HW123949   1.626  11.001   6.070
 7975SOL    HW223950   1.649  10.950   6.223
 7976SOL     OW23951   0.598  10.039   5.856
 7976SOL    HW123952   0.622  10.108   5.788
 7976SOL    HW223953   0.520  10.072   5.910
 7977SOL     OW23954   1.281   9.655   6.530
 7977SOL    HW123955   1.195   9.605   6.517
 7977SOL    HW223956   1.343   9.601   6.586
 7978SOL     OW23957   1.576  10.972   5.893
 7978SOL    HW123958   1.665  11.018   5.896
 7978SOL    HW223959   1.555  10.948   5.798
 7979SOL     OW23960   0.807   9.915   7.051
 7979SOL    HW123961   0.760   9.912   7.140
 7979SOL    HW223962   0.756   9.860   6.985
 7980SOL     OW23963   1.394   9.779   7.260
 7980SOL    HW123964   1.374   9.822   7.348
 7980SOL    HW223965   1.472   9.717   7.269
 7981SOL     OW23966   0.973  10.200   7.158
 7981SOL    HW123967   1.019  10.116   7.129
 7981SOL    HW223968   0.917  10.234   7.083
 7982SOL     OW23969   0.991   9.720   6.828
 7982SOL    HW123970   0.914   9.754   6.882
 7982SOL    HW223971   0.957   9.669   6.749
 7983SOL     OW23972   1.041  10.011   6.015
 7983SOL    HW123973   1.067  10.007   6.111
 7983SOL    HW223974   0.956   9.960   6.001
 7984SOL     OW23975   0.076  10.121   6.375
 7984SOL    HW123976   0.175  10.109   6.384
 7984SOL    HW223977   0.052  10.216   6.396
 7985SOL     OW23978   0.130  11.131   7.157
 7985SOL    HW123979   0.120  11.116   7.256
 7985SOL    HW223980   0.044  11.167   7.121
 7986SOL     OW23981   0.865   9.658   5.781
 7986SOL    HW123982   0.924   9.721   5.732
 7986SOL    HW223983   0.884   9.564   5.752
 7987SOL     OW23984   1.719   9.895   7.417
 7987SOL    HW123985   1.693   9.984   7.381
 7987SOL    HW223986   1.717   9.827   7.344
 7988SOL     OW23987   1.362  10.454   6.131
 7988SOL    HW123988   1.445  10.425   6.083
 7988SOL    HW223989   1.313  10.521   6.075
 7989SOL     OW23990   0.550   9.506   6.471
 7989SOL    HW123991   0.545   9.501   6.571
 7989SOL    HW223992   0.552   9.602   6.442
 7990SOL     OW23993   1.008  10.766   6.063
 7990SOL    HW123994   0.962  10.838   6.011
 7990SOL    HW223995   1.004  10.786   6.161
 7991SOL     OW23996   0.351  11.111   6.439
 7991SOL    HW123997   0.401  11.025   6.445
 7991SOL    HW223998   0.416  11.188   6.436
 7992SOL     OW23999   1.795  10.376   6.459
 7992SOL    HW124000   1.733  10.361   6.383
 7992SOL    HW224001   1.743  10.387   6.544
 7993SOL     OW24002   1.227  10.860   7.092
 7993SOL    HW124003   1.233  10.783   7.156
 7993SOL    HW224004   1.175  10.834   7.012
 7994SOL     OW24005   0.321  10.253   5.828
 7994SOL    HW124006   0.403  10.292   5.786
 7994SOL    HW224007   0.294  10.171   5.779
 7995SOL     OW24008   1.458  10.045   6.314
 7995SOL    HW124009   1.453   9.980   6.389
 7995SOL    HW224010   1.538  10.104   6.327
 7996SOL     OW24011   0.461  10.576   7.313
 7996SOL    HW124012   0.411  10.577   7.227
 7996SOL    HW224013   0.398  10.558   7.389
 7997SOL     OW24014   1.111  11.086   5.823
 7997SOL    HW124015   1.051  11.024   5.873
 7997SOL    HW224016   1.142  11.042   5.738
 7998SOL     OW24017   0.202   9.595   7.084
 7998SOL    HW124018   0.122   9.655   7.071
 7998SOL    HW224019   0.192   9.546   7.170
 7999SOL     OW24020   1.632  10.687   5.667
 7999SOL    HW124021   1.600  10.781   5.657
 7999SOL    HW224022   1.556  10.624   5.655
 8000SOL     OW24023   0.464  11.053   5.909
 8000SOL    HW124024   0.497  11.092   5.995
 8000SOL    HW224025   0.540  11.046   5.844
 8001SOL     OW24026   1.400   9.417   6.012
 8001SOL    HW124027   1.376   9.380   5.922
 8001SOL    HW224028   1.499   9.433   6.016
 8002SOL     OW24029   0.249  11.095   6.827
 8002SOL    HW124030   0.306  11.030   6.877
 8002SOL    HW224031   0.233  11.062   6.734
 8003SOL     OW24032   0.940  11.008   6.490
 8003SOL    HW124033   1.020  10.951   6.511
 8003SOL    HW224034   0.891  10.968   6.413
 8004SOL     OW24035   0.382  10.010   6.066
 8004SOL    HW124036   0.427   9.920   6.063
 8004SOL    HW224037   0.288   9.999   6.099
 8005SOL     OW24038   1.547   9.532   7.315
 8005SOL    HW124039   1.542   9.569   7.407
 8005SOL    HW224040   1.475   9.463   7.303
 8006SOL     OW24041   0.614   9.432   5.703
 8006SOL    HW124042   0.712   9.410   5.710
 8006SOL    HW224043   0.583   9.415   5.610
 8007SOL     OW24044   0.781   9.574   7.335
 8007SOL    HW124045   0.848   9.513   7.378
 8007SOL    HW224046   0.708   9.593   7.400
 8008SOL     OW24047   0.888  10.824   6.781
 8008SOL    HW124048   0.865  10.799   6.687
 8008SOL    HW224049   0.949  10.755   6.820
 8009SOL     OW24050   1.351   9.900   7.019
 8009SOL    HW124051   1.379   9.857   7.104
 8009SOL    HW224052   1.376   9.996   7.020
 8010SOL     OW24053   0.803  10.712   6.510
 8010SOL    HW124054   0.893  10.726   6.468
 8010SOL    HW224055   0.732  10.714   6.439
 8011SOL     OW24056   0.922   9.813   6.485
 8011SOL    HW124057   0.897   9.804   6.389
 8011SOL    HW224058   0.970   9.731   6.516
 8012SOL     OW24059   0.539   9.374   6.098
 8012SOL    HW124060   0.458   9.375   6.156
 8012SOL    HW224061   0.542   9.457   6.043
 8013SOL     OW24062   1.434  10.498   5.627
 8013SOL    HW124063   1.466  10.422   5.684
 8013SOL    HW224064   1.342  10.525   5.657
 8014SOL     OW24065   0.297   9.345   5.757
 8014SOL    HW124066   0.346   9.429   5.736
 8014SOL    HW224067   0.359   9.280   5.802
 8015SOL     OW24068   0.935   9.546   6.066
 8015SOL    HW124069   0.887   9.587   5.988
 8015SOL    HW224070   1.034   9.544   6.047
 8016SOL     OW24071   1.076   9.993   7.050
 8016SOL    HW124072   0.996   9.932   7.053
 8016SOL    HW224073   1.157   9.940   7.026
 8017SOL     OW24074   1.227  10.880   6.379
 8017SOL    HW124075   1.248  10.954   6.314
 8017SOL    HW224076   1.295  10.880   6.452
 8018SOL     OW24077   0.459  10.462   6.327
 8018SOL    HW124078   0.388  10.435   6.392
 8018SOL    HW224079   0.433  10.434   6.234
 8019SOL     OW24080   1.271  11.107   6.177
 8019SOL    HW124081   1.315  11.171   6.113
 8019SOL    HW224082   1.221  11.159   6.247
 8020SOL     OW24083   1.032   9.859   5.602
 8020SOL    HW124084   0.991   9.941   5.563
 8020SOL    HW224085   1.096   9.885   5.675
 8021SOL     OW24086   0.078   9.866   6.972
 8021SOL    HW124087   0.170   9.865   6.931
 8021SOL    HW224088   0.072   9.940   7.039
 8022SOL     OW24089   0.561   9.532   6.733
 8022SOL    HW124090   0.599   9.448   6.770
 8022SOL    HW224091   0.473   9.551   6.777
 8023SOL     OW24092   0.866   9.764   6.228
 8023SOL    HW124093   0.834   9.836   6.166
 8023SOL    HW224094   0.890   9.683   6.175
 8024SOL     OW24095   1.017   9.349   6.339
 8024SOL    HW124096   0.945   9.354   6.270
 8024SOL    HW224097   0.993   9.280   6.408
 8025SOL     OW24098   1.429  10.483   6.453
 8025SOL    HW124099   1.374  10.399   6.446
 8025SOL    HW224100   1.455  10.512   6.361
 8026SOL     OW24101   1.466   9.900   6.578
 8026SOL    HW124102   1.436   9.805   6.585
 8026SOL    HW224103   1.539   9.916   6.644
 8027SOL     OW24104   1.857  10.143   5.963
 8027SOL    HW124105   1.899  10.079   6.027
 8027SOL    HW224106   1.819  10.092   5.885
 8028SOL     OW24107   0.488  10.695   5.760
 8028SOL    HW124108   0.401  10.680   5.807
 8028SOL    HW224109   0.471  10.721   5.665
 8029SOL     OW24110   1.664  10.590   6.243
 8029SOL    HW124111   1.763  10.598   6.257
 8029SOL    HW224112   1.619  10.674   6.274
 8030SOL     OW24113   1.390   9.885   5.664
 8030SOL    HW124114   1.336   9.864   5.745
 8030SOL    HW224115   1.481   9.844   5.673
 8031SOL     OW24116   0.527   9.566   5.914
 8031SOL    HW124117   0.554   9.507   5.839
 8031SOL    HW224118   0.527   9.661   5.883
 8032SOL     OW24119   1.754  10.533   7.174
 8032SOL    HW124120   1.845  10.494   7.161
 8032SOL    HW224121   1.762  10.629   7.198
 8033SOL     OW24122   1.064  10.657   6.926
 8033SOL    HW124123   0.984  10.634   6.981
 8033SOL    HW224124   1.147  10.631   6.975
 8034SOL     OW24125   1.592  10.939   7.211
 8034SOL    HW124126   1.619  10.973   7.121
 8034SOL    HW224127   1.671  10.901   7.257
 8035SOL     OW24128   1.111  10.505   6.686
 8035SOL    HW124129   1.071  10.549   6.767
 8035SOL    HW224130   1.070  10.542   6.603
 8036SOL     OW24131   1.638  10.409   6.665
 8036SOL    HW124132   1.643  10.490   6.724
 8036SOL    HW224133   1.552  10.411   6.614
 8037SOL     OW24134   0.915   9.399   6.988
 8037SOL    HW124135   0.940   9.379   6.893
 8037SOL    HW224136   0.987   9.455   7.030
 8038SOL     OW24137   0.980  10.426   7.305
 8038SOL    HW124138   0.881  10.432   7.315
 8038SOL    HW224139   1.003  10.346   7.249
 8039SOL     OW24140   0.705  10.360   5.954
 8039SOL    HW124141   0.691  10.367   6.053
 8039SOL    HW224142   0.789  10.309   5.936
 8040SOL     OW24143   0.410  10.123   6.837
 8040SOL    HW124144   0.496  10.135   6.887
 8040SOL    HW224145   0.368  10.036   6.864
 8041SOL     OW24146   1.274   9.696   6.848
 8041SOL    HW124147   1.295   9.770   6.912
 8041SOL    HW224148   1.185   9.713   6.805
 8042SOL     OW24149   0.064  10.874   6.917
 8042SOL    HW124150   0.018  10.956   6.883
 8042SOL    HW224151   0.162  10.893   6.926
 8043SOL     OW24152   0.367  10.410   6.087
 8043SOL    HW124153   0.360  10.493   6.031
 8043SOL    HW224154   0.371  10.330   6.027
 8044SOL     OW24155   0.566   9.847   6.451
 8044SOL    HW124156   0.578   9.913   6.377
 8044SOL    HW224157   0.612   9.881   6.534
 8045SOL     OW24158   1.252  10.658   5.974
 8045SOL    HW124159   1.302  10.735   6.014
 8045SOL    HW224160   1.157  10.660   6.006
 8046SOL     OW24161   1.272  10.755   6.728
 8046SOL    HW124162   1.319  10.768   6.815
 8046SOL    HW224163   1.206  10.681   6.737
 8047SOL     OW24164   1.582   9.949   6.058
 8047SOL    HW124165   1.551  10.010   6.131
 8047SOL    HW224166   1.632  10.001   5.989
 8048SOL     OW24167   0.354  10.820   6.915
 8048SOL    HW124168   0.333  10.776   6.828
 8048SOL    HW224169   0.451  10.846   6.918
 8049SOL     OW24170   0.402  10.061   7.184
 8049SOL    HW124171   0.470  10.116   7.137
 8049SOL    HW224172   0.442   9.973   7.211
 8050SOL     OW24173   1.587  10.089   7.256
 8050SOL    HW124174   1.495  10.127   7.251
 8050SOL    HW224175   1.647  10.136   7.191
 8051SOL     OW24176   1.013   9.415   7.356
 8051SOL    HW124177   1.019   9.500   7.304
 8051SOL    HW224178   1.045   9.339   7.299
 8052SOL     OW24179   0.504   9.360   7.326
 8052SOL    HW124180   0.462   9.303   7.256
 8052SOL    HW224181   0.438   9.429   7.358
 8053SOL     OW24182   0.573  10.180   6.615
 8053SOL    HW124183   0.617  10.269   6.606
 8053SOL    HW224184   0.510  10.180   6.692
 8054SOL     OW24185   1.360  10.172   6.631
 8054SOL    HW124186   1.285  10.172   6.565
 8054SOL    HW224187   1.397  10.080   6.640
 8055SOL     OW24188   1.209   9.835   5.861
 8055SOL    HW124189   1.222   9.751   5.915
 8055SOL    HW224190   1.180   9.909   5.921
 8056SOL     OW24191   0.307   9.523   6.817
 8056SOL    HW124192   0.284   9.560   6.907
 8056SOL    HW224193   0.277   9.428   6.811
 8057SOL     OW24194   0.037  10.620   6.868
 8057SOL    HW124195   0.090  10.571   6.936
 8057SOL    HW224196   0.059  10.718   6.873
 8058SOL     OW24197   0.732   9.944   6.650
 8058SOL    HW124198   0.791   9.918   6.574
 8058SOL    HW224199   0.704  10.040   6.639
 8059SOL     OW24200   1.728  10.245   7.440
 8059SOL    HW124201   1.682  10.238   7.351
 8059SOL    HW224202   1.666  10.289   7.506
 8060SOL     OW24203   0.307   9.373   6.204
 8060SOL    HW124204   0.296   9.467   6.237
 8060SOL    HW224205   0.302   9.310   6.281
 8061SOL     OW24206   1.622   9.677   5.960
 8061SOL    HW124207   1.624   9.601   6.024
 8061SOL    HW224208   1.574   9.754   6.000
 8062SOL     OW24209   1.023  10.076   6.552
 8062SOL    HW124210   1.038  10.097   6.648
 8062SOL    HW224211   0.993   9.981   6.543
 8063SOL     OW24212   0.980  10.883   7.286
 8063SOL    HW124213   0.960  10.927   7.198
 8063SOL    HW224214   1.019  10.792   7.270
 8064SOL     OW24215   1.859  10.828   7.191
 8064SOL    HW124216   1.873  10.855   7.096
 8064SOL    HW224217   1.942  10.850   7.244
 8065SOL     OW24218   0.350  10.208   7.390
 8065SOL    HW124219   0.426  10.252   7.438
 8065SOL    HW224220   0.385  10.161   7.308
 8066SOL     OW24221   1.540   9.584   5.711
 8066SOL    HW124222   1.479   9.509   5.734
 8066SOL    HW224223   1.562   9.636   5.794
 8067SOL     OW24224   1.303  10.148   5.628
 8067SOL    HW124225   1.337  10.055   5.643
 8067SOL    HW224226   1.321  10.175   5.533
 8068SOL     OW24227   1.068  10.643   6.435
 8068SOL    HW124228   1.075  10.559   6.380
 8068SOL    HW224229   1.130  10.712   6.399
 8069SOL     OW24230   0.319  10.120   6.535
 8069SOL    HW124231   0.412  10.156   6.540
 8069SOL    HW224232   0.313  10.035   6.587
 8070SOL     OW24233   0.339   9.819   6.592
 8070SOL    HW124234   0.287   9.736   6.575
 8070SOL    HW224235   0.416   9.824   6.528
 8071SOL     OW24236   1.138   9.690   7.264
 8071SOL    HW124237   1.093   9.753   7.328
 8071SOL    HW224238   1.231   9.721   7.247
 8072SOL     OW24239   1.160   9.517   7.063
 8072SOL    HW124240   1.160   9.581   7.140
 8072SOL    HW224241   1.188   9.565   6.980
 8073SOL     OW24242   0.008  10.636   5.786
 8073SOL    HW124243  -0.085  10.657   5.755
 8073SOL    HW224244   0.018  10.537   5.799
 8074SOL     OW24245   0.088  11.111   6.513
 8074SOL    HW124246   0.046  11.025   6.486
 8074SOL    HW224247   0.182  11.114   6.479
 8075SOL     OW24248   0.504  10.878   6.496
 8075SOL    HW124249   0.570  10.952   6.505
 8075SOL    HW224250   0.548  10.799   6.454
 8076SOL     OW24251   1.002  10.106   6.824
 8076SOL    HW124252   1.043  10.074   6.910
 8076SOL    HW224253   0.906  10.079   6.821
 8077SOL     OW24254   0.040   9.854   6.700
 8077SOL    HW124255   0.125   9.821   6.659
 8077SOL    HW224256   0.053   9.869   6.798
 8078SOL     OW24257   0.189   9.830   7.308
 8078SOL    HW124258   0.248   9.790   7.238
 8078SOL    HW224259   0.131   9.901   7.267
 8079SOL     OW24260   1.369  10.260   7.246
 8079SOL    HW124261   1.408  10.349   7.266
 8079SOL    HW224262   1.379  10.240   7.149
 8080SOL     OW24263   0.815   9.882   5.911
 8080SOL    HW124264   0.822   9.793   5.865
 8080SOL    HW224265   0.721   9.916   5.903
 8081SOL     OW24266   1.657   9.914   6.792
 8081SOL    HW124267   1.619   9.845   6.854
 8081SOL    HW224268   1.739   9.878   6.748
 8082SOL     OW24269   0.252  10.874   7.330
 8082SOL    HW124270   0.222  10.931   7.406
 8082SOL    HW224271   0.245  10.777   7.356
 8083SOL     OW24272   0.671   9.774   6.855
 8083SOL    HW124273   0.637   9.685   6.825
 8083SOL    HW224274   0.697   9.828   6.775
 8084SOL     OW24275   0.930  10.988   7.051
 8084SOL    HW124276   0.906  10.970   6.956
 8084SOL    HW224277   0.960  11.082   7.061
 8085SOL     OW24278   0.473   9.810   5.777
 8085SOL    HW124279   0.534   9.890   5.781
 8085SOL    HW224280   0.378   9.841   5.784
 8086SOL     OW24281   0.159  10.447   7.052
 8086SOL    HW124282   0.181  10.386   7.128
 8086SOL    HW224283   0.169  10.398   6.966
 8087SOL     OW24284   1.347  10.369   6.820
 8087SOL    HW124285   1.371  10.306   6.746
 8087SOL    HW224286   1.257  10.409   6.802
 8088SOL     OW24287   1.302  10.165   5.895
 8088SOL    HW124288   1.216  10.134   5.937
 8088SOL    HW224289   1.298  10.151   5.796
 8089SOL     OW24290   1.759  11.057   6.740
 8089SOL    HW124291   1.820  11.087   6.667
 8089SOL    HW224292   1.721  10.968   6.718
 8090SOL     OW24293   1.252  11.041   6.714
 8090SOL    HW124294   1.336  11.046   6.660
 8090SOL    HW224295   1.229  10.945   6.732
 8091SOL     OW24296   0.083  10.568   6.608
 8091SOL    HW124297   0.078  10.567   6.708
 8091SOL    HW224298   0.000  10.527   6.570
 8092SOL     OW24299   0.688  10.972   7.302
 8092SOL    HW124300   0.632  11.053   7.311
 8092SOL    HW224301   0.740  10.976   7.216
 8093SOL     OW24302   1.726   9.445   6.109
 8093SOL    HW124303   1.799   9.428   6.042
 8093SOL    HW224304   1.695   9.358   6.147
 8094SOL     OW24305   1.388  10.883   6.063
 8094SOL    HW124306   1.455  10.895   5.989
 8094SOL    HW224307   1.348  10.972   6.086
 8095SOL     OW24308   0.130  11.104   7.437
 8095SOL    HW124309   0.089  11.030   7.490
 8095SOL    HW224310   0.194  11.155   7.495
 8096SOL     OW24311   1.280  10.237   6.258
 8096SOL    HW124312   1.340  10.156   6.260
 8096SOL    HW224313   1.320  10.306   6.198
 8097SOL     OW24314   0.830  10.583   7.008
 8097SOL    HW124315   0.825  10.616   7.103
 8097SOL    HW224316   0.744  10.602   6.962
 8098SOL     OW24317   0.672  10.926   5.740
 8098SOL    HW124318   0.681  10.936   5.641
 8098SOL    HW224319   0.632  10.837   5.761
 8099SOL     OW24320   1.650  11.030   6.980
 8099SOL    HW124321   1.703  11.040   6.896
 8099SOL    HW224322   1.623  11.120   7.014
 8100SOL     OW24323   1.841   9.485   6.549
 8100SOL    HW124324   1.880   9.400   6.513
 8100SOL    HW224325   1.743   9.487   6.530
 8101SOL     OW24326   0.263   9.636   6.306
 8101SOL    HW124327   0.184   9.687   6.272
 8101SOL    HW224328   0.254   9.621   6.404
 8102SOL     OW24329   1.194  10.922   5.617
 8102SOL    HW124330   1.200  10.829   5.654
 8102SOL    HW224331   1.135  10.922   5.537
 8103SOL     OW24332   0.822  10.312   6.958
 8103SOL    HW124333   0.862  10.311   6.866
 8103SOL    HW224334   0.832  10.404   6.998
 8104SOL     OW24335   0.916  10.220   5.877
 8104SOL    HW124336   0.979  10.258   5.809
 8104SOL    HW224337   0.956  10.137   5.916
 8105SOL     OW24338   1.504  10.917   5.630
 8105SOL    HW124339   1.412  10.954   5.637
 8105SOL    HW224340   1.542  10.937   5.540
 8106SOL     OW24341   0.372  10.598   7.076
 8106SOL    HW124342   0.359  10.691   7.042
 8106SOL    HW224343   0.288  10.546   7.063
 8107SOL     OW24344   1.614  10.602   6.875
 8107SOL    HW124345   1.674  10.605   6.955
 8107SOL    HW224346   1.539  10.666   6.888
 8108SOL     OW24347   1.039  10.408   6.282
 8108SOL    HW124348   0.969  10.361   6.336
 8108SOL    HW224349   1.098  10.340   6.239
 8109SOL     OW24350   1.014   9.546   6.557
 8109SOL    HW124351   1.006   9.510   6.464
 8109SOL    HW224352   1.012   9.470   6.622
 8110SOL     OW24353   0.590  10.797   6.077
 8110SOL    HW124354   0.632  10.739   6.007
 8110SOL    HW224355   0.546  10.876   6.033
 8111SOL     OW24356   1.709   9.695   6.967
 8111SOL    HW124357   1.782   9.764   6.971
 8111SOL    HW224358   1.737   9.620   6.908
 8112SOL     OW24359   0.255  10.658   5.876
 8112SOL    HW124360   0.159  10.659   5.849
 8112SOL    HW224361   0.267  10.711   5.960
 8113SOL     OW24362   0.105  10.323   7.312
 8113SOL    HW124363   0.028  10.290   7.366
 8113SOL    HW224364   0.190  10.293   7.354
 8114SOL     OW24365   0.672   9.513   7.075
 8114SOL    HW124366   0.762   9.497   7.035
 8114SOL    HW224367   0.680   9.518   7.174
 8115SOL     OW24368   0.075   9.655   5.619
 8115SOL    HW124369  -0.017   9.627   5.590
 8115SOL    HW224370   0.106   9.732   5.563
 8116SOL     OW24371   1.440  10.166   6.984
 8116SOL    HW124372   1.383  10.218   6.921
 8116SOL    HW224373   1.536  10.178   6.960
 8117SOL     OW24374   0.072   9.476   5.904
 8117SOL    HW124375   0.055   9.559   5.850
 8117SOL    HW224376   0.162   9.439   5.882
 8118SOL     OW24377   1.183  10.645   5.705
 8118SOL    HW124378   1.084  10.634   5.707
 8118SOL    HW224379   1.217  10.660   5.798
 8119SOL     OW24380   0.613  10.152   7.017
 8119SOL    HW124381   0.669  10.233   7.000
 8119SOL    HW224382   0.672  10.072   7.020
 8120SOL     OW24383   1.493  11.077   6.545
 8120SOL    HW124384   1.526  11.141   6.476
 8120SOL    HW224385   1.559  11.071   6.620
 8121SOL     OW24386   0.716   9.875   7.294
 8121SOL    HW124387   0.735   9.940   7.368
 8121SOL    HW224388   0.776   9.795   7.303
 8122SOL     OW24389   1.450  10.530   7.219
 8122SOL    HW124390   1.441  10.520   7.318
 8122SOL    HW224391   1.546  10.523   7.193
 8123SOL     OW24392   0.390  11.051   7.146
 8123SOL    HW124393   0.299  11.092   7.144
 8123SOL    HW224394   0.383  10.957   7.178
 8124SOL     OW24395   1.674  10.193   6.840
 8124SOL    HW124396   1.647  10.104   6.803
 8124SOL    HW224397   1.675  10.261   6.767
 8125SOL     OW24398   1.225   9.635   6.035
 8125SOL    HW124399   1.290   9.561   6.024
 8125SOL    HW224400   1.245   9.685   6.119
 8126SOL     OW24401   0.594  10.055   6.238
 8126SOL    HW124402   0.644  10.140   6.219
 8126SOL    HW224403   0.506  10.057   6.190
 8127SOL     OW24404   1.777   9.652   7.228
 8127SOL    HW124405   1.760   9.683   7.134
 8127SOL    HW224406   1.693   9.615   7.266
 8128SOL     OW24407   1.730  10.244   7.103
 8128SOL    HW124408   1.768  10.335   7.118
 8128SOL    HW224409   1.722  10.227   7.004
 8129SOL     OW24410   0.859  10.684   5.602
 8129SOL    HW124411   0.813  10.699   5.690
 8129SOL    HW224412   0.903  10.769   5.572
 8130SOL     OW24413   0.661  11.100   6.539
 8130SOL    HW124414   0.615  11.188   6.526
 8130SOL    HW224415   0.760  11.112   6.532
 8131SOL     OW24416   0.859  10.266   6.447
 8131SOL    HW124417   0.913  10.197   6.495
 8131SOL    HW224418   0.827  10.335   6.513
 8132SOL     OW24419   1.083  10.294   5.673
 8132SOL    HW124420   1.060  10.347   5.591
 8132SOL    HW224421   1.164  10.238   5.654
 8133SOL     OW24422   1.861  10.879   6.437
 8133SOL    HW124423   1.790  10.867   6.367
 8133SOL    HW224424   1.862  10.800   6.497
 8134SOL     OW24425   0.221  10.624   7.430
 8134SOL    HW124426   0.156  10.551   7.409
 8134SOL    HW224427   0.225  10.638   7.528
 8135SOL     OW24428   0.079  10.550   6.239
 8135SOL    HW124429   0.078  10.503   6.327
 8135SOL    HW224430   0.161  10.522   6.188
 8136SOL     OW24431   0.672  10.701   7.210
 8136SOL    HW124432   0.594  10.651   7.248
 8136SOL    HW224433   0.669  10.796   7.241
 8137SOL     OW24434   1.824   9.502   6.813
 8137SOL    HW124435   1.820   9.412   6.857
 8137SOL    HW224436   1.827   9.491   6.714
 8138SOL     OW24437   0.428   9.734   6.106
 8138SOL    HW124438   0.458   9.662   6.044
 8138SOL    HW224439   0.389   9.694   6.189
 8139SOL     OW24440   1.705  10.797   6.690
 8139SOL    HW124441   1.612  10.772   6.663
 8139SOL    HW224442   1.731  10.747   6.772
 8140SOL     OW24443   0.317   9.857   6.866
 8140SOL    HW124444   0.355   9.798   6.938
 8140SOL    HW224445   0.357   9.831   6.778
 8141SOL     OW24446   0.812  10.896   6.273
 8141SOL    HW124447   0.844  10.906   6.179
 8141SOL    HW224448   0.733  10.834   6.275
 8142SOL     OW24449   1.424   9.524   6.698
 8142SOL    HW124450   1.476   9.459   6.753
 8142SOL    HW224451   1.375   9.587   6.759
 8143SOL     OW24452   1.001   9.344   6.740
 8143SOL    HW124453   0.938   9.272   6.709
 8143SOL    HW224454   1.094   9.308   6.740
 8144SOL     OW24455   0.770  10.640   5.887
 8144SOL    HW124456   0.724  10.553   5.904
 8144SOL    HW224457   0.861  10.637   5.928
 8145SOL     OW24458   0.618  10.877   6.870
 8145SOL    HW124459   0.613  10.959   6.927
 8145SOL    HW224460   0.707  10.874   6.825
 8146SOL     OW24461   1.352   9.362   5.754
 8146SOL    HW124462   1.387   9.321   5.670
 8146SOL    HW224463   1.262   9.324   5.774
 8147SOL     OW24464   1.300   9.763   6.277
 8147SOL    HW124465   1.241   9.843   6.281
 8147SOL    HW224466   1.315   9.728   6.370
 8148SOL     OW24467   1.593   9.531   6.468
 8148SOL    HW124468   1.509   9.530   6.522
 8148SOL    HW224469   1.595   9.614   6.412
 8149SOL     OW24470   0.039  10.387   5.886
 8149SOL    HW124471   0.138  10.376   5.877
 8149SOL    HW224472  -0.001  10.301   5.918
 8150SOL     OW24473   0.875  10.956   5.923
 8150SOL    HW124474   0.798  10.921   5.869
 8150SOL    HW224475   0.843  11.027   5.985
 8151SOL     OW24476   0.230   9.938   7.561
 8151SOL    HW124477   0.137   9.936   7.598
 8151SOL    HW224478   0.231   9.899   7.469
 8152SOL     OW24479   0.225   9.585   8.444
 8152SOL    HW124480   0.260   9.568   8.536
 8152SOL    HW224481   0.137   9.540   8.432
 8153SOL     OW24482   0.019   9.678   8.095
 8153SOL    HW124483  -0.063   9.721   8.134
 8153SOL    HW224484  -0.009   9.605   8.032
 8154SOL     OW24485   0.569  10.585   8.613
 8154SOL    HW124486   0.476  10.578   8.576
 8154SOL    HW224487   0.580  10.674   8.657
 8155SOL     OW24488   1.555  10.821   8.151
 8155SOL    HW124489   1.498  10.805   8.232
 8155SOL    HW224490   1.496  10.831   8.071
 8156SOL     OW24491   1.135  10.013   8.165
 8156SOL    HW124492   1.192  10.091   8.140
 8156SOL    HW224493   1.075  10.039   8.241
 8157SOL     OW24494   1.755   9.917   7.679
 8157SOL    HW124495   1.743   9.904   7.580
 8157SOL    HW224496   1.725   9.836   7.728
 8158SOL     OW24497   0.768  10.454   8.471
 8158SOL    HW124498   0.690  10.471   8.531
 8158SOL    HW224499   0.802  10.541   8.435
 8159SOL     OW24500   0.850  10.108   9.271
 8159SOL    HW124501   0.846  10.184   9.336
 8159SOL    HW224502   0.872  10.144   9.180
 8160SOL     OW24503   0.685  10.322   8.113
 8160SOL    HW124504   0.754  10.306   8.183
 8160SOL    HW224505   0.612  10.379   8.151
 8161SOL     OW24506   0.686  10.471   9.251
 8161SOL    HW124507   0.746  10.550   9.265
 8161SOL    HW224508   0.600  10.502   9.210
 8162SOL     OW24509   0.335  10.745   8.509
 8162SOL    HW124510   0.257  10.714   8.456
 8162SOL    HW224511   0.393  10.803   8.452
 8163SOL     OW24512   1.460  10.815   8.787
 8163SOL    HW124513   1.484  10.909   8.813
 8163SOL    HW224514   1.444  10.761   8.869
 8164SOL     OW24515   0.438   9.702   8.947
 8164SOL    HW124516   0.520   9.646   8.956
 8164SOL    HW224517   0.357   9.644   8.951
 8165SOL     OW24518   1.603   9.757   8.185
 8165SOL    HW124519   1.529   9.803   8.135
 8165SOL    HW224520   1.654   9.825   8.238
 8166SOL     OW24521   0.231  11.023   7.931
 8166SOL    HW124522   0.265  11.100   7.985
 8166SOL    HW224523   0.275  11.023   7.841
 8167SOL     OW24524   1.127  10.651   9.138
 8167SOL    HW124525   1.174  10.651   9.226
 8167SOL    HW224526   1.079  10.564   9.127
 8168SOL     OW24527   0.230  10.744   7.986
 8168SOL    HW124528   0.204  10.840   7.986
 8168SOL    HW224529   0.159  10.690   8.031
 8169SOL     OW24530   0.240  10.401   8.334
 8169SOL    HW124531   0.254  10.317   8.386
 8169SOL    HW224532   0.185  10.465   8.389
 8170SOL     OW24533   0.620  11.096   8.887
 8170SOL    HW124534   0.528  11.079   8.922
 8170SOL    HW224535   0.648  11.188   8.913
 8171SOL     OW24536   0.606  10.274   7.571
 8171SOL    HW124537   0.613  10.358   7.517
 8171SOL    HW224538   0.652  10.287   7.659
 8172SOL     OW24539   1.594   9.424   8.928
 8172SOL    HW124540   1.576   9.491   8.856
 8172SOL    HW224541   1.591   9.470   9.017
 8173SOL     OW24542   0.122   9.953   8.011
 8173SOL    HW124543   0.077   9.865   8.028
 8173SOL    HW224544   0.121  10.007   8.095
 8174SOL     OW24545   1.842  11.077   7.807
 8174SOL    HW124546   1.896  11.048   7.887
 8174SOL    HW224547   1.872  11.167   7.778
 8175SOL     OW24548   0.027  10.906   7.565
 8175SOL    HW124549   0.008  10.810   7.586
 8175SOL    HW224550  -0.006  10.964   7.640
 8176SOL     OW24551   1.689  10.232   8.060
 8176SOL    HW124552   1.784  10.203   8.068
 8176SOL    HW224553   1.681  10.297   7.985
 8177SOL     OW24554   1.641  10.418   7.880
 8177SOL    HW124555   1.727  10.420   7.828
 8177SOL    HW224556   1.655  10.465   7.968
 8178SOL     OW24557   0.113  10.047   9.045
 8178SOL    HW124558   0.201  10.034   9.090
 8178SOL    HW224559   0.100  10.144   9.023
 8179SOL     OW24560   0.613  10.675   8.174
 8179SOL    HW124561   0.564  10.588   8.183
 8179SOL    HW224562   0.590  10.718   8.087
 8180SOL     OW24563   1.293  10.538   8.871
 8180SOL    HW124564   1.330  10.465   8.813
 8180SOL    HW224565   1.345  10.543   8.956
 8181SOL     OW24566   0.809   9.314   7.950
 8181SOL    HW124567   0.849   9.405   7.941
 8181SOL    HW224568   0.709   9.322   7.956
 8182SOL     OW24569   0.197  10.286   8.712
 8182SOL    HW124570   0.286  10.241   8.698
 8182SOL    HW224571   0.124  10.221   8.693
 8183SOL     OW24572   1.525  10.309   7.638
 8183SOL    HW124573   1.462  10.233   7.651
 8183SOL    HW224574   1.573  10.327   7.724
 8184SOL     OW24575   1.187  11.102   9.064
 8184SOL    HW124576   1.211  11.162   8.988
 8184SOL    HW224577   1.194  11.007   9.034
 8185SOL     OW24578   0.317   9.561   9.249
 8185SOL    HW124579   0.388   9.632   9.255
 8185SOL    HW224580   0.229   9.600   9.277
 8186SOL     OW24581   1.466  10.727   8.401
 8186SOL    HW124582   1.407  10.733   8.481
 8186SOL    HW224583   1.451  10.639   8.355
 8187SOL     OW24584   1.667  11.024   8.020
 8187SOL    HW124585   1.626  11.001   7.932
 8187SOL    HW224586   1.649  10.950   8.085
 8188SOL     OW24587   0.598  10.039   7.718
 8188SOL    HW124588   0.622  10.108   7.650
 8188SOL    HW224589   0.520  10.072   7.772
 8189SOL     OW24590   1.281   9.655   8.392
 8189SOL    HW124591   1.195   9.605   8.379
 8189SOL    HW224592   1.343   9.601   8.448
 8190SOL     OW24593   1.576  10.972   7.755
 8190SOL    HW124594   1.665  11.018   7.758
 8190SOL    HW224595   1.555  10.948   7.660
 8191SOL     OW24596   0.807   9.915   8.913
 8191SOL    HW124597   0.760   9.912   9.002
 8191SOL    HW224598   0.756   9.860   8.847
 8192SOL     OW24599   1.394   9.779   9.122
 8192SOL    HW124600   1.374   9.822   9.210
 8192SOL    HW224601   1.472   9.717   9.131
 8193SOL     OW24602   0.973  10.200   9.020
 8193SOL    HW124603   1.019  10.116   8.991
 8193SOL    HW224604   0.917  10.234   8.945
 8194SOL     OW24605   0.991   9.720   8.690
 8194SOL    HW124606   0.914   9.754   8.744
 8194SOL    HW224607   0.957   9.669   8.611
 8195SOL     OW24608   1.041  10.011   7.877
 8195SOL    HW124609   1.067  10.007   7.973
 8195SOL    HW224610   0.956   9.960   7.863
 8196SOL     OW24611   0.076  10.121   8.237
 8196SOL    HW124612   0.175  10.109   8.246
 8196SOL    HW224613   0.052  10.216   8.258
 8197SOL     OW24614   0.130  11.131   9.019
 8197SOL    HW124615   0.120  11.116   9.118
 8197SOL    HW224616   0.044  11.167   8.983
 8198SOL     OW24617   0.865   9.658   7.643
 8198SOL    HW124618   0.924   9.721   7.594
 8198SOL    HW224619   0.884   9.564   7.614
 8199SOL     OW24620   1.719   9.895   9.279
 8199SOL    HW124621   1.693   9.984   9.243
 8199SOL    HW224622   1.717   9.827   9.206
 8200SOL     OW24623   1.362  10.454   7.993
 8200SOL    HW124624   1.445  10.425   7.945
 8200SOL    HW224625   1.313  10.521   7.937
 8201SOL     OW24626   0.550   9.506   8.333
 8201SOL    HW124627   0.545   9.501   8.433
 8201SOL    HW224628   0.552   9.602   8.304
 8202SOL     OW24629   1.008  10.766   7.925
 8202SOL    HW124630   0.962  10.838   7.873
 8202SOL    HW224631   1.004  10.786   8.023
 8203SOL     OW24632   0.351  11.111   8.301
 8203SOL    HW124633   0.401  11.025   8.307
 8203SOL    HW224634   0.416  11.188   8.298
 8204SOL     OW24635   1.795  10.376   8.321
 8204SOL    HW124636   1.733  10.361   8.245
 8204SOL    HW224637   1.743  10.387   8.406
 8205SOL     OW24638   1.227  10.860   8.954
 8205SOL    HW124639   1.233  10.783   9.018
 8205SOL    HW224640   1.175  10.834   8.874
 8206SOL     OW24641   0.321  10.253   7.690
 8206SOL    HW124642   0.403  10.292   7.648
 8206SOL    HW224643   0.294  10.171   7.641
 8207SOL     OW24644   1.458  10.045   8.176
 8207SOL    HW124645   1.453   9.980   8.251
 8207SOL    HW224646   1.538  10.104   8.189
 8208SOL     OW24647   0.461  10.576   9.175
 8208SOL    HW124648   0.411  10.577   9.089
 8208SOL    HW224649   0.398  10.558   9.251
 8209SOL     OW24650   1.111  11.086   7.685
 8209SOL    HW124651   1.051  11.024   7.735
 8209SOL    HW224652   1.142  11.042   7.600
 8210SOL     OW24653   0.202   9.595   8.946
 8210SOL    HW124654   0.122   9.655   8.933
 8210SOL    HW224655   0.192   9.546   9.032
 8211SOL     OW24656   1.632  10.687   7.529
 8211SOL    HW124657   1.600  10.781   7.519
 8211SOL    HW224658   1.556  10.624   7.517
 8212SOL     OW24659   0.464  11.053   7.771
 8212SOL    HW124660   0.497  11.092   7.857
 8212SOL    HW224661   0.540  11.046   7.706
 8213SOL     OW24662   1.400   9.417   7.874
 8213SOL    HW124663   1.376   9.380   7.784
 8213SOL    HW224664   1.499   9.433   7.878
 8214SOL     OW24665   0.249  11.095   8.689
 8214SOL    HW124666   0.306  11.030   8.739
 8214SOL    HW224667   0.233  11.062   8.596
 8215SOL     OW24668   0.940  11.008   8.352
 8215SOL    HW124669   1.020  10.951   8.373
 8215SOL    HW224670   0.891  10.968   8.275
 8216SOL     OW24671   0.382  10.010   7.928
 8216SOL    HW124672   0.427   9.920   7.925
 8216SOL    HW224673   0.288   9.999   7.961
 8217SOL     OW24674   1.547   9.532   9.177
 8217SOL    HW124675   1.542   9.569   9.269
 8217SOL    HW224676   1.475   9.463   9.165
 8218SOL     OW24677   0.614   9.432   7.565
 8218SOL    HW124678   0.712   9.410   7.572
 8218SOL    HW224679   0.583   9.415   7.472
 8219SOL     OW24680   0.781   9.574   9.197
 8219SOL    HW124681   0.848   9.513   9.240
 8219SOL    HW224682   0.708   9.593   9.262
 8220SOL     OW24683   0.888  10.824   8.643
 8220SOL    HW124684   0.865  10.799   8.549
 8220SOL    HW224685   0.949  10.755   8.682
 8221SOL     OW24686   1.351   9.900   8.881
 8221SOL    HW124687   1.379   9.857   8.966
 8221SOL    HW224688   1.376   9.996   8.882
 8222SOL     OW24689   0.803  10.712   8.372
 8222SOL    HW124690   0.893  10.726   8.330
 8222SOL    HW224691   0.732  10.714   8.301
 8223SOL     OW24692   0.922   9.813   8.347
 8223SOL    HW124693   0.897   9.804   8.251
 8223SOL    HW224694   0.970   9.731   8.378
 8224SOL     OW24695   0.539   9.374   7.960
 8224SOL    HW124696   0.458   9.375   8.018
 8224SOL    HW224697   0.542   9.457   7.905
 8225SOL     OW24698   1.434  10.498   7.489
 8225SOL    HW124699   1.466  10.422   7.546
 8225SOL    HW224700   1.342  10.525   7.519
 8226SOL     OW24701   0.297   9.345   7.619
 8226SOL    HW124702   0.346   9.429   7.598
 8226SOL    HW224703   0.359   9.280   7.664
 8227SOL     OW24704   0.935   9.546   7.928
 8227SOL    HW124705   0.887   9.587   7.850
 8227SOL    HW224706   1.034   9.544   7.909
 8228SOL     OW24707   1.076   9.993   8.912
 8228SOL    HW124708   0.996   9.932   8.915
 8228SOL    HW224709   1.157   9.940   8.888
 8229SOL     OW24710   1.227  10.880   8.241
 8229SOL    HW124711   1.248  10.954   8.176
 8229SOL    HW224712   1.295  10.880   8.314
 8230SOL     OW24713   0.459  10.462   8.189
 8230SOL    HW124714   0.388  10.435   8.254
 8230SOL    HW224715   0.433  10.434   8.096
 8231SOL     OW24716   1.271  11.107   8.039
 8231SOL    HW124717   1.315  11.171   7.975
 8231SOL    HW224718   1.221  11.159   8.109
 8232SOL     OW24719   1.032   9.859   7.464
 8232SOL    HW124720   0.991   9.941   7.425
 8232SOL    HW224721   1.096   9.885   7.537
 8233SOL     OW24722   0.078   9.866   8.834
 8233SOL    HW124723   0.170   9.865   8.793
 8233SOL    HW224724   0.072   9.940   8.901
 8234SOL     OW24725   0.561   9.532   8.595
 8234SOL    HW124726   0.599   9.448   8.632
 8234SOL    HW224727   0.473   9.551   8.639
 8235SOL     OW24728   0.866   9.764   8.090
 8235SOL    HW124729   0.834   9.836   8.028
 8235SOL    HW224730   0.890   9.683   8.037
 8236SOL     OW24731   1.017   9.349   8.201
 8236SOL    HW124732   0.945   9.354   8.132
 8236SOL    HW224733   0.993   9.280   8.270
 8237SOL     OW24734   1.429  10.483   8.315
 8237SOL    HW124735   1.374  10.399   8.308
 8237SOL    HW224736   1.455  10.512   8.223
 8238SOL     OW24737   1.466   9.900   8.440
 8238SOL    HW124738   1.436   9.805   8.447
 8238SOL    HW224739   1.539   9.916   8.506
 8239SOL     OW24740   1.857  10.143   7.825
 8239SOL    HW124741   1.899  10.079   7.889
 8239SOL    HW224742   1.819  10.092   7.747
 8240SOL     OW24743   0.488  10.695   7.622
 8240SOL    HW124744   0.401  10.680   7.669
 8240SOL    HW224745   0.471  10.721   7.527
 8241SOL     OW24746   1.664  10.590   8.105
 8241SOL    HW124747   1.763  10.598   8.119
 8241SOL    HW224748   1.619  10.674   8.136
 8242SOL     OW24749   1.390   9.885   7.526
 8242SOL    HW124750   1.336   9.864   7.607
 8242SOL    HW224751   1.481   9.844   7.535
 8243SOL     OW24752   0.527   9.566   7.776
 8243SOL    HW124753   0.554   9.507   7.701
 8243SOL    HW224754   0.527   9.661   7.745
 8244SOL     OW24755   1.754  10.533   9.036
 8244SOL    HW124756   1.845  10.494   9.023
 8244SOL    HW224757   1.762  10.629   9.060
 8245SOL     OW24758   1.064  10.657   8.788
 8245SOL    HW124759   0.984  10.634   8.843
 8245SOL    HW224760   1.147  10.631   8.837
 8246SOL     OW24761   1.592  10.939   9.073
 8246SOL    HW124762   1.619  10.973   8.983
 8246SOL    HW224763   1.671  10.901   9.119
 8247SOL     OW24764   1.111  10.505   8.548
 8247SOL    HW124765   1.071  10.549   8.629
 8247SOL    HW224766   1.070  10.542   8.465
 8248SOL     OW24767   1.638  10.409   8.527
 8248SOL    HW124768   1.643  10.490   8.586
 8248SOL    HW224769   1.552  10.411   8.476
 8249SOL     OW24770   0.915   9.399   8.850
 8249SOL    HW124771   0.940   9.379   8.755
 8249SOL    HW224772   0.987   9.455   8.892
 8250SOL     OW24773   0.980  10.426   9.167
 8250SOL    HW124774   0.881  10.432   9.177
 8250SOL    HW224775   1.003  10.346   9.111
 8251SOL     OW24776   0.705  10.360   7.816
 8251SOL    HW124777   0.691  10.367   7.915
 8251SOL    HW224778   0.789  10.309   7.798
 8252SOL     OW24779   0.410  10.123   8.699
 8252SOL    HW124780   0.496  10.135   8.749
 8252SOL    HW224781   0.368  10.036   8.726
 8253SOL     OW24782   1.274   9.696   8.710
 8253SOL    HW124783   1.295   9.770   8.774
 8253SOL    HW224784   1.185   9.713   8.667
 8254SOL     OW24785   0.064  10.874   8.779
 8254SOL    HW124786   0.018  10.956   8.745
 8254SOL    HW224787   0.162  10.893   8.788
 8255SOL     OW24788   0.367  10.410   7.949
 8255SOL    HW124789   0.360  10.493   7.893
 8255SOL    HW224790   0.371  10.330   7.889
 8256SOL     OW24791   0.566   9.847   8.313
 8256SOL    HW124792   0.578   9.913   8.239
 8256SOL    HW224793   0.612   9.881   8.396
 8257SOL     OW24794   1.252  10.658   7.836
 8257SOL    HW124795   1.302  10.735   7.876
 8257SOL    HW224796   1.157  10.660   7.868
 8258SOL     OW24797   1.272  10.755   8.590
 8258SOL    HW124798   1.319  10.768   8.677
 8258SOL    HW224799   1.206  10.681   8.599
 8259SOL     OW24800   1.582   9.949   7.920
 8259SOL    HW124801   1.551  10.010   7.993
 8259SOL    HW224802   1.632  10.001   7.851
 8260SOL     OW24803   0.354  10.820   8.777
 8260SOL    HW124804   0.333  10.776   8.690
 8260SOL    HW224805   0.451  10.846   8.780
 8261SOL     OW24806   0.402  10.061   9.046
 8261SOL    HW124807   0.470  10.116   8.999
 8261SOL    HW224808   0.442   9.973   9.073
 8262SOL     OW24809   1.587  10.089   9.118
 8262SOL    HW124810   1.495  10.127   9.113
 8262SOL    HW224811   1.647  10.136   9.053
 8263SOL     OW24812   1.013   9.415   9.218
 8263SOL    HW124813   1.019   9.500   9.166
 8263SOL    HW224814   1.045   9.339   9.161
 8264SOL     OW24815   0.504   9.360   9.188
 8264SOL    HW124816   0.462   9.303   9.118
 8264SOL    HW224817   0.438   9.429   9.220
 8265SOL     OW24818   0.573  10.180   8.477
 8265SOL    HW124819   0.617  10.269   8.468
 8265SOL    HW224820   0.510  10.180   8.554
 8266SOL     OW24821   1.360  10.172   8.493
 8266SOL    HW124822   1.285  10.172   8.427
 8266SOL    HW224823   1.397  10.080   8.502
 8267SOL     OW24824   1.209   9.835   7.723
 8267SOL    HW124825   1.222   9.751   7.777
 8267SOL    HW224826   1.180   9.909   7.783
 8268SOL     OW24827   0.307   9.523   8.679
 8268SOL    HW124828   0.284   9.560   8.769
 8268SOL    HW224829   0.277   9.428   8.673
 8269SOL     OW24830   0.037  10.620   8.730
 8269SOL    HW124831   0.090  10.571   8.798
 8269SOL    HW224832   0.059  10.718   8.735
 8270SOL     OW24833   0.732   9.944   8.512
 8270SOL    HW124834   0.791   9.918   8.436
 8270SOL    HW224835   0.704  10.040   8.501
 8271SOL     OW24836   1.728  10.245   9.302
 8271SOL    HW124837   1.682  10.238   9.213
 8271SOL    HW224838   1.666  10.289   9.368
 8272SOL     OW24839   0.307   9.373   8.066
 8272SOL    HW124840   0.296   9.467   8.099
 8272SOL    HW224841   0.302   9.310   8.143
 8273SOL     OW24842   1.622   9.677   7.822
 8273SOL    HW124843   1.624   9.601   7.886
 8273SOL    HW224844   1.574   9.754   7.862
 8274SOL     OW24845   1.023  10.076   8.414
 8274SOL    HW124846   1.038  10.097   8.510
 8274SOL    HW224847   0.993   9.981   8.405
 8275SOL     OW24848   0.980  10.883   9.148
 8275SOL    HW124849   0.960  10.927   9.060
 8275SOL    HW224850   1.019  10.792   9.132
 8276SOL     OW24851   1.859  10.828   9.053
 8276SOL    HW124852   1.873  10.855   8.958
 8276SOL    HW224853   1.942  10.850   9.106
 8277SOL     OW24854   0.350  10.208   9.252
 8277SOL    HW124855   0.426  10.252   9.300
 8277SOL    HW224856   0.385  10.161   9.170
 8278SOL     OW24857   1.540   9.584   7.573
 8278SOL    HW124858   1.479   9.509   7.596
 8278SOL    HW224859   1.562   9.636   7.656
 8279SOL     OW24860   1.303  10.148   7.490
 8279SOL    HW124861   1.337  10.055   7.505
 8279SOL    HW224862   1.321  10.175   7.395
 8280SOL     OW24863   1.068  10.643   8.297
 8280SOL    HW124864   1.075  10.559   8.242
 8280SOL    HW224865   1.130  10.712   8.261
 8281SOL     OW24866   0.319  10.120   8.397
 8281SOL    HW124867   0.412  10.156   8.402
 8281SOL    HW224868   0.313  10.035   8.449
 8282SOL     OW24869   0.339   9.819   8.454
 8282SOL    HW124870   0.287   9.736   8.437
 8282SOL    HW224871   0.416   9.824   8.390
 8283SOL     OW24872   1.138   9.690   9.126
 8283SOL    HW124873   1.093   9.753   9.190
 8283SOL    HW224874   1.231   9.721   9.109
 8284SOL     OW24875   1.160   9.517   8.925
 8284SOL    HW124876   1.160   9.581   9.002
 8284SOL    HW224877   1.188   9.565   8.842
 8285SOL     OW24878   0.008  10.636   7.648
 8285SOL    HW124879  -0.085  10.657   7.617
 8285SOL    HW224880   0.018  10.537   7.661
 8286SOL     OW24881   0.088  11.111   8.375
 8286SOL    HW124882   0.046  11.025   8.348
 8286SOL    HW224883   0.182  11.114   8.341
 8287SOL     OW24884   0.504  10.878   8.358
 8287SOL    HW124885   0.570  10.952   8.367
 8287SOL    HW224886   0.548  10.799   8.316
 8288SOL     OW24887   1.002  10.106   8.686
 8288SOL    HW124888   1.043  10.074   8.772
 8288SOL    HW224889   0.906  10.079   8.683
 8289SOL     OW24890   0.040   9.854   8.562
 8289SOL    HW124891   0.125   9.821   8.521
 8289SOL    HW224892   0.053   9.869   8.660
 8290SOL     OW24893   0.189   9.830   9.170
 8290SOL    HW124894   0.248   9.790   9.100
 8290SOL    HW224895   0.131   9.901   9.129
 8291SOL     OW24896   1.369  10.260   9.108
 8291SOL    HW124897   1.408  10.349   9.128
 8291SOL    HW224898   1.379  10.240   9.011
 8292SOL     OW24899   0.815   9.882   7.773
 8292SOL    HW124900   0.822   9.793   7.727
 8292SOL    HW224901   0.721   9.916   7.765
 8293SOL     OW24902   1.657   9.914   8.654
 8293SOL    HW124903   1.619   9.845   8.716
 8293SOL    HW224904   1.739   9.878   8.610
 8294SOL     OW24905   0.252  10.874   9.192
 8294SOL    HW124906   0.222  10.931   9.268
 8294SOL    HW224907   0.245  10.777   9.218
 8295SOL     OW24908   0.671   9.774   8.717
 8295SOL    HW124909   0.637   9.685   8.687
 8295SOL    HW224910   0.697   9.828   8.637
 8296SOL     OW24911   0.930  10.988   8.913
 8296SOL    HW124912   0.906  10.970   8.818
 8296SOL    HW224913   0.960  11.082   8.923
 8297SOL     OW24914   0.473   9.810   7.639
 8297SOL    HW124915   0.534   9.890   7.643
 8297SOL    HW224916   0.378   9.841   7.646
 8298SOL     OW24917   0.159  10.447   8.914
 8298SOL    HW124918   0.181  10.386   8.990
 8298SOL    HW224919   0.169  10.398   8.828
 8299SOL     OW24920   1.347  10.369   8.682
 8299SOL    HW124921   1.371  10.306   8.608
 8299SOL    HW224922   1.257  10.409   8.664
 8300SOL     OW24923   1.302  10.165   7.757
 8300SOL    HW124924   1.216  10.134   7.799
 8300SOL    HW224925   1.298  10.151   7.658
 8301SOL     OW24926   1.759  11.057   8.602
 8301SOL    HW124927   1.820  11.087   8.529
 8301SOL    HW224928   1.721  10.968   8.580
 8302SOL     OW24929   1.252  11.041   8.576
 8302SOL    HW124930   1.336  11.046   8.522
 8302SOL    HW224931   1.229  10.945   8.594
 8303SOL     OW24932   0.083  10.568   8.470
 8303SOL    HW124933   0.078  10.567   8.570
 8303SOL    HW224934   0.000  10.527   8.432
 8304SOL     OW24935   0.688  10.972   9.164
 8304SOL    HW124936   0.632  11.053   9.173
 8304SOL    HW224937   0.740  10.976   9.078
 8305SOL     OW24938   1.726   9.445   7.971
 8305SOL    HW124939   1.799   9.428   7.904
 8305SOL    HW224940   1.695   9.358   8.009
 8306SOL     OW24941   1.388  10.883   7.925
 8306SOL    HW124942   1.455  10.895   7.851
 8306SOL    HW224943   1.348  10.972   7.948
 8307SOL     OW24944   0.130  11.104   9.299
 8307SOL    HW124945   0.089  11.030   9.352
 8307SOL    HW224946   0.194  11.155   9.357
 8308SOL     OW24947   1.280  10.237   8.120
 8308SOL    HW124948   1.340  10.156   8.122
 8308SOL    HW224949   1.320  10.306   8.060
 8309SOL     OW24950   0.830  10.583   8.870
 8309SOL    HW124951   0.825  10.616   8.965
 8309SOL    HW224952   0.744  10.602   8.824
 8310SOL     OW24953   0.672  10.926   7.602
 8310SOL    HW124954   0.681  10.936   7.503
 8310SOL    HW224955   0.632  10.837   7.623
 8311SOL     OW24956   1.650  11.030   8.842
 8311SOL    HW124957   1.703  11.040   8.758
 8311SOL    HW224958   1.623  11.120   8.876
 8312SOL     OW24959   1.841   9.485   8.411
 8312SOL    HW124960   1.880   9.400   8.375
 8312SOL    HW224961   1.743   9.487   8.392
 8313SOL     OW24962   0.263   9.636   8.168
 8313SOL    HW124963   0.184   9.687   8.134
 8313SOL    HW224964   0.254   9.621   8.266
 8314SOL     OW24965   1.194  10.922   7.479
 8314SOL    HW124966   1.200  10.829   7.516
 8314SOL    HW224967   1.135  10.922   7.399
 8315SOL     OW24968   0.822  10.312   8.820
 8315SOL    HW124969   0.862  10.311   8.728
 8315SOL    HW224970   0.832  10.404   8.860
 8316SOL     OW24971   0.916  10.220   7.739
 8316SOL    HW124972   0.979  10.258   7.671
 8316SOL    HW224973   0.956  10.137   7.778
 8317SOL     OW24974   1.504  10.917   7.492
 8317SOL    HW124975   1.412  10.954   7.499
 8317SOL    HW224976   1.542  10.937   7.402
 8318SOL     OW24977   0.372  10.598   8.938
 8318SOL    HW124978   0.359  10.691   8.904
 8318SOL    HW224979   0.288  10.546   8.925
 8319SOL     OW24980   1.614  10.602   8.737
 8319SOL    HW124981   1.674  10.605   8.817
 8319SOL    HW224982   1.539  10.666   8.750
 8320SOL     OW24983   1.039  10.408   8.144
 8320SOL    HW124984   0.969  10.361   8.198
 8320SOL    HW224985   1.098  10.340   8.101
 8321SOL     OW24986   1.014   9.546   8.419
 8321SOL    HW124987   1.006   9.510   8.326
 8321SOL    HW224988   1.012   9.470   8.484
 8322SOL     OW24989   0.590  10.797   7.939
 8322SOL    HW124990   0.632  10.739   7.869
 8322SOL    HW224991   0.546  10.876   7.895
 8323SOL     OW24992   1.709   9.695   8.829
 8323SOL    HW124993   1.782   9.764   8.833
 8323SOL    HW224994   1.737   9.620   8.770
 8324SOL     OW24995   0.255  10.658   7.738
 8324SOL    HW124996   0.159  10.659   7.711
 8324SOL    HW224997   0.267  10.711   7.822
 8325SOL     OW24998   0.105  10.323   9.174
 8325SOL    HW124999   0.028  10.290   9.228
 8325SOL    HW225000   0.190  10.293   9.216
 8326SOL     OW25001   0.672   9.513   8.937
 8326SOL    HW125002   0.762   9.497   8.897
 8326SOL    HW225003   0.680   9.518   9.036
 8327SOL     OW25004   0.075   9.655   7.481
 8327SOL    HW125005  -0.017   9.627   7.452
 8327SOL    HW225006   0.106   9.732   7.425
 8328SOL     OW25007   1.440  10.166   8.846
 8328SOL    HW125008   1.383  10.218   8.783
 8328SOL    HW225009   1.536  10.178   8.822
 8329SOL     OW25010   0.072   9.476   7.766
 8329SOL    HW125011   0.055   9.559   7.712
 8329SOL    HW225012   0.162   9.439   7.744
 8330SOL     OW25013   1.183  10.645   7.567
 8330SOL    HW125014   1.084  10.634   7.569
 8330SOL    HW225015   1.217  10.660   7.660
 8331SOL     OW25016   0.613  10.152   8.879
 8331SOL    HW125017   0.669  10.233   8.862
 8331SOL    HW225018   0.672  10.072   8.882
 8332SOL     OW25019   1.493  11.077   8.407
 8332SOL    HW125020   1.526  11.141   8.338
 8332SOL    HW225021   1.559  11.071   8.482
 8333SOL     OW25022   0.716   9.875   9.156
 8333SOL    HW125023   0.735   9.940   9.230
 8333SOL    HW225024   0.776   9.795   9.165
 8334SOL     OW25025   1.450  10.530   9.081
 8334SOL    HW125026   1.441  10.520   9.180
 8334SOL    HW225027   1.546  10.523   9.055
 8335SOL     OW25028   0.390  11.051   9.008
 8335SOL    HW125029   0.299  11.092   9.006
 8335SOL    HW225030   0.383  10.957   9.040
 8336SOL     OW25031   1.674  10.193   8.702
 8336SOL    HW125032   1.647  10.104   8.665
 8336SOL    HW225033   1.675  10.261   8.629
 8337SOL     OW25034   1.225   9.635   7.897
 8337SOL    HW125035   1.290   9.561   7.886
 8337SOL    HW225036   1.245   9.685   7.981
 8338SOL     OW25037   0.594  10.055   8.100
 8338SOL    HW125038   0.644  10.140   8.081
 8338SOL    HW225039   0.506  10.057   8.052
 8339SOL     OW25040   1.777   9.652   9.090
 8339SOL    HW125041   1.760   9.683   8.996
 8339SOL    HW225042   1.693   9.615   9.128
 8340SOL     OW25043   1.730  10.244   8.965
 8340SOL    HW125044   1.768  10.335   8.980
 8340SOL    HW225045   1.722  10.227   8.866
 8341SOL     OW25046   0.859  10.684   7.464
 8341SOL    HW125047   0.813  10.699   7.552
 8341SOL    HW225048   0.903  10.769   7.434
 8342SOL     OW25049   0.661  11.100   8.401
 8342SOL    HW125050   0.615  11.188   8.388
 8342SOL    HW225051   0.760  11.112   8.394
 8343SOL     OW25052   0.859  10.266   8.309
 8343SOL    HW125053   0.913  10.197   8.357
 8343SOL    HW225054   0.827  10.335   8.375
 8344SOL     OW25055   1.083  10.294   7.535
 8344SOL    HW125056   1.060  10.347   7.453
 8344SOL    HW225057   1.164  10.238   7.516
 8345SOL     OW25058   1.861  10.879   8.299
 8345SOL    HW125059   1.790  10.867   8.229
 8345SOL    HW225060   1.862  10.800   8.359
 8346SOL     OW25061   0.221  10.624   9.292
 8346SOL    HW125062   0.156  10.551   9.271
 8346SOL    HW225063   0.225  10.638   9.390
 8347SOL     OW25064   0.079  10.550   8.101
 8347SOL    HW125065   0.078  10.503   8.189
 8347SOL    HW225066   0.161  10.522   8.050
 8348SOL     OW25067   0.672  10.701   9.072
 8348SOL    HW125068   0.594  10.651   9.110
 8348SOL    HW225069   0.669  10.796   9.103
 8349SOL     OW25070   1.824   9.502   8.675
 8349SOL    HW125071   1.820   9.412   8.719
 8349SOL    HW225072   1.827   9.491   8.576
 8350SOL     OW25073   0.428   9.734   7.968
 8350SOL    HW125074   0.458   9.662   7.906
 8350SOL    HW225075   0.389   9.694   8.051
 8351SOL     OW25076   1.705  10.797   8.552
 8351SOL    HW125077   1.612  10.772   8.525
 8351SOL    HW225078   1.731  10.747   8.634
 8352SOL     OW25079   0.317   9.857   8.728
 8352SOL    HW125080   0.355   9.798   8.800
 8352SOL    HW225081   0.357   9.831   8.640
 8353SOL     OW25082   0.812  10.896   8.135
 8353SOL    HW125083   0.844  10.906   8.041
 8353SOL    HW225084   0.733  10.834   8.137
 8354SOL     OW25085   1.424   9.524   8.560
 8354SOL    HW125086   1.476   9.459   8.615
 8354SOL    HW225087   1.375   9.587   8.621
 8355SOL     OW25088   1.001   9.344   8.602
 8355SOL    HW125089   0.938   9.272   8.571
 8355SOL    HW225090   1.094   9.308   8.602
 8356SOL     OW25091   0.770  10.640   7.749
 8356SOL    HW125092   0.724  10.553   7.766
 8356SOL    HW225093   0.861  10.637   7.790
 8357SOL     OW25094   0.618  10.877   8.732
 8357SOL    HW125095   0.613  10.959   8.789
 8357SOL    HW225096   0.707  10.874   8.687
 8358SOL     OW25097   1.352   9.362   7.616
 8358SOL    HW125098   1.387   9.321   7.532
 8358SOL    HW225099   1.262   9.324   7.636
 8359SOL     OW25100   1.300   9.763   8.139
 8359SOL    HW125101   1.241   9.843   8.143
 8359SOL    HW225102   1.315   9.728   8.232
 8360SOL     OW25103   1.593   9.531   8.330
 8360SOL    HW125104   1.509   9.530   8.384
 8360SOL    HW225105   1.595   9.614   8.274
 8361SOL     OW25106   0.039  10.387   7.748
 8361SOL    HW125107   0.138  10.376   7.739
 8361SOL    HW225108  -0.001  10.301   7.780
 8362SOL     OW25109   0.875  10.956   7.785
 8362SOL    HW125110   0.798  10.921   7.731
 8362SOL    HW225111   0.843  11.027   7.847
 8363SOL     OW25112   0.230   9.938   9.423
 8363SOL    HW125113   0.137   9.936   9.460
 8363SOL    HW225114   0.231   9.899   9.331
 8364SOL     OW25115   0.225   9.585  10.306
 8364SOL    HW125116   0.260   9.568  10.398
 8364SOL    HW225117   0.137   9.540  10.294
 8365SOL     OW25118   0.019   9.678   9.957
 8365SOL    HW125119  -0.063   9.721   9.996
 8365SOL    HW225120  -0.009   9.605   9.894
 8366SOL     OW25121   0.569  10.585  10.475
 8366SOL    HW125122   0.476  10.578  10.438
 8366SOL    HW225123   0.580  10.674  10.519
 8367SOL     OW25124   1.555  10.821  10.013
 8367SOL    HW125125   1.498  10.805  10.094
 8367SOL    HW225126   1.496  10.831   9.933
 8368SOL     OW25127   1.135  10.013  10.027
 8368SOL    HW125128   1.192  10.091  10.002
 8368SOL    HW225129   1.075  10.039  10.103
 8369SOL     OW25130   1.755   9.917   9.541
 8369SOL    HW125131   1.743   9.904   9.442
 8369SOL    HW225132   1.725   9.836   9.590
 8370SOL     OW25133   0.768  10.454  10.333
 8370SOL    HW125134   0.690  10.471  10.393
 8370SOL    HW225135   0.802  10.541  10.297
 8371SOL     OW25136   0.850  10.108  11.133
 8371SOL    HW125137   0.846  10.184  11.198
 8371SOL    HW225138   0.872  10.144  11.042
 8372SOL     OW25139   0.685  10.322   9.975
 8372SOL    HW125140   0.754  10.306  10.045
 8372SOL    HW225141   0.612  10.379  10.013
 8373SOL     OW25142   0.686  10.471  11.113
 8373SOL    HW125143   0.746  10.550  11.127
 8373SOL    HW225144   0.600  10.502  11.072
 8374SOL     OW25145   0.335  10.745  10.371
 8374SOL    HW125146   0.257  10.714  10.318
 8374SOL    HW225147   0.393  10.803  10.314
 8375SOL     OW25148   1.460  10.815  10.649
 8375SOL    HW125149   1.484  10.909  10.675
 8375SOL    HW225150   1.444  10.761  10.731
 8376SOL     OW25151   0.438   9.702  10.809
 8376SOL    HW125152   0.520   9.646  10.818
 8376SOL    HW225153   0.357   9.644  10.813
 8377SOL     OW25154   1.603   9.757  10.047
 8377SOL    HW125155   1.529   9.803   9.997
 8377SOL    HW225156   1.654   9.825  10.100
 8378SOL     OW25157   0.231  11.023   9.793
 8378SOL    HW125158   0.265  11.100   9.847
 8378SOL    HW225159   0.275  11.023   9.703
 8379SOL     OW25160   1.127  10.651  11.000
 8379SOL    HW125161   1.174  10.651  11.088
 8379SOL    HW225162   1.079  10.564  10.989
 8380SOL     OW25163   0.230  10.744   9.848
 8380SOL    HW125164   0.204  10.840   9.848
 8380SOL    HW225165   0.159  10.690   9.893
 8381SOL     OW25166   0.240  10.401  10.196
 8381SOL    HW125167   0.254  10.317  10.248
 8381SOL    HW225168   0.185  10.465  10.251
 8382SOL     OW25169   0.620  11.096  10.749
 8382SOL    HW125170   0.528  11.079  10.784
 8382SOL    HW225171   0.648  11.188  10.775
 8383SOL     OW25172   0.606  10.274   9.433
 8383SOL    HW125173   0.613  10.358   9.379
 8383SOL    HW225174   0.652  10.287   9.521
 8384SOL     OW25175   1.594   9.424  10.790
 8384SOL    HW125176   1.576   9.491  10.718
 8384SOL    HW225177   1.591   9.470  10.879
 8385SOL     OW25178   0.122   9.953   9.873
 8385SOL    HW125179   0.077   9.865   9.890
 8385SOL    HW225180   0.121  10.007   9.957
 8386SOL     OW25181   1.842  11.077   9.669
 8386SOL    HW125182   1.896  11.048   9.749
 8386SOL    HW225183   1.872  11.167   9.640
 8387SOL     OW25184   0.027  10.906   9.427
 8387SOL    HW125185   0.008  10.810   9.448
 8387SOL    HW225186  -0.006  10.964   9.502
 8388SOL     OW25187   1.689  10.232   9.922
 8388SOL    HW125188   1.784  10.203   9.930
 8388SOL    HW225189   1.681  10.297   9.847
 8389SOL     OW25190   1.641  10.418   9.742
 8389SOL    HW125191   1.727  10.420   9.690
 8389SOL    HW225192   1.655  10.465   9.830
 8390SOL     OW25193   0.113  10.047  10.907
 8390SOL    HW125194   0.201  10.034  10.952
 8390SOL    HW225195   0.100  10.144  10.885
 8391SOL     OW25196   0.613  10.675  10.036
 8391SOL    HW125197   0.564  10.588  10.045
 8391SOL    HW225198   0.590  10.718   9.949
 8392SOL     OW25199   1.293  10.538  10.733
 8392SOL    HW125200   1.330  10.465  10.675
 8392SOL    HW225201   1.345  10.543  10.818
 8393SOL     OW25202   0.809   9.314   9.812
 8393SOL    HW125203   0.849   9.405   9.803
 8393SOL    HW225204   0.709   9.322   9.818
 8394SOL     OW25205   0.197  10.286  10.574
 8394SOL    HW125206   0.286  10.241  10.560
 8394SOL    HW225207   0.124  10.221  10.555
 8395SOL     OW25208   1.525  10.309   9.500
 8395SOL    HW125209   1.462  10.233   9.513
 8395SOL    HW225210   1.573  10.327   9.586
 8396SOL     OW25211   1.187  11.102  10.926
 8396SOL    HW125212   1.211  11.162  10.850
 8396SOL    HW225213   1.194  11.007  10.896
 8397SOL     OW25214   0.317   9.561  11.111
 8397SOL    HW125215   0.388   9.632  11.117
 8397SOL    HW225216   0.229   9.600  11.139
 8398SOL     OW25217   1.466  10.727  10.263
 8398SOL    HW125218   1.407  10.733  10.343
 8398SOL    HW225219   1.451  10.639  10.217
 8399SOL     OW25220   1.667  11.024   9.882
 8399SOL    HW125221   1.626  11.001   9.794
 8399SOL    HW225222   1.649  10.950   9.947
 8400SOL     OW25223   0.598  10.039   9.580
 8400SOL    HW125224   0.622  10.108   9.512
 8400SOL    HW225225   0.520  10.072   9.634
 8401SOL     OW25226   1.281   9.655  10.254
 8401SOL    HW125227   1.195   9.605  10.241
 8401SOL    HW225228   1.343   9.601  10.310
 8402SOL     OW25229   1.576  10.972   9.617
 8402SOL    HW125230   1.665  11.018   9.620
 8402SOL    HW225231   1.555  10.948   9.522
 8403SOL     OW25232   0.807   9.915  10.775
 8403SOL    HW125233   0.760   9.912  10.864
 8403SOL    HW225234   0.756   9.860  10.709
 8404SOL     OW25235   1.394   9.779  10.984
 8404SOL    HW125236   1.374   9.822  11.072
 8404SOL    HW225237   1.472   9.717  10.993
 8405SOL     OW25238   0.973  10.200  10.882
 8405SOL    HW125239   1.019  10.116  10.853
 8405SOL    HW225240   0.917  10.234  10.807
 8406SOL     OW25241   0.991   9.720  10.552
 8406SOL    HW125242   0.914   9.754  10.606
 8406SOL    HW225243   0.957   9.669  10.473
 8407SOL     OW25244   1.041  10.011   9.739
 8407SOL    HW125245   1.067  10.007   9.835
 8407SOL    HW225246   0.956   9.960   9.725
 8408SOL     OW25247   0.076  10.121  10.099
 8408SOL    HW125248   0.175  10.109  10.108
 8408SOL    HW225249   0.052  10.216  10.120
 8409SOL     OW25250   0.130  11.131  10.881
 8409SOL    HW125251   0.120  11.116  10.980
 8409SOL    HW225252   0.044  11.167  10.845
 8410SOL     OW25253   0.865   9.658   9.505
 8410SOL    HW125254   0.924   9.721   9.456
 8410SOL    HW225255   0.884   9.564   9.476
 8411SOL     OW25256   1.719   9.895  11.141
 8411SOL    HW125257   1.693   9.984  11.105
 8411SOL    HW225258   1.717   9.827  11.068
 8412SOL     OW25259   1.362  10.454   9.855
 8412SOL    HW125260   1.445  10.425   9.807
 8412SOL    HW225261   1.313  10.521   9.799
 8413SOL     OW25262   0.550   9.506  10.195
 8413SOL    HW125263   0.545   9.501  10.295
 8413SOL    HW225264   0.552   9.602  10.166
 8414SOL     OW25265   1.008  10.766   9.787
 8414SOL    HW125266   0.962  10.838   9.735
 8414SOL    HW225267   1.004  10.786   9.885
 8415SOL     OW25268   0.351  11.111  10.163
 8415SOL    HW125269   0.401  11.025  10.169
 8415SOL    HW225270   0.416  11.188  10.160
 8416SOL     OW25271   1.795  10.376  10.183
 8416SOL    HW125272   1.733  10.361  10.107
 8416SOL    HW225273   1.743  10.387  10.268
 8417SOL     OW25274   1.227  10.860  10.816
 8417SOL    HW125275   1.233  10.783  10.880
 8417SOL    HW225276   1.175  10.834  10.736
 8418SOL     OW25277   0.321  10.253   9.552
 8418SOL    HW125278   0.403  10.292   9.510
 8418SOL    HW225279   0.294  10.171   9.503
 8419SOL     OW25280   1.458  10.045  10.038
 8419SOL    HW125281   1.453   9.980  10.113
 8419SOL    HW225282   1.538  10.104  10.051
 8420SOL     OW25283   0.461  10.576  11.037
 8420SOL    HW125284   0.411  10.577  10.951
 8420SOL    HW225285   0.398  10.558  11.113
 8421SOL     OW25286   1.111  11.086   9.547
 8421SOL    HW125287   1.051  11.024   9.597
 8421SOL    HW225288   1.142  11.042   9.462
 8422SOL     OW25289   0.202   9.595  10.808
 8422SOL    HW125290   0.122   9.655  10.795
 8422SOL    HW225291   0.192   9.546  10.894
 8423SOL     OW25292   1.632  10.687   9.391
 8423SOL    HW125293   1.600  10.781   9.381
 8423SOL    HW225294   1.556  10.624   9.379
 8424SOL     OW25295   0.464  11.053   9.633
 8424SOL    HW125296   0.497  11.092   9.719
 8424SOL    HW225297   0.540  11.046   9.568
 8425SOL     OW25298   1.400   9.417   9.736
 8425SOL    HW125299   1.376   9.380   9.646
 8425SOL    HW225300   1.499   9.433   9.740
 8426SOL     OW25301   0.249  11.095  10.551
 8426SOL    HW125302   0.306  11.030  10.601
 8426SOL    HW225303   0.233  11.062  10.458
 8427SOL     OW25304   0.940  11.008  10.214
 8427SOL    HW125305   1.020  10.951  10.235
 8427SOL    HW225306   0.891  10.968  10.137
 8428SOL     OW25307   0.382  10.010   9.790
 8428SOL    HW125308   0.427   9.920   9.787
 8428SOL    HW225309   0.288   9.999   9.823
 8429SOL     OW25310   1.547   9.532  11.039
 8429SOL    HW125311   1.542   9.569  11.131
 8429SOL    HW225312   1.475   9.463  11.027
 8430SOL     OW25313   0.614   9.432   9.427
 8430SOL    HW125314   0.712   9.410   9.434
 8430SOL    HW225315   0.583   9.415   9.334
 8431SOL     OW25316   0.781   9.574  11.059
 8431SOL    HW125317   0.848   9.513  11.102
 8431SOL    HW225318   0.708   9.593  11.124
 8432SOL     OW25319   0.888  10.824  10.505
 8432SOL    HW125320   0.865  10.799  10.411
 8432SOL    HW225321   0.949  10.755  10.544
 8433SOL     OW25322   1.351   9.900  10.743
 8433SOL    HW125323   1.379   9.857  10.828
 8433SOL    HW225324   1.376   9.996  10.744
 8434SOL     OW25325   0.803  10.712  10.234
 8434SOL    HW125326   0.893  10.726  10.192
 8434SOL    HW225327   0.732  10.714  10.163
 8435SOL     OW25328   0.922   9.813  10.209
 8435SOL    HW125329   0.897   9.804  10.113
 8435SOL    HW225330   0.970   9.731  10.240
 8436SOL     OW25331   0.539   9.374   9.822
 8436SOL    HW125332   0.458   9.375   9.880
 8436SOL    HW225333   0.542   9.457   9.767
 8437SOL     OW25334   1.434  10.498   9.351
 8437SOL    HW125335   1.466  10.422   9.408
 8437SOL    HW225336   1.342  10.525   9.381
 8438SOL     OW25337   0.297   9.345   9.481
 8438SOL    HW125338   0.346   9.429   9.460
 8438SOL    HW225339   0.359   9.280   9.526
 8439SOL     OW25340   0.935   9.546   9.790
 8439SOL    HW125341   0.887   9.587   9.712
 8439SOL    HW225342   1.034   9.544   9.771
 8440SOL     OW25343   1.076   9.993  10.774
 8440SOL    HW125344   0.996   9.932  10.777
 8440SOL    HW225345   1.157   9.940  10.750
 8441SOL     OW25346   1.227  10.880  10.103
 8441SOL    HW125347   1.248  10.954  10.038
 8441SOL    HW225348   1.295  10.880  10.176
 8442SOL     OW25349   0.459  10.462  10.051
 8442SOL    HW125350   0.388  10.435  10.116
 8442SOL    HW225351   0.433  10.434   9.958
 8443SOL     OW25352   1.271  11.107   9.901
 8443SOL    HW125353   1.315  11.171   9.837
 8443SOL    HW225354   1.221  11.159   9.971
 8444SOL     OW25355   1.032   9.859   9.326
 8444SOL    HW125356   0.991   9.941   9.287
 8444SOL    HW225357   1.096   9.885   9.399
 8445SOL     OW25358   0.078   9.866  10.696
 8445SOL    HW125359   0.170   9.865  10.655
 8445SOL    HW225360   0.072   9.940  10.763
 8446SOL     OW25361   0.561   9.532  10.457
 8446SOL    HW125362   0.599   9.448  10.494
 8446SOL    HW225363   0.473   9.551  10.501
 8447SOL     OW25364   0.866   9.764   9.952
 8447SOL    HW125365   0.834   9.836   9.890
 8447SOL    HW225366   0.890   9.683   9.899
 8448SOL     OW25367   1.017   9.349  10.063
 8448SOL    HW125368   0.945   9.354   9.994
 8448SOL    HW225369   0.993   9.280  10.132
 8449SOL     OW25370   1.429  10.483  10.177
 8449SOL    HW125371   1.374  10.399  10.170
 8449SOL    HW225372   1.455  10.512  10.085
 8450SOL     OW25373   1.466   9.900  10.302
 8450SOL    HW125374   1.436   9.805  10.309
 8450SOL    HW225375   1.539   9.916  10.368
 8451SOL     OW25376   1.857  10.143   9.687
 8451SOL    HW125377   1.899  10.079   9.751
 8451SOL    HW225378   1.819  10.092   9.609
 8452SOL     OW25379   0.488  10.695   9.484
 8452SOL    HW125380   0.401  10.680   9.531
 8452SOL    HW225381   0.471  10.721   9.389
 8453SOL     OW25382   1.664  10.590   9.967
 8453SOL    HW125383   1.763  10.598   9.981
 8453SOL    HW225384   1.619  10.674   9.998
 8454SOL     OW25385   1.390   9.885   9.388
 8454SOL    HW125386   1.336   9.864   9.469
 8454SOL    HW225387   1.481   9.844   9.397
 8455SOL     OW25388   0.527   9.566   9.638
 8455SOL    HW125389   0.554   9.507   9.563
 8455SOL    HW225390   0.527   9.661   9.607
 8456SOL     OW25391   1.754  10.533  10.898
 8456SOL    HW125392   1.845  10.494  10.885
 8456SOL    HW225393   1.762  10.629  10.922
 8457SOL     OW25394   1.064  10.657  10.650
 8457SOL    HW125395   0.984  10.634  10.705
 8457SOL    HW225396   1.147  10.631  10.699
 8458SOL     OW25397   1.592  10.939  10.935
 8458SOL    HW125398   1.619  10.973  10.845
 8458SOL    HW225399   1.671  10.901  10.981
 8459SOL     OW25400   1.111  10.505  10.410
 8459SOL    HW125401   1.071  10.549  10.491
 8459SOL    HW225402   1.070  10.542  10.327
 8460SOL     OW25403   1.638  10.409  10.389
 8460SOL    HW125404   1.643  10.490  10.448
 8460SOL    HW225405   1.552  10.411  10.338
 8461SOL     OW25406   0.915   9.399  10.712
 8461SOL    HW125407   0.940   9.379  10.617
 8461SOL    HW225408   0.987   9.455  10.754
 8462SOL     OW25409   0.980  10.426  11.029
 8462SOL    HW125410   0.881  10.432  11.039
 8462SOL    HW225411   1.003  10.346  10.973
 8463SOL     OW25412   0.705  10.360   9.678
 8463SOL    HW125413   0.691  10.367   9.777
 8463SOL    HW225414   0.789  10.309   9.660
 8464SOL     OW25415   0.410  10.123  10.561
 8464SOL    HW125416   0.496  10.135  10.611
 8464SOL    HW225417   0.368  10.036  10.588
 8465SOL     OW25418   1.274   9.696  10.572
 8465SOL    HW125419   1.295   9.770  10.636
 8465SOL    HW225420   1.185   9.713  10.529
 8466SOL     OW25421   0.064  10.874  10.641
 8466SOL    HW125422   0.018  10.956  10.607
 8466SOL    HW225423   0.162  10.893  10.650
 8467SOL     OW25424   0.367  10.410   9.811
 8467SOL    HW125425   0.360  10.493   9.755
 8467SOL    HW225426   0.371  10.330   9.751
 8468SOL     OW25427   0.566   9.847  10.175
 8468SOL    HW125428   0.578   9.913  10.101
 8468SOL    HW225429   0.612   9.881  10.258
 8469SOL     OW25430   1.252  10.658   9.698
 8469SOL    HW125431   1.302  10.735   9.738
 8469SOL    HW225432   1.157  10.660   9.730
 8470SOL     OW25433   1.272  10.755  10.452
 8470SOL    HW125434   1.319  10.768  10.539
 8470SOL    HW225435   1.206  10.681  10.461
 8471SOL     OW25436   1.582   9.949   9.782
 8471SOL    HW125437   1.551  10.010   9.855
 8471SOL    HW225438   1.632  10.001   9.713
 8472SOL     OW25439   0.354  10.820  10.639
 8472SOL    HW125440   0.333  10.776  10.552
 8472SOL    HW225441   0.451  10.846  10.642
 8473SOL     OW25442   0.402  10.061  10.908
 8473SOL    HW125443   0.470  10.116  10.861
 8473SOL    HW225444   0.442   9.973  10.935
 8474SOL     OW25445   1.587  10.089  10.980
 8474SOL    HW125446   1.495  10.127  10.975
 8474SOL    HW225447   1.647  10.136  10.915
 8475SOL     OW25448   1.013   9.415  11.080
 8475SOL    HW125449   1.019   9.500  11.028
 8475SOL    HW225450   1.045   9.339  11.023
 8476SOL     OW25451   0.504   9.360  11.050
 8476SOL    HW125452   0.462   9.303  10.980
 8476SOL    HW225453   0.438   9.429  11.082
 8477SOL     OW25454   0.573  10.180  10.339
 8477SOL    HW125455   0.617  10.269  10.330
 8477SOL    HW225456   0.510  10.180  10.416
 8478SOL     OW25457   1.360  10.172  10.355
 8478SOL    HW125458   1.285  10.172  10.289
 8478SOL    HW225459   1.397  10.080  10.364
 8479SOL     OW25460   1.209   9.835   9.585
 8479SOL    HW125461   1.222   9.751   9.639
 8479SOL    HW225462   1.180   9.909   9.645
 8480SOL     OW25463   0.307   9.523  10.541
 8480SOL    HW125464   0.284   9.560  10.631
 8480SOL    HW225465   0.277   9.428  10.535
 8481SOL     OW25466   0.037  10.620  10.592
 8481SOL    HW125467   0.090  10.571  10.660
 8481SOL    HW225468   0.059  10.718  10.597
 8482SOL     OW25469   0.732   9.944  10.374
 8482SOL    HW125470   0.791   9.918  10.298
 8482SOL    HW225471   0.704  10.040  10.363
 8483SOL     OW25472   1.728  10.245  11.164
 8483SOL    HW125473   1.682  10.238  11.075
 8483SOL    HW225474   1.666  10.289  11.230
 8484SOL     OW25475   0.307   9.373   9.928
 8484SOL    HW125476   0.296   9.467   9.961
 8484SOL    HW225477   0.302   9.310  10.005
 8485SOL     OW25478   1.622   9.677   9.684
 8485SOL    HW125479   1.624   9.601   9.748
 8485SOL    HW225480   1.574   9.754   9.724
 8486SOL     OW25481   1.023  10.076  10.276
 8486SOL    HW125482   1.038  10.097  10.372
 8486SOL    HW225483   0.993   9.981  10.267
 8487SOL     OW25484   0.980  10.883  11.010
 8487SOL    HW125485   0.960  10.927  10.922
 8487SOL    HW225486   1.019  10.792  10.994
 8488SOL     OW25487   1.859  10.828  10.915
 8488SOL    HW125488   1.873  10.855  10.820
 8488SOL    HW225489   1.942  10.850  10.968
 8489SOL     OW25490   0.350  10.208  11.114
 8489SOL    HW125491   0.426  10.252  11.162
 8489SOL    HW225492   0.385  10.161  11.032
 8490SOL     OW25493   1.540   9.584   9.435
 8490SOL    HW125494   1.479   9.509   9.458
 8490SOL    HW225495   1.562   9.636   9.518
 8491SOL     OW25496   1.303  10.148   9.352
 8491SOL    HW125497   1.337  10.055   9.367
 8491SOL    HW225498   1.321  10.175   9.257
 8492SOL     OW25499   1.068  10.643  10.159
 8492SOL    HW125500   1.075  10.559  10.104
 8492SOL    HW225501   1.130  10.712  10.123
 8493SOL     OW25502   0.319  10.120  10.259
 8493SOL    HW125503   0.412  10.156  10.264
 8493SOL    HW225504   0.313  10.035  10.311
 8494SOL     OW25505   0.339   9.819  10.316
 8494SOL    HW125506   0.287   9.736  10.299
 8494SOL    HW225507   0.416   9.824  10.252
 8495SOL     OW25508   1.138   9.690  10.988
 8495SOL    HW125509   1.093   9.753  11.052
 8495SOL    HW225510   1.231   9.721  10.971
 8496SOL     OW25511   1.160   9.517  10.787
 8496SOL    HW125512   1.160   9.581  10.864
 8496SOL    HW225513   1.188   9.565  10.704
 8497SOL     OW25514   0.008  10.636   9.510
 8497SOL    HW125515  -0.085  10.657   9.479
 8497SOL    HW225516   0.018  10.537   9.523
 8498SOL     OW25517   0.088  11.111  10.237
 8498SOL    HW125518   0.046  11.025  10.210
 8498SOL    HW225519   0.182  11.114  10.203
 8499SOL     OW25520   0.504  10.878  10.220
 8499SOL    HW125521   0.570  10.952  10.229
 8499SOL    HW225522   0.548  10.799  10.178
 8500SOL     OW25523   1.002  10.106  10.548
 8500SOL    HW125524   1.043  10.074  10.634
 8500SOL    HW225525   0.906  10.079  10.545
 8501SOL     OW25526   0.040   9.854  10.424
 8501SOL    HW125527   0.125   9.821  10.383
 8501SOL    HW225528   0.053   9.869  10.522
 8502SOL     OW25529   0.189   9.830  11.032
 8502SOL    HW125530   0.248   9.790  10.962
 8502SOL    HW225531   0.131   9.901  10.991
 8503SOL     OW25532   1.369  10.260  10.970
 8503SOL    HW125533   1.408  10.349  10.990
 8503SOL    HW225534   1.379  10.240  10.873
 8504SOL     OW25535   0.815   9.882   9.635
 8504SOL    HW125536   0.822   9.793   9.589
 8504SOL    HW225537   0.721   9.916   9.627
 8505SOL     OW25538   1.657   9.914  10.516
 8505SOL    HW125539   1.619   9.845  10.578
 8505SOL    HW225540   1.739   9.878  10.472
 8506SOL     OW25541   0.252  10.874  11.054
 8506SOL    HW125542   0.222  10.931  11.130
 8506SOL    HW225543   0.245  10.777  11.080
 8507SOL     OW25544   0.671   9.774  10.579
 8507SOL    HW125545   0.637   9.685  10.549
 8507SOL    HW225546   0.697   9.828  10.499
 8508SOL     OW25547   0.930  10.988  10.775
 8508SOL    HW125548   0.906  10.970  10.680
 8508SOL    HW225549   0.960  11.082  10.785
 8509SOL     OW25550   0.473   9.810   9.501
 8509SOL    HW125551   0.534   9.890   9.505
 8509SOL    HW225552   0.378   9.841   9.508
 8510SOL     OW25553   0.159  10.447  10.776
 8510SOL    HW125554   0.181  10.386  10.852
 8510SOL    HW225555   0.169  10.398  10.690
 8511SOL     OW25556   1.347  10.369  10.544
 8511SOL    HW125557   1.371  10.306  10.470
 8511SOL    HW225558   1.257  10.409  10.526
 8512SOL     OW25559   1.302  10.165   9.619
 8512SOL    HW125560   1.216  10.134   9.661
 8512SOL    HW225561   1.298  10.151   9.520
 8513SOL     OW25562   1.759  11.057  10.464
 8513SOL    HW125563   1.820  11.087  10.391
 8513SOL    HW225564   1.721  10.968  10.442
 8514SOL     OW25565   1.252  11.041  10.438
 8514SOL    HW125566   1.336  11.046  10.384
 8514SOL    HW225567   1.229  10.945  10.456
 8515SOL     OW25568   0.083  10.568  10.332
 8515SOL    HW125569   0.078  10.567  10.432
 8515SOL    HW225570   0.000  10.527  10.294
 8516SOL     OW25571   0.688  10.972  11.026
 8516SOL    HW125572   0.632  11.053  11.035
 8516SOL    HW225573   0.740  10.976  10.940
 8517SOL     OW25574   1.726   9.445   9.833
 8517SOL    HW125575   1.799   9.428   9.766
 8517SOL    HW225576   1.695   9.358   9.871
 8518SOL     OW25577   1.388  10.883   9.787
 8518SOL    HW125578   1.455  10.895   9.713
 8518SOL    HW225579   1.348  10.972   9.810
 8519SOL     OW25580   0.130  11.104  11.161
 8519SOL    HW125581   0.089  11.030  11.214
 8519SOL    HW225582   0.194  11.155  11.219
 8520SOL     OW25583   1.280  10.237   9.982
 8520SOL    HW125584   1.340  10.156   9.984
 8520SOL    HW225585   1.320  10.306   9.922
 8521SOL     OW25586   0.830  10.583  10.732
 8521SOL    HW125587   0.825  10.616  10.827
 8521SOL    HW225588   0.744  10.602  10.686
 8522SOL     OW25589   0.672  10.926   9.464
 8522SOL    HW125590   0.681  10.936   9.365
 8522SOL    HW225591   0.632  10.837   9.485
 8523SOL     OW25592   1.650  11.030  10.704
 8523SOL    HW125593   1.703  11.040  10.620
 8523SOL    HW225594   1.623  11.120  10.738
 8524SOL     OW25595   1.841   9.485  10.273
 8524SOL    HW125596   1.880   9.400  10.237
 8524SOL    HW225597   1.743   9.487  10.254
 8525SOL     OW25598   0.263   9.636  10.030
 8525SOL    HW125599   0.184   9.687   9.996
 8525SOL    HW225600   0.254   9.621  10.128
 8526SOL     OW25601   1.194  10.922   9.341
 8526SOL    HW125602   1.200  10.829   9.378
 8526SOL    HW225603   1.135  10.922   9.261
 8527SOL     OW25604   0.822  10.312  10.682
 8527SOL    HW125605   0.862  10.311  10.590
 8527SOL    HW225606   0.832  10.404  10.722
 8528SOL     OW25607   0.916  10.220   9.601
 8528SOL    HW125608   0.979  10.258   9.533
 8528SOL    HW225609   0.956  10.137   9.640
 8529SOL     OW25610   1.504  10.917   9.354
 8529SOL    HW125611   1.412  10.954   9.361
 8529SOL    HW225612   1.542  10.937   9.264
 8530SOL     OW25613   0.372  10.598  10.800
 8530SOL    HW125614   0.359  10.691  10.766
 8530SOL    HW225615   0.288  10.546  10.787
 8531SOL     OW25616   1.614  10.602  10.599
 8531SOL    HW125617   1.674  10.605  10.679
 8531SOL    HW225618   1.539  10.666  10.612
 8532SOL     OW25619   1.039  10.408  10.006
 8532SOL    HW125620   0.969  10.361  10.060
 8532SOL    HW225621   1.098  10.340   9.963
 8533SOL     OW25622   1.014   9.546  10.281
 8533SOL    HW125623   1.006   9.510  10.188
 8533SOL    HW225624   1.012   9.470  10.346
 8534SOL     OW25625   0.590  10.797   9.801
 8534SOL    HW125626   0.632  10.739   9.731
 8534SOL    HW225627   0.546  10.876   9.757
 8535SOL     OW25628   1.709   9.695  10.691
 8535SOL    HW125629   1.782   9.764  10.695
 8535SOL    HW225630   1.737   9.620  10.632
 8536SOL     OW25631   0.255  10.658   9.600
 8536SOL    HW125632   0.159  10.659   9.573
 8536SOL    HW225633   0.267  10.711   9.684
 8537SOL     OW25634   0.105  10.323  11.036
 8537SOL    HW125635   0.028  10.290  11.090
 8537SOL    HW225636   0.190  10.293  11.078
 8538SOL     OW25637   0.672   9.513  10.799
 8538SOL    HW125638   0.762   9.497  10.759
 8538SOL    HW225639   0.680   9.518  10.898
 8539SOL     OW25640   0.075   9.655   9.343
 8539SOL    HW125641  -0.017   9.627   9.314
 8539SOL    HW225642   0.106   9.732   9.287
 8540SOL     OW25643   1.440  10.166  10.708
 8540SOL    HW125644   1.383  10.218  10.645
 8540SOL    HW225645   1.536  10.178  10.684
 8541SOL     OW25646   0.072   9.476   9.628
 8541SOL    HW125647   0.055   9.559   9.574
 8541SOL    HW225648   0.162   9.439   9.606
 8542SOL     OW25649   1.183  10.645   9.429
 8542SOL    HW125650   1.084  10.634   9.431
 8542SOL    HW225651   1.217  10.660   9.522
 8543SOL     OW25652   0.613  10.152  10.741
 8543SOL    HW125653   0.669  10.233  10.724
 8543SOL    HW225654   0.672  10.072  10.744
 8544SOL     OW25655   1.493  11.077  10.269
 8544SOL    HW125656   1.526  11.141  10.200
 8544SOL    HW225657   1.559  11.071  10.344
 8545SOL     OW25658   0.716   9.875  11.018
 8545SOL    HW125659   0.735   9.940  11.092
 8545SOL    HW225660   0.776   9.795  11.027
 8546SOL     OW25661   1.450  10.530  10.943
 8546SOL    HW125662   1.441  10.520  11.042
 8546SOL    HW225663   1.546  10.523  10.917
 8547SOL     OW25664   0.390  11.051  10.870
 8547SOL    HW125665   0.299  11.092  10.868
 8547SOL    HW225666   0.383  10.957  10.902
 8548SOL     OW25667   1.674  10.193  10.564
 8548SOL    HW125668   1.647  10.104  10.527
 8548SOL    HW225669   1.675  10.261  10.491
 8549SOL     OW25670   1.225   9.635   9.759
 8549SOL    HW125671   1.290   9.561   9.748
 8549SOL    HW225672   1.245   9.685   9.843
 8550SOL     OW25673   0.594  10.055   9.962
 8550SOL    HW125674   0.644  10.140   9.943
 8550SOL    HW225675   0.506  10.057   9.914
 8551SOL     OW25676   1.777   9.652  10.952
 8551SOL    HW125677   1.760   9.683  10.858
 8551SOL    HW225678   1.693   9.615  10.990
 8552SOL     OW25679   1.730  10.244  10.827
 8552SOL    HW125680   1.768  10.335  10.842
 8552SOL    HW225681   1.722  10.227  10.728
 8553SOL     OW25682   0.859  10.684   9.326
 8553SOL    HW125683   0.813  10.699   9.414
 8553SOL    HW225684   0.903  10.769   9.296
 8554SOL     OW25685   0.661  11.100  10.263
 8554SOL    HW125686   0.615  11.188  10.250
 8554SOL    HW225687   0.760  11.112  10.256
 8555SOL     OW25688   0.859  10.266  10.171
 8555SOL    HW125689   0.913  10.197  10.219
 8555SOL    HW225690   0.827  10.335  10.237
 8556SOL     OW25691   1.083  10.294   9.397
 8556SOL    HW125692   1.060  10.347   9.315
 8556SOL    HW225693   1.164  10.238   9.378
 8557SOL     OW25694   1.861  10.879  10.161
 8557SOL    HW125695   1.790  10.867  10.091
 8557SOL    HW225696   1.862  10.800  10.221
 8558SOL     OW25697   0.221  10.624  11.154
 8558SOL    HW125698   0.156  10.551  11.133
 8558SOL    HW225699   0.225  10.638  11.252
 8559SOL     OW25700   0.079  10.550   9.963
 8559SOL    HW125701   0.078  10.503  10.051
 8559SOL    HW225702   0.161  10.522   9.912
 8560SOL     OW25703   0.672  10.701  10.934
 8560SOL    HW125704   0.594  10.651  10.972
 8560SOL    HW225705   0.669  10.796  10.965
 8561SOL     OW25706   1.824   9.502  10.537
 8561SOL    HW125707   1.820   9.412  10.581
 8561SOL    HW225708   1.827   9.491  10.438
 8562SOL     OW25709   0.428   9.734   9.830
 8562SOL    HW125710   0.458   9.662   9.768
 8562SOL    HW225711   0.389   9.694   9.913
 8563SOL     OW25712   1.705  10.797  10.414
 8563SOL    HW125713   1.612  10.772  10.387
 8563SOL    HW225714   1.731  10.747  10.496
 8564SOL     OW25715   0.317   9.857  10.590
 8564SOL    HW125716   0.355   9.798  10.662
 8564SOL    HW225717   0.357   9.831  10.502
 8565SOL     OW25718   0.812  10.896   9.997
 8565SOL    HW125719   0.844  10.906   9.903
 8565SOL    HW225720   0.733  10.834   9.999
 8566SOL     OW25721   1.424   9.524  10.422
 8566SOL    HW125722   1.476   9.459  10.477
 8566SOL    HW225723   1.375   9.587  10.483
 8567SOL     OW25724   1.001   9.344  10.464
 8567SOL    HW125725   0.938   9.272  10.433
 8567SOL    HW225726   1.094   9.308  10.464
 8568SOL     OW25727   0.770  10.640   9.611
 8568SOL    HW125728   0.724  10.553   9.628
 8568SOL    HW225729   0.861  10.637   9.652
 8569SOL     OW25730   0.618  10.877  10.594
 8569SOL    HW125731   0.613  10.959  10.651
 8569SOL    HW225732   0.707  10.874  10.549
 8570SOL     OW25733   1.352   9.362   9.478
 8570SOL    HW125734   1.387   9.321   9.394
 8570SOL    HW225735   1.262   9.324   9.498
 8571SOL     OW25736   1.300   9.763  10.001
 8571SOL    HW125737   1.241   9.843  10.005
 8571SOL    HW225738   1.315   9.728  10.094
 8572SOL     OW25739   1.593   9.531  10.192
 8572SOL    HW125740   1.509   9.530  10.246
 8572SOL    HW225741   1.595   9.614  10.136
 8573SOL     OW25742   0.039  10.387   9.610
 8573SOL    HW125743   0.138  10.376   9.601
 8573SOL    HW225744  -0.001  10.301   9.642
 8574SOL     OW25745   0.875  10.956   9.647
 8574SOL    HW125746   0.798  10.921   9.593
 8574SOL    HW225747   0.843  11.027   9.709
 8575SOL     OW25748   0.230   9.938  11.285
 8575SOL    HW125749   0.137   9.936  11.322
 8575SOL    HW225750   0.231   9.899  11.193
 8576SOL     OW25751   0.225   9.585  12.168
 8576SOL    HW125752   0.260   9.568  12.260
 8576SOL    HW225753   0.137   9.540  12.156
 8577SOL     OW25754   0.019   9.678  11.819
 8577SOL    HW125755  -0.063   9.721  11.858
 8577SOL    HW225756  -0.009   9.605  11.756
 8578SOL     OW25757   0.569  10.585  12.337
 8578SOL    HW125758   0.476  10.578  12.300
 8578SOL    HW225759   0.580  10.674  12.381
 8579SOL     OW25760   1.555  10.821  11.875
 8579SOL    HW125761   1.498  10.805  11.956
 8579SOL    HW225762   1.496  10.831  11.795
 8580SOL     OW25763   1.135  10.013  11.889
 8580SOL    HW125764   1.192  10.091  11.864
 8580SOL    HW225765   1.075  10.039  11.965
 8581SOL     OW25766   1.755   9.917  11.403
 8581SOL    HW125767   1.743   9.904  11.304
 8581SOL    HW225768   1.725   9.836  11.452
 8582SOL     OW25769   0.768  10.454  12.195
 8582SOL    HW125770   0.690  10.471  12.255
 8582SOL    HW225771   0.802  10.541  12.159
 8583SOL     OW25772   0.685  10.322  11.837
 8583SOL    HW125773   0.754  10.306  11.907
 8583SOL    HW225774   0.612  10.379  11.875
 8584SOL     OW25775   0.335  10.745  12.233
 8584SOL    HW125776   0.257  10.714  12.180
 8584SOL    HW225777   0.393  10.803  12.176
 8585SOL     OW25778   1.460  10.815  12.511
 8585SOL    HW125779   1.484  10.909  12.537
 8585SOL    HW225780   1.444  10.761  12.593
 8586SOL     OW25781   0.438   9.702  12.671
 8586SOL    HW125782   0.520   9.646  12.680
 8586SOL    HW225783   0.357   9.644  12.675
 8587SOL     OW25784   1.603   9.757  11.909
 8587SOL    HW125785   1.529   9.803  11.859
 8587SOL    HW225786   1.654   9.825  11.962
 8588SOL     OW25787   0.231  11.023  11.655
 8588SOL    HW125788   0.265  11.100  11.709
 8588SOL    HW225789   0.275  11.023  11.565
 8589SOL     OW25790   0.230  10.744  11.710
 8589SOL    HW125791   0.204  10.840  11.710
 8589SOL    HW225792   0.159  10.690  11.755
 8590SOL     OW25793   0.240  10.401  12.058
 8590SOL    HW125794   0.254  10.317  12.110
 8590SOL    HW225795   0.185  10.465  12.113
 8591SOL     OW25796   0.620  11.096  12.611
 8591SOL    HW125797   0.528  11.079  12.646
 8591SOL    HW225798   0.648  11.188  12.637
 8592SOL     OW25799   0.606  10.274  11.295
 8592SOL    HW125800   0.613  10.358  11.241
 8592SOL    HW225801   0.652  10.287  11.383
 8593SOL     OW25802   1.594   9.424  12.652
 8593SOL    HW125803   1.576   9.491  12.580
 8593SOL    HW225804   1.591   9.470  12.741
 8594SOL     OW25805   0.122   9.953  11.735
 8594SOL    HW125806   0.077   9.865  11.752
 8594SOL    HW225807   0.121  10.007  11.819
 8595SOL     OW25808   1.842  11.077  11.531
 8595SOL    HW125809   1.896  11.048  11.611
 8595SOL    HW225810   1.872  11.167  11.502
 8596SOL     OW25811   0.027  10.906  11.289
 8596SOL    HW125812   0.008  10.810  11.310
 8596SOL    HW225813  -0.006  10.964  11.364
 8597SOL     OW25814   1.689  10.232  11.784
 8597SOL    HW125815   1.784  10.203  11.792
 8597SOL    HW225816   1.681  10.297  11.709
 8598SOL     OW25817   1.641  10.418  11.604
 8598SOL    HW125818   1.727  10.420  11.552
 8598SOL    HW225819   1.655  10.465  11.692
 8599SOL     OW25820   0.113  10.047  12.769
 8599SOL    HW125821   0.201  10.034  12.814
 8599SOL    HW225822   0.100  10.144  12.747
 8600SOL     OW25823   0.613  10.675  11.898
 8600SOL    HW125824   0.564  10.588  11.907
 8600SOL    HW225825   0.590  10.718  11.811
 8601SOL     OW25826   1.293  10.538  12.595
 8601SOL    HW125827   1.330  10.465  12.537
 8601SOL    HW225828   1.345  10.543  12.680
 8602SOL     OW25829   0.809   9.314  11.674
 8602SOL    HW125830   0.849   9.405  11.665
 8602SOL    HW225831   0.709   9.322  11.680
 8603SOL     OW25832   0.197  10.286  12.436
 8603SOL    HW125833   0.286  10.241  12.422
 8603SOL    HW225834   0.124  10.221  12.417
 8604SOL     OW25835   1.525  10.309  11.362
 8604SOL    HW125836   1.462  10.233  11.375
 8604SOL    HW225837   1.573  10.327  11.448
 8605SOL     OW25838   1.466  10.727  12.125
 8605SOL    HW125839   1.407  10.733  12.205
 8605SOL    HW225840   1.451  10.639  12.079
 8606SOL     OW25841   1.667  11.024  11.744
 8606SOL    HW125842   1.626  11.001  11.656
 8606SOL    HW225843   1.649  10.950  11.809
 8607SOL     OW25844   0.598  10.039  11.442
 8607SOL    HW125845   0.622  10.108  11.374
 8607SOL    HW225846   0.520  10.072  11.496
 8608SOL     OW25847   1.281   9.655  12.116
 8608SOL    HW125848   1.195   9.605  12.103
 8608SOL    HW225849   1.343   9.601  12.172
 8609SOL     OW25850   1.576  10.972  11.479
 8609SOL    HW125851   1.665  11.018  11.482
 8609SOL    HW225852   1.555  10.948  11.384
 8610SOL     OW25853   0.807   9.915  12.637
 8610SOL    HW125854   0.760   9.912  12.726
 8610SOL    HW225855   0.756   9.860  12.571
 8611SOL     OW25856   0.973  10.200  12.744
 8611SOL    HW125857   1.019  10.116  12.715
 8611SOL    HW225858   0.917  10.234  12.669
 8612SOL     OW25859   0.991   9.720  12.414
 8612SOL    HW125860   0.914   9.754  12.468
 8612SOL    HW225861   0.957   9.669  12.335
 8613SOL     OW25862   1.041  10.011  11.601
 8613SOL    HW125863   1.067  10.007  11.697
 8613SOL    HW225864   0.956   9.960  11.587
 8614SOL     OW25865   0.076  10.121  11.961
 8614SOL    HW125866   0.175  10.109  11.970
 8614SOL    HW225867   0.052  10.216  11.982
 8615SOL     OW25868   0.130  11.131  12.743
 8615SOL    HW125869   0.120  11.116  12.842
 8615SOL    HW225870   0.044  11.167  12.707
 8616SOL     OW25871   0.865   9.658  11.367
 8616SOL    HW125872   0.924   9.721  11.318
 8616SOL    HW225873   0.884   9.564  11.338
 8617SOL     OW25874   1.362  10.454  11.717
 8617SOL    HW125875   1.445  10.425  11.669
 8617SOL    HW225876   1.313  10.521  11.661
 8618SOL     OW25877   0.550   9.506  12.057
 8618SOL    HW125878   0.545   9.501  12.157
 8618SOL    HW225879   0.552   9.602  12.028
 8619SOL     OW25880   1.008  10.766  11.649
 8619SOL    HW125881   0.962  10.838  11.597
 8619SOL    HW225882   1.004  10.786  11.747
 8620SOL     OW25883   0.351  11.111  12.025
 8620SOL    HW125884   0.401  11.025  12.031
 8620SOL    HW225885   0.416  11.188  12.022
 8621SOL     OW25886   1.795  10.376  12.045
 8621SOL    HW125887   1.733  10.361  11.969
 8621SOL    HW225888   1.743  10.387  12.130
 8622SOL     OW25889   1.227  10.860  12.678
 8622SOL    HW125890   1.233  10.783  12.742
 8622SOL    HW225891   1.175  10.834  12.598
 8623SOL     OW25892   0.321  10.253  11.414
 8623SOL    HW125893   0.403  10.292  11.372
 8623SOL    HW225894   0.294  10.171  11.365
 8624SOL     OW25895   1.458  10.045  11.900
 8624SOL    HW125896   1.453   9.980  11.975
 8624SOL    HW225897   1.538  10.104  11.913
 8625SOL     OW25898   1.111  11.086  11.409
 8625SOL    HW125899   1.051  11.024  11.459
 8625SOL    HW225900   1.142  11.042  11.324
 8626SOL     OW25901   0.202   9.595  12.670
 8626SOL    HW125902   0.122   9.655  12.657
 8626SOL    HW225903   0.192   9.546  12.756
 8627SOL     OW25904   1.632  10.687  11.253
 8627SOL    HW125905   1.600  10.781  11.243
 8627SOL    HW225906   1.556  10.624  11.241
 8628SOL     OW25907   0.464  11.053  11.495
 8628SOL    HW125908   0.497  11.092  11.581
 8628SOL    HW225909   0.540  11.046  11.430
 8629SOL     OW25910   1.400   9.417  11.598
 8629SOL    HW125911   1.376   9.380  11.508
 8629SOL    HW225912   1.499   9.433  11.602
 8630SOL     OW25913   0.249  11.095  12.413
 8630SOL    HW125914   0.306  11.030  12.463
 8630SOL    HW225915   0.233  11.062  12.320
 8631SOL     OW25916   0.940  11.008  12.076
 8631SOL    HW125917   1.020  10.951  12.097
 8631SOL    HW225918   0.891  10.968  11.999
 8632SOL     OW25919   0.382  10.010  11.652
 8632SOL    HW125920   0.427   9.920  11.649
 8632SOL    HW225921   0.288   9.999  11.685
 8633SOL     OW25922   0.614   9.432  11.289
 8633SOL    HW125923   0.712   9.410  11.296
 8633SOL    HW225924   0.583   9.415  11.196
 8634SOL     OW25925   0.888  10.824  12.367
 8634SOL    HW125926   0.865  10.799  12.273
 8634SOL    HW225927   0.949  10.755  12.406
 8635SOL     OW25928   1.351   9.900  12.605
 8635SOL    HW125929   1.379   9.857  12.690
 8635SOL    HW225930   1.376   9.996  12.606
 8636SOL     OW25931   0.803  10.712  12.096
 8636SOL    HW125932   0.893  10.726  12.054
 8636SOL    HW225933   0.732  10.714  12.025
 8637SOL     OW25934   0.922   9.813  12.071
 8637SOL    HW125935   0.897   9.804  11.975
 8637SOL    HW225936   0.970   9.731  12.102
 8638SOL     OW25937   0.539   9.374  11.684
 8638SOL    HW125938   0.458   9.375  11.742
 8638SOL    HW225939   0.542   9.457  11.629
 8639SOL     OW25940   1.434  10.498  11.213
 8639SOL    HW125941   1.466  10.422  11.270
 8639SOL    HW225942   1.342  10.525  11.243
 8640SOL     OW25943   0.297   9.345  11.343
 8640SOL    HW125944   0.346   9.429  11.322
 8640SOL    HW225945   0.359   9.280  11.388
 8641SOL     OW25946   0.935   9.546  11.652
 8641SOL    HW125947   0.887   9.587  11.574
 8641SOL    HW225948   1.034   9.544  11.633
 8642SOL     OW25949   1.076   9.993  12.636
 8642SOL    HW125950   0.996   9.932  12.639
 8642SOL    HW225951   1.157   9.940  12.612
 8643SOL     OW25952   1.227  10.880  11.965
 8643SOL    HW125953   1.248  10.954  11.900
 8643SOL    HW225954   1.295  10.880  12.038
 8644SOL     OW25955   0.459  10.462  11.913
 8644SOL    HW125956   0.388  10.435  11.978
 8644SOL    HW225957   0.433  10.434  11.820
 8645SOL     OW25958   1.271  11.107  11.763
 8645SOL    HW125959   1.315  11.171  11.699
 8645SOL    HW225960   1.221  11.159  11.833
 8646SOL     OW25961   1.032   9.859  11.188
 8646SOL    HW125962   0.991   9.941  11.149
 8646SOL    HW225963   1.096   9.885  11.261
 8647SOL     OW25964   0.078   9.866  12.558
 8647SOL    HW125965   0.170   9.865  12.517
 8647SOL    HW225966   0.072   9.940  12.625
 8648SOL     OW25967   0.561   9.532  12.319
 8648SOL    HW125968   0.599   9.448  12.356
 8648SOL    HW225969   0.473   9.551  12.363
 8649SOL     OW25970   0.866   9.764  11.814
 8649SOL    HW125971   0.834   9.836  11.752
 8649SOL    HW225972   0.890   9.683  11.761
 8650SOL     OW25973   1.017   9.349  11.925
 8650SOL    HW125974   0.945   9.354  11.856
 8650SOL    HW225975   0.993   9.280  11.994
 8651SOL     OW25976   1.429  10.483  12.039
 8651SOL    HW125977   1.374  10.399  12.032
 8651SOL    HW225978   1.455  10.512  11.947
 8652SOL     OW25979   1.466   9.900  12.164
 8652SOL    HW125980   1.436   9.805  12.171
 8652SOL    HW225981   1.539   9.916  12.230
 8653SOL     OW25982   1.857  10.143  11.549
 8653SOL    HW125983   1.899  10.079  11.613
 8653SOL    HW225984   1.819  10.092  11.471
 8654SOL     OW25985   0.488  10.695  11.346
 8654SOL    HW125986   0.401  10.680  11.393
 8654SOL    HW225987   0.471  10.721  11.251
 8655SOL     OW25988   1.664  10.590  11.829
 8655SOL    HW125989   1.763  10.598  11.843
 8655SOL    HW225990   1.619  10.674  11.860
 8656SOL     OW25991   1.390   9.885  11.250
 8656SOL    HW125992   1.336   9.864  11.331
 8656SOL    HW225993   1.481   9.844  11.259
 8657SOL     OW25994   0.527   9.566  11.500
 8657SOL    HW125995   0.554   9.507  11.425
 8657SOL    HW225996   0.527   9.661  11.469
 8658SOL     OW25997   1.754  10.533  12.760
 8658SOL    HW125998   1.845  10.494  12.747
 8658SOL    HW225999   1.762  10.629  12.784
 8659SOL     OW26000   1.064  10.657  12.512
 8659SOL    HW126001   0.984  10.634  12.567
 8659SOL    HW226002   1.147  10.631  12.561
 8660SOL     OW26003   1.111  10.505  12.272
 8660SOL    HW126004   1.071  10.549  12.353
 8660SOL    HW226005   1.070  10.542  12.189
 8661SOL     OW26006   1.638  10.409  12.251
 8661SOL    HW126007   1.643  10.490  12.310
 8661SOL    HW226008   1.552  10.411  12.200
 8662SOL     OW26009   0.915   9.399  12.574
 8662SOL    HW126010   0.940   9.379  12.479
 8662SOL    HW226011   0.987   9.455  12.616
 8663SOL     OW26012   0.705  10.360  11.540
 8663SOL    HW126013   0.691  10.367  11.639
 8663SOL    HW226014   0.789  10.309  11.522
 8664SOL     OW26015   0.410  10.123  12.423
 8664SOL    HW126016   0.496  10.135  12.473
 8664SOL    HW226017   0.368  10.036  12.450
 8665SOL     OW26018   1.274   9.696  12.434
 8665SOL    HW126019   1.295   9.770  12.498
 8665SOL    HW226020   1.185   9.713  12.391
 8666SOL     OW26021   0.064  10.874  12.503
 8666SOL    HW126022   0.018  10.956  12.469
 8666SOL    HW226023   0.162  10.893  12.512
 8667SOL     OW26024   0.367  10.410  11.673
 8667SOL    HW126025   0.360  10.493  11.617
 8667SOL    HW226026   0.371  10.330  11.613
 8668SOL     OW26027   0.566   9.847  12.037
 8668SOL    HW126028   0.578   9.913  11.963
 8668SOL    HW226029   0.612   9.881  12.120
 8669SOL     OW26030   1.252  10.658  11.560
 8669SOL    HW126031   1.302  10.735  11.600
 8669SOL    HW226032   1.157  10.660  11.592
 8670SOL     OW26033   1.272  10.755  12.314
 8670SOL    HW126034   1.319  10.768  12.401
 8670SOL    HW226035   1.206  10.681  12.323
 8671SOL     OW26036   1.582   9.949  11.644
 8671SOL    HW126037   1.551  10.010  11.717
 8671SOL    HW226038   1.632  10.001  11.575
 8672SOL     OW26039   0.354  10.820  12.501
 8672SOL    HW126040   0.333  10.776  12.414
 8672SOL    HW226041   0.451  10.846  12.504
 8673SOL     OW26042   0.402  10.061  12.770
 8673SOL    HW126043   0.470  10.116  12.723
 8673SOL    HW226044   0.442   9.973  12.797
 8674SOL     OW26045   1.587  10.089  12.842
 8674SOL    HW126046   1.495  10.127  12.837
 8674SOL    HW226047   1.647  10.136  12.777
 8675SOL     OW26048   0.573  10.180  12.201
 8675SOL    HW126049   0.617  10.269  12.192
 8675SOL    HW226050   0.510  10.180  12.278
 8676SOL     OW26051   1.360  10.172  12.217
 8676SOL    HW126052   1.285  10.172  12.151
 8676SOL    HW226053   1.397  10.080  12.226
 8677SOL     OW26054   1.209   9.835  11.447
 8677SOL    HW126055   1.222   9.751  11.501
 8677SOL    HW226056   1.180   9.909  11.507
 8678SOL     OW26057   0.307   9.523  12.403
 8678SOL    HW126058   0.284   9.560  12.493
 8678SOL    HW226059   0.277   9.428  12.397
 8679SOL     OW26060   0.037  10.620  12.454
 8679SOL    HW126061   0.090  10.571  12.522
 8679SOL    HW226062   0.059  10.718  12.459
 8680SOL     OW26063   0.732   9.944  12.236
 8680SOL    HW126064   0.791   9.918  12.160
 8680SOL    HW226065   0.704  10.040  12.225
 8681SOL     OW26066   0.307   9.373  11.790
 8681SOL    HW126067   0.296   9.467  11.823
 8681SOL    HW226068   0.302   9.310  11.867
 8682SOL     OW26069   1.622   9.677  11.546
 8682SOL    HW126070   1.624   9.601  11.610
 8682SOL    HW226071   1.574   9.754  11.586
 8683SOL     OW26072   1.023  10.076  12.138
 8683SOL    HW126073   1.038  10.097  12.234
 8683SOL    HW226074   0.993   9.981  12.129
 8684SOL     OW26075   1.540   9.584  11.297
 8684SOL    HW126076   1.479   9.509  11.320
 8684SOL    HW226077   1.562   9.636  11.380
 8685SOL     OW26078   1.303  10.148  11.214
 8685SOL    HW126079   1.337  10.055  11.229
 8685SOL    HW226080   1.321  10.175  11.119
 8686SOL     OW26081   1.068  10.643  12.021
 8686SOL    HW126082   1.075  10.559  11.966
 8686SOL    HW226083   1.130  10.712  11.985
 8687SOL     OW26084   0.319  10.120  12.121
 8687SOL    HW126085   0.412  10.156  12.126
 8687SOL    HW226086   0.313  10.035  12.173
 8688SOL     OW26087   0.339   9.819  12.178
 8688SOL    HW126088   0.287   9.736  12.161
 8688SOL    HW226089   0.416   9.824  12.114
 8689SOL     OW26090   1.160   9.517  12.649
 8689SOL    HW126091   1.160   9.581  12.726
 8689SOL    HW226092   1.188   9.565  12.566
 8690SOL     OW26093   0.008  10.636  11.372
 8690SOL    HW126094  -0.085  10.657  11.341
 8690SOL    HW226095   0.018  10.537  11.385
 8691SOL     OW26096   0.088  11.111  12.099
 8691SOL    HW126097   0.046  11.025  12.072
 8691SOL    HW226098   0.182  11.114  12.065
 8692SOL     OW26099   0.504  10.878  12.082
 8692SOL    HW126100   0.570  10.952  12.091
 8692SOL    HW226101   0.548  10.799  12.040
 8693SOL     OW26102   1.002  10.106  12.410
 8693SOL    HW126103   1.043  10.074  12.496
 8693SOL    HW226104   0.906  10.079  12.407
 8694SOL     OW26105   0.040   9.854  12.286
 8694SOL    HW126106   0.125   9.821  12.245
 8694SOL    HW226107   0.053   9.869  12.384
 8695SOL     OW26108   0.815   9.882  11.497
 8695SOL    HW126109   0.822   9.793  11.451
 8695SOL    HW226110   0.721   9.916  11.489
 8696SOL     OW26111   1.657   9.914  12.378
 8696SOL    HW126112   1.619   9.845  12.440
 8696SOL    HW226113   1.739   9.878  12.334
 8697SOL     OW26114   0.252  10.874  12.916
 8697SOL    HW126115   0.222  10.931  12.992
 8697SOL    HW226116   0.245  10.777  12.942
 8698SOL     OW26117   0.671   9.774  12.441
 8698SOL    HW126118   0.637   9.685  12.411
 8698SOL    HW226119   0.697   9.828  12.361
 8699SOL     OW26120   0.930  10.988  12.637
 8699SOL    HW126121   0.906  10.970  12.542
 8699SOL    HW226122   0.960  11.082  12.647
 8700SOL     OW26123   0.473   9.810  11.363
 8700SOL    HW126124   0.534   9.890  11.367
 8700SOL    HW226125   0.378   9.841  11.370
 8701SOL     OW26126   0.159  10.447  12.638
 8701SOL    HW126127   0.181  10.386  12.714
 8701SOL    HW226128   0.169  10.398  12.552
 8702SOL     OW26129   1.347  10.369  12.406
 8702SOL    HW126130   1.371  10.306  12.332
 8702SOL    HW226131   1.257  10.409  12.388
 8703SOL     OW26132   1.302  10.165  11.481
 8703SOL    HW126133   1.216  10.134  11.523
 8703SOL    HW226134   1.298  10.151  11.382
 8704SOL     OW26135   1.759  11.057  12.326
 8704SOL    HW126136   1.820  11.087  12.253
 8704SOL    HW226137   1.721  10.968  12.304
 8705SOL     OW26138   1.252  11.041  12.300
 8705SOL    HW126139   1.336  11.046  12.246
 8705SOL    HW226140   1.229  10.945  12.318
 8706SOL     OW26141   0.083  10.568  12.194
 8706SOL    HW126142   0.078  10.567  12.294
 8706SOL    HW226143   0.000  10.527  12.156
 8707SOL     OW26144   1.726   9.445  11.695
 8707SOL    HW126145   1.799   9.428  11.628
 8707SOL    HW226146   1.695   9.358  11.733
 8708SOL     OW26147   1.388  10.883  11.649
 8708SOL    HW126148   1.455  10.895  11.575
 8708SOL    HW226149   1.348  10.972  11.672
 8709SOL     OW26150   1.280  10.237  11.844
 8709SOL    HW126151   1.340  10.156  11.846
 8709SOL    HW226152   1.320  10.306  11.784
 8710SOL     OW26153   0.830  10.583  12.594
 8710SOL    HW126154   0.825  10.616  12.689
 8710SOL    HW226155   0.744  10.602  12.548
 8711SOL     OW26156   0.672  10.926  11.326
 8711SOL    HW126157   0.681  10.936  11.227
 8711SOL    HW226158   0.632  10.837  11.347
 8712SOL     OW26159   1.650  11.030  12.566
 8712SOL    HW126160   1.703  11.040  12.482
 8712SOL    HW226161   1.623  11.120  12.600
 8713SOL     OW26162   1.841   9.485  12.135
 8713SOL    HW126163   1.880   9.400  12.099
 8713SOL    HW226164   1.743   9.487  12.116
 8714SOL     OW26165   0.263   9.636  11.892
 8714SOL    HW126166   0.184   9.687  11.858
 8714SOL    HW226167   0.254   9.621  11.990
 8715SOL     OW26168   1.194  10.922  11.203
 8715SOL    HW126169   1.200  10.829  11.240
 8715SOL    HW226170   1.135  10.922  11.123
 8716SOL     OW26171   0.822  10.312  12.544
 8716SOL    HW126172   0.862  10.311  12.452
 8716SOL    HW226173   0.832  10.404  12.584
 8717SOL     OW26174   0.916  10.220  11.463
 8717SOL    HW126175   0.979  10.258  11.395
 8717SOL    HW226176   0.956  10.137  11.502
 8718SOL     OW26177   1.504  10.917  11.216
 8718SOL    HW126178   1.412  10.954  11.223
 8718SOL    HW226179   1.542  10.937  11.126
 8719SOL     OW26180   0.372  10.598  12.662
 8719SOL    HW126181   0.359  10.691  12.628
 8719SOL    HW226182   0.288  10.546  12.649
 8720SOL     OW26183   1.614  10.602  12.461
 8720SOL    HW126184   1.674  10.605  12.541
 8720SOL    HW226185   1.539  10.666  12.474
 8721SOL     OW26186   1.039  10.408  11.868
 8721SOL    HW126187   0.969  10.361  11.922
 8721SOL    HW226188   1.098  10.340  11.825
 8722SOL     OW26189   1.014   9.546  12.143
 8722SOL    HW126190   1.006   9.510  12.050
 8722SOL    HW226191   1.012   9.470  12.208
 8723SOL     OW26192   0.590  10.797  11.663
 8723SOL    HW126193   0.632  10.739  11.593
 8723SOL    HW226194   0.546  10.876  11.619
 8724SOL     OW26195   1.709   9.695  12.553
 8724SOL    HW126196   1.782   9.764  12.557
 8724SOL    HW226197   1.737   9.620  12.494
 8725SOL     OW26198   0.255  10.658  11.462
 8725SOL    HW126199   0.159  10.659  11.435
 8725SOL    HW226200   0.267  10.711  11.546
 8726SOL     OW26201   0.105  10.323  12.898
 8726SOL    HW126202   0.028  10.290  12.952
 8726SOL    HW226203   0.190  10.293  12.940
 8727SOL     OW26204   0.672   9.513  12.661
 8727SOL    HW126205   0.762   9.497  12.621
 8727SOL    HW226206   0.680   9.518  12.760
 8728SOL     OW26207   0.075   9.655  11.205
 8728SOL    HW126208  -0.017   9.627  11.176
 8728SOL    HW226209   0.106   9.732  11.149
 8729SOL     OW26210   1.440  10.166  12.570
 8729SOL    HW126211   1.383  10.218  12.507
 8729SOL    HW226212   1.536  10.178  12.546
 8730SOL     OW26213   0.072   9.476  11.490
 8730SOL    HW126214   0.055   9.559  11.436
 8730SOL    HW226215   0.162   9.439  11.468
 8731SOL     OW26216   1.183  10.645  11.291
 8731SOL    HW126217   1.084  10.634  11.293
 8731SOL    HW226218   1.217  10.660  11.384
 8732SOL     OW26219   0.613  10.152  12.603
 8732SOL    HW126220   0.669  10.233  12.586
 8732SOL    HW226221   0.672  10.072  12.606
 8733SOL     OW26222   1.493  11.077  12.131
 8733SOL    HW126223   1.526  11.141  12.062
 8733SOL    HW226224   1.559  11.071  12.206
 8734SOL     OW26225   0.716   9.875  12.880
 8734SOL    HW126226   0.735   9.940  12.954
 8734SOL    HW226227   0.776   9.795  12.889
 8735SOL     OW26228   0.390  11.051  12.732
 8735SOL    HW126229   0.299  11.092  12.730
 8735SOL    HW226230   0.383  10.957  12.764
 8736SOL     OW26231   1.674  10.193  12.426
 8736SOL    HW126232   1.647  10.104  12.389
 8736SOL    HW226233   1.675  10.261  12.353
 8737SOL     OW26234   1.225   9.635  11.621
 8737SOL    HW126235   1.290   9.561  11.610
 8737SOL    HW226236   1.245   9.685  11.705
 8738SOL     OW26237   0.594  10.055  11.824
 8738SOL    HW126238   0.644  10.140  11.805
 8738SOL    HW226239   0.506  10.057  11.776
 8739SOL     OW26240   1.730  10.244  12.689
 8739SOL    HW126241   1.768  10.335  12.704
 8739SOL    HW226242   1.722  10.227  12.590
 8740SOL     OW26243   0.859  10.684  11.188
 8740SOL    HW126244   0.813  10.699  11.276
 8740SOL    HW226245   0.903  10.769  11.158
 8741SOL     OW26246   0.661  11.100  12.125
 8741SOL    HW126247   0.615  11.188  12.112
 8741SOL    HW226248   0.760  11.112  12.118
 8742SOL     OW26249   0.859  10.266  12.033
 8742SOL    HW126250   0.913  10.197  12.081
 8742SOL    HW226251   0.827  10.335  12.099
 8743SOL     OW26252   1.083  10.294  11.259
 8743SOL    HW126253   1.060  10.347  11.177
 8743SOL    HW226254   1.164  10.238  11.240
 8744SOL     OW26255   1.861  10.879  12.023
 8744SOL    HW126256   1.790  10.867  11.953
 8744SOL    HW226257   1.862  10.800  12.083
 8745SOL     OW26258   0.079  10.550  11.825
 8745SOL    HW126259   0.078  10.503  11.913
 8745SOL    HW226260   0.161  10.522  11.774
 8746SOL     OW26261   0.672  10.701  12.796
 8746SOL    HW126262   0.594  10.651  12.834
 8746SOL    HW226263   0.669  10.796  12.827
 8747SOL     OW26264   1.824   9.502  12.399
 8747SOL    HW126265   1.820   9.412  12.443
 8747SOL    HW226266   1.827   9.491  12.300
 8748SOL     OW26267   0.428   9.734  11.692
 8748SOL    HW126268   0.458   9.662  11.630
 8748SOL    HW226269   0.389   9.694  11.775
 8749SOL     OW26270   1.705  10.797  12.276
 8749SOL    HW126271   1.612  10.772  12.249
 8749SOL    HW226272   1.731  10.747  12.358
 8750SOL     OW26273   0.317   9.857  12.452
 8750SOL    HW126274   0.355   9.798  12.524
 8750SOL    HW226275   0.357   9.831  12.364
 8751SOL     OW26276   0.812  10.896  11.859
 8751SOL    HW126277   0.844  10.906  11.765
 8751SOL    HW226278   0.733  10.834  11.861
 8752SOL     OW26279   1.424   9.524  12.284
 8752SOL    HW126280   1.476   9.459  12.339
 8752SOL    HW226281   1.375   9.587  12.345
 8753SOL     OW26282   1.001   9.344  12.326
 8753SOL    HW126283   0.938   9.272  12.295
 8753SOL    HW226284   1.094   9.308  12.326
 8754SOL     OW26285   0.770  10.640  11.473
 8754SOL    HW126286   0.724  10.553  11.490
 8754SOL    HW226287   0.861  10.637  11.514
 8755SOL     OW26288   0.618  10.877  12.456
 8755SOL    HW126289   0.613  10.959  12.513
 8755SOL    HW226290   0.707  10.874  12.411
 8756SOL     OW26291   1.352   9.362  11.340
 8756SOL    HW126292   1.387   9.321  11.256
 8756SOL    HW226293   1.262   9.324  11.360
 8757SOL     OW26294   1.300   9.763  11.863
 8757SOL    HW126295   1.241   9.843  11.867
 8757SOL    HW226296   1.315   9.728  11.956
 8758SOL     OW26297   1.593   9.531  12.054
 8758SOL    HW126298   1.509   9.530  12.108
 8758SOL    HW226299   1.595   9.614  11.998
 8759SOL     OW26300   0.039  10.387  11.472
 8759SOL    HW126301   0.138  10.376  11.463
 8759SOL    HW226302  -0.001  10.301  11.504
 8760SOL     OW26303   0.875  10.956  11.509
 8760SOL    HW126304   0.798  10.921  11.455
 8760SOL    HW226305   0.843  11.027  11.571
 8761SOL     OW26306   0.230  11.800   0.113
 8761SOL    HW126307   0.137  11.798   0.150
 8761SOL    HW226308   0.231  11.761   0.021
 8762SOL     OW26309   0.225  11.447   0.996
 8762SOL    HW126310   0.260  11.430   1.088
 8762SOL    HW226311   0.137  11.402   0.984
 8763SOL     OW26312   0.019  11.540   0.647
 8763SOL    HW126313  -0.063  11.583   0.686
 8763SOL    HW226314  -0.009  11.467   0.584
 8764SOL     OW26315   0.569  12.447   1.165
 8764SOL    HW126316   0.476  12.440   1.128
 8764SOL    HW226317   0.580  12.536   1.209
 8765SOL     OW26318   1.555  12.683   0.703
 8765SOL    HW126319   1.498  12.667   0.784
 8765SOL    HW226320   1.496  12.693   0.623
 8766SOL     OW26321   1.135  11.875   0.717
 8766SOL    HW126322   1.192  11.953   0.692
 8766SOL    HW226323   1.075  11.901   0.793
 8767SOL     OW26324   1.755  11.779   0.231
 8767SOL    HW126325   1.743  11.766   0.132
 8767SOL    HW226326   1.725  11.698   0.280
 8768SOL     OW26327   0.768  12.316   1.023
 8768SOL    HW126328   0.690  12.333   1.083
 8768SOL    HW226329   0.802  12.403   0.987
 8769SOL     OW26330   0.850  11.970   1.823
 8769SOL    HW126331   0.846  12.046   1.888
 8769SOL    HW226332   0.872  12.006   1.732
 8770SOL     OW26333   0.685  12.184   0.665
 8770SOL    HW126334   0.754  12.168   0.735
 8770SOL    HW226335   0.612  12.241   0.703
 8771SOL     OW26336   0.686  12.333   1.803
 8771SOL    HW126337   0.746  12.412   1.817
 8771SOL    HW226338   0.600  12.364   1.762
 8772SOL     OW26339   0.335  12.607   1.061
 8772SOL    HW126340   0.257  12.576   1.008
 8772SOL    HW226341   0.393  12.665   1.004
 8773SOL     OW26342   1.460  12.677   1.339
 8773SOL    HW126343   1.484  12.771   1.365
 8773SOL    HW226344   1.444  12.623   1.421
 8774SOL     OW26345   0.438  11.564   1.499
 8774SOL    HW126346   0.520  11.508   1.508
 8774SOL    HW226347   0.357  11.506   1.503
 8775SOL     OW26348   1.603  11.619   0.737
 8775SOL    HW126349   1.529  11.665   0.687
 8775SOL    HW226350   1.654  11.687   0.790
 8776SOL     OW26351   1.127  12.513   1.690
 8776SOL    HW126352   1.174  12.513   1.778
 8776SOL    HW226353   1.079  12.426   1.679
 8777SOL     OW26354   0.230  12.606   0.538
 8777SOL    HW126355   0.204  12.702   0.538
 8777SOL    HW226356   0.159  12.552   0.583
 8778SOL     OW26357   0.240  12.263   0.886
 8778SOL    HW126358   0.254  12.179   0.938
 8778SOL    HW226359   0.185  12.327   0.941
 8779SOL     OW26360   0.606  12.136   0.123
 8779SOL    HW126361   0.613  12.220   0.069
 8779SOL    HW226362   0.652  12.149   0.211
 8780SOL     OW26363   1.594  11.286   1.480
 8780SOL    HW126364   1.576  11.353   1.408
 8780SOL    HW226365   1.591  11.332   1.569
 8781SOL     OW26366   0.122  11.815   0.563
 8781SOL    HW126367   0.077  11.727   0.580
 8781SOL    HW226368   0.121  11.869   0.647
 8782SOL     OW26369   0.027  12.768   0.117
 8782SOL    HW126370   0.008  12.672   0.138
 8782SOL    HW226371  -0.006  12.826   0.192
 8783SOL     OW26372   1.689  12.094   0.612
 8783SOL    HW126373   1.784  12.065   0.620
 8783SOL    HW226374   1.681  12.159   0.537
 8784SOL     OW26375   1.641  12.280   0.432
 8784SOL    HW126376   1.727  12.282   0.380
 8784SOL    HW226377   1.655  12.327   0.520
 8785SOL     OW26378   0.113  11.909   1.597
 8785SOL    HW126379   0.201  11.896   1.642
 8785SOL    HW226380   0.100  12.006   1.575
 8786SOL     OW26381   0.613  12.537   0.726
 8786SOL    HW126382   0.564  12.450   0.735
 8786SOL    HW226383   0.590  12.580   0.639
 8787SOL     OW26384   1.293  12.400   1.423
 8787SOL    HW126385   1.330  12.327   1.365
 8787SOL    HW226386   1.345  12.405   1.508
 8788SOL     OW26387   0.809  11.176   0.502
 8788SOL    HW126388   0.849  11.267   0.493
 8788SOL    HW226389   0.709  11.184   0.508
 8789SOL     OW26390   0.197  12.148   1.264
 8789SOL    HW126391   0.286  12.103   1.250
 8789SOL    HW226392   0.124  12.083   1.245
 8790SOL     OW26393   1.525  12.171   0.190
 8790SOL    HW126394   1.462  12.095   0.203
 8790SOL    HW226395   1.573  12.189   0.276
 8791SOL     OW26396   0.317  11.423   1.801
 8791SOL    HW126397   0.388  11.494   1.807
 8791SOL    HW226398   0.229  11.462   1.829
 8792SOL     OW26399   1.466  12.589   0.953
 8792SOL    HW126400   1.407  12.595   1.033
 8792SOL    HW226401   1.451  12.501   0.907
 8793SOL     OW26402   0.598  11.901   0.270
 8793SOL    HW126403   0.622  11.970   0.202
 8793SOL    HW226404   0.520  11.934   0.324
 8794SOL     OW26405   1.281  11.517   0.944
 8794SOL    HW126406   1.195  11.467   0.931
 8794SOL    HW226407   1.343  11.463   1.000
 8795SOL     OW26408   1.576  12.834   0.307
 8795SOL    HW126409   1.665  12.880   0.310
 8795SOL    HW226410   1.555  12.810   0.212
 8796SOL     OW26411   0.807  11.777   1.465
 8796SOL    HW126412   0.760  11.774   1.554
 8796SOL    HW226413   0.756  11.722   1.399
 8797SOL     OW26414   1.394  11.641   1.674
 8797SOL    HW126415   1.374  11.684   1.762
 8797SOL    HW226416   1.472  11.579   1.683
 8798SOL     OW26417   0.973  12.062   1.572
 8798SOL    HW126418   1.019  11.978   1.543
 8798SOL    HW226419   0.917  12.096   1.497
 8799SOL     OW26420   0.991  11.582   1.242
 8799SOL    HW126421   0.914  11.616   1.296
 8799SOL    HW226422   0.957  11.531   1.163
 8800SOL     OW26423   1.041  11.873   0.429
 8800SOL    HW126424   1.067  11.869   0.525
 8800SOL    HW226425   0.956  11.822   0.415
 8801SOL     OW26426   0.076  11.983   0.789
 8801SOL    HW126427   0.175  11.971   0.798
 8801SOL    HW226428   0.052  12.078   0.810
 8802SOL     OW26429   0.865  11.520   0.195
 8802SOL    HW126430   0.924  11.583   0.146
 8802SOL    HW226431   0.884  11.426   0.166
 8803SOL     OW26432   1.719  11.757   1.831
 8803SOL    HW126433   1.693  11.846   1.795
 8803SOL    HW226434   1.717  11.689   1.758
 8804SOL     OW26435   1.362  12.316   0.545
 8804SOL    HW126436   1.445  12.287   0.497
 8804SOL    HW226437   1.313  12.383   0.489
 8805SOL     OW26438   0.550  11.368   0.885
 8805SOL    HW126439   0.545  11.363   0.985
 8805SOL    HW226440   0.552  11.464   0.856
 8806SOL     OW26441   1.008  12.628   0.477
 8806SOL    HW126442   0.962  12.700   0.425
 8806SOL    HW226443   1.004  12.648   0.575
 8807SOL     OW26444   1.795  12.238   0.873
 8807SOL    HW126445   1.733  12.223   0.797
 8807SOL    HW226446   1.743  12.249   0.958
 8808SOL     OW26447   1.227  12.722   1.506
 8808SOL    HW126448   1.233  12.645   1.570
 8808SOL    HW226449   1.175  12.696   1.426
 8809SOL     OW26450   0.321  12.115   0.242
 8809SOL    HW126451   0.403  12.154   0.200
 8809SOL    HW226452   0.294  12.033   0.193
 8810SOL     OW26453   1.458  11.907   0.728
 8810SOL    HW126454   1.453  11.842   0.803
 8810SOL    HW226455   1.538  11.966   0.741
 8811SOL     OW26456   0.461  12.438   1.727
 8811SOL    HW126457   0.411  12.439   1.641
 8811SOL    HW226458   0.398  12.420   1.803
 8812SOL     OW26459   0.202  11.457   1.498
 8812SOL    HW126460   0.122  11.517   1.485
 8812SOL    HW226461   0.192  11.408   1.584
 8813SOL     OW26462   1.632  12.549   0.081
 8813SOL    HW126463   1.600  12.643   0.071
 8813SOL    HW226464   1.556  12.486   0.069
 8814SOL     OW26465   1.400  11.279   0.426
 8814SOL    HW126466   1.376  11.242   0.336
 8814SOL    HW226467   1.499  11.295   0.430
 8815SOL     OW26468   0.382  11.872   0.480
 8815SOL    HW126469   0.427  11.782   0.477
 8815SOL    HW226470   0.288  11.861   0.513
 8816SOL     OW26471   1.547  11.394   1.729
 8816SOL    HW126472   1.542  11.431   1.821
 8816SOL    HW226473   1.475  11.325   1.717
 8817SOL     OW26474   0.614  11.294   0.117
 8817SOL    HW126475   0.712  11.272   0.124
 8817SOL    HW226476   0.583  11.277   0.024
 8818SOL     OW26477   0.781  11.436   1.749
 8818SOL    HW126478   0.848  11.375   1.792
 8818SOL    HW226479   0.708  11.455   1.814
 8819SOL     OW26480   1.351  11.762   1.433
 8819SOL    HW126481   1.379  11.719   1.518
 8819SOL    HW226482   1.376  11.858   1.434
 8820SOL     OW26483   0.803  12.574   0.924
 8820SOL    HW126484   0.893  12.588   0.882
 8820SOL    HW226485   0.732  12.576   0.853
 8821SOL     OW26486   0.922  11.675   0.899
 8821SOL    HW126487   0.897  11.666   0.803
 8821SOL    HW226488   0.970  11.593   0.930
 8822SOL     OW26489   0.539  11.236   0.512
 8822SOL    HW126490   0.458  11.237   0.570
 8822SOL    HW226491   0.542  11.319   0.457
 8823SOL     OW26492   1.434  12.360   0.041
 8823SOL    HW126493   1.466  12.284   0.098
 8823SOL    HW226494   1.342  12.387   0.071
 8824SOL     OW26495   0.297  11.207   0.171
 8824SOL    HW126496   0.346  11.291   0.150
 8824SOL    HW226497   0.359  11.142   0.216
 8825SOL     OW26498   0.935  11.408   0.480
 8825SOL    HW126499   0.887  11.449   0.402
 8825SOL    HW226500   1.034  11.406   0.461
 8826SOL     OW26501   1.076  11.855   1.464
 8826SOL    HW126502   0.996  11.794   1.467
 8826SOL    HW226503   1.157  11.802   1.440
 8827SOL     OW26504   1.227  12.742   0.793
 8827SOL    HW126505   1.248  12.816   0.728
 8827SOL    HW226506   1.295  12.742   0.866
 8828SOL     OW26507   0.459  12.324   0.741
 8828SOL    HW126508   0.388  12.297   0.806
 8828SOL    HW226509   0.433  12.296   0.648
 8829SOL     OW26510   1.032  11.721   0.016
 8829SOL    HW126511   0.991  11.803  -0.023
 8829SOL    HW226512   1.096  11.747   0.089
 8830SOL     OW26513   0.078  11.728   1.386
 8830SOL    HW126514   0.170  11.727   1.345
 8830SOL    HW226515   0.072  11.802   1.453
 8831SOL     OW26516   0.561  11.394   1.147
 8831SOL    HW126517   0.599  11.310   1.184
 8831SOL    HW226518   0.473  11.413   1.191
 8832SOL     OW26519   0.866  11.626   0.642
 8832SOL    HW126520   0.834  11.698   0.580
 8832SOL    HW226521   0.890  11.545   0.589
 8833SOL     OW26522   1.017  11.211   0.753
 8833SOL    HW126523   0.945  11.216   0.684
 8833SOL    HW226524   0.993  11.142   0.822
 8834SOL     OW26525   1.429  12.345   0.867
 8834SOL    HW126526   1.374  12.261   0.860
 8834SOL    HW226527   1.455  12.374   0.775
 8835SOL     OW26528   1.466  11.762   0.992
 8835SOL    HW126529   1.436  11.667   0.999
 8835SOL    HW226530   1.539  11.778   1.058
 8836SOL     OW26531   1.857  12.005   0.377
 8836SOL    HW126532   1.899  11.941   0.441
 8836SOL    HW226533   1.819  11.954   0.299
 8837SOL     OW26534   0.488  12.557   0.174
 8837SOL    HW126535   0.401  12.542   0.221
 8837SOL    HW226536   0.471  12.583   0.079
 8838SOL     OW26537   1.664  12.452   0.657
 8838SOL    HW126538   1.763  12.460   0.671
 8838SOL    HW226539   1.619  12.536   0.688
 8839SOL     OW26540   1.390  11.747   0.078
 8839SOL    HW126541   1.336  11.726   0.159
 8839SOL    HW226542   1.481  11.706   0.087
 8840SOL     OW26543   0.527  11.428   0.328
 8840SOL    HW126544   0.554  11.369   0.253
 8840SOL    HW226545   0.527  11.523   0.297
 8841SOL     OW26546   1.754  12.395   1.588
 8841SOL    HW126547   1.845  12.356   1.575
 8841SOL    HW226548   1.762  12.491   1.612
 8842SOL     OW26549   1.064  12.519   1.340
 8842SOL    HW126550   0.984  12.496   1.395
 8842SOL    HW226551   1.147  12.493   1.389
 8843SOL     OW26552   1.111  12.367   1.100
 8843SOL    HW126553   1.071  12.411   1.181
 8843SOL    HW226554   1.070  12.404   1.017
 8844SOL     OW26555   1.638  12.271   1.079
 8844SOL    HW126556   1.643  12.352   1.138
 8844SOL    HW226557   1.552  12.273   1.028
 8845SOL     OW26558   0.915  11.261   1.402
 8845SOL    HW126559   0.940  11.241   1.307
 8845SOL    HW226560   0.987  11.317   1.444
 8846SOL     OW26561   0.980  12.288   1.719
 8846SOL    HW126562   0.881  12.294   1.729
 8846SOL    HW226563   1.003  12.208   1.663
 8847SOL     OW26564   0.705  12.222   0.368
 8847SOL    HW126565   0.691  12.229   0.467
 8847SOL    HW226566   0.789  12.171   0.350
 8848SOL     OW26567   0.410  11.985   1.251
 8848SOL    HW126568   0.496  11.997   1.301
 8848SOL    HW226569   0.368  11.898   1.278
 8849SOL     OW26570   1.274  11.558   1.262
 8849SOL    HW126571   1.295  11.632   1.326
 8849SOL    HW226572   1.185  11.575   1.219
 8850SOL     OW26573   0.064  12.736   1.331
 8850SOL    HW126574   0.018  12.818   1.297
 8850SOL    HW226575   0.162  12.755   1.340
 8851SOL     OW26576   0.367  12.272   0.501
 8851SOL    HW126577   0.360  12.355   0.445
 8851SOL    HW226578   0.371  12.192   0.441
 8852SOL     OW26579   0.566  11.709   0.865
 8852SOL    HW126580   0.578  11.775   0.791
 8852SOL    HW226581   0.612  11.743   0.948
 8853SOL     OW26582   1.252  12.520   0.388
 8853SOL    HW126583   1.302  12.597   0.428
 8853SOL    HW226584   1.157  12.522   0.420
 8854SOL     OW26585   1.272  12.617   1.142
 8854SOL    HW126586   1.319  12.630   1.229
 8854SOL    HW226587   1.206  12.543   1.151
 8855SOL     OW26588   1.582  11.811   0.472
 8855SOL    HW126589   1.551  11.872   0.545
 8855SOL    HW226590   1.632  11.863   0.403
 8856SOL     OW26591   0.354  12.682   1.329
 8856SOL    HW126592   0.333  12.638   1.242
 8856SOL    HW226593   0.451  12.708   1.332
 8857SOL     OW26594   0.402  11.923   1.598
 8857SOL    HW126595   0.470  11.978   1.551
 8857SOL    HW226596   0.442  11.835   1.625
 8858SOL     OW26597   1.587  11.951   1.670
 8858SOL    HW126598   1.495  11.989   1.665
 8858SOL    HW226599   1.647  11.998   1.605
 8859SOL     OW26600   1.013  11.277   1.770
 8859SOL    HW126601   1.019  11.362   1.718
 8859SOL    HW226602   1.045  11.201   1.713
 8860SOL     OW26603   0.504  11.222   1.740
 8860SOL    HW126604   0.462  11.165   1.670
 8860SOL    HW226605   0.438  11.291   1.772
 8861SOL     OW26606   0.573  12.042   1.029
 8861SOL    HW126607   0.617  12.131   1.020
 8861SOL    HW226608   0.510  12.042   1.106
 8862SOL     OW26609   1.360  12.034   1.045
 8862SOL    HW126610   1.285  12.034   0.979
 8862SOL    HW226611   1.397  11.942   1.054
 8863SOL     OW26612   1.209  11.697   0.275
 8863SOL    HW126613   1.222  11.613   0.329
 8863SOL    HW226614   1.180  11.771   0.335
 8864SOL     OW26615   0.307  11.385   1.231
 8864SOL    HW126616   0.284  11.422   1.321
 8864SOL    HW226617   0.277  11.290   1.225
 8865SOL     OW26618   0.037  12.482   1.282
 8865SOL    HW126619   0.090  12.433   1.350
 8865SOL    HW226620   0.059  12.580   1.287
 8866SOL     OW26621   0.732  11.806   1.064
 8866SOL    HW126622   0.791  11.780   0.988
 8866SOL    HW226623   0.704  11.902   1.053
 8867SOL     OW26624   1.728  12.107   1.854
 8867SOL    HW126625   1.682  12.100   1.765
 8867SOL    HW226626   1.666  12.151   1.920
 8868SOL     OW26627   0.307  11.235   0.618
 8868SOL    HW126628   0.296  11.329   0.651
 8868SOL    HW226629   0.302  11.172   0.695
 8869SOL     OW26630   1.622  11.539   0.374
 8869SOL    HW126631   1.624  11.463   0.438
 8869SOL    HW226632   1.574  11.616   0.414
 8870SOL     OW26633   1.023  11.938   0.966
 8870SOL    HW126634   1.038  11.959   1.062
 8870SOL    HW226635   0.993  11.843   0.957
 8871SOL     OW26636   1.859  12.690   1.605
 8871SOL    HW126637   1.873  12.717   1.510
 8871SOL    HW226638   1.942  12.712   1.658
 8872SOL     OW26639   0.350  12.070   1.804
 8872SOL    HW126640   0.426  12.114   1.852
 8872SOL    HW226641   0.385  12.023   1.722
 8873SOL     OW26642   1.540  11.446   0.125
 8873SOL    HW126643   1.479  11.371   0.148
 8873SOL    HW226644   1.562  11.498   0.208
 8874SOL     OW26645   1.303  12.010   0.042
 8874SOL    HW126646   1.337  11.917   0.057
 8874SOL    HW226647   1.321  12.037  -0.053
 8875SOL     OW26648   1.068  12.505   0.849
 8875SOL    HW126649   1.075  12.421   0.794
 8875SOL    HW226650   1.130  12.574   0.813
 8876SOL     OW26651   0.319  11.982   0.949
 8876SOL    HW126652   0.412  12.018   0.954
 8876SOL    HW226653   0.313  11.897   1.001
 8877SOL     OW26654   0.339  11.681   1.006
 8877SOL    HW126655   0.287  11.598   0.989
 8877SOL    HW226656   0.416  11.686   0.942
 8878SOL     OW26657   1.138  11.552   1.678
 8878SOL    HW126658   1.093  11.615   1.742
 8878SOL    HW226659   1.231  11.583   1.661
 8879SOL     OW26660   1.160  11.379   1.477
 8879SOL    HW126661   1.160  11.443   1.554
 8879SOL    HW226662   1.188  11.427   1.394
 8880SOL     OW26663   0.008  12.498   0.200
 8880SOL    HW126664  -0.085  12.519   0.169
 8880SOL    HW226665   0.018  12.399   0.213
 8881SOL     OW26666   0.504  12.740   0.910
 8881SOL    HW126667   0.570  12.814   0.919
 8881SOL    HW226668   0.548  12.661   0.868
 8882SOL     OW26669   1.002  11.968   1.238
 8882SOL    HW126670   1.043  11.936   1.324
 8882SOL    HW226671   0.906  11.941   1.235
 8883SOL     OW26672   0.040  11.716   1.114
 8883SOL    HW126673   0.125  11.683   1.073
 8883SOL    HW226674   0.053  11.731   1.212
 8884SOL     OW26675   0.189  11.692   1.722
 8884SOL    HW126676   0.248  11.652   1.652
 8884SOL    HW226677   0.131  11.763   1.681
 8885SOL     OW26678   1.369  12.122   1.660
 8885SOL    HW126679   1.408  12.211   1.680
 8885SOL    HW226680   1.379  12.102   1.563
 8886SOL     OW26681   0.815  11.744   0.325
 8886SOL    HW126682   0.822  11.655   0.279
 8886SOL    HW226683   0.721  11.778   0.317
 8887SOL     OW26684   1.657  11.776   1.206
 8887SOL    HW126685   1.619  11.707   1.268
 8887SOL    HW226686   1.739  11.740   1.162
 8888SOL     OW26687   0.252  12.736   1.744
 8888SOL    HW126688   0.222  12.793   1.820
 8888SOL    HW226689   0.245  12.639   1.770
 8889SOL     OW26690   0.671  11.636   1.269
 8889SOL    HW126691   0.637  11.547   1.239
 8889SOL    HW226692   0.697  11.690   1.189
 8890SOL     OW26693   0.473  11.672   0.191
 8890SOL    HW126694   0.534  11.752   0.195
 8890SOL    HW226695   0.378  11.703   0.198
 8891SOL     OW26696   0.159  12.309   1.466
 8891SOL    HW126697   0.181  12.248   1.542
 8891SOL    HW226698   0.169  12.260   1.380
 8892SOL     OW26699   1.347  12.231   1.234
 8892SOL    HW126700   1.371  12.168   1.160
 8892SOL    HW226701   1.257  12.271   1.216
 8893SOL     OW26702   1.302  12.027   0.309
 8893SOL    HW126703   1.216  11.996   0.351
 8893SOL    HW226704   1.298  12.013   0.210
 8894SOL     OW26705   1.252  12.903   1.128
 8894SOL    HW126706   1.336  12.908   1.074
 8894SOL    HW226707   1.229  12.807   1.146
 8895SOL     OW26708   0.083  12.430   1.022
 8895SOL    HW126709   0.078  12.429   1.122
 8895SOL    HW226710   0.000  12.389   0.984
 8896SOL     OW26711   0.903  11.258   0.133
 8896SOL    HW126712   0.954  11.259   0.047
 8896SOL    HW226713   0.959  11.216   0.204
 8897SOL     OW26714   1.726  11.307   0.523
 8897SOL    HW126715   1.799  11.290   0.456
 8897SOL    HW226716   1.695  11.220   0.561
 8898SOL     OW26717   0.130  12.966   1.851
 8898SOL    HW126718   0.089  12.892   1.904
 8898SOL    HW226719   0.194  13.017   1.909
 8899SOL     OW26720   1.280  12.099   0.672
 8899SOL    HW126721   1.340  12.018   0.674
 8899SOL    HW226722   1.320  12.168   0.612
 8900SOL     OW26723   0.830  12.445   1.422
 8900SOL    HW126724   0.825  12.478   1.517
 8900SOL    HW226725   0.744  12.464   1.376
 8901SOL     OW26726   0.672  12.788   0.154
 8901SOL    HW126727   0.681  12.798   0.055
 8901SOL    HW226728   0.632  12.699   0.175
 8902SOL     OW26729   1.841  11.347   0.963
 8902SOL    HW126730   1.880  11.262   0.927
 8902SOL    HW226731   1.743  11.349   0.944
 8903SOL     OW26732   0.263  11.498   0.720
 8903SOL    HW126733   0.184  11.549   0.686
 8903SOL    HW226734   0.254  11.483   0.818
 8904SOL     OW26735   1.194  12.784   0.031
 8904SOL    HW126736   1.200  12.691   0.068
 8904SOL    HW226737   1.135  12.784  -0.049
 8905SOL     OW26738   0.822  12.174   1.372
 8905SOL    HW126739   0.862  12.173   1.280
 8905SOL    HW226740   0.832  12.266   1.412
 8906SOL     OW26741   0.916  12.082   0.291
 8906SOL    HW126742   0.979  12.120   0.223
 8906SOL    HW226743   0.956  11.999   0.330
 8907SOL     OW26744   0.372  12.460   1.490
 8907SOL    HW126745   0.359  12.553   1.456
 8907SOL    HW226746   0.288  12.408   1.477
 8908SOL     OW26747   1.614  12.464   1.289
 8908SOL    HW126748   1.674  12.467   1.369
 8908SOL    HW226749   1.539  12.528   1.302
 8909SOL     OW26750   1.039  12.270   0.696
 8909SOL    HW126751   0.969  12.223   0.750
 8909SOL    HW226752   1.098  12.202   0.653
 8910SOL     OW26753   1.014  11.408   0.971
 8910SOL    HW126754   1.006  11.372   0.878
 8910SOL    HW226755   1.012  11.332   1.036
 8911SOL     OW26756   0.590  12.659   0.491
 8911SOL    HW126757   0.632  12.601   0.421
 8911SOL    HW226758   0.546  12.738   0.447
 8912SOL     OW26759   1.709  11.557   1.381
 8912SOL    HW126760   1.782  11.626   1.385
 8912SOL    HW226761   1.737  11.482   1.322
 8913SOL     OW26762   0.255  12.520   0.290
 8913SOL    HW126763   0.159  12.521   0.263
 8913SOL    HW226764   0.267  12.573   0.374
 8914SOL     OW26765   0.105  12.185   1.726
 8914SOL    HW126766   0.028  12.152   1.780
 8914SOL    HW226767   0.190  12.155   1.768
 8915SOL     OW26768   0.672  11.375   1.489
 8915SOL    HW126769   0.762  11.359   1.449
 8915SOL    HW226770   0.680  11.380   1.588
 8916SOL     OW26771   0.075  11.517   0.033
 8916SOL    HW126772  -0.017  11.489   0.004
 8916SOL    HW226773   0.106  11.594  -0.023
 8917SOL     OW26774   1.440  12.028   1.398
 8917SOL    HW126775   1.383  12.080   1.335
 8917SOL    HW226776   1.536  12.040   1.374
 8918SOL     OW26777   0.072  11.338   0.318
 8918SOL    HW126778   0.055  11.421   0.264
 8918SOL    HW226779   0.162  11.301   0.296
 8919SOL     OW26780   1.183  12.507   0.119
 8919SOL    HW126781   1.084  12.496   0.121
 8919SOL    HW226782   1.217  12.522   0.212
 8920SOL     OW26783   0.613  12.014   1.431
 8920SOL    HW126784   0.669  12.095   1.414
 8920SOL    HW226785   0.672  11.934   1.434
 8921SOL     OW26786   0.716  11.737   1.708
 8921SOL    HW126787   0.735  11.802   1.782
 8921SOL    HW226788   0.776  11.657   1.717
 8922SOL     OW26789   1.450  12.392   1.633
 8922SOL    HW126790   1.441  12.382   1.732
 8922SOL    HW226791   1.546  12.385   1.607
 8923SOL     OW26792   1.674  12.055   1.254
 8923SOL    HW126793   1.647  11.966   1.217
 8923SOL    HW226794   1.675  12.123   1.181
 8924SOL     OW26795   1.225  11.497   0.449
 8924SOL    HW126796   1.290  11.423   0.438
 8924SOL    HW226797   1.245  11.547   0.533
 8925SOL     OW26798   0.594  11.917   0.652
 8925SOL    HW126799   0.644  12.002   0.633
 8925SOL    HW226800   0.506  11.919   0.604
 8926SOL     OW26801   1.777  11.514   1.642
 8926SOL    HW126802   1.760  11.545   1.548
 8926SOL    HW226803   1.693  11.477   1.680
 8927SOL     OW26804   1.730  12.106   1.517
 8927SOL    HW126805   1.768  12.197   1.532
 8927SOL    HW226806   1.722  12.089   1.418
 8928SOL     OW26807   0.859  12.546   0.016
 8928SOL    HW126808   0.813  12.561   0.104
 8928SOL    HW226809   0.903  12.631  -0.014
 8929SOL     OW26810   0.859  12.128   0.861
 8929SOL    HW126811   0.913  12.059   0.909
 8929SOL    HW226812   0.827  12.197   0.927
 8930SOL     OW26813   1.083  12.156   0.087
 8930SOL    HW126814   1.060  12.209   0.005
 8930SOL    HW226815   1.164  12.100   0.068
 8931SOL     OW26816   1.861  12.741   0.851
 8931SOL    HW126817   1.790  12.729   0.781
 8931SOL    HW226818   1.862  12.662   0.911
 8932SOL     OW26819   0.221  12.486   1.844
 8932SOL    HW126820   0.156  12.413   1.823
 8932SOL    HW226821   0.225  12.500   1.942
 8933SOL     OW26822   0.079  12.412   0.653
 8933SOL    HW126823   0.078  12.365   0.741
 8933SOL    HW226824   0.161  12.384   0.602
 8934SOL     OW26825   0.672  12.563   1.624
 8934SOL    HW126826   0.594  12.513   1.662
 8934SOL    HW226827   0.669  12.658   1.655
 8935SOL     OW26828   1.824  11.364   1.227
 8935SOL    HW126829   1.820  11.274   1.271
 8935SOL    HW226830   1.827  11.353   1.128
 8936SOL     OW26831   0.428  11.596   0.520
 8936SOL    HW126832   0.458  11.524   0.458
 8936SOL    HW226833   0.389  11.556   0.603
 8937SOL     OW26834   1.705  12.659   1.104
 8937SOL    HW126835   1.612  12.634   1.077
 8937SOL    HW226836   1.731  12.609   1.186
 8938SOL     OW26837   0.317  11.719   1.280
 8938SOL    HW126838   0.355  11.660   1.352
 8938SOL    HW226839   0.357  11.693   1.192
 8939SOL     OW26840   1.424  11.386   1.112
 8939SOL    HW126841   1.476  11.321   1.167
 8939SOL    HW226842   1.375  11.449   1.173
 8940SOL     OW26843   1.001  11.206   1.154
 8940SOL    HW126844   0.938  11.134   1.123
 8940SOL    HW226845   1.094  11.170   1.154
 8941SOL     OW26846   0.770  12.502   0.301
 8941SOL    HW126847   0.724  12.415   0.318
 8941SOL    HW226848   0.861  12.499   0.342
 8942SOL     OW26849   0.618  12.739   1.284
 8942SOL    HW126850   0.613  12.821   1.341
 8942SOL    HW226851   0.707  12.736   1.239
 8943SOL     OW26852   1.352  11.224   0.168
 8943SOL    HW126853   1.387  11.183   0.084
 8943SOL    HW226854   1.262  11.186   0.188
 8944SOL     OW26855   1.300  11.625   0.691
 8944SOL    HW126856   1.241  11.705   0.695
 8944SOL    HW226857   1.315  11.590   0.784
 8945SOL     OW26858   1.593  11.393   0.882
 8945SOL    HW126859   1.509  11.392   0.936
 8945SOL    HW226860   1.595  11.476   0.826
 8946SOL     OW26861   0.039  12.249   0.300
 8946SOL    HW126862   0.138  12.238   0.291
 8946SOL    HW226863  -0.001  12.163   0.332
 8947SOL     OW26864   0.230  11.800   1.975
 8947SOL    HW126865   0.137  11.798   2.012
 8947SOL    HW226866   0.231  11.761   1.883
 8948SOL     OW26867   0.225  11.447   2.858
 8948SOL    HW126868   0.260  11.430   2.950
 8948SOL    HW226869   0.137  11.402   2.846
 8949SOL     OW26870   0.019  11.540   2.509
 8949SOL    HW126871  -0.063  11.583   2.548
 8949SOL    HW226872  -0.009  11.467   2.446
 8950SOL     OW26873   0.569  12.447   3.027
 8950SOL    HW126874   0.476  12.440   2.990
 8950SOL    HW226875   0.580  12.536   3.071
 8951SOL     OW26876   1.555  12.683   2.565
 8951SOL    HW126877   1.498  12.667   2.646
 8951SOL    HW226878   1.496  12.693   2.485
 8952SOL     OW26879   1.135  11.875   2.579
 8952SOL    HW126880   1.192  11.953   2.554
 8952SOL    HW226881   1.075  11.901   2.655
 8953SOL     OW26882   1.755  11.779   2.093
 8953SOL    HW126883   1.743  11.766   1.994
 8953SOL    HW226884   1.725  11.698   2.142
 8954SOL     OW26885   0.768  12.316   2.885
 8954SOL    HW126886   0.690  12.333   2.945
 8954SOL    HW226887   0.802  12.403   2.849
 8955SOL     OW26888   0.850  11.970   3.685
 8955SOL    HW126889   0.846  12.046   3.750
 8955SOL    HW226890   0.872  12.006   3.594
 8956SOL     OW26891   0.685  12.184   2.527
 8956SOL    HW126892   0.754  12.168   2.597
 8956SOL    HW226893   0.612  12.241   2.565
 8957SOL     OW26894   0.686  12.333   3.665
 8957SOL    HW126895   0.746  12.412   3.679
 8957SOL    HW226896   0.600  12.364   3.624
 8958SOL     OW26897   0.335  12.607   2.923
 8958SOL    HW126898   0.257  12.576   2.870
 8958SOL    HW226899   0.393  12.665   2.866
 8959SOL     OW26900   1.460  12.677   3.201
 8959SOL    HW126901   1.484  12.771   3.227
 8959SOL    HW226902   1.444  12.623   3.283
 8960SOL     OW26903   0.438  11.564   3.361
 8960SOL    HW126904   0.520  11.508   3.370
 8960SOL    HW226905   0.357  11.506   3.365
 8961SOL     OW26906   1.603  11.619   2.599
 8961SOL    HW126907   1.529  11.665   2.549
 8961SOL    HW226908   1.654  11.687   2.652
 8962SOL     OW26909   1.127  12.513   3.552
 8962SOL    HW126910   1.174  12.513   3.640
 8962SOL    HW226911   1.079  12.426   3.541
 8963SOL     OW26912   0.230  12.606   2.400
 8963SOL    HW126913   0.204  12.702   2.400
 8963SOL    HW226914   0.159  12.552   2.445
 8964SOL     OW26915   0.240  12.263   2.748
 8964SOL    HW126916   0.254  12.179   2.800
 8964SOL    HW226917   0.185  12.327   2.803
 8965SOL     OW26918   0.606  12.136   1.985
 8965SOL    HW126919   0.613  12.220   1.931
 8965SOL    HW226920   0.652  12.149   2.073
 8966SOL     OW26921   1.594  11.286   3.342
 8966SOL    HW126922   1.576  11.353   3.270
 8966SOL    HW226923   1.591  11.332   3.431
 8967SOL     OW26924   0.122  11.815   2.425
 8967SOL    HW126925   0.077  11.727   2.442
 8967SOL    HW226926   0.121  11.869   2.509
 8968SOL     OW26927   0.027  12.768   1.979
 8968SOL    HW126928   0.008  12.672   2.000
 8968SOL    HW226929  -0.006  12.826   2.054
 8969SOL     OW26930   1.689  12.094   2.474
 8969SOL    HW126931   1.784  12.065   2.482
 8969SOL    HW226932   1.681  12.159   2.399
 8970SOL     OW26933   1.641  12.280   2.294
 8970SOL    HW126934   1.727  12.282   2.242
 8970SOL    HW226935   1.655  12.327   2.382
 8971SOL     OW26936   0.113  11.909   3.459
 8971SOL    HW126937   0.201  11.896   3.504
 8971SOL    HW226938   0.100  12.006   3.437
 8972SOL     OW26939   0.613  12.537   2.588
 8972SOL    HW126940   0.564  12.450   2.597
 8972SOL    HW226941   0.590  12.580   2.501
 8973SOL     OW26942   1.293  12.400   3.285
 8973SOL    HW126943   1.330  12.327   3.227
 8973SOL    HW226944   1.345  12.405   3.370
 8974SOL     OW26945   0.809  11.176   2.364
 8974SOL    HW126946   0.849  11.267   2.355
 8974SOL    HW226947   0.709  11.184   2.370
 8975SOL     OW26948   0.197  12.148   3.126
 8975SOL    HW126949   0.286  12.103   3.112
 8975SOL    HW226950   0.124  12.083   3.107
 8976SOL     OW26951   1.525  12.171   2.052
 8976SOL    HW126952   1.462  12.095   2.065
 8976SOL    HW226953   1.573  12.189   2.138
 8977SOL     OW26954   0.317  11.423   3.663
 8977SOL    HW126955   0.388  11.494   3.669
 8977SOL    HW226956   0.229  11.462   3.691
 8978SOL     OW26957   1.466  12.589   2.815
 8978SOL    HW126958   1.407  12.595   2.895
 8978SOL    HW226959   1.451  12.501   2.769
 8979SOL     OW26960   0.598  11.901   2.132
 8979SOL    HW126961   0.622  11.970   2.064
 8979SOL    HW226962   0.520  11.934   2.186
 8980SOL     OW26963   1.281  11.517   2.806
 8980SOL    HW126964   1.195  11.467   2.793
 8980SOL    HW226965   1.343  11.463   2.862
 8981SOL     OW26966   1.576  12.834   2.169
 8981SOL    HW126967   1.665  12.880   2.172
 8981SOL    HW226968   1.555  12.810   2.074
 8982SOL     OW26969   0.807  11.777   3.327
 8982SOL    HW126970   0.760  11.774   3.416
 8982SOL    HW226971   0.756  11.722   3.261
 8983SOL     OW26972   1.394  11.641   3.536
 8983SOL    HW126973   1.374  11.684   3.624
 8983SOL    HW226974   1.472  11.579   3.545
 8984SOL     OW26975   0.973  12.062   3.434
 8984SOL    HW126976   1.019  11.978   3.405
 8984SOL    HW226977   0.917  12.096   3.359
 8985SOL     OW26978   0.991  11.582   3.104
 8985SOL    HW126979   0.914  11.616   3.158
 8985SOL    HW226980   0.957  11.531   3.025
 8986SOL     OW26981   1.041  11.873   2.291
 8986SOL    HW126982   1.067  11.869   2.387
 8986SOL    HW226983   0.956  11.822   2.277
 8987SOL     OW26984   0.076  11.983   2.651
 8987SOL    HW126985   0.175  11.971   2.660
 8987SOL    HW226986   0.052  12.078   2.672
 8988SOL     OW26987   0.865  11.520   2.057
 8988SOL    HW126988   0.924  11.583   2.008
 8988SOL    HW226989   0.884  11.426   2.028
 8989SOL     OW26990   1.719  11.757   3.693
 8989SOL    HW126991   1.693  11.846   3.657
 8989SOL    HW226992   1.717  11.689   3.620
 8990SOL     OW26993   1.362  12.316   2.407
 8990SOL    HW126994   1.445  12.287   2.359
 8990SOL    HW226995   1.313  12.383   2.351
 8991SOL     OW26996   0.550  11.368   2.747
 8991SOL    HW126997   0.545  11.363   2.847
 8991SOL    HW226998   0.552  11.464   2.718
 8992SOL     OW26999   1.008  12.628   2.339
 8992SOL    HW127000   0.962  12.700   2.287
 8992SOL    HW227001   1.004  12.648   2.437
 8993SOL     OW27002   1.795  12.238   2.735
 8993SOL    HW127003   1.733  12.223   2.659
 8993SOL    HW227004   1.743  12.249   2.820
 8994SOL     OW27005   1.227  12.722   3.368
 8994SOL    HW127006   1.233  12.645   3.432
 8994SOL    HW227007   1.175  12.696   3.288
 8995SOL     OW27008   0.321  12.115   2.104
 8995SOL    HW127009   0.403  12.154   2.062
 8995SOL    HW227010   0.294  12.033   2.055
 8996SOL     OW27011   1.458  11.907   2.590
 8996SOL    HW127012   1.453  11.842   2.665
 8996SOL    HW227013   1.538  11.966   2.603
 8997SOL     OW27014   0.461  12.438   3.589
 8997SOL    HW127015   0.411  12.439   3.503
 8997SOL    HW227016   0.398  12.420   3.665
 8998SOL     OW27017   0.202  11.457   3.360
 8998SOL    HW127018   0.122  11.517   3.347
 8998SOL    HW227019   0.192  11.408   3.446
 8999SOL     OW27020   1.632  12.549   1.943
 8999SOL    HW127021   1.600  12.643   1.933
 8999SOL    HW227022   1.556  12.486   1.931
 9000SOL     OW27023   1.400  11.279   2.288
 9000SOL    HW127024   1.376  11.242   2.198
 9000SOL    HW227025   1.499  11.295   2.292
 9001SOL     OW27026   0.382  11.872   2.342
 9001SOL    HW127027   0.427  11.782   2.339
 9001SOL    HW227028   0.288  11.861   2.375
 9002SOL     OW27029   1.547  11.394   3.591
 9002SOL    HW127030   1.542  11.431   3.683
 9002SOL    HW227031   1.475  11.325   3.579
 9003SOL     OW27032   0.614  11.294   1.979
 9003SOL    HW127033   0.712  11.272   1.986
 9003SOL    HW227034   0.583  11.277   1.886
 9004SOL     OW27035   0.781  11.436   3.611
 9004SOL    HW127036   0.848  11.375   3.654
 9004SOL    HW227037   0.708  11.455   3.676
 9005SOL     OW27038   1.351  11.762   3.295
 9005SOL    HW127039   1.379  11.719   3.380
 9005SOL    HW227040   1.376  11.858   3.296
 9006SOL     OW27041   0.803  12.574   2.786
 9006SOL    HW127042   0.893  12.588   2.744
 9006SOL    HW227043   0.732  12.576   2.715
 9007SOL     OW27044   0.922  11.675   2.761
 9007SOL    HW127045   0.897  11.666   2.665
 9007SOL    HW227046   0.970  11.593   2.792
 9008SOL     OW27047   0.539  11.236   2.374
 9008SOL    HW127048   0.458  11.237   2.432
 9008SOL    HW227049   0.542  11.319   2.319
 9009SOL     OW27050   1.434  12.360   1.903
 9009SOL    HW127051   1.466  12.284   1.960
 9009SOL    HW227052   1.342  12.387   1.933
 9010SOL     OW27053   0.297  11.207   2.033
 9010SOL    HW127054   0.346  11.291   2.012
 9010SOL    HW227055   0.359  11.142   2.078
 9011SOL     OW27056   0.935  11.408   2.342
 9011SOL    HW127057   0.887  11.449   2.264
 9011SOL    HW227058   1.034  11.406   2.323
 9012SOL     OW27059   1.076  11.855   3.326
 9012SOL    HW127060   0.996  11.794   3.329
 9012SOL    HW227061   1.157  11.802   3.302
 9013SOL     OW27062   1.227  12.742   2.655
 9013SOL    HW127063   1.248  12.816   2.590
 9013SOL    HW227064   1.295  12.742   2.728
 9014SOL     OW27065   0.459  12.324   2.603
 9014SOL    HW127066   0.388  12.297   2.668
 9014SOL    HW227067   0.433  12.296   2.510
 9015SOL     OW27068   1.032  11.721   1.878
 9015SOL    HW127069   0.991  11.803   1.839
 9015SOL    HW227070   1.096  11.747   1.951
 9016SOL     OW27071   0.078  11.728   3.248
 9016SOL    HW127072   0.170  11.727   3.207
 9016SOL    HW227073   0.072  11.802   3.315
 9017SOL     OW27074   0.561  11.394   3.009
 9017SOL    HW127075   0.599  11.310   3.046
 9017SOL    HW227076   0.473  11.413   3.053
 9018SOL     OW27077   0.866  11.626   2.504
 9018SOL    HW127078   0.834  11.698   2.442
 9018SOL    HW227079   0.890  11.545   2.451
 9019SOL     OW27080   1.017  11.211   2.615
 9019SOL    HW127081   0.945  11.216   2.546
 9019SOL    HW227082   0.993  11.142   2.684
 9020SOL     OW27083   1.429  12.345   2.729
 9020SOL    HW127084   1.374  12.261   2.722
 9020SOL    HW227085   1.455  12.374   2.637
 9021SOL     OW27086   1.466  11.762   2.854
 9021SOL    HW127087   1.436  11.667   2.861
 9021SOL    HW227088   1.539  11.778   2.920
 9022SOL     OW27089   1.857  12.005   2.239
 9022SOL    HW127090   1.899  11.941   2.303
 9022SOL    HW227091   1.819  11.954   2.161
 9023SOL     OW27092   0.488  12.557   2.036
 9023SOL    HW127093   0.401  12.542   2.083
 9023SOL    HW227094   0.471  12.583   1.941
 9024SOL     OW27095   1.664  12.452   2.519
 9024SOL    HW127096   1.763  12.460   2.533
 9024SOL    HW227097   1.619  12.536   2.550
 9025SOL     OW27098   1.390  11.747   1.940
 9025SOL    HW127099   1.336  11.726   2.021
 9025SOL    HW227100   1.481  11.706   1.949
 9026SOL     OW27101   0.527  11.428   2.190
 9026SOL    HW127102   0.554  11.369   2.115
 9026SOL    HW227103   0.527  11.523   2.159
 9027SOL     OW27104   1.754  12.395   3.450
 9027SOL    HW127105   1.845  12.356   3.437
 9027SOL    HW227106   1.762  12.491   3.474
 9028SOL     OW27107   1.064  12.519   3.202
 9028SOL    HW127108   0.984  12.496   3.257
 9028SOL    HW227109   1.147  12.493   3.251
 9029SOL     OW27110   1.111  12.367   2.962
 9029SOL    HW127111   1.071  12.411   3.043
 9029SOL    HW227112   1.070  12.404   2.879
 9030SOL     OW27113   1.638  12.271   2.941
 9030SOL    HW127114   1.643  12.352   3.000
 9030SOL    HW227115   1.552  12.273   2.890
 9031SOL     OW27116   0.915  11.261   3.264
 9031SOL    HW127117   0.940  11.241   3.169
 9031SOL    HW227118   0.987  11.317   3.306
 9032SOL     OW27119   0.980  12.288   3.581
 9032SOL    HW127120   0.881  12.294   3.591
 9032SOL    HW227121   1.003  12.208   3.525
 9033SOL     OW27122   0.705  12.222   2.230
 9033SOL    HW127123   0.691  12.229   2.329
 9033SOL    HW227124   0.789  12.171   2.212
 9034SOL     OW27125   0.410  11.985   3.113
 9034SOL    HW127126   0.496  11.997   3.163
 9034SOL    HW227127   0.368  11.898   3.140
 9035SOL     OW27128   1.274  11.558   3.124
 9035SOL    HW127129   1.295  11.632   3.188
 9035SOL    HW227130   1.185  11.575   3.081
 9036SOL     OW27131   0.064  12.736   3.193
 9036SOL    HW127132   0.018  12.818   3.159
 9036SOL    HW227133   0.162  12.755   3.202
 9037SOL     OW27134   0.367  12.272   2.363
 9037SOL    HW127135   0.360  12.355   2.307
 9037SOL    HW227136   0.371  12.192   2.303
 9038SOL     OW27137   0.566  11.709   2.727
 9038SOL    HW127138   0.578  11.775   2.653
 9038SOL    HW227139   0.612  11.743   2.810
 9039SOL     OW27140   1.252  12.520   2.250
 9039SOL    HW127141   1.302  12.597   2.290
 9039SOL    HW227142   1.157  12.522   2.282
 9040SOL     OW27143   1.272  12.617   3.004
 9040SOL    HW127144   1.319  12.630   3.091
 9040SOL    HW227145   1.206  12.543   3.013
 9041SOL     OW27146   1.582  11.811   2.334
 9041SOL    HW127147   1.551  11.872   2.407
 9041SOL    HW227148   1.632  11.863   2.265
 9042SOL     OW27149   0.354  12.682   3.191
 9042SOL    HW127150   0.333  12.638   3.104
 9042SOL    HW227151   0.451  12.708   3.194
 9043SOL     OW27152   0.402  11.923   3.460
 9043SOL    HW127153   0.470  11.978   3.413
 9043SOL    HW227154   0.442  11.835   3.487
 9044SOL     OW27155   1.587  11.951   3.532
 9044SOL    HW127156   1.495  11.989   3.527
 9044SOL    HW227157   1.647  11.998   3.467
 9045SOL     OW27158   1.013  11.277   3.632
 9045SOL    HW127159   1.019  11.362   3.580
 9045SOL    HW227160   1.045  11.201   3.575
 9046SOL     OW27161   0.504  11.222   3.602
 9046SOL    HW127162   0.462  11.165   3.532
 9046SOL    HW227163   0.438  11.291   3.634
 9047SOL     OW27164   0.573  12.042   2.891
 9047SOL    HW127165   0.617  12.131   2.882
 9047SOL    HW227166   0.510  12.042   2.968
 9048SOL     OW27167   1.360  12.034   2.907
 9048SOL    HW127168   1.285  12.034   2.841
 9048SOL    HW227169   1.397  11.942   2.916
 9049SOL     OW27170   1.209  11.697   2.137
 9049SOL    HW127171   1.222  11.613   2.191
 9049SOL    HW227172   1.180  11.771   2.197
 9050SOL     OW27173   0.307  11.385   3.093
 9050SOL    HW127174   0.284  11.422   3.183
 9050SOL    HW227175   0.277  11.290   3.087
 9051SOL     OW27176   0.037  12.482   3.144
 9051SOL    HW127177   0.090  12.433   3.212
 9051SOL    HW227178   0.059  12.580   3.149
 9052SOL     OW27179   0.732  11.806   2.926
 9052SOL    HW127180   0.791  11.780   2.850
 9052SOL    HW227181   0.704  11.902   2.915
 9053SOL     OW27182   1.728  12.107   3.716
 9053SOL    HW127183   1.682  12.100   3.627
 9053SOL    HW227184   1.666  12.151   3.782
 9054SOL     OW27185   0.307  11.235   2.480
 9054SOL    HW127186   0.296  11.329   2.513
 9054SOL    HW227187   0.302  11.172   2.557
 9055SOL     OW27188   1.622  11.539   2.236
 9055SOL    HW127189   1.624  11.463   2.300
 9055SOL    HW227190   1.574  11.616   2.276
 9056SOL     OW27191   1.023  11.938   2.828
 9056SOL    HW127192   1.038  11.959   2.924
 9056SOL    HW227193   0.993  11.843   2.819
 9057SOL     OW27194   1.859  12.690   3.467
 9057SOL    HW127195   1.873  12.717   3.372
 9057SOL    HW227196   1.942  12.712   3.520
 9058SOL     OW27197   0.350  12.070   3.666
 9058SOL    HW127198   0.426  12.114   3.714
 9058SOL    HW227199   0.385  12.023   3.584
 9059SOL     OW27200   1.540  11.446   1.987
 9059SOL    HW127201   1.479  11.371   2.010
 9059SOL    HW227202   1.562  11.498   2.070
 9060SOL     OW27203   1.303  12.010   1.904
 9060SOL    HW127204   1.337  11.917   1.919
 9060SOL    HW227205   1.321  12.037   1.809
 9061SOL     OW27206   1.068  12.505   2.711
 9061SOL    HW127207   1.075  12.421   2.656
 9061SOL    HW227208   1.130  12.574   2.675
 9062SOL     OW27209   0.319  11.982   2.811
 9062SOL    HW127210   0.412  12.018   2.816
 9062SOL    HW227211   0.313  11.897   2.863
 9063SOL     OW27212   0.339  11.681   2.868
 9063SOL    HW127213   0.287  11.598   2.851
 9063SOL    HW227214   0.416  11.686   2.804
 9064SOL     OW27215   1.138  11.552   3.540
 9064SOL    HW127216   1.093  11.615   3.604
 9064SOL    HW227217   1.231  11.583   3.523
 9065SOL     OW27218   1.160  11.379   3.339
 9065SOL    HW127219   1.160  11.443   3.416
 9065SOL    HW227220   1.188  11.427   3.256
 9066SOL     OW27221   0.008  12.498   2.062
 9066SOL    HW127222  -0.085  12.519   2.031
 9066SOL    HW227223   0.018  12.399   2.075
 9067SOL     OW27224   0.504  12.740   2.772
 9067SOL    HW127225   0.570  12.814   2.781
 9067SOL    HW227226   0.548  12.661   2.730
 9068SOL     OW27227   1.002  11.968   3.100
 9068SOL    HW127228   1.043  11.936   3.186
 9068SOL    HW227229   0.906  11.941   3.097
 9069SOL     OW27230   0.040  11.716   2.976
 9069SOL    HW127231   0.125  11.683   2.935
 9069SOL    HW227232   0.053  11.731   3.074
 9070SOL     OW27233   0.189  11.692   3.584
 9070SOL    HW127234   0.248  11.652   3.514
 9070SOL    HW227235   0.131  11.763   3.543
 9071SOL     OW27236   1.369  12.122   3.522
 9071SOL    HW127237   1.408  12.211   3.542
 9071SOL    HW227238   1.379  12.102   3.425
 9072SOL     OW27239   0.815  11.744   2.187
 9072SOL    HW127240   0.822  11.655   2.141
 9072SOL    HW227241   0.721  11.778   2.179
 9073SOL     OW27242   1.657  11.776   3.068
 9073SOL    HW127243   1.619  11.707   3.130
 9073SOL    HW227244   1.739  11.740   3.024
 9074SOL     OW27245   0.252  12.736   3.606
 9074SOL    HW127246   0.222  12.793   3.682
 9074SOL    HW227247   0.245  12.639   3.632
 9075SOL     OW27248   0.671  11.636   3.131
 9075SOL    HW127249   0.637  11.547   3.101
 9075SOL    HW227250   0.697  11.690   3.051
 9076SOL     OW27251   0.473  11.672   2.053
 9076SOL    HW127252   0.534  11.752   2.057
 9076SOL    HW227253   0.378  11.703   2.060
 9077SOL     OW27254   0.159  12.309   3.328
 9077SOL    HW127255   0.181  12.248   3.404
 9077SOL    HW227256   0.169  12.260   3.242
 9078SOL     OW27257   1.347  12.231   3.096
 9078SOL    HW127258   1.371  12.168   3.022
 9078SOL    HW227259   1.257  12.271   3.078
 9079SOL     OW27260   1.302  12.027   2.171
 9079SOL    HW127261   1.216  11.996   2.213
 9079SOL    HW227262   1.298  12.013   2.072
 9080SOL     OW27263   1.252  12.903   2.990
 9080SOL    HW127264   1.336  12.908   2.936
 9080SOL    HW227265   1.229  12.807   3.008
 9081SOL     OW27266   0.083  12.430   2.884
 9081SOL    HW127267   0.078  12.429   2.984
 9081SOL    HW227268   0.000  12.389   2.846
 9082SOL     OW27269   1.726  11.307   2.385
 9082SOL    HW127270   1.799  11.290   2.318
 9082SOL    HW227271   1.695  11.220   2.423
 9083SOL     OW27272   0.130  12.966   3.713
 9083SOL    HW127273   0.089  12.892   3.766
 9083SOL    HW227274   0.194  13.017   3.771
 9084SOL     OW27275   1.280  12.099   2.534
 9084SOL    HW127276   1.340  12.018   2.536
 9084SOL    HW227277   1.320  12.168   2.474
 9085SOL     OW27278   0.830  12.445   3.284
 9085SOL    HW127279   0.825  12.478   3.379
 9085SOL    HW227280   0.744  12.464   3.238
 9086SOL     OW27281   0.672  12.788   2.016
 9086SOL    HW127282   0.681  12.798   1.917
 9086SOL    HW227283   0.632  12.699   2.037
 9087SOL     OW27284   1.841  11.347   2.825
 9087SOL    HW127285   1.880  11.262   2.789
 9087SOL    HW227286   1.743  11.349   2.806
 9088SOL     OW27287   0.263  11.498   2.582
 9088SOL    HW127288   0.184  11.549   2.548
 9088SOL    HW227289   0.254  11.483   2.680
 9089SOL     OW27290   1.194  12.784   1.893
 9089SOL    HW127291   1.200  12.691   1.930
 9089SOL    HW227292   1.135  12.784   1.813
 9090SOL     OW27293   0.822  12.174   3.234
 9090SOL    HW127294   0.862  12.173   3.142
 9090SOL    HW227295   0.832  12.266   3.274
 9091SOL     OW27296   0.916  12.082   2.153
 9091SOL    HW127297   0.979  12.120   2.085
 9091SOL    HW227298   0.956  11.999   2.192
 9092SOL     OW27299   0.372  12.460   3.352
 9092SOL    HW127300   0.359  12.553   3.318
 9092SOL    HW227301   0.288  12.408   3.339
 9093SOL     OW27302   1.614  12.464   3.151
 9093SOL    HW127303   1.674  12.467   3.231
 9093SOL    HW227304   1.539  12.528   3.164
 9094SOL     OW27305   1.039  12.270   2.558
 9094SOL    HW127306   0.969  12.223   2.612
 9094SOL    HW227307   1.098  12.202   2.515
 9095SOL     OW27308   1.014  11.408   2.833
 9095SOL    HW127309   1.006  11.372   2.740
 9095SOL    HW227310   1.012  11.332   2.898
 9096SOL     OW27311   0.590  12.659   2.353
 9096SOL    HW127312   0.632  12.601   2.283
 9096SOL    HW227313   0.546  12.738   2.309
 9097SOL     OW27314   1.709  11.557   3.243
 9097SOL    HW127315   1.782  11.626   3.247
 9097SOL    HW227316   1.737  11.482   3.184
 9098SOL     OW27317   0.255  12.520   2.152
 9098SOL    HW127318   0.159  12.521   2.125
 9098SOL    HW227319   0.267  12.573   2.236
 9099SOL     OW27320   0.105  12.185   3.588
 9099SOL    HW127321   0.028  12.152   3.642
 9099SOL    HW227322   0.190  12.155   3.630
 9100SOL     OW27323   0.672  11.375   3.351
 9100SOL    HW127324   0.762  11.359   3.311
 9100SOL    HW227325   0.680  11.380   3.450
 9101SOL     OW27326   0.075  11.517   1.895
 9101SOL    HW127327  -0.017  11.489   1.866
 9101SOL    HW227328   0.106  11.594   1.839
 9102SOL     OW27329   1.440  12.028   3.260
 9102SOL    HW127330   1.383  12.080   3.197
 9102SOL    HW227331   1.536  12.040   3.236
 9103SOL     OW27332   0.072  11.338   2.180
 9103SOL    HW127333   0.055  11.421   2.126
 9103SOL    HW227334   0.162  11.301   2.158
 9104SOL     OW27335   1.183  12.507   1.981
 9104SOL    HW127336   1.084  12.496   1.983
 9104SOL    HW227337   1.217  12.522   2.074
 9105SOL     OW27338   0.613  12.014   3.293
 9105SOL    HW127339   0.669  12.095   3.276
 9105SOL    HW227340   0.672  11.934   3.296
 9106SOL     OW27341   0.716  11.737   3.570
 9106SOL    HW127342   0.735  11.802   3.644
 9106SOL    HW227343   0.776  11.657   3.579
 9107SOL     OW27344   1.450  12.392   3.495
 9107SOL    HW127345   1.441  12.382   3.594
 9107SOL    HW227346   1.546  12.385   3.469
 9108SOL     OW27347   1.674  12.055   3.116
 9108SOL    HW127348   1.647  11.966   3.079
 9108SOL    HW227349   1.675  12.123   3.043
 9109SOL     OW27350   1.225  11.497   2.311
 9109SOL    HW127351   1.290  11.423   2.300
 9109SOL    HW227352   1.245  11.547   2.395
 9110SOL     OW27353   0.594  11.917   2.514
 9110SOL    HW127354   0.644  12.002   2.495
 9110SOL    HW227355   0.506  11.919   2.466
 9111SOL     OW27356   1.777  11.514   3.504
 9111SOL    HW127357   1.760  11.545   3.410
 9111SOL    HW227358   1.693  11.477   3.542
 9112SOL     OW27359   1.730  12.106   3.379
 9112SOL    HW127360   1.768  12.197   3.394
 9112SOL    HW227361   1.722  12.089   3.280
 9113SOL     OW27362   0.859  12.546   1.878
 9113SOL    HW127363   0.813  12.561   1.966
 9113SOL    HW227364   0.903  12.631   1.848
 9114SOL     OW27365   0.859  12.128   2.723
 9114SOL    HW127366   0.913  12.059   2.771
 9114SOL    HW227367   0.827  12.197   2.789
 9115SOL     OW27368   1.083  12.156   1.949
 9115SOL    HW127369   1.060  12.209   1.867
 9115SOL    HW227370   1.164  12.100   1.930
 9116SOL     OW27371   1.861  12.741   2.713
 9116SOL    HW127372   1.790  12.729   2.643
 9116SOL    HW227373   1.862  12.662   2.773
 9117SOL     OW27374   0.221  12.486   3.706
 9117SOL    HW127375   0.156  12.413   3.685
 9117SOL    HW227376   0.225  12.500   3.804
 9118SOL     OW27377   0.079  12.412   2.515
 9118SOL    HW127378   0.078  12.365   2.603
 9118SOL    HW227379   0.161  12.384   2.464
 9119SOL     OW27380   0.672  12.563   3.486
 9119SOL    HW127381   0.594  12.513   3.524
 9119SOL    HW227382   0.669  12.658   3.517
 9120SOL     OW27383   1.824  11.364   3.089
 9120SOL    HW127384   1.820  11.274   3.133
 9120SOL    HW227385   1.827  11.353   2.990
 9121SOL     OW27386   0.428  11.596   2.382
 9121SOL    HW127387   0.458  11.524   2.320
 9121SOL    HW227388   0.389  11.556   2.465
 9122SOL     OW27389   1.705  12.659   2.966
 9122SOL    HW127390   1.612  12.634   2.939
 9122SOL    HW227391   1.731  12.609   3.048
 9123SOL     OW27392   0.317  11.719   3.142
 9123SOL    HW127393   0.355  11.660   3.214
 9123SOL    HW227394   0.357  11.693   3.054
 9124SOL     OW27395   1.424  11.386   2.974
 9124SOL    HW127396   1.476  11.321   3.029
 9124SOL    HW227397   1.375  11.449   3.035
 9125SOL     OW27398   1.001  11.206   3.016
 9125SOL    HW127399   0.938  11.134   2.985
 9125SOL    HW227400   1.094  11.170   3.016
 9126SOL     OW27401   0.770  12.502   2.163
 9126SOL    HW127402   0.724  12.415   2.180
 9126SOL    HW227403   0.861  12.499   2.204
 9127SOL     OW27404   0.618  12.739   3.146
 9127SOL    HW127405   0.613  12.821   3.203
 9127SOL    HW227406   0.707  12.736   3.101
 9128SOL     OW27407   1.352  11.224   2.030
 9128SOL    HW127408   1.387  11.183   1.946
 9128SOL    HW227409   1.262  11.186   2.050
 9129SOL     OW27410   1.300  11.625   2.553
 9129SOL    HW127411   1.241  11.705   2.557
 9129SOL    HW227412   1.315  11.590   2.646
 9130SOL     OW27413   1.593  11.393   2.744
 9130SOL    HW127414   1.509  11.392   2.798
 9130SOL    HW227415   1.595  11.476   2.688
 9131SOL     OW27416   0.039  12.249   2.162
 9131SOL    HW127417   0.138  12.238   2.153
 9131SOL    HW227418  -0.001  12.163   2.194
 9132SOL     OW27419   0.230  11.800   3.837
 9132SOL    HW127420   0.137  11.798   3.874
 9132SOL    HW227421   0.231  11.761   3.745
 9133SOL     OW27422   0.225  11.447   4.720
 9133SOL    HW127423   0.260  11.430   4.812
 9133SOL    HW227424   0.137  11.402   4.708
 9134SOL     OW27425   0.019  11.540   4.371
 9134SOL    HW127426  -0.063  11.583   4.410
 9134SOL    HW227427  -0.009  11.467   4.308
 9135SOL     OW27428   0.569  12.447   4.889
 9135SOL    HW127429   0.476  12.440   4.852
 9135SOL    HW227430   0.580  12.536   4.933
 9136SOL     OW27431   1.555  12.683   4.427
 9136SOL    HW127432   1.498  12.667   4.508
 9136SOL    HW227433   1.496  12.693   4.347
 9137SOL     OW27434   1.135  11.875   4.441
 9137SOL    HW127435   1.192  11.953   4.416
 9137SOL    HW227436   1.075  11.901   4.517
 9138SOL     OW27437   1.755  11.779   3.955
 9138SOL    HW127438   1.743  11.766   3.856
 9138SOL    HW227439   1.725  11.698   4.004
 9139SOL     OW27440   0.768  12.316   4.747
 9139SOL    HW127441   0.690  12.333   4.807
 9139SOL    HW227442   0.802  12.403   4.711
 9140SOL     OW27443   0.850  11.970   5.547
 9140SOL    HW127444   0.846  12.046   5.612
 9140SOL    HW227445   0.872  12.006   5.456
 9141SOL     OW27446   0.685  12.184   4.389
 9141SOL    HW127447   0.754  12.168   4.459
 9141SOL    HW227448   0.612  12.241   4.427
 9142SOL     OW27449   0.686  12.333   5.527
 9142SOL    HW127450   0.746  12.412   5.541
 9142SOL    HW227451   0.600  12.364   5.486
 9143SOL     OW27452   0.335  12.607   4.785
 9143SOL    HW127453   0.257  12.576   4.732
 9143SOL    HW227454   0.393  12.665   4.728
 9144SOL     OW27455   1.460  12.677   5.063
 9144SOL    HW127456   1.484  12.771   5.089
 9144SOL    HW227457   1.444  12.623   5.145
 9145SOL     OW27458   0.438  11.564   5.223
 9145SOL    HW127459   0.520  11.508   5.232
 9145SOL    HW227460   0.357  11.506   5.227
 9146SOL     OW27461   1.603  11.619   4.461
 9146SOL    HW127462   1.529  11.665   4.411
 9146SOL    HW227463   1.654  11.687   4.514
 9147SOL     OW27464   1.127  12.513   5.414
 9147SOL    HW127465   1.174  12.513   5.502
 9147SOL    HW227466   1.079  12.426   5.403
 9148SOL     OW27467   0.230  12.606   4.262
 9148SOL    HW127468   0.204  12.702   4.262
 9148SOL    HW227469   0.159  12.552   4.307
 9149SOL     OW27470   0.240  12.263   4.610
 9149SOL    HW127471   0.254  12.179   4.662
 9149SOL    HW227472   0.185  12.327   4.665
 9150SOL     OW27473   0.606  12.136   3.847
 9150SOL    HW127474   0.613  12.220   3.793
 9150SOL    HW227475   0.652  12.149   3.935
 9151SOL     OW27476   1.594  11.286   5.204
 9151SOL    HW127477   1.576  11.353   5.132
 9151SOL    HW227478   1.591  11.332   5.293
 9152SOL     OW27479   0.122  11.815   4.287
 9152SOL    HW127480   0.077  11.727   4.304
 9152SOL    HW227481   0.121  11.869   4.371
 9153SOL     OW27482   0.027  12.768   3.841
 9153SOL    HW127483   0.008  12.672   3.862
 9153SOL    HW227484  -0.006  12.826   3.916
 9154SOL     OW27485   1.689  12.094   4.336
 9154SOL    HW127486   1.784  12.065   4.344
 9154SOL    HW227487   1.681  12.159   4.261
 9155SOL     OW27488   1.641  12.280   4.156
 9155SOL    HW127489   1.727  12.282   4.104
 9155SOL    HW227490   1.655  12.327   4.244
 9156SOL     OW27491   0.113  11.909   5.321
 9156SOL    HW127492   0.201  11.896   5.366
 9156SOL    HW227493   0.100  12.006   5.299
 9157SOL     OW27494   0.613  12.537   4.450
 9157SOL    HW127495   0.564  12.450   4.459
 9157SOL    HW227496   0.590  12.580   4.363
 9158SOL     OW27497   1.293  12.400   5.147
 9158SOL    HW127498   1.330  12.327   5.089
 9158SOL    HW227499   1.345  12.405   5.232
 9159SOL     OW27500   0.809  11.176   4.226
 9159SOL    HW127501   0.849  11.267   4.217
 9159SOL    HW227502   0.709  11.184   4.232
 9160SOL     OW27503   0.197  12.148   4.988
 9160SOL    HW127504   0.286  12.103   4.974
 9160SOL    HW227505   0.124  12.083   4.969
 9161SOL     OW27506   1.525  12.171   3.914
 9161SOL    HW127507   1.462  12.095   3.927
 9161SOL    HW227508   1.573  12.189   4.000
 9162SOL     OW27509   0.317  11.423   5.525
 9162SOL    HW127510   0.388  11.494   5.531
 9162SOL    HW227511   0.229  11.462   5.553
 9163SOL     OW27512   1.466  12.589   4.677
 9163SOL    HW127513   1.407  12.595   4.757
 9163SOL    HW227514   1.451  12.501   4.631
 9164SOL     OW27515   0.598  11.901   3.994
 9164SOL    HW127516   0.622  11.970   3.926
 9164SOL    HW227517   0.520  11.934   4.048
 9165SOL     OW27518   1.281  11.517   4.668
 9165SOL    HW127519   1.195  11.467   4.655
 9165SOL    HW227520   1.343  11.463   4.724
 9166SOL     OW27521   1.576  12.834   4.031
 9166SOL    HW127522   1.665  12.880   4.034
 9166SOL    HW227523   1.555  12.810   3.936
 9167SOL     OW27524   0.807  11.777   5.189
 9167SOL    HW127525   0.760  11.774   5.278
 9167SOL    HW227526   0.756  11.722   5.123
 9168SOL     OW27527   1.394  11.641   5.398
 9168SOL    HW127528   1.374  11.684   5.486
 9168SOL    HW227529   1.472  11.579   5.407
 9169SOL     OW27530   0.973  12.062   5.296
 9169SOL    HW127531   1.019  11.978   5.267
 9169SOL    HW227532   0.917  12.096   5.221
 9170SOL     OW27533   0.991  11.582   4.966
 9170SOL    HW127534   0.914  11.616   5.020
 9170SOL    HW227535   0.957  11.531   4.887
 9171SOL     OW27536   1.041  11.873   4.153
 9171SOL    HW127537   1.067  11.869   4.249
 9171SOL    HW227538   0.956  11.822   4.139
 9172SOL     OW27539   0.076  11.983   4.513
 9172SOL    HW127540   0.175  11.971   4.522
 9172SOL    HW227541   0.052  12.078   4.534
 9173SOL     OW27542   0.865  11.520   3.919
 9173SOL    HW127543   0.924  11.583   3.870
 9173SOL    HW227544   0.884  11.426   3.890
 9174SOL     OW27545   1.719  11.757   5.555
 9174SOL    HW127546   1.693  11.846   5.519
 9174SOL    HW227547   1.717  11.689   5.482
 9175SOL     OW27548   1.362  12.316   4.269
 9175SOL    HW127549   1.445  12.287   4.221
 9175SOL    HW227550   1.313  12.383   4.213
 9176SOL     OW27551   0.550  11.368   4.609
 9176SOL    HW127552   0.545  11.363   4.709
 9176SOL    HW227553   0.552  11.464   4.580
 9177SOL     OW27554   1.008  12.628   4.201
 9177SOL    HW127555   0.962  12.700   4.149
 9177SOL    HW227556   1.004  12.648   4.299
 9178SOL     OW27557   1.795  12.238   4.597
 9178SOL    HW127558   1.733  12.223   4.521
 9178SOL    HW227559   1.743  12.249   4.682
 9179SOL     OW27560   1.227  12.722   5.230
 9179SOL    HW127561   1.233  12.645   5.294
 9179SOL    HW227562   1.175  12.696   5.150
 9180SOL     OW27563   0.321  12.115   3.966
 9180SOL    HW127564   0.403  12.154   3.924
 9180SOL    HW227565   0.294  12.033   3.917
 9181SOL     OW27566   1.458  11.907   4.452
 9181SOL    HW127567   1.453  11.842   4.527
 9181SOL    HW227568   1.538  11.966   4.465
 9182SOL     OW27569   0.461  12.438   5.451
 9182SOL    HW127570   0.411  12.439   5.365
 9182SOL    HW227571   0.398  12.420   5.527
 9183SOL     OW27572   0.202  11.457   5.222
 9183SOL    HW127573   0.122  11.517   5.209
 9183SOL    HW227574   0.192  11.408   5.308
 9184SOL     OW27575   1.632  12.549   3.805
 9184SOL    HW127576   1.600  12.643   3.795
 9184SOL    HW227577   1.556  12.486   3.793
 9185SOL     OW27578   1.400  11.279   4.150
 9185SOL    HW127579   1.376  11.242   4.060
 9185SOL    HW227580   1.499  11.295   4.154
 9186SOL     OW27581   0.382  11.872   4.204
 9186SOL    HW127582   0.427  11.782   4.201
 9186SOL    HW227583   0.288  11.861   4.237
 9187SOL     OW27584   1.547  11.394   5.453
 9187SOL    HW127585   1.542  11.431   5.545
 9187SOL    HW227586   1.475  11.325   5.441
 9188SOL     OW27587   0.614  11.294   3.841
 9188SOL    HW127588   0.712  11.272   3.848
 9188SOL    HW227589   0.583  11.277   3.748
 9189SOL     OW27590   0.781  11.436   5.473
 9189SOL    HW127591   0.848  11.375   5.516
 9189SOL    HW227592   0.708  11.455   5.538
 9190SOL     OW27593   1.351  11.762   5.157
 9190SOL    HW127594   1.379  11.719   5.242
 9190SOL    HW227595   1.376  11.858   5.158
 9191SOL     OW27596   0.803  12.574   4.648
 9191SOL    HW127597   0.893  12.588   4.606
 9191SOL    HW227598   0.732  12.576   4.577
 9192SOL     OW27599   0.922  11.675   4.623
 9192SOL    HW127600   0.897  11.666   4.527
 9192SOL    HW227601   0.970  11.593   4.654
 9193SOL     OW27602   0.539  11.236   4.236
 9193SOL    HW127603   0.458  11.237   4.294
 9193SOL    HW227604   0.542  11.319   4.181
 9194SOL     OW27605   1.434  12.360   3.765
 9194SOL    HW127606   1.466  12.284   3.822
 9194SOL    HW227607   1.342  12.387   3.795
 9195SOL     OW27608   0.297  11.207   3.895
 9195SOL    HW127609   0.346  11.291   3.874
 9195SOL    HW227610   0.359  11.142   3.940
 9196SOL     OW27611   0.935  11.408   4.204
 9196SOL    HW127612   0.887  11.449   4.126
 9196SOL    HW227613   1.034  11.406   4.185
 9197SOL     OW27614   1.076  11.855   5.188
 9197SOL    HW127615   0.996  11.794   5.191
 9197SOL    HW227616   1.157  11.802   5.164
 9198SOL     OW27617   1.227  12.742   4.517
 9198SOL    HW127618   1.248  12.816   4.452
 9198SOL    HW227619   1.295  12.742   4.590
 9199SOL     OW27620   0.459  12.324   4.465
 9199SOL    HW127621   0.388  12.297   4.530
 9199SOL    HW227622   0.433  12.296   4.372
 9200SOL     OW27623   1.032  11.721   3.740
 9200SOL    HW127624   0.991  11.803   3.701
 9200SOL    HW227625   1.096  11.747   3.813
 9201SOL     OW27626   0.078  11.728   5.110
 9201SOL    HW127627   0.170  11.727   5.069
 9201SOL    HW227628   0.072  11.802   5.177
 9202SOL     OW27629   0.561  11.394   4.871
 9202SOL    HW127630   0.599  11.310   4.908
 9202SOL    HW227631   0.473  11.413   4.915
 9203SOL     OW27632   0.866  11.626   4.366
 9203SOL    HW127633   0.834  11.698   4.304
 9203SOL    HW227634   0.890  11.545   4.313
 9204SOL     OW27635   1.017  11.211   4.477
 9204SOL    HW127636   0.945  11.216   4.408
 9204SOL    HW227637   0.993  11.142   4.546
 9205SOL     OW27638   1.429  12.345   4.591
 9205SOL    HW127639   1.374  12.261   4.584
 9205SOL    HW227640   1.455  12.374   4.499
 9206SOL     OW27641   1.466  11.762   4.716
 9206SOL    HW127642   1.436  11.667   4.723
 9206SOL    HW227643   1.539  11.778   4.782
 9207SOL     OW27644   1.857  12.005   4.101
 9207SOL    HW127645   1.899  11.941   4.165
 9207SOL    HW227646   1.819  11.954   4.023
 9208SOL     OW27647   0.488  12.557   3.898
 9208SOL    HW127648   0.401  12.542   3.945
 9208SOL    HW227649   0.471  12.583   3.803
 9209SOL     OW27650   1.664  12.452   4.381
 9209SOL    HW127651   1.763  12.460   4.395
 9209SOL    HW227652   1.619  12.536   4.412
 9210SOL     OW27653   1.390  11.747   3.802
 9210SOL    HW127654   1.336  11.726   3.883
 9210SOL    HW227655   1.481  11.706   3.811
 9211SOL     OW27656   0.527  11.428   4.052
 9211SOL    HW127657   0.554  11.369   3.977
 9211SOL    HW227658   0.527  11.523   4.021
 9212SOL     OW27659   1.754  12.395   5.312
 9212SOL    HW127660   1.845  12.356   5.299
 9212SOL    HW227661   1.762  12.491   5.336
 9213SOL     OW27662   1.064  12.519   5.064
 9213SOL    HW127663   0.984  12.496   5.119
 9213SOL    HW227664   1.147  12.493   5.113
 9214SOL     OW27665   1.111  12.367   4.824
 9214SOL    HW127666   1.071  12.411   4.905
 9214SOL    HW227667   1.070  12.404   4.741
 9215SOL     OW27668   1.638  12.271   4.803
 9215SOL    HW127669   1.643  12.352   4.862
 9215SOL    HW227670   1.552  12.273   4.752
 9216SOL     OW27671   0.915  11.261   5.126
 9216SOL    HW127672   0.940  11.241   5.031
 9216SOL    HW227673   0.987  11.317   5.168
 9217SOL     OW27674   0.980  12.288   5.443
 9217SOL    HW127675   0.881  12.294   5.453
 9217SOL    HW227676   1.003  12.208   5.387
 9218SOL     OW27677   0.705  12.222   4.092
 9218SOL    HW127678   0.691  12.229   4.191
 9218SOL    HW227679   0.789  12.171   4.074
 9219SOL     OW27680   0.410  11.985   4.975
 9219SOL    HW127681   0.496  11.997   5.025
 9219SOL    HW227682   0.368  11.898   5.002
 9220SOL     OW27683   1.274  11.558   4.986
 9220SOL    HW127684   1.295  11.632   5.050
 9220SOL    HW227685   1.185  11.575   4.943
 9221SOL     OW27686   0.064  12.736   5.055
 9221SOL    HW127687   0.018  12.818   5.021
 9221SOL    HW227688   0.162  12.755   5.064
 9222SOL     OW27689   0.367  12.272   4.225
 9222SOL    HW127690   0.360  12.355   4.169
 9222SOL    HW227691   0.371  12.192   4.165
 9223SOL     OW27692   0.566  11.709   4.589
 9223SOL    HW127693   0.578  11.775   4.515
 9223SOL    HW227694   0.612  11.743   4.672
 9224SOL     OW27695   1.252  12.520   4.112
 9224SOL    HW127696   1.302  12.597   4.152
 9224SOL    HW227697   1.157  12.522   4.144
 9225SOL     OW27698   1.272  12.617   4.866
 9225SOL    HW127699   1.319  12.630   4.953
 9225SOL    HW227700   1.206  12.543   4.875
 9226SOL     OW27701   1.582  11.811   4.196
 9226SOL    HW127702   1.551  11.872   4.269
 9226SOL    HW227703   1.632  11.863   4.127
 9227SOL     OW27704   0.354  12.682   5.053
 9227SOL    HW127705   0.333  12.638   4.966
 9227SOL    HW227706   0.451  12.708   5.056
 9228SOL     OW27707   0.402  11.923   5.322
 9228SOL    HW127708   0.470  11.978   5.275
 9228SOL    HW227709   0.442  11.835   5.349
 9229SOL     OW27710   1.587  11.951   5.394
 9229SOL    HW127711   1.495  11.989   5.389
 9229SOL    HW227712   1.647  11.998   5.329
 9230SOL     OW27713   1.013  11.277   5.494
 9230SOL    HW127714   1.019  11.362   5.442
 9230SOL    HW227715   1.045  11.201   5.437
 9231SOL     OW27716   0.504  11.222   5.464
 9231SOL    HW127717   0.462  11.165   5.394
 9231SOL    HW227718   0.438  11.291   5.496
 9232SOL     OW27719   0.573  12.042   4.753
 9232SOL    HW127720   0.617  12.131   4.744
 9232SOL    HW227721   0.510  12.042   4.830
 9233SOL     OW27722   1.360  12.034   4.769
 9233SOL    HW127723   1.285  12.034   4.703
 9233SOL    HW227724   1.397  11.942   4.778
 9234SOL     OW27725   1.209  11.697   3.999
 9234SOL    HW127726   1.222  11.613   4.053
 9234SOL    HW227727   1.180  11.771   4.059
 9235SOL     OW27728   0.307  11.385   4.955
 9235SOL    HW127729   0.284  11.422   5.045
 9235SOL    HW227730   0.277  11.290   4.949
 9236SOL     OW27731   0.037  12.482   5.006
 9236SOL    HW127732   0.090  12.433   5.074
 9236SOL    HW227733   0.059  12.580   5.011
 9237SOL     OW27734   0.732  11.806   4.788
 9237SOL    HW127735   0.791  11.780   4.712
 9237SOL    HW227736   0.704  11.902   4.777
 9238SOL     OW27737   1.728  12.107   5.578
 9238SOL    HW127738   1.682  12.100   5.489
 9238SOL    HW227739   1.666  12.151   5.644
 9239SOL     OW27740   0.307  11.235   4.342
 9239SOL    HW127741   0.296  11.329   4.375
 9239SOL    HW227742   0.302  11.172   4.419
 9240SOL     OW27743   1.622  11.539   4.098
 9240SOL    HW127744   1.624  11.463   4.162
 9240SOL    HW227745   1.574  11.616   4.138
 9241SOL     OW27746   1.023  11.938   4.690
 9241SOL    HW127747   1.038  11.959   4.786
 9241SOL    HW227748   0.993  11.843   4.681
 9242SOL     OW27749   1.859  12.690   5.329
 9242SOL    HW127750   1.873  12.717   5.234
 9242SOL    HW227751   1.942  12.712   5.382
 9243SOL     OW27752   0.350  12.070   5.528
 9243SOL    HW127753   0.426  12.114   5.576
 9243SOL    HW227754   0.385  12.023   5.446
 9244SOL     OW27755   1.540  11.446   3.849
 9244SOL    HW127756   1.479  11.371   3.872
 9244SOL    HW227757   1.562  11.498   3.932
 9245SOL     OW27758   1.303  12.010   3.766
 9245SOL    HW127759   1.337  11.917   3.781
 9245SOL    HW227760   1.321  12.037   3.671
 9246SOL     OW27761   1.068  12.505   4.573
 9246SOL    HW127762   1.075  12.421   4.518
 9246SOL    HW227763   1.130  12.574   4.537
 9247SOL     OW27764   0.319  11.982   4.673
 9247SOL    HW127765   0.412  12.018   4.678
 9247SOL    HW227766   0.313  11.897   4.725
 9248SOL     OW27767   0.339  11.681   4.730
 9248SOL    HW127768   0.287  11.598   4.713
 9248SOL    HW227769   0.416  11.686   4.666
 9249SOL     OW27770   1.138  11.552   5.402
 9249SOL    HW127771   1.093  11.615   5.466
 9249SOL    HW227772   1.231  11.583   5.385
 9250SOL     OW27773   1.160  11.379   5.201
 9250SOL    HW127774   1.160  11.443   5.278
 9250SOL    HW227775   1.188  11.427   5.118
 9251SOL     OW27776   0.008  12.498   3.924
 9251SOL    HW127777  -0.085  12.519   3.893
 9251SOL    HW227778   0.018  12.399   3.937
 9252SOL     OW27779   0.504  12.740   4.634
 9252SOL    HW127780   0.570  12.814   4.643
 9252SOL    HW227781   0.548  12.661   4.592
 9253SOL     OW27782   1.002  11.968   4.962
 9253SOL    HW127783   1.043  11.936   5.048
 9253SOL    HW227784   0.906  11.941   4.959
 9254SOL     OW27785   0.040  11.716   4.838
 9254SOL    HW127786   0.125  11.683   4.797
 9254SOL    HW227787   0.053  11.731   4.936
 9255SOL     OW27788   0.189  11.692   5.446
 9255SOL    HW127789   0.248  11.652   5.376
 9255SOL    HW227790   0.131  11.763   5.405
 9256SOL     OW27791   1.369  12.122   5.384
 9256SOL    HW127792   1.408  12.211   5.404
 9256SOL    HW227793   1.379  12.102   5.287
 9257SOL     OW27794   0.815  11.744   4.049
 9257SOL    HW127795   0.822  11.655   4.003
 9257SOL    HW227796   0.721  11.778   4.041
 9258SOL     OW27797   1.657  11.776   4.930
 9258SOL    HW127798   1.619  11.707   4.992
 9258SOL    HW227799   1.739  11.740   4.886
 9259SOL     OW27800   0.252  12.736   5.468
 9259SOL    HW127801   0.222  12.793   5.544
 9259SOL    HW227802   0.245  12.639   5.494
 9260SOL     OW27803   0.671  11.636   4.993
 9260SOL    HW127804   0.637  11.547   4.963
 9260SOL    HW227805   0.697  11.690   4.913
 9261SOL     OW27806   0.473  11.672   3.915
 9261SOL    HW127807   0.534  11.752   3.919
 9261SOL    HW227808   0.378  11.703   3.922
 9262SOL     OW27809   0.159  12.309   5.190
 9262SOL    HW127810   0.181  12.248   5.266
 9262SOL    HW227811   0.169  12.260   5.104
 9263SOL     OW27812   1.347  12.231   4.958
 9263SOL    HW127813   1.371  12.168   4.884
 9263SOL    HW227814   1.257  12.271   4.940
 9264SOL     OW27815   1.302  12.027   4.033
 9264SOL    HW127816   1.216  11.996   4.075
 9264SOL    HW227817   1.298  12.013   3.934
 9265SOL     OW27818   1.252  12.903   4.852
 9265SOL    HW127819   1.336  12.908   4.798
 9265SOL    HW227820   1.229  12.807   4.870
 9266SOL     OW27821   0.083  12.430   4.746
 9266SOL    HW127822   0.078  12.429   4.846
 9266SOL    HW227823   0.000  12.389   4.708
 9267SOL     OW27824   1.726  11.307   4.247
 9267SOL    HW127825   1.799  11.290   4.180
 9267SOL    HW227826   1.695  11.220   4.285
 9268SOL     OW27827   0.130  12.966   5.575
 9268SOL    HW127828   0.089  12.892   5.628
 9268SOL    HW227829   0.194  13.017   5.633
 9269SOL     OW27830   1.280  12.099   4.396
 9269SOL    HW127831   1.340  12.018   4.398
 9269SOL    HW227832   1.320  12.168   4.336
 9270SOL     OW27833   0.830  12.445   5.146
 9270SOL    HW127834   0.825  12.478   5.241
 9270SOL    HW227835   0.744  12.464   5.100
 9271SOL     OW27836   0.672  12.788   3.878
 9271SOL    HW127837   0.681  12.798   3.779
 9271SOL    HW227838   0.632  12.699   3.899
 9272SOL     OW27839   1.841  11.347   4.687
 9272SOL    HW127840   1.880  11.262   4.651
 9272SOL    HW227841   1.743  11.349   4.668
 9273SOL     OW27842   0.263  11.498   4.444
 9273SOL    HW127843   0.184  11.549   4.410
 9273SOL    HW227844   0.254  11.483   4.542
 9274SOL     OW27845   1.194  12.784   3.755
 9274SOL    HW127846   1.200  12.691   3.792
 9274SOL    HW227847   1.135  12.784   3.675
 9275SOL     OW27848   0.822  12.174   5.096
 9275SOL    HW127849   0.862  12.173   5.004
 9275SOL    HW227850   0.832  12.266   5.136
 9276SOL     OW27851   0.916  12.082   4.015
 9276SOL    HW127852   0.979  12.120   3.947
 9276SOL    HW227853   0.956  11.999   4.054
 9277SOL     OW27854   0.372  12.460   5.214
 9277SOL    HW127855   0.359  12.553   5.180
 9277SOL    HW227856   0.288  12.408   5.201
 9278SOL     OW27857   1.614  12.464   5.013
 9278SOL    HW127858   1.674  12.467   5.093
 9278SOL    HW227859   1.539  12.528   5.026
 9279SOL     OW27860   1.039  12.270   4.420
 9279SOL    HW127861   0.969  12.223   4.474
 9279SOL    HW227862   1.098  12.202   4.377
 9280SOL     OW27863   1.014  11.408   4.695
 9280SOL    HW127864   1.006  11.372   4.602
 9280SOL    HW227865   1.012  11.332   4.760
 9281SOL     OW27866   0.590  12.659   4.215
 9281SOL    HW127867   0.632  12.601   4.145
 9281SOL    HW227868   0.546  12.738   4.171
 9282SOL     OW27869   1.709  11.557   5.105
 9282SOL    HW127870   1.782  11.626   5.109
 9282SOL    HW227871   1.737  11.482   5.046
 9283SOL     OW27872   0.255  12.520   4.014
 9283SOL    HW127873   0.159  12.521   3.987
 9283SOL    HW227874   0.267  12.573   4.098
 9284SOL     OW27875   0.105  12.185   5.450
 9284SOL    HW127876   0.028  12.152   5.504
 9284SOL    HW227877   0.190  12.155   5.492
 9285SOL     OW27878   0.672  11.375   5.213
 9285SOL    HW127879   0.762  11.359   5.173
 9285SOL    HW227880   0.680  11.380   5.312
 9286SOL     OW27881   0.075  11.517   3.757
 9286SOL    HW127882  -0.017  11.489   3.728
 9286SOL    HW227883   0.106  11.594   3.701
 9287SOL     OW27884   1.440  12.028   5.122
 9287SOL    HW127885   1.383  12.080   5.059
 9287SOL    HW227886   1.536  12.040   5.098
 9288SOL     OW27887   0.072  11.338   4.042
 9288SOL    HW127888   0.055  11.421   3.988
 9288SOL    HW227889   0.162  11.301   4.020
 9289SOL     OW27890   1.183  12.507   3.843
 9289SOL    HW127891   1.084  12.496   3.845
 9289SOL    HW227892   1.217  12.522   3.936
 9290SOL     OW27893   0.613  12.014   5.155
 9290SOL    HW127894   0.669  12.095   5.138
 9290SOL    HW227895   0.672  11.934   5.158
 9291SOL     OW27896   0.716  11.737   5.432
 9291SOL    HW127897   0.735  11.802   5.506
 9291SOL    HW227898   0.776  11.657   5.441
 9292SOL     OW27899   1.450  12.392   5.357
 9292SOL    HW127900   1.441  12.382   5.456
 9292SOL    HW227901   1.546  12.385   5.331
 9293SOL     OW27902   1.674  12.055   4.978
 9293SOL    HW127903   1.647  11.966   4.941
 9293SOL    HW227904   1.675  12.123   4.905
 9294SOL     OW27905   1.225  11.497   4.173
 9294SOL    HW127906   1.290  11.423   4.162
 9294SOL    HW227907   1.245  11.547   4.257
 9295SOL     OW27908   0.594  11.917   4.376
 9295SOL    HW127909   0.644  12.002   4.357
 9295SOL    HW227910   0.506  11.919   4.328
 9296SOL     OW27911   1.777  11.514   5.366
 9296SOL    HW127912   1.760  11.545   5.272
 9296SOL    HW227913   1.693  11.477   5.404
 9297SOL     OW27914   1.730  12.106   5.241
 9297SOL    HW127915   1.768  12.197   5.256
 9297SOL    HW227916   1.722  12.089   5.142
 9298SOL     OW27917   0.859  12.546   3.740
 9298SOL    HW127918   0.813  12.561   3.828
 9298SOL    HW227919   0.903  12.631   3.710
 9299SOL     OW27920   0.859  12.128   4.585
 9299SOL    HW127921   0.913  12.059   4.633
 9299SOL    HW227922   0.827  12.197   4.651
 9300SOL     OW27923   1.083  12.156   3.811
 9300SOL    HW127924   1.060  12.209   3.729
 9300SOL    HW227925   1.164  12.100   3.792
 9301SOL     OW27926   1.861  12.741   4.575
 9301SOL    HW127927   1.790  12.729   4.505
 9301SOL    HW227928   1.862  12.662   4.635
 9302SOL     OW27929   0.221  12.486   5.568
 9302SOL    HW127930   0.156  12.413   5.547
 9302SOL    HW227931   0.225  12.500   5.666
 9303SOL     OW27932   0.079  12.412   4.377
 9303SOL    HW127933   0.078  12.365   4.465
 9303SOL    HW227934   0.161  12.384   4.326
 9304SOL     OW27935   0.672  12.563   5.348
 9304SOL    HW127936   0.594  12.513   5.386
 9304SOL    HW227937   0.669  12.658   5.379
 9305SOL     OW27938   1.824  11.364   4.951
 9305SOL    HW127939   1.820  11.274   4.995
 9305SOL    HW227940   1.827  11.353   4.852
 9306SOL     OW27941   0.428  11.596   4.244
 9306SOL    HW127942   0.458  11.524   4.182
 9306SOL    HW227943   0.389  11.556   4.327
 9307SOL     OW27944   1.705  12.659   4.828
 9307SOL    HW127945   1.612  12.634   4.801
 9307SOL    HW227946   1.731  12.609   4.910
 9308SOL     OW27947   0.317  11.719   5.004
 9308SOL    HW127948   0.355  11.660   5.076
 9308SOL    HW227949   0.357  11.693   4.916
 9309SOL     OW27950   1.424  11.386   4.836
 9309SOL    HW127951   1.476  11.321   4.891
 9309SOL    HW227952   1.375  11.449   4.897
 9310SOL     OW27953   1.001  11.206   4.878
 9310SOL    HW127954   0.938  11.134   4.847
 9310SOL    HW227955   1.094  11.170   4.878
 9311SOL     OW27956   0.770  12.502   4.025
 9311SOL    HW127957   0.724  12.415   4.042
 9311SOL    HW227958   0.861  12.499   4.066
 9312SOL     OW27959   0.618  12.739   5.008
 9312SOL    HW127960   0.613  12.821   5.065
 9312SOL    HW227961   0.707  12.736   4.963
 9313SOL     OW27962   1.352  11.224   3.892
 9313SOL    HW127963   1.387  11.183   3.808
 9313SOL    HW227964   1.262  11.186   3.912
 9314SOL     OW27965   1.300  11.625   4.415
 9314SOL    HW127966   1.241  11.705   4.419
 9314SOL    HW227967   1.315  11.590   4.508
 9315SOL     OW27968   1.593  11.393   4.606
 9315SOL    HW127969   1.509  11.392   4.660
 9315SOL    HW227970   1.595  11.476   4.550
 9316SOL     OW27971   0.039  12.249   4.024
 9316SOL    HW127972   0.138  12.238   4.015
 9316SOL    HW227973  -0.001  12.163   4.056
 9317SOL     OW27974   0.230  11.800   5.699
 9317SOL    HW127975   0.137  11.798   5.736
 9317SOL    HW227976   0.231  11.761   5.607
 9318SOL     OW27977   0.225  11.447   6.582
 9318SOL    HW127978   0.260  11.430   6.674
 9318SOL    HW227979   0.137  11.402   6.570
 9319SOL     OW27980   0.019  11.540   6.233
 9319SOL    HW127981  -0.063  11.583   6.272
 9319SOL    HW227982  -0.009  11.467   6.170
 9320SOL     OW27983   0.569  12.447   6.751
 9320SOL    HW127984   0.476  12.440   6.714
 9320SOL    HW227985   0.580  12.536   6.795
 9321SOL     OW27986   1.555  12.683   6.289
 9321SOL    HW127987   1.498  12.667   6.370
 9321SOL    HW227988   1.496  12.693   6.209
 9322SOL     OW27989   1.135  11.875   6.303
 9322SOL    HW127990   1.192  11.953   6.278
 9322SOL    HW227991   1.075  11.901   6.379
 9323SOL     OW27992   1.755  11.779   5.817
 9323SOL    HW127993   1.743  11.766   5.718
 9323SOL    HW227994   1.725  11.698   5.866
 9324SOL     OW27995   0.768  12.316   6.609
 9324SOL    HW127996   0.690  12.333   6.669
 9324SOL    HW227997   0.802  12.403   6.573
 9325SOL     OW27998   0.850  11.970   7.409
 9325SOL    HW127999   0.846  12.046   7.474
 9325SOL    HW228000   0.872  12.006   7.318
 9326SOL     OW28001   0.685  12.184   6.251
 9326SOL    HW128002   0.754  12.168   6.321
 9326SOL    HW228003   0.612  12.241   6.289
 9327SOL     OW28004   0.686  12.333   7.389
 9327SOL    HW128005   0.746  12.412   7.403
 9327SOL    HW228006   0.600  12.364   7.348
 9328SOL     OW28007   0.335  12.607   6.647
 9328SOL    HW128008   0.257  12.576   6.594
 9328SOL    HW228009   0.393  12.665   6.590
 9329SOL     OW28010   1.460  12.677   6.925
 9329SOL    HW128011   1.484  12.771   6.951
 9329SOL    HW228012   1.444  12.623   7.007
 9330SOL     OW28013   0.438  11.564   7.085
 9330SOL    HW128014   0.520  11.508   7.094
 9330SOL    HW228015   0.357  11.506   7.089
 9331SOL     OW28016   1.603  11.619   6.323
 9331SOL    HW128017   1.529  11.665   6.273
 9331SOL    HW228018   1.654  11.687   6.376
 9332SOL     OW28019   1.127  12.513   7.276
 9332SOL    HW128020   1.174  12.513   7.364
 9332SOL    HW228021   1.079  12.426   7.265
 9333SOL     OW28022   0.230  12.606   6.124
 9333SOL    HW128023   0.204  12.702   6.124
 9333SOL    HW228024   0.159  12.552   6.169
 9334SOL     OW28025   0.240  12.263   6.472
 9334SOL    HW128026   0.254  12.179   6.524
 9334SOL    HW228027   0.185  12.327   6.527
 9335SOL     OW28028   0.606  12.136   5.709
 9335SOL    HW128029   0.613  12.220   5.655
 9335SOL    HW228030   0.652  12.149   5.797
 9336SOL     OW28031   1.594  11.286   7.066
 9336SOL    HW128032   1.576  11.353   6.994
 9336SOL    HW228033   1.591  11.332   7.155
 9337SOL     OW28034   0.122  11.815   6.149
 9337SOL    HW128035   0.077  11.727   6.166
 9337SOL    HW228036   0.121  11.869   6.233
 9338SOL     OW28037   0.027  12.768   5.703
 9338SOL    HW128038   0.008  12.672   5.724
 9338SOL    HW228039  -0.006  12.826   5.778
 9339SOL     OW28040   1.689  12.094   6.198
 9339SOL    HW128041   1.784  12.065   6.206
 9339SOL    HW228042   1.681  12.159   6.123
 9340SOL     OW28043   1.641  12.280   6.018
 9340SOL    HW128044   1.727  12.282   5.966
 9340SOL    HW228045   1.655  12.327   6.106
 9341SOL     OW28046   0.113  11.909   7.183
 9341SOL    HW128047   0.201  11.896   7.228
 9341SOL    HW228048   0.100  12.006   7.161
 9342SOL     OW28049   0.613  12.537   6.312
 9342SOL    HW128050   0.564  12.450   6.321
 9342SOL    HW228051   0.590  12.580   6.225
 9343SOL     OW28052   1.293  12.400   7.009
 9343SOL    HW128053   1.330  12.327   6.951
 9343SOL    HW228054   1.345  12.405   7.094
 9344SOL     OW28055   0.809  11.176   6.088
 9344SOL    HW128056   0.849  11.267   6.079
 9344SOL    HW228057   0.709  11.184   6.094
 9345SOL     OW28058   0.197  12.148   6.850
 9345SOL    HW128059   0.286  12.103   6.836
 9345SOL    HW228060   0.124  12.083   6.831
 9346SOL     OW28061   1.525  12.171   5.776
 9346SOL    HW128062   1.462  12.095   5.789
 9346SOL    HW228063   1.573  12.189   5.862
 9347SOL     OW28064   0.317  11.423   7.387
 9347SOL    HW128065   0.388  11.494   7.393
 9347SOL    HW228066   0.229  11.462   7.415
 9348SOL     OW28067   1.466  12.589   6.539
 9348SOL    HW128068   1.407  12.595   6.619
 9348SOL    HW228069   1.451  12.501   6.493
 9349SOL     OW28070   0.598  11.901   5.856
 9349SOL    HW128071   0.622  11.970   5.788
 9349SOL    HW228072   0.520  11.934   5.910
 9350SOL     OW28073   1.281  11.517   6.530
 9350SOL    HW128074   1.195  11.467   6.517
 9350SOL    HW228075   1.343  11.463   6.586
 9351SOL     OW28076   1.576  12.834   5.893
 9351SOL    HW128077   1.665  12.880   5.896
 9351SOL    HW228078   1.555  12.810   5.798
 9352SOL     OW28079   0.807  11.777   7.051
 9352SOL    HW128080   0.760  11.774   7.140
 9352SOL    HW228081   0.756  11.722   6.985
 9353SOL     OW28082   1.394  11.641   7.260
 9353SOL    HW128083   1.374  11.684   7.348
 9353SOL    HW228084   1.472  11.579   7.269
 9354SOL     OW28085   0.973  12.062   7.158
 9354SOL    HW128086   1.019  11.978   7.129
 9354SOL    HW228087   0.917  12.096   7.083
 9355SOL     OW28088   0.991  11.582   6.828
 9355SOL    HW128089   0.914  11.616   6.882
 9355SOL    HW228090   0.957  11.531   6.749
 9356SOL     OW28091   1.041  11.873   6.015
 9356SOL    HW128092   1.067  11.869   6.111
 9356SOL    HW228093   0.956  11.822   6.001
 9357SOL     OW28094   0.076  11.983   6.375
 9357SOL    HW128095   0.175  11.971   6.384
 9357SOL    HW228096   0.052  12.078   6.396
 9358SOL     OW28097   0.865  11.520   5.781
 9358SOL    HW128098   0.924  11.583   5.732
 9358SOL    HW228099   0.884  11.426   5.752
 9359SOL     OW28100   1.719  11.757   7.417
 9359SOL    HW128101   1.693  11.846   7.381
 9359SOL    HW228102   1.717  11.689   7.344
 9360SOL     OW28103   1.362  12.316   6.131
 9360SOL    HW128104   1.445  12.287   6.083
 9360SOL    HW228105   1.313  12.383   6.075
 9361SOL     OW28106   0.550  11.368   6.471
 9361SOL    HW128107   0.545  11.363   6.571
 9361SOL    HW228108   0.552  11.464   6.442
 9362SOL     OW28109   1.008  12.628   6.063
 9362SOL    HW128110   0.962  12.700   6.011
 9362SOL    HW228111   1.004  12.648   6.161
 9363SOL     OW28112   1.795  12.238   6.459
 9363SOL    HW128113   1.733  12.223   6.383
 9363SOL    HW228114   1.743  12.249   6.544
 9364SOL     OW28115   1.227  12.722   7.092
 9364SOL    HW128116   1.233  12.645   7.156
 9364SOL    HW228117   1.175  12.696   7.012
 9365SOL     OW28118   0.321  12.115   5.828
 9365SOL    HW128119   0.403  12.154   5.786
 9365SOL    HW228120   0.294  12.033   5.779
 9366SOL     OW28121   1.458  11.907   6.314
 9366SOL    HW128122   1.453  11.842   6.389
 9366SOL    HW228123   1.538  11.966   6.327
 9367SOL     OW28124   0.461  12.438   7.313
 9367SOL    HW128125   0.411  12.439   7.227
 9367SOL    HW228126   0.398  12.420   7.389
 9368SOL     OW28127   0.202  11.457   7.084
 9368SOL    HW128128   0.122  11.517   7.071
 9368SOL    HW228129   0.192  11.408   7.170
 9369SOL     OW28130   1.632  12.549   5.667
 9369SOL    HW128131   1.600  12.643   5.657
 9369SOL    HW228132   1.556  12.486   5.655
 9370SOL     OW28133   1.400  11.279   6.012
 9370SOL    HW128134   1.376  11.242   5.922
 9370SOL    HW228135   1.499  11.295   6.016
 9371SOL     OW28136   0.382  11.872   6.066
 9371SOL    HW128137   0.427  11.782   6.063
 9371SOL    HW228138   0.288  11.861   6.099
 9372SOL     OW28139   1.547  11.394   7.315
 9372SOL    HW128140   1.542  11.431   7.407
 9372SOL    HW228141   1.475  11.325   7.303
 9373SOL     OW28142   0.614  11.294   5.703
 9373SOL    HW128143   0.712  11.272   5.710
 9373SOL    HW228144   0.583  11.277   5.610
 9374SOL     OW28145   0.781  11.436   7.335
 9374SOL    HW128146   0.848  11.375   7.378
 9374SOL    HW228147   0.708  11.455   7.400
 9375SOL     OW28148   1.351  11.762   7.019
 9375SOL    HW128149   1.379  11.719   7.104
 9375SOL    HW228150   1.376  11.858   7.020
 9376SOL     OW28151   0.803  12.574   6.510
 9376SOL    HW128152   0.893  12.588   6.468
 9376SOL    HW228153   0.732  12.576   6.439
 9377SOL     OW28154   0.922  11.675   6.485
 9377SOL    HW128155   0.897  11.666   6.389
 9377SOL    HW228156   0.970  11.593   6.516
 9378SOL     OW28157   0.539  11.236   6.098
 9378SOL    HW128158   0.458  11.237   6.156
 9378SOL    HW228159   0.542  11.319   6.043
 9379SOL     OW28160   1.434  12.360   5.627
 9379SOL    HW128161   1.466  12.284   5.684
 9379SOL    HW228162   1.342  12.387   5.657
 9380SOL     OW28163   0.297  11.207   5.757
 9380SOL    HW128164   0.346  11.291   5.736
 9380SOL    HW228165   0.359  11.142   5.802
 9381SOL     OW28166   0.935  11.408   6.066
 9381SOL    HW128167   0.887  11.449   5.988
 9381SOL    HW228168   1.034  11.406   6.047
 9382SOL     OW28169   1.076  11.855   7.050
 9382SOL    HW128170   0.996  11.794   7.053
 9382SOL    HW228171   1.157  11.802   7.026
 9383SOL     OW28172   1.227  12.742   6.379
 9383SOL    HW128173   1.248  12.816   6.314
 9383SOL    HW228174   1.295  12.742   6.452
 9384SOL     OW28175   0.459  12.324   6.327
 9384SOL    HW128176   0.388  12.297   6.392
 9384SOL    HW228177   0.433  12.296   6.234
 9385SOL     OW28178   1.032  11.721   5.602
 9385SOL    HW128179   0.991  11.803   5.563
 9385SOL    HW228180   1.096  11.747   5.675
 9386SOL     OW28181   0.078  11.728   6.972
 9386SOL    HW128182   0.170  11.727   6.931
 9386SOL    HW228183   0.072  11.802   7.039
 9387SOL     OW28184   0.561  11.394   6.733
 9387SOL    HW128185   0.599  11.310   6.770
 9387SOL    HW228186   0.473  11.413   6.777
 9388SOL     OW28187   0.866  11.626   6.228
 9388SOL    HW128188   0.834  11.698   6.166
 9388SOL    HW228189   0.890  11.545   6.175
 9389SOL     OW28190   1.017  11.211   6.339
 9389SOL    HW128191   0.945  11.216   6.270
 9389SOL    HW228192   0.993  11.142   6.408
 9390SOL     OW28193   1.429  12.345   6.453
 9390SOL    HW128194   1.374  12.261   6.446
 9390SOL    HW228195   1.455  12.374   6.361
 9391SOL     OW28196   1.466  11.762   6.578
 9391SOL    HW128197   1.436  11.667   6.585
 9391SOL    HW228198   1.539  11.778   6.644
 9392SOL     OW28199   1.857  12.005   5.963
 9392SOL    HW128200   1.899  11.941   6.027
 9392SOL    HW228201   1.819  11.954   5.885
 9393SOL     OW28202   0.488  12.557   5.760
 9393SOL    HW128203   0.401  12.542   5.807
 9393SOL    HW228204   0.471  12.583   5.665
 9394SOL     OW28205   1.664  12.452   6.243
 9394SOL    HW128206   1.763  12.460   6.257
 9394SOL    HW228207   1.619  12.536   6.274
 9395SOL     OW28208   1.390  11.747   5.664
 9395SOL    HW128209   1.336  11.726   5.745
 9395SOL    HW228210   1.481  11.706   5.673
 9396SOL     OW28211   0.527  11.428   5.914
 9396SOL    HW128212   0.554  11.369   5.839
 9396SOL    HW228213   0.527  11.523   5.883
 9397SOL     OW28214   1.754  12.395   7.174
 9397SOL    HW128215   1.845  12.356   7.161
 9397SOL    HW228216   1.762  12.491   7.198
 9398SOL     OW28217   1.064  12.519   6.926
 9398SOL    HW128218   0.984  12.496   6.981
 9398SOL    HW228219   1.147  12.493   6.975
 9399SOL     OW28220   1.111  12.367   6.686
 9399SOL    HW128221   1.071  12.411   6.767
 9399SOL    HW228222   1.070  12.404   6.603
 9400SOL     OW28223   1.638  12.271   6.665
 9400SOL    HW128224   1.643  12.352   6.724
 9400SOL    HW228225   1.552  12.273   6.614
 9401SOL     OW28226   0.915  11.261   6.988
 9401SOL    HW128227   0.940  11.241   6.893
 9401SOL    HW228228   0.987  11.317   7.030
 9402SOL     OW28229   0.980  12.288   7.305
 9402SOL    HW128230   0.881  12.294   7.315
 9402SOL    HW228231   1.003  12.208   7.249
 9403SOL     OW28232   0.705  12.222   5.954
 9403SOL    HW128233   0.691  12.229   6.053
 9403SOL    HW228234   0.789  12.171   5.936
 9404SOL     OW28235   0.410  11.985   6.837
 9404SOL    HW128236   0.496  11.997   6.887
 9404SOL    HW228237   0.368  11.898   6.864
 9405SOL     OW28238   1.274  11.558   6.848
 9405SOL    HW128239   1.295  11.632   6.912
 9405SOL    HW228240   1.185  11.575   6.805
 9406SOL     OW28241   0.064  12.736   6.917
 9406SOL    HW128242   0.018  12.818   6.883
 9406SOL    HW228243   0.162  12.755   6.926
 9407SOL     OW28244   0.367  12.272   6.087
 9407SOL    HW128245   0.360  12.355   6.031
 9407SOL    HW228246   0.371  12.192   6.027
 9408SOL     OW28247   0.566  11.709   6.451
 9408SOL    HW128248   0.578  11.775   6.377
 9408SOL    HW228249   0.612  11.743   6.534
 9409SOL     OW28250   1.252  12.520   5.974
 9409SOL    HW128251   1.302  12.597   6.014
 9409SOL    HW228252   1.157  12.522   6.006
 9410SOL     OW28253   1.272  12.617   6.728
 9410SOL    HW128254   1.319  12.630   6.815
 9410SOL    HW228255   1.206  12.543   6.737
 9411SOL     OW28256   1.582  11.811   6.058
 9411SOL    HW128257   1.551  11.872   6.131
 9411SOL    HW228258   1.632  11.863   5.989
 9412SOL     OW28259   0.354  12.682   6.915
 9412SOL    HW128260   0.333  12.638   6.828
 9412SOL    HW228261   0.451  12.708   6.918
 9413SOL     OW28262   0.402  11.923   7.184
 9413SOL    HW128263   0.470  11.978   7.137
 9413SOL    HW228264   0.442  11.835   7.211
 9414SOL     OW28265   1.587  11.951   7.256
 9414SOL    HW128266   1.495  11.989   7.251
 9414SOL    HW228267   1.647  11.998   7.191
 9415SOL     OW28268   1.013  11.277   7.356
 9415SOL    HW128269   1.019  11.362   7.304
 9415SOL    HW228270   1.045  11.201   7.299
 9416SOL     OW28271   0.504  11.222   7.326
 9416SOL    HW128272   0.462  11.165   7.256
 9416SOL    HW228273   0.438  11.291   7.358
 9417SOL     OW28274   0.573  12.042   6.615
 9417SOL    HW128275   0.617  12.131   6.606
 9417SOL    HW228276   0.510  12.042   6.692
 9418SOL     OW28277   1.360  12.034   6.631
 9418SOL    HW128278   1.285  12.034   6.565
 9418SOL    HW228279   1.397  11.942   6.640
 9419SOL     OW28280   1.209  11.697   5.861
 9419SOL    HW128281   1.222  11.613   5.915
 9419SOL    HW228282   1.180  11.771   5.921
 9420SOL     OW28283   0.307  11.385   6.817
 9420SOL    HW128284   0.284  11.422   6.907
 9420SOL    HW228285   0.277  11.290   6.811
 9421SOL     OW28286   0.037  12.482   6.868
 9421SOL    HW128287   0.090  12.433   6.936
 9421SOL    HW228288   0.059  12.580   6.873
 9422SOL     OW28289   0.732  11.806   6.650
 9422SOL    HW128290   0.791  11.780   6.574
 9422SOL    HW228291   0.704  11.902   6.639
 9423SOL     OW28292   1.728  12.107   7.440
 9423SOL    HW128293   1.682  12.100   7.351
 9423SOL    HW228294   1.666  12.151   7.506
 9424SOL     OW28295   0.307  11.235   6.204
 9424SOL    HW128296   0.296  11.329   6.237
 9424SOL    HW228297   0.302  11.172   6.281
 9425SOL     OW28298   1.622  11.539   5.960
 9425SOL    HW128299   1.624  11.463   6.024
 9425SOL    HW228300   1.574  11.616   6.000
 9426SOL     OW28301   1.023  11.938   6.552
 9426SOL    HW128302   1.038  11.959   6.648
 9426SOL    HW228303   0.993  11.843   6.543
 9427SOL     OW28304   1.859  12.690   7.191
 9427SOL    HW128305   1.873  12.717   7.096
 9427SOL    HW228306   1.942  12.712   7.244
 9428SOL     OW28307   0.350  12.070   7.390
 9428SOL    HW128308   0.426  12.114   7.438
 9428SOL    HW228309   0.385  12.023   7.308
 9429SOL     OW28310   1.540  11.446   5.711
 9429SOL    HW128311   1.479  11.371   5.734
 9429SOL    HW228312   1.562  11.498   5.794
 9430SOL     OW28313   1.303  12.010   5.628
 9430SOL    HW128314   1.337  11.917   5.643
 9430SOL    HW228315   1.321  12.037   5.533
 9431SOL     OW28316   1.068  12.505   6.435
 9431SOL    HW128317   1.075  12.421   6.380
 9431SOL    HW228318   1.130  12.574   6.399
 9432SOL     OW28319   0.319  11.982   6.535
 9432SOL    HW128320   0.412  12.018   6.540
 9432SOL    HW228321   0.313  11.897   6.587
 9433SOL     OW28322   0.339  11.681   6.592
 9433SOL    HW128323   0.287  11.598   6.575
 9433SOL    HW228324   0.416  11.686   6.528
 9434SOL     OW28325   1.138  11.552   7.264
 9434SOL    HW128326   1.093  11.615   7.328
 9434SOL    HW228327   1.231  11.583   7.247
 9435SOL     OW28328   1.160  11.379   7.063
 9435SOL    HW128329   1.160  11.443   7.140
 9435SOL    HW228330   1.188  11.427   6.980
 9436SOL     OW28331   0.008  12.498   5.786
 9436SOL    HW128332  -0.085  12.519   5.755
 9436SOL    HW228333   0.018  12.399   5.799
 9437SOL     OW28334   0.504  12.740   6.496
 9437SOL    HW128335   0.570  12.814   6.505
 9437SOL    HW228336   0.548  12.661   6.454
 9438SOL     OW28337   1.002  11.968   6.824
 9438SOL    HW128338   1.043  11.936   6.910
 9438SOL    HW228339   0.906  11.941   6.821
 9439SOL     OW28340   0.040  11.716   6.700
 9439SOL    HW128341   0.125  11.683   6.659
 9439SOL    HW228342   0.053  11.731   6.798
 9440SOL     OW28343   0.189  11.692   7.308
 9440SOL    HW128344   0.248  11.652   7.238
 9440SOL    HW228345   0.131  11.763   7.267
 9441SOL     OW28346   1.369  12.122   7.246
 9441SOL    HW128347   1.408  12.211   7.266
 9441SOL    HW228348   1.379  12.102   7.149
 9442SOL     OW28349   0.815  11.744   5.911
 9442SOL    HW128350   0.822  11.655   5.865
 9442SOL    HW228351   0.721  11.778   5.903
 9443SOL     OW28352   1.657  11.776   6.792
 9443SOL    HW128353   1.619  11.707   6.854
 9443SOL    HW228354   1.739  11.740   6.748
 9444SOL     OW28355   0.252  12.736   7.330
 9444SOL    HW128356   0.222  12.793   7.406
 9444SOL    HW228357   0.245  12.639   7.356
 9445SOL     OW28358   0.671  11.636   6.855
 9445SOL    HW128359   0.637  11.547   6.825
 9445SOL    HW228360   0.697  11.690   6.775
 9446SOL     OW28361   0.473  11.672   5.777
 9446SOL    HW128362   0.534  11.752   5.781
 9446SOL    HW228363   0.378  11.703   5.784
 9447SOL     OW28364   0.159  12.309   7.052
 9447SOL    HW128365   0.181  12.248   7.128
 9447SOL    HW228366   0.169  12.260   6.966
 9448SOL     OW28367   1.347  12.231   6.820
 9448SOL    HW128368   1.371  12.168   6.746
 9448SOL    HW228369   1.257  12.271   6.802
 9449SOL     OW28370   1.302  12.027   5.895
 9449SOL    HW128371   1.216  11.996   5.937
 9449SOL    HW228372   1.298  12.013   5.796
 9450SOL     OW28373   1.252  12.903   6.714
 9450SOL    HW128374   1.336  12.908   6.660
 9450SOL    HW228375   1.229  12.807   6.732
 9451SOL     OW28376   0.083  12.430   6.608
 9451SOL    HW128377   0.078  12.429   6.708
 9451SOL    HW228378   0.000  12.389   6.570
 9452SOL     OW28379   1.726  11.307   6.109
 9452SOL    HW128380   1.799  11.290   6.042
 9452SOL    HW228381   1.695  11.220   6.147
 9453SOL     OW28382   0.130  12.966   7.437
 9453SOL    HW128383   0.089  12.892   7.490
 9453SOL    HW228384   0.194  13.017   7.495
 9454SOL     OW28385   1.280  12.099   6.258
 9454SOL    HW128386   1.340  12.018   6.260
 9454SOL    HW228387   1.320  12.168   6.198
 9455SOL     OW28388   0.830  12.445   7.008
 9455SOL    HW128389   0.825  12.478   7.103
 9455SOL    HW228390   0.744  12.464   6.962
 9456SOL     OW28391   0.672  12.788   5.740
 9456SOL    HW128392   0.681  12.798   5.641
 9456SOL    HW228393   0.632  12.699   5.761
 9457SOL     OW28394   1.841  11.347   6.549
 9457SOL    HW128395   1.880  11.262   6.513
 9457SOL    HW228396   1.743  11.349   6.530
 9458SOL     OW28397   0.263  11.498   6.306
 9458SOL    HW128398   0.184  11.549   6.272
 9458SOL    HW228399   0.254  11.483   6.404
 9459SOL     OW28400   1.194  12.784   5.617
 9459SOL    HW128401   1.200  12.691   5.654
 9459SOL    HW228402   1.135  12.784   5.537
 9460SOL     OW28403   0.822  12.174   6.958
 9460SOL    HW128404   0.862  12.173   6.866
 9460SOL    HW228405   0.832  12.266   6.998
 9461SOL     OW28406   0.916  12.082   5.877
 9461SOL    HW128407   0.979  12.120   5.809
 9461SOL    HW228408   0.956  11.999   5.916
 9462SOL     OW28409   0.372  12.460   7.076
 9462SOL    HW128410   0.359  12.553   7.042
 9462SOL    HW228411   0.288  12.408   7.063
 9463SOL     OW28412   1.614  12.464   6.875
 9463SOL    HW128413   1.674  12.467   6.955
 9463SOL    HW228414   1.539  12.528   6.888
 9464SOL     OW28415   1.039  12.270   6.282
 9464SOL    HW128416   0.969  12.223   6.336
 9464SOL    HW228417   1.098  12.202   6.239
 9465SOL     OW28418   1.014  11.408   6.557
 9465SOL    HW128419   1.006  11.372   6.464
 9465SOL    HW228420   1.012  11.332   6.622
 9466SOL     OW28421   0.590  12.659   6.077
 9466SOL    HW128422   0.632  12.601   6.007
 9466SOL    HW228423   0.546  12.738   6.033
 9467SOL     OW28424   1.709  11.557   6.967
 9467SOL    HW128425   1.782  11.626   6.971
 9467SOL    HW228426   1.737  11.482   6.908
 9468SOL     OW28427   0.255  12.520   5.876
 9468SOL    HW128428   0.159  12.521   5.849
 9468SOL    HW228429   0.267  12.573   5.960
 9469SOL     OW28430   0.105  12.185   7.312
 9469SOL    HW128431   0.028  12.152   7.366
 9469SOL    HW228432   0.190  12.155   7.354
 9470SOL     OW28433   0.672  11.375   7.075
 9470SOL    HW128434   0.762  11.359   7.035
 9470SOL    HW228435   0.680  11.380   7.174
 9471SOL     OW28436   0.075  11.517   5.619
 9471SOL    HW128437  -0.017  11.489   5.590
 9471SOL    HW228438   0.106  11.594   5.563
 9472SOL     OW28439   1.440  12.028   6.984
 9472SOL    HW128440   1.383  12.080   6.921
 9472SOL    HW228441   1.536  12.040   6.960
 9473SOL     OW28442   0.072  11.338   5.904
 9473SOL    HW128443   0.055  11.421   5.850
 9473SOL    HW228444   0.162  11.301   5.882
 9474SOL     OW28445   1.183  12.507   5.705
 9474SOL    HW128446   1.084  12.496   5.707
 9474SOL    HW228447   1.217  12.522   5.798
 9475SOL     OW28448   0.613  12.014   7.017
 9475SOL    HW128449   0.669  12.095   7.000
 9475SOL    HW228450   0.672  11.934   7.020
 9476SOL     OW28451   0.716  11.737   7.294
 9476SOL    HW128452   0.735  11.802   7.368
 9476SOL    HW228453   0.776  11.657   7.303
 9477SOL     OW28454   1.450  12.392   7.219
 9477SOL    HW128455   1.441  12.382   7.318
 9477SOL    HW228456   1.546  12.385   7.193
 9478SOL     OW28457   1.674  12.055   6.840
 9478SOL    HW128458   1.647  11.966   6.803
 9478SOL    HW228459   1.675  12.123   6.767
 9479SOL     OW28460   1.225  11.497   6.035
 9479SOL    HW128461   1.290  11.423   6.024
 9479SOL    HW228462   1.245  11.547   6.119
 9480SOL     OW28463   0.594  11.917   6.238
 9480SOL    HW128464   0.644  12.002   6.219
 9480SOL    HW228465   0.506  11.919   6.190
 9481SOL     OW28466   1.777  11.514   7.228
 9481SOL    HW128467   1.760  11.545   7.134
 9481SOL    HW228468   1.693  11.477   7.266
 9482SOL     OW28469   1.730  12.106   7.103
 9482SOL    HW128470   1.768  12.197   7.118
 9482SOL    HW228471   1.722  12.089   7.004
 9483SOL     OW28472   0.859  12.546   5.602
 9483SOL    HW128473   0.813  12.561   5.690
 9483SOL    HW228474   0.903  12.631   5.572
 9484SOL     OW28475   0.859  12.128   6.447
 9484SOL    HW128476   0.913  12.059   6.495
 9484SOL    HW228477   0.827  12.197   6.513
 9485SOL     OW28478   1.083  12.156   5.673
 9485SOL    HW128479   1.060  12.209   5.591
 9485SOL    HW228480   1.164  12.100   5.654
 9486SOL     OW28481   1.861  12.741   6.437
 9486SOL    HW128482   1.790  12.729   6.367
 9486SOL    HW228483   1.862  12.662   6.497
 9487SOL     OW28484   0.221  12.486   7.430
 9487SOL    HW128485   0.156  12.413   7.409
 9487SOL    HW228486   0.225  12.500   7.528
 9488SOL     OW28487   0.079  12.412   6.239
 9488SOL    HW128488   0.078  12.365   6.327
 9488SOL    HW228489   0.161  12.384   6.188
 9489SOL     OW28490   0.672  12.563   7.210
 9489SOL    HW128491   0.594  12.513   7.248
 9489SOL    HW228492   0.669  12.658   7.241
 9490SOL     OW28493   1.824  11.364   6.813
 9490SOL    HW128494   1.820  11.274   6.857
 9490SOL    HW228495   1.827  11.353   6.714
 9491SOL     OW28496   0.428  11.596   6.106
 9491SOL    HW128497   0.458  11.524   6.044
 9491SOL    HW228498   0.389  11.556   6.189
 9492SOL     OW28499   1.705  12.659   6.690
 9492SOL    HW128500   1.612  12.634   6.663
 9492SOL    HW228501   1.731  12.609   6.772
 9493SOL     OW28502   0.317  11.719   6.866
 9493SOL    HW128503   0.355  11.660   6.938
 9493SOL    HW228504   0.357  11.693   6.778
 9494SOL     OW28505   1.424  11.386   6.698
 9494SOL    HW128506   1.476  11.321   6.753
 9494SOL    HW228507   1.375  11.449   6.759
 9495SOL     OW28508   1.001  11.206   6.740
 9495SOL    HW128509   0.938  11.134   6.709
 9495SOL    HW228510   1.094  11.170   6.740
 9496SOL     OW28511   0.770  12.502   5.887
 9496SOL    HW128512   0.724  12.415   5.904
 9496SOL    HW228513   0.861  12.499   5.928
 9497SOL     OW28514   0.618  12.739   6.870
 9497SOL    HW128515   0.613  12.821   6.927
 9497SOL    HW228516   0.707  12.736   6.825
 9498SOL     OW28517   1.352  11.224   5.754
 9498SOL    HW128518   1.387  11.183   5.670
 9498SOL    HW228519   1.262  11.186   5.774
 9499SOL     OW28520   1.300  11.625   6.277
 9499SOL    HW128521   1.241  11.705   6.281
 9499SOL    HW228522   1.315  11.590   6.370
 9500SOL     OW28523   1.593  11.393   6.468
 9500SOL    HW128524   1.509  11.392   6.522
 9500SOL    HW228525   1.595  11.476   6.412
 9501SOL     OW28526   0.039  12.249   5.886
 9501SOL    HW128527   0.138  12.238   5.877
 9501SOL    HW228528  -0.001  12.163   5.918
 9502SOL     OW28529   0.230  11.800   7.561
 9502SOL    HW128530   0.137  11.798   7.598
 9502SOL    HW228531   0.231  11.761   7.469
 9503SOL     OW28532   0.225  11.447   8.444
 9503SOL    HW128533   0.260  11.430   8.536
 9503SOL    HW228534   0.137  11.402   8.432
 9504SOL     OW28535   0.019  11.540   8.095
 9504SOL    HW128536  -0.063  11.583   8.134
 9504SOL    HW228537  -0.009  11.467   8.032
 9505SOL     OW28538   0.569  12.447   8.613
 9505SOL    HW128539   0.476  12.440   8.576
 9505SOL    HW228540   0.580  12.536   8.657
 9506SOL     OW28541   1.555  12.683   8.151
 9506SOL    HW128542   1.498  12.667   8.232
 9506SOL    HW228543   1.496  12.693   8.071
 9507SOL     OW28544   1.135  11.875   8.165
 9507SOL    HW128545   1.192  11.953   8.140
 9507SOL    HW228546   1.075  11.901   8.241
 9508SOL     OW28547   1.755  11.779   7.679
 9508SOL    HW128548   1.743  11.766   7.580
 9508SOL    HW228549   1.725  11.698   7.728
 9509SOL     OW28550   0.768  12.316   8.471
 9509SOL    HW128551   0.690  12.333   8.531
 9509SOL    HW228552   0.802  12.403   8.435
 9510SOL     OW28553   0.850  11.970   9.271
 9510SOL    HW128554   0.846  12.046   9.336
 9510SOL    HW228555   0.872  12.006   9.180
 9511SOL     OW28556   0.685  12.184   8.113
 9511SOL    HW128557   0.754  12.168   8.183
 9511SOL    HW228558   0.612  12.241   8.151
 9512SOL     OW28559   0.686  12.333   9.251
 9512SOL    HW128560   0.746  12.412   9.265
 9512SOL    HW228561   0.600  12.364   9.210
 9513SOL     OW28562   0.335  12.607   8.509
 9513SOL    HW128563   0.257  12.576   8.456
 9513SOL    HW228564   0.393  12.665   8.452
 9514SOL     OW28565   1.460  12.677   8.787
 9514SOL    HW128566   1.484  12.771   8.813
 9514SOL    HW228567   1.444  12.623   8.869
 9515SOL     OW28568   0.438  11.564   8.947
 9515SOL    HW128569   0.520  11.508   8.956
 9515SOL    HW228570   0.357  11.506   8.951
 9516SOL     OW28571   1.603  11.619   8.185
 9516SOL    HW128572   1.529  11.665   8.135
 9516SOL    HW228573   1.654  11.687   8.238
 9517SOL     OW28574   1.127  12.513   9.138
 9517SOL    HW128575   1.174  12.513   9.226
 9517SOL    HW228576   1.079  12.426   9.127
 9518SOL     OW28577   0.230  12.606   7.986
 9518SOL    HW128578   0.204  12.702   7.986
 9518SOL    HW228579   0.159  12.552   8.031
 9519SOL     OW28580   0.240  12.263   8.334
 9519SOL    HW128581   0.254  12.179   8.386
 9519SOL    HW228582   0.185  12.327   8.389
 9520SOL     OW28583   0.606  12.136   7.571
 9520SOL    HW128584   0.613  12.220   7.517
 9520SOL    HW228585   0.652  12.149   7.659
 9521SOL     OW28586   1.594  11.286   8.928
 9521SOL    HW128587   1.576  11.353   8.856
 9521SOL    HW228588   1.591  11.332   9.017
 9522SOL     OW28589   0.122  11.815   8.011
 9522SOL    HW128590   0.077  11.727   8.028
 9522SOL    HW228591   0.121  11.869   8.095
 9523SOL     OW28592   0.027  12.768   7.565
 9523SOL    HW128593   0.008  12.672   7.586
 9523SOL    HW228594  -0.006  12.826   7.640
 9524SOL     OW28595   1.689  12.094   8.060
 9524SOL    HW128596   1.784  12.065   8.068
 9524SOL    HW228597   1.681  12.159   7.985
 9525SOL     OW28598   1.641  12.280   7.880
 9525SOL    HW128599   1.727  12.282   7.828
 9525SOL    HW228600   1.655  12.327   7.968
 9526SOL     OW28601   0.113  11.909   9.045
 9526SOL    HW128602   0.201  11.896   9.090
 9526SOL    HW228603   0.100  12.006   9.023
 9527SOL     OW28604   0.613  12.537   8.174
 9527SOL    HW128605   0.564  12.450   8.183
 9527SOL    HW228606   0.590  12.580   8.087
 9528SOL     OW28607   1.293  12.400   8.871
 9528SOL    HW128608   1.330  12.327   8.813
 9528SOL    HW228609   1.345  12.405   8.956
 9529SOL     OW28610   0.809  11.176   7.950
 9529SOL    HW128611   0.849  11.267   7.941
 9529SOL    HW228612   0.709  11.184   7.956
 9530SOL     OW28613   0.197  12.148   8.712
 9530SOL    HW128614   0.286  12.103   8.698
 9530SOL    HW228615   0.124  12.083   8.693
 9531SOL     OW28616   1.525  12.171   7.638
 9531SOL    HW128617   1.462  12.095   7.651
 9531SOL    HW228618   1.573  12.189   7.724
 9532SOL     OW28619   0.317  11.423   9.249
 9532SOL    HW128620   0.388  11.494   9.255
 9532SOL    HW228621   0.229  11.462   9.277
 9533SOL     OW28622   1.466  12.589   8.401
 9533SOL    HW128623   1.407  12.595   8.481
 9533SOL    HW228624   1.451  12.501   8.355
 9534SOL     OW28625   0.598  11.901   7.718
 9534SOL    HW128626   0.622  11.970   7.650
 9534SOL    HW228627   0.520  11.934   7.772
 9535SOL     OW28628   1.281  11.517   8.392
 9535SOL    HW128629   1.195  11.467   8.379
 9535SOL    HW228630   1.343  11.463   8.448
 9536SOL     OW28631   1.576  12.834   7.755
 9536SOL    HW128632   1.665  12.880   7.758
 9536SOL    HW228633   1.555  12.810   7.660
 9537SOL     OW28634   0.807  11.777   8.913
 9537SOL    HW128635   0.760  11.774   9.002
 9537SOL    HW228636   0.756  11.722   8.847
 9538SOL     OW28637   1.394  11.641   9.122
 9538SOL    HW128638   1.374  11.684   9.210
 9538SOL    HW228639   1.472  11.579   9.131
 9539SOL     OW28640   0.973  12.062   9.020
 9539SOL    HW128641   1.019  11.978   8.991
 9539SOL    HW228642   0.917  12.096   8.945
 9540SOL     OW28643   0.991  11.582   8.690
 9540SOL    HW128644   0.914  11.616   8.744
 9540SOL    HW228645   0.957  11.531   8.611
 9541SOL     OW28646   1.041  11.873   7.877
 9541SOL    HW128647   1.067  11.869   7.973
 9541SOL    HW228648   0.956  11.822   7.863
 9542SOL     OW28649   0.076  11.983   8.237
 9542SOL    HW128650   0.175  11.971   8.246
 9542SOL    HW228651   0.052  12.078   8.258
 9543SOL     OW28652   0.865  11.520   7.643
 9543SOL    HW128653   0.924  11.583   7.594
 9543SOL    HW228654   0.884  11.426   7.614
 9544SOL     OW28655   1.719  11.757   9.279
 9544SOL    HW128656   1.693  11.846   9.243
 9544SOL    HW228657   1.717  11.689   9.206
 9545SOL     OW28658   1.362  12.316   7.993
 9545SOL    HW128659   1.445  12.287   7.945
 9545SOL    HW228660   1.313  12.383   7.937
 9546SOL     OW28661   0.550  11.368   8.333
 9546SOL    HW128662   0.545  11.363   8.433
 9546SOL    HW228663   0.552  11.464   8.304
 9547SOL     OW28664   1.008  12.628   7.925
 9547SOL    HW128665   0.962  12.700   7.873
 9547SOL    HW228666   1.004  12.648   8.023
 9548SOL     OW28667   1.795  12.238   8.321
 9548SOL    HW128668   1.733  12.223   8.245
 9548SOL    HW228669   1.743  12.249   8.406
 9549SOL     OW28670   1.227  12.722   8.954
 9549SOL    HW128671   1.233  12.645   9.018
 9549SOL    HW228672   1.175  12.696   8.874
 9550SOL     OW28673   0.321  12.115   7.690
 9550SOL    HW128674   0.403  12.154   7.648
 9550SOL    HW228675   0.294  12.033   7.641
 9551SOL     OW28676   1.458  11.907   8.176
 9551SOL    HW128677   1.453  11.842   8.251
 9551SOL    HW228678   1.538  11.966   8.189
 9552SOL     OW28679   0.461  12.438   9.175
 9552SOL    HW128680   0.411  12.439   9.089
 9552SOL    HW228681   0.398  12.420   9.251
 9553SOL     OW28682   0.202  11.457   8.946
 9553SOL    HW128683   0.122  11.517   8.933
 9553SOL    HW228684   0.192  11.408   9.032
 9554SOL     OW28685   1.632  12.549   7.529
 9554SOL    HW128686   1.600  12.643   7.519
 9554SOL    HW228687   1.556  12.486   7.517
 9555SOL     OW28688   1.400  11.279   7.874
 9555SOL    HW128689   1.376  11.242   7.784
 9555SOL    HW228690   1.499  11.295   7.878
 9556SOL     OW28691   0.382  11.872   7.928
 9556SOL    HW128692   0.427  11.782   7.925
 9556SOL    HW228693   0.288  11.861   7.961
 9557SOL     OW28694   1.547  11.394   9.177
 9557SOL    HW128695   1.542  11.431   9.269
 9557SOL    HW228696   1.475  11.325   9.165
 9558SOL     OW28697   0.614  11.294   7.565
 9558SOL    HW128698   0.712  11.272   7.572
 9558SOL    HW228699   0.583  11.277   7.472
 9559SOL     OW28700   0.781  11.436   9.197
 9559SOL    HW128701   0.848  11.375   9.240
 9559SOL    HW228702   0.708  11.455   9.262
 9560SOL     OW28703   1.351  11.762   8.881
 9560SOL    HW128704   1.379  11.719   8.966
 9560SOL    HW228705   1.376  11.858   8.882
 9561SOL     OW28706   0.803  12.574   8.372
 9561SOL    HW128707   0.893  12.588   8.330
 9561SOL    HW228708   0.732  12.576   8.301
 9562SOL     OW28709   0.922  11.675   8.347
 9562SOL    HW128710   0.897  11.666   8.251
 9562SOL    HW228711   0.970  11.593   8.378
 9563SOL     OW28712   0.539  11.236   7.960
 9563SOL    HW128713   0.458  11.237   8.018
 9563SOL    HW228714   0.542  11.319   7.905
 9564SOL     OW28715   1.434  12.360   7.489
 9564SOL    HW128716   1.466  12.284   7.546
 9564SOL    HW228717   1.342  12.387   7.519
 9565SOL     OW28718   0.297  11.207   7.619
 9565SOL    HW128719   0.346  11.291   7.598
 9565SOL    HW228720   0.359  11.142   7.664
 9566SOL     OW28721   0.935  11.408   7.928
 9566SOL    HW128722   0.887  11.449   7.850
 9566SOL    HW228723   1.034  11.406   7.909
 9567SOL     OW28724   1.076  11.855   8.912
 9567SOL    HW128725   0.996  11.794   8.915
 9567SOL    HW228726   1.157  11.802   8.888
 9568SOL     OW28727   1.227  12.742   8.241
 9568SOL    HW128728   1.248  12.816   8.176
 9568SOL    HW228729   1.295  12.742   8.314
 9569SOL     OW28730   0.459  12.324   8.189
 9569SOL    HW128731   0.388  12.297   8.254
 9569SOL    HW228732   0.433  12.296   8.096
 9570SOL     OW28733   1.032  11.721   7.464
 9570SOL    HW128734   0.991  11.803   7.425
 9570SOL    HW228735   1.096  11.747   7.537
 9571SOL     OW28736   0.078  11.728   8.834
 9571SOL    HW128737   0.170  11.727   8.793
 9571SOL    HW228738   0.072  11.802   8.901
 9572SOL     OW28739   0.561  11.394   8.595
 9572SOL    HW128740   0.599  11.310   8.632
 9572SOL    HW228741   0.473  11.413   8.639
 9573SOL     OW28742   0.866  11.626   8.090
 9573SOL    HW128743   0.834  11.698   8.028
 9573SOL    HW228744   0.890  11.545   8.037
 9574SOL     OW28745   1.017  11.211   8.201
 9574SOL    HW128746   0.945  11.216   8.132
 9574SOL    HW228747   0.993  11.142   8.270
 9575SOL     OW28748   1.429  12.345   8.315
 9575SOL    HW128749   1.374  12.261   8.308
 9575SOL    HW228750   1.455  12.374   8.223
 9576SOL     OW28751   1.466  11.762   8.440
 9576SOL    HW128752   1.436  11.667   8.447
 9576SOL    HW228753   1.539  11.778   8.506
 9577SOL     OW28754   1.857  12.005   7.825
 9577SOL    HW128755   1.899  11.941   7.889
 9577SOL    HW228756   1.819  11.954   7.747
 9578SOL     OW28757   0.488  12.557   7.622
 9578SOL    HW128758   0.401  12.542   7.669
 9578SOL    HW228759   0.471  12.583   7.527
 9579SOL     OW28760   1.664  12.452   8.105
 9579SOL    HW128761   1.763  12.460   8.119
 9579SOL    HW228762   1.619  12.536   8.136
 9580SOL     OW28763   1.390  11.747   7.526
 9580SOL    HW128764   1.336  11.726   7.607
 9580SOL    HW228765   1.481  11.706   7.535
 9581SOL     OW28766   0.527  11.428   7.776
 9581SOL    HW128767   0.554  11.369   7.701
 9581SOL    HW228768   0.527  11.523   7.745
 9582SOL     OW28769   1.754  12.395   9.036
 9582SOL    HW128770   1.845  12.356   9.023
 9582SOL    HW228771   1.762  12.491   9.060
 9583SOL     OW28772   1.064  12.519   8.788
 9583SOL    HW128773   0.984  12.496   8.843
 9583SOL    HW228774   1.147  12.493   8.837
 9584SOL     OW28775   1.111  12.367   8.548
 9584SOL    HW128776   1.071  12.411   8.629
 9584SOL    HW228777   1.070  12.404   8.465
 9585SOL     OW28778   1.638  12.271   8.527
 9585SOL    HW128779   1.643  12.352   8.586
 9585SOL    HW228780   1.552  12.273   8.476
 9586SOL     OW28781   0.915  11.261   8.850
 9586SOL    HW128782   0.940  11.241   8.755
 9586SOL    HW228783   0.987  11.317   8.892
 9587SOL     OW28784   0.980  12.288   9.167
 9587SOL    HW128785   0.881  12.294   9.177
 9587SOL    HW228786   1.003  12.208   9.111
 9588SOL     OW28787   0.705  12.222   7.816
 9588SOL    HW128788   0.691  12.229   7.915
 9588SOL    HW228789   0.789  12.171   7.798
 9589SOL     OW28790   0.410  11.985   8.699
 9589SOL    HW128791   0.496  11.997   8.749
 9589SOL    HW228792   0.368  11.898   8.726
 9590SOL     OW28793   1.274  11.558   8.710
 9590SOL    HW128794   1.295  11.632   8.774
 9590SOL    HW228795   1.185  11.575   8.667
 9591SOL     OW28796   0.064  12.736   8.779
 9591SOL    HW128797   0.018  12.818   8.745
 9591SOL    HW228798   0.162  12.755   8.788
 9592SOL     OW28799   0.367  12.272   7.949
 9592SOL    HW128800   0.360  12.355   7.893
 9592SOL    HW228801   0.371  12.192   7.889
 9593SOL     OW28802   0.566  11.709   8.313
 9593SOL    HW128803   0.578  11.775   8.239
 9593SOL    HW228804   0.612  11.743   8.396
 9594SOL     OW28805   1.252  12.520   7.836
 9594SOL    HW128806   1.302  12.597   7.876
 9594SOL    HW228807   1.157  12.522   7.868
 9595SOL     OW28808   1.272  12.617   8.590
 9595SOL    HW128809   1.319  12.630   8.677
 9595SOL    HW228810   1.206  12.543   8.599
 9596SOL     OW28811   1.582  11.811   7.920
 9596SOL    HW128812   1.551  11.872   7.993
 9596SOL    HW228813   1.632  11.863   7.851
 9597SOL     OW28814   0.354  12.682   8.777
 9597SOL    HW128815   0.333  12.638   8.690
 9597SOL    HW228816   0.451  12.708   8.780
 9598SOL     OW28817   0.402  11.923   9.046
 9598SOL    HW128818   0.470  11.978   8.999
 9598SOL    HW228819   0.442  11.835   9.073
 9599SOL     OW28820   1.587  11.951   9.118
 9599SOL    HW128821   1.495  11.989   9.113
 9599SOL    HW228822   1.647  11.998   9.053
 9600SOL     OW28823   1.013  11.277   9.218
 9600SOL    HW128824   1.019  11.362   9.166
 9600SOL    HW228825   1.045  11.201   9.161
 9601SOL     OW28826   0.504  11.222   9.188
 9601SOL    HW128827   0.462  11.165   9.118
 9601SOL    HW228828   0.438  11.291   9.220
 9602SOL     OW28829   0.573  12.042   8.477
 9602SOL    HW128830   0.617  12.131   8.468
 9602SOL    HW228831   0.510  12.042   8.554
 9603SOL     OW28832   1.360  12.034   8.493
 9603SOL    HW128833   1.285  12.034   8.427
 9603SOL    HW228834   1.397  11.942   8.502
 9604SOL     OW28835   1.209  11.697   7.723
 9604SOL    HW128836   1.222  11.613   7.777
 9604SOL    HW228837   1.180  11.771   7.783
 9605SOL     OW28838   0.307  11.385   8.679
 9605SOL    HW128839   0.284  11.422   8.769
 9605SOL    HW228840   0.277  11.290   8.673
 9606SOL     OW28841   0.037  12.482   8.730
 9606SOL    HW128842   0.090  12.433   8.798
 9606SOL    HW228843   0.059  12.580   8.735
 9607SOL     OW28844   0.732  11.806   8.512
 9607SOL    HW128845   0.791  11.780   8.436
 9607SOL    HW228846   0.704  11.902   8.501
 9608SOL     OW28847   1.728  12.107   9.302
 9608SOL    HW128848   1.682  12.100   9.213
 9608SOL    HW228849   1.666  12.151   9.368
 9609SOL     OW28850   0.307  11.235   8.066
 9609SOL    HW128851   0.296  11.329   8.099
 9609SOL    HW228852   0.302  11.172   8.143
 9610SOL     OW28853   1.622  11.539   7.822
 9610SOL    HW128854   1.624  11.463   7.886
 9610SOL    HW228855   1.574  11.616   7.862
 9611SOL     OW28856   1.023  11.938   8.414
 9611SOL    HW128857   1.038  11.959   8.510
 9611SOL    HW228858   0.993  11.843   8.405
 9612SOL     OW28859   1.859  12.690   9.053
 9612SOL    HW128860   1.873  12.717   8.958
 9612SOL    HW228861   1.942  12.712   9.106
 9613SOL     OW28862   0.350  12.070   9.252
 9613SOL    HW128863   0.426  12.114   9.300
 9613SOL    HW228864   0.385  12.023   9.170
 9614SOL     OW28865   1.540  11.446   7.573
 9614SOL    HW128866   1.479  11.371   7.596
 9614SOL    HW228867   1.562  11.498   7.656
 9615SOL     OW28868   1.303  12.010   7.490
 9615SOL    HW128869   1.337  11.917   7.505
 9615SOL    HW228870   1.321  12.037   7.395
 9616SOL     OW28871   1.068  12.505   8.297
 9616SOL    HW128872   1.075  12.421   8.242
 9616SOL    HW228873   1.130  12.574   8.261
 9617SOL     OW28874   0.319  11.982   8.397
 9617SOL    HW128875   0.412  12.018   8.402
 9617SOL    HW228876   0.313  11.897   8.449
 9618SOL     OW28877   0.339  11.681   8.454
 9618SOL    HW128878   0.287  11.598   8.437
 9618SOL    HW228879   0.416  11.686   8.390
 9619SOL     OW28880   1.138  11.552   9.126
 9619SOL    HW128881   1.093  11.615   9.190
 9619SOL    HW228882   1.231  11.583   9.109
 9620SOL     OW28883   1.160  11.379   8.925
 9620SOL    HW128884   1.160  11.443   9.002
 9620SOL    HW228885   1.188  11.427   8.842
 9621SOL     OW28886   0.008  12.498   7.648
 9621SOL    HW128887  -0.085  12.519   7.617
 9621SOL    HW228888   0.018  12.399   7.661
 9622SOL     OW28889   0.504  12.740   8.358
 9622SOL    HW128890   0.570  12.814   8.367
 9622SOL    HW228891   0.548  12.661   8.316
 9623SOL     OW28892   1.002  11.968   8.686
 9623SOL    HW128893   1.043  11.936   8.772
 9623SOL    HW228894   0.906  11.941   8.683
 9624SOL     OW28895   0.040  11.716   8.562
 9624SOL    HW128896   0.125  11.683   8.521
 9624SOL    HW228897   0.053  11.731   8.660
 9625SOL     OW28898   0.189  11.692   9.170
 9625SOL    HW128899   0.248  11.652   9.100
 9625SOL    HW228900   0.131  11.763   9.129
 9626SOL     OW28901   1.369  12.122   9.108
 9626SOL    HW128902   1.408  12.211   9.128
 9626SOL    HW228903   1.379  12.102   9.011
 9627SOL     OW28904   0.815  11.744   7.773
 9627SOL    HW128905   0.822  11.655   7.727
 9627SOL    HW228906   0.721  11.778   7.765
 9628SOL     OW28907   1.657  11.776   8.654
 9628SOL    HW128908   1.619  11.707   8.716
 9628SOL    HW228909   1.739  11.740   8.610
 9629SOL     OW28910   0.252  12.736   9.192
 9629SOL    HW128911   0.222  12.793   9.268
 9629SOL    HW228912   0.245  12.639   9.218
 9630SOL     OW28913   0.671  11.636   8.717
 9630SOL    HW128914   0.637  11.547   8.687
 9630SOL    HW228915   0.697  11.690   8.637
 9631SOL     OW28916   0.473  11.672   7.639
 9631SOL    HW128917   0.534  11.752   7.643
 9631SOL    HW228918   0.378  11.703   7.646
 9632SOL     OW28919   0.159  12.309   8.914
 9632SOL    HW128920   0.181  12.248   8.990
 9632SOL    HW228921   0.169  12.260   8.828
 9633SOL     OW28922   1.347  12.231   8.682
 9633SOL    HW128923   1.371  12.168   8.608
 9633SOL    HW228924   1.257  12.271   8.664
 9634SOL     OW28925   1.302  12.027   7.757
 9634SOL    HW128926   1.216  11.996   7.799
 9634SOL    HW228927   1.298  12.013   7.658
 9635SOL     OW28928   1.252  12.903   8.576
 9635SOL    HW128929   1.336  12.908   8.522
 9635SOL    HW228930   1.229  12.807   8.594
 9636SOL     OW28931   0.083  12.430   8.470
 9636SOL    HW128932   0.078  12.429   8.570
 9636SOL    HW228933   0.000  12.389   8.432
 9637SOL     OW28934   1.726  11.307   7.971
 9637SOL    HW128935   1.799  11.290   7.904
 9637SOL    HW228936   1.695  11.220   8.009
 9638SOL     OW28937   0.130  12.966   9.299
 9638SOL    HW128938   0.089  12.892   9.352
 9638SOL    HW228939   0.194  13.017   9.357
 9639SOL     OW28940   1.280  12.099   8.120
 9639SOL    HW128941   1.340  12.018   8.122
 9639SOL    HW228942   1.320  12.168   8.060
 9640SOL     OW28943   0.830  12.445   8.870
 9640SOL    HW128944   0.825  12.478   8.965
 9640SOL    HW228945   0.744  12.464   8.824
 9641SOL     OW28946   0.672  12.788   7.602
 9641SOL    HW128947   0.681  12.798   7.503
 9641SOL    HW228948   0.632  12.699   7.623
 9642SOL     OW28949   1.841  11.347   8.411
 9642SOL    HW128950   1.880  11.262   8.375
 9642SOL    HW228951   1.743  11.349   8.392
 9643SOL     OW28952   0.263  11.498   8.168
 9643SOL    HW128953   0.184  11.549   8.134
 9643SOL    HW228954   0.254  11.483   8.266
 9644SOL     OW28955   1.194  12.784   7.479
 9644SOL    HW128956   1.200  12.691   7.516
 9644SOL    HW228957   1.135  12.784   7.399
 9645SOL     OW28958   0.822  12.174   8.820
 9645SOL    HW128959   0.862  12.173   8.728
 9645SOL    HW228960   0.832  12.266   8.860
 9646SOL     OW28961   0.916  12.082   7.739
 9646SOL    HW128962   0.979  12.120   7.671
 9646SOL    HW228963   0.956  11.999   7.778
 9647SOL     OW28964   0.372  12.460   8.938
 9647SOL    HW128965   0.359  12.553   8.904
 9647SOL    HW228966   0.288  12.408   8.925
 9648SOL     OW28967   1.614  12.464   8.737
 9648SOL    HW128968   1.674  12.467   8.817
 9648SOL    HW228969   1.539  12.528   8.750
 9649SOL     OW28970   1.039  12.270   8.144
 9649SOL    HW128971   0.969  12.223   8.198
 9649SOL    HW228972   1.098  12.202   8.101
 9650SOL     OW28973   1.014  11.408   8.419
 9650SOL    HW128974   1.006  11.372   8.326
 9650SOL    HW228975   1.012  11.332   8.484
 9651SOL     OW28976   0.590  12.659   7.939
 9651SOL    HW128977   0.632  12.601   7.869
 9651SOL    HW228978   0.546  12.738   7.895
 9652SOL     OW28979   1.709  11.557   8.829
 9652SOL    HW128980   1.782  11.626   8.833
 9652SOL    HW228981   1.737  11.482   8.770
 9653SOL     OW28982   0.255  12.520   7.738
 9653SOL    HW128983   0.159  12.521   7.711
 9653SOL    HW228984   0.267  12.573   7.822
 9654SOL     OW28985   0.105  12.185   9.174
 9654SOL    HW128986   0.028  12.152   9.228
 9654SOL    HW228987   0.190  12.155   9.216
 9655SOL     OW28988   0.672  11.375   8.937
 9655SOL    HW128989   0.762  11.359   8.897
 9655SOL    HW228990   0.680  11.380   9.036
 9656SOL     OW28991   0.075  11.517   7.481
 9656SOL    HW128992  -0.017  11.489   7.452
 9656SOL    HW228993   0.106  11.594   7.425
 9657SOL     OW28994   1.440  12.028   8.846
 9657SOL    HW128995   1.383  12.080   8.783
 9657SOL    HW228996   1.536  12.040   8.822
 9658SOL     OW28997   0.072  11.338   7.766
 9658SOL    HW128998   0.055  11.421   7.712
 9658SOL    HW228999   0.162  11.301   7.744
 9659SOL     OW29000   1.183  12.507   7.567
 9659SOL    HW129001   1.084  12.496   7.569
 9659SOL    HW229002   1.217  12.522   7.660
 9660SOL     OW29003   0.613  12.014   8.879
 9660SOL    HW129004   0.669  12.095   8.862
 9660SOL    HW229005   0.672  11.934   8.882
 9661SOL     OW29006   0.716  11.737   9.156
 9661SOL    HW129007   0.735  11.802   9.230
 9661SOL    HW229008   0.776  11.657   9.165
 9662SOL     OW29009   1.450  12.392   9.081
 9662SOL    HW129010   1.441  12.382   9.180
 9662SOL    HW229011   1.546  12.385   9.055
 9663SOL     OW29012   1.674  12.055   8.702
 9663SOL    HW129013   1.647  11.966   8.665
 9663SOL    HW229014   1.675  12.123   8.629
 9664SOL     OW29015   1.225  11.497   7.897
 9664SOL    HW129016   1.290  11.423   7.886
 9664SOL    HW229017   1.245  11.547   7.981
 9665SOL     OW29018   0.594  11.917   8.100
 9665SOL    HW129019   0.644  12.002   8.081
 9665SOL    HW229020   0.506  11.919   8.052
 9666SOL     OW29021   1.777  11.514   9.090
 9666SOL    HW129022   1.760  11.545   8.996
 9666SOL    HW229023   1.693  11.477   9.128
 9667SOL     OW29024   1.730  12.106   8.965
 9667SOL    HW129025   1.768  12.197   8.980
 9667SOL    HW229026   1.722  12.089   8.866
 9668SOL     OW29027   0.859  12.546   7.464
 9668SOL    HW129028   0.813  12.561   7.552
 9668SOL    HW229029   0.903  12.631   7.434
 9669SOL     OW29030   0.859  12.128   8.309
 9669SOL    HW129031   0.913  12.059   8.357
 9669SOL    HW229032   0.827  12.197   8.375
 9670SOL     OW29033   1.083  12.156   7.535
 9670SOL    HW129034   1.060  12.209   7.453
 9670SOL    HW229035   1.164  12.100   7.516
 9671SOL     OW29036   1.861  12.741   8.299
 9671SOL    HW129037   1.790  12.729   8.229
 9671SOL    HW229038   1.862  12.662   8.359
 9672SOL     OW29039   0.221  12.486   9.292
 9672SOL    HW129040   0.156  12.413   9.271
 9672SOL    HW229041   0.225  12.500   9.390
 9673SOL     OW29042   0.079  12.412   8.101
 9673SOL    HW129043   0.078  12.365   8.189
 9673SOL    HW229044   0.161  12.384   8.050
 9674SOL     OW29045   0.672  12.563   9.072
 9674SOL    HW129046   0.594  12.513   9.110
 9674SOL    HW229047   0.669  12.658   9.103
 9675SOL     OW29048   1.824  11.364   8.675
 9675SOL    HW129049   1.820  11.274   8.719
 9675SOL    HW229050   1.827  11.353   8.576
 9676SOL     OW29051   0.428  11.596   7.968
 9676SOL    HW129052   0.458  11.524   7.906
 9676SOL    HW229053   0.389  11.556   8.051
 9677SOL     OW29054   1.705  12.659   8.552
 9677SOL    HW129055   1.612  12.634   8.525
 9677SOL    HW229056   1.731  12.609   8.634
 9678SOL     OW29057   0.317  11.719   8.728
 9678SOL    HW129058   0.355  11.660   8.800
 9678SOL    HW229059   0.357  11.693   8.640
 9679SOL     OW29060   1.424  11.386   8.560
 9679SOL    HW129061   1.476  11.321   8.615
 9679SOL    HW229062   1.375  11.449   8.621
 9680SOL     OW29063   1.001  11.206   8.602
 9680SOL    HW129064   0.938  11.134   8.571
 9680SOL    HW229065   1.094  11.170   8.602
 9681SOL     OW29066   0.770  12.502   7.749
 9681SOL    HW129067   0.724  12.415   7.766
 9681SOL    HW229068   0.861  12.499   7.790
 9682SOL     OW29069   0.618  12.739   8.732
 9682SOL    HW129070   0.613  12.821   8.789
 9682SOL    HW229071   0.707  12.736   8.687
 9683SOL     OW29072   1.352  11.224   7.616
 9683SOL    HW129073   1.387  11.183   7.532
 9683SOL    HW229074   1.262  11.186   7.636
 9684SOL     OW29075   1.300  11.625   8.139
 9684SOL    HW129076   1.241  11.705   8.143
 9684SOL    HW229077   1.315  11.590   8.232
 9685SOL     OW29078   1.593  11.393   8.330
 9685SOL    HW129079   1.509  11.392   8.384
 9685SOL    HW229080   1.595  11.476   8.274
 9686SOL     OW29081   0.039  12.249   7.748
 9686SOL    HW129082   0.138  12.238   7.739
 9686SOL    HW229083  -0.001  12.163   7.780
 9687SOL     OW29084   0.230  11.800   9.423
 9687SOL    HW129085   0.137  11.798   9.460
 9687SOL    HW229086   0.231  11.761   9.331
 9688SOL     OW29087   0.225  11.447  10.306
 9688SOL    HW129088   0.260  11.430  10.398
 9688SOL    HW229089   0.137  11.402  10.294
 9689SOL     OW29090   0.019  11.540   9.957
 9689SOL    HW129091  -0.063  11.583   9.996
 9689SOL    HW229092  -0.009  11.467   9.894
 9690SOL     OW29093   0.569  12.447  10.475
 9690SOL    HW129094   0.476  12.440  10.438
 9690SOL    HW229095   0.580  12.536  10.519
 9691SOL     OW29096   1.555  12.683  10.013
 9691SOL    HW129097   1.498  12.667  10.094
 9691SOL    HW229098   1.496  12.693   9.933
 9692SOL     OW29099   1.135  11.875  10.027
 9692SOL    HW129100   1.192  11.953  10.002
 9692SOL    HW229101   1.075  11.901  10.103
 9693SOL     OW29102   1.755  11.779   9.541
 9693SOL    HW129103   1.743  11.766   9.442
 9693SOL    HW229104   1.725  11.698   9.590
 9694SOL     OW29105   0.768  12.316  10.333
 9694SOL    HW129106   0.690  12.333  10.393
 9694SOL    HW229107   0.802  12.403  10.297
 9695SOL     OW29108   0.850  11.970  11.133
 9695SOL    HW129109   0.846  12.046  11.198
 9695SOL    HW229110   0.872  12.006  11.042
 9696SOL     OW29111   0.685  12.184   9.975
 9696SOL    HW129112   0.754  12.168  10.045
 9696SOL    HW229113   0.612  12.241  10.013
 9697SOL     OW29114   0.686  12.333  11.113
 9697SOL    HW129115   0.746  12.412  11.127
 9697SOL    HW229116   0.600  12.364  11.072
 9698SOL     OW29117   0.335  12.607  10.371
 9698SOL    HW129118   0.257  12.576  10.318
 9698SOL    HW229119   0.393  12.665  10.314
 9699SOL     OW29120   1.460  12.677  10.649
 9699SOL    HW129121   1.484  12.771  10.675
 9699SOL    HW229122   1.444  12.623  10.731
 9700SOL     OW29123   0.438  11.564  10.809
 9700SOL    HW129124   0.520  11.508  10.818
 9700SOL    HW229125   0.357  11.506  10.813
 9701SOL     OW29126   1.603  11.619  10.047
 9701SOL    HW129127   1.529  11.665   9.997
 9701SOL    HW229128   1.654  11.687  10.100
 9702SOL     OW29129   1.127  12.513  11.000
 9702SOL    HW129130   1.174  12.513  11.088
 9702SOL    HW229131   1.079  12.426  10.989
 9703SOL     OW29132   0.230  12.606   9.848
 9703SOL    HW129133   0.204  12.702   9.848
 9703SOL    HW229134   0.159  12.552   9.893
 9704SOL     OW29135   0.240  12.263  10.196
 9704SOL    HW129136   0.254  12.179  10.248
 9704SOL    HW229137   0.185  12.327  10.251
 9705SOL     OW29138   0.606  12.136   9.433
 9705SOL    HW129139   0.613  12.220   9.379
 9705SOL    HW229140   0.652  12.149   9.521
 9706SOL     OW29141   1.594  11.286  10.790
 9706SOL    HW129142   1.576  11.353  10.718
 9706SOL    HW229143   1.591  11.332  10.879
 9707SOL     OW29144   0.122  11.815   9.873
 9707SOL    HW129145   0.077  11.727   9.890
 9707SOL    HW229146   0.121  11.869   9.957
 9708SOL     OW29147   0.027  12.768   9.427
 9708SOL    HW129148   0.008  12.672   9.448
 9708SOL    HW229149  -0.006  12.826   9.502
 9709SOL     OW29150   1.689  12.094   9.922
 9709SOL    HW129151   1.784  12.065   9.930
 9709SOL    HW229152   1.681  12.159   9.847
 9710SOL     OW29153   1.641  12.280   9.742
 9710SOL    HW129154   1.727  12.282   9.690
 9710SOL    HW229155   1.655  12.327   9.830
 9711SOL     OW29156   0.113  11.909  10.907
 9711SOL    HW129157   0.201  11.896  10.952
 9711SOL    HW229158   0.100  12.006  10.885
 9712SOL     OW29159   0.613  12.537  10.036
 9712SOL    HW129160   0.564  12.450  10.045
 9712SOL    HW229161   0.590  12.580   9.949
 9713SOL     OW29162   1.293  12.400  10.733
 9713SOL    HW129163   1.330  12.327  10.675
 9713SOL    HW229164   1.345  12.405  10.818
 9714SOL     OW29165   0.809  11.176   9.812
 9714SOL    HW129166   0.849  11.267   9.803
 9714SOL    HW229167   0.709  11.184   9.818
 9715SOL     OW29168   0.197  12.148  10.574
 9715SOL    HW129169   0.286  12.103  10.560
 9715SOL    HW229170   0.124  12.083  10.555
 9716SOL     OW29171   1.525  12.171   9.500
 9716SOL    HW129172   1.462  12.095   9.513
 9716SOL    HW229173   1.573  12.189   9.586
 9717SOL     OW29174   0.317  11.423  11.111
 9717SOL    HW129175   0.388  11.494  11.117
 9717SOL    HW229176   0.229  11.462  11.139
 9718SOL     OW29177   1.466  12.589  10.263
 9718SOL    HW129178   1.407  12.595  10.343
 9718SOL    HW229179   1.451  12.501  10.217
 9719SOL     OW29180   0.598  11.901   9.580
 9719SOL    HW129181   0.622  11.970   9.512
 9719SOL    HW229182   0.520  11.934   9.634
 9720SOL     OW29183   1.281  11.517  10.254
 9720SOL    HW129184   1.195  11.467  10.241
 9720SOL    HW229185   1.343  11.463  10.310
 9721SOL     OW29186   1.576  12.834   9.617
 9721SOL    HW129187   1.665  12.880   9.620
 9721SOL    HW229188   1.555  12.810   9.522
 9722SOL     OW29189   0.807  11.777  10.775
 9722SOL    HW129190   0.760  11.774  10.864
 9722SOL    HW229191   0.756  11.722  10.709
 9723SOL     OW29192   1.394  11.641  10.984
 9723SOL    HW129193   1.374  11.684  11.072
 9723SOL    HW229194   1.472  11.579  10.993
 9724SOL     OW29195   0.973  12.062  10.882
 9724SOL    HW129196   1.019  11.978  10.853
 9724SOL    HW229197   0.917  12.096  10.807
 9725SOL     OW29198   0.991  11.582  10.552
 9725SOL    HW129199   0.914  11.616  10.606
 9725SOL    HW229200   0.957  11.531  10.473
 9726SOL     OW29201   1.041  11.873   9.739
 9726SOL    HW129202   1.067  11.869   9.835
 9726SOL    HW229203   0.956  11.822   9.725
 9727SOL     OW29204   0.076  11.983  10.099
 9727SOL    HW129205   0.175  11.971  10.108
 9727SOL    HW229206   0.052  12.078  10.120
 9728SOL     OW29207   0.865  11.520   9.505
 9728SOL    HW129208   0.924  11.583   9.456
 9728SOL    HW229209   0.884  11.426   9.476
 9729SOL     OW29210   1.719  11.757  11.141
 9729SOL    HW129211   1.693  11.846  11.105
 9729SOL    HW229212   1.717  11.689  11.068
 9730SOL     OW29213   1.362  12.316   9.855
 9730SOL    HW129214   1.445  12.287   9.807
 9730SOL    HW229215   1.313  12.383   9.799
 9731SOL     OW29216   0.550  11.368  10.195
 9731SOL    HW129217   0.545  11.363  10.295
 9731SOL    HW229218   0.552  11.464  10.166
 9732SOL     OW29219   1.008  12.628   9.787
 9732SOL    HW129220   0.962  12.700   9.735
 9732SOL    HW229221   1.004  12.648   9.885
 9733SOL     OW29222   1.795  12.238  10.183
 9733SOL    HW129223   1.733  12.223  10.107
 9733SOL    HW229224   1.743  12.249  10.268
 9734SOL     OW29225   1.227  12.722  10.816
 9734SOL    HW129226   1.233  12.645  10.880
 9734SOL    HW229227   1.175  12.696  10.736
 9735SOL     OW29228   0.321  12.115   9.552
 9735SOL    HW129229   0.403  12.154   9.510
 9735SOL    HW229230   0.294  12.033   9.503
 9736SOL     OW29231   1.458  11.907  10.038
 9736SOL    HW129232   1.453  11.842  10.113
 9736SOL    HW229233   1.538  11.966  10.051
 9737SOL     OW29234   0.461  12.438  11.037
 9737SOL    HW129235   0.411  12.439  10.951
 9737SOL    HW229236   0.398  12.420  11.113
 9738SOL     OW29237   0.202  11.457  10.808
 9738SOL    HW129238   0.122  11.517  10.795
 9738SOL    HW229239   0.192  11.408  10.894
 9739SOL     OW29240   1.632  12.549   9.391
 9739SOL    HW129241   1.600  12.643   9.381
 9739SOL    HW229242   1.556  12.486   9.379
 9740SOL     OW29243   1.400  11.279   9.736
 9740SOL    HW129244   1.376  11.242   9.646
 9740SOL    HW229245   1.499  11.295   9.740
 9741SOL     OW29246   0.382  11.872   9.790
 9741SOL    HW129247   0.427  11.782   9.787
 9741SOL    HW229248   0.288  11.861   9.823
 9742SOL     OW29249   1.547  11.394  11.039
 9742SOL    HW129250   1.542  11.431  11.131
 9742SOL    HW229251   1.475  11.325  11.027
 9743SOL     OW29252   0.614  11.294   9.427
 9743SOL    HW129253   0.712  11.272   9.434
 9743SOL    HW229254   0.583  11.277   9.334
 9744SOL     OW29255   0.781  11.436  11.059
 9744SOL    HW129256   0.848  11.375  11.102
 9744SOL    HW229257   0.708  11.455  11.124
 9745SOL     OW29258   1.351  11.762  10.743
 9745SOL    HW129259   1.379  11.719  10.828
 9745SOL    HW229260   1.376  11.858  10.744
 9746SOL     OW29261   0.803  12.574  10.234
 9746SOL    HW129262   0.893  12.588  10.192
 9746SOL    HW229263   0.732  12.576  10.163
 9747SOL     OW29264   0.922  11.675  10.209
 9747SOL    HW129265   0.897  11.666  10.113
 9747SOL    HW229266   0.970  11.593  10.240
 9748SOL     OW29267   0.539  11.236   9.822
 9748SOL    HW129268   0.458  11.237   9.880
 9748SOL    HW229269   0.542  11.319   9.767
 9749SOL     OW29270   1.434  12.360   9.351
 9749SOL    HW129271   1.466  12.284   9.408
 9749SOL    HW229272   1.342  12.387   9.381
 9750SOL     OW29273   0.297  11.207   9.481
 9750SOL    HW129274   0.346  11.291   9.460
 9750SOL    HW229275   0.359  11.142   9.526
 9751SOL     OW29276   0.935  11.408   9.790
 9751SOL    HW129277   0.887  11.449   9.712
 9751SOL    HW229278   1.034  11.406   9.771
 9752SOL     OW29279   1.076  11.855  10.774
 9752SOL    HW129280   0.996  11.794  10.777
 9752SOL    HW229281   1.157  11.802  10.750
 9753SOL     OW29282   1.227  12.742  10.103
 9753SOL    HW129283   1.248  12.816  10.038
 9753SOL    HW229284   1.295  12.742  10.176
 9754SOL     OW29285   0.459  12.324  10.051
 9754SOL    HW129286   0.388  12.297  10.116
 9754SOL    HW229287   0.433  12.296   9.958
 9755SOL     OW29288   1.032  11.721   9.326
 9755SOL    HW129289   0.991  11.803   9.287
 9755SOL    HW229290   1.096  11.747   9.399
 9756SOL     OW29291   0.078  11.728  10.696
 9756SOL    HW129292   0.170  11.727  10.655
 9756SOL    HW229293   0.072  11.802  10.763
 9757SOL     OW29294   0.561  11.394  10.457
 9757SOL    HW129295   0.599  11.310  10.494
 9757SOL    HW229296   0.473  11.413  10.501
 9758SOL     OW29297   0.866  11.626   9.952
 9758SOL    HW129298   0.834  11.698   9.890
 9758SOL    HW229299   0.890  11.545   9.899
 9759SOL     OW29300   1.017  11.211  10.063
 9759SOL    HW129301   0.945  11.216   9.994
 9759SOL    HW229302   0.993  11.142  10.132
 9760SOL     OW29303   1.429  12.345  10.177
 9760SOL    HW129304   1.374  12.261  10.170
 9760SOL    HW229305   1.455  12.374  10.085
 9761SOL     OW29306   1.466  11.762  10.302
 9761SOL    HW129307   1.436  11.667  10.309
 9761SOL    HW229308   1.539  11.778  10.368
 9762SOL     OW29309   1.857  12.005   9.687
 9762SOL    HW129310   1.899  11.941   9.751
 9762SOL    HW229311   1.819  11.954   9.609
 9763SOL     OW29312   0.488  12.557   9.484
 9763SOL    HW129313   0.401  12.542   9.531
 9763SOL    HW229314   0.471  12.583   9.389
 9764SOL     OW29315   1.664  12.452   9.967
 9764SOL    HW129316   1.763  12.460   9.981
 9764SOL    HW229317   1.619  12.536   9.998
 9765SOL     OW29318   1.390  11.747   9.388
 9765SOL    HW129319   1.336  11.726   9.469
 9765SOL    HW229320   1.481  11.706   9.397
 9766SOL     OW29321   0.527  11.428   9.638
 9766SOL    HW129322   0.554  11.369   9.563
 9766SOL    HW229323   0.527  11.523   9.607
 9767SOL     OW29324   1.754  12.395  10.898
 9767SOL    HW129325   1.845  12.356  10.885
 9767SOL    HW229326   1.762  12.491  10.922
 9768SOL     OW29327   1.064  12.519  10.650
 9768SOL    HW129328   0.984  12.496  10.705
 9768SOL    HW229329   1.147  12.493  10.699
 9769SOL     OW29330   1.111  12.367  10.410
 9769SOL    HW129331   1.071  12.411  10.491
 9769SOL    HW229332   1.070  12.404  10.327
 9770SOL     OW29333   1.638  12.271  10.389
 9770SOL    HW129334   1.643  12.352  10.448
 9770SOL    HW229335   1.552  12.273  10.338
 9771SOL     OW29336   0.915  11.261  10.712
 9771SOL    HW129337   0.940  11.241  10.617
 9771SOL    HW229338   0.987  11.317  10.754
 9772SOL     OW29339   0.980  12.288  11.029
 9772SOL    HW129340   0.881  12.294  11.039
 9772SOL    HW229341   1.003  12.208  10.973
 9773SOL     OW29342   0.705  12.222   9.678
 9773SOL    HW129343   0.691  12.229   9.777
 9773SOL    HW229344   0.789  12.171   9.660
 9774SOL     OW29345   0.410  11.985  10.561
 9774SOL    HW129346   0.496  11.997  10.611
 9774SOL    HW229347   0.368  11.898  10.588
 9775SOL     OW29348   1.274  11.558  10.572
 9775SOL    HW129349   1.295  11.632  10.636
 9775SOL    HW229350   1.185  11.575  10.529
 9776SOL     OW29351   0.064  12.736  10.641
 9776SOL    HW129352   0.018  12.818  10.607
 9776SOL    HW229353   0.162  12.755  10.650
 9777SOL     OW29354   0.367  12.272   9.811
 9777SOL    HW129355   0.360  12.355   9.755
 9777SOL    HW229356   0.371  12.192   9.751
 9778SOL     OW29357   0.566  11.709  10.175
 9778SOL    HW129358   0.578  11.775  10.101
 9778SOL    HW229359   0.612  11.743  10.258
 9779SOL     OW29360   1.252  12.520   9.698
 9779SOL    HW129361   1.302  12.597   9.738
 9779SOL    HW229362   1.157  12.522   9.730
 9780SOL     OW29363   1.272  12.617  10.452
 9780SOL    HW129364   1.319  12.630  10.539
 9780SOL    HW229365   1.206  12.543  10.461
 9781SOL     OW29366   1.582  11.811   9.782
 9781SOL    HW129367   1.551  11.872   9.855
 9781SOL    HW229368   1.632  11.863   9.713
 9782SOL     OW29369   0.354  12.682  10.639
 9782SOL    HW129370   0.333  12.638  10.552
 9782SOL    HW229371   0.451  12.708  10.642
 9783SOL     OW29372   0.402  11.923  10.908
 9783SOL    HW129373   0.470  11.978  10.861
 9783SOL    HW229374   0.442  11.835  10.935
 9784SOL     OW29375   1.587  11.951  10.980
 9784SOL    HW129376   1.495  11.989  10.975
 9784SOL    HW229377   1.647  11.998  10.915
 9785SOL     OW29378   1.013  11.277  11.080
 9785SOL    HW129379   1.019  11.362  11.028
 9785SOL    HW229380   1.045  11.201  11.023
 9786SOL     OW29381   0.504  11.222  11.050
 9786SOL    HW129382   0.462  11.165  10.980
 9786SOL    HW229383   0.438  11.291  11.082
 9787SOL     OW29384   0.573  12.042  10.339
 9787SOL    HW129385   0.617  12.131  10.330
 9787SOL    HW229386   0.510  12.042  10.416
 9788SOL     OW29387   1.360  12.034  10.355
 9788SOL    HW129388   1.285  12.034  10.289
 9788SOL    HW229389   1.397  11.942  10.364
 9789SOL     OW29390   1.209  11.697   9.585
 9789SOL    HW129391   1.222  11.613   9.639
 9789SOL    HW229392   1.180  11.771   9.645
 9790SOL     OW29393   0.307  11.385  10.541
 9790SOL    HW129394   0.284  11.422  10.631
 9790SOL    HW229395   0.277  11.290  10.535
 9791SOL     OW29396   0.037  12.482  10.592
 9791SOL    HW129397   0.090  12.433  10.660
 9791SOL    HW229398   0.059  12.580  10.597
 9792SOL     OW29399   0.732  11.806  10.374
 9792SOL    HW129400   0.791  11.780  10.298
 9792SOL    HW229401   0.704  11.902  10.363
 9793SOL     OW29402   1.728  12.107  11.164
 9793SOL    HW129403   1.682  12.100  11.075
 9793SOL    HW229404   1.666  12.151  11.230
 9794SOL     OW29405   0.307  11.235   9.928
 9794SOL    HW129406   0.296  11.329   9.961
 9794SOL    HW229407   0.302  11.172  10.005
 9795SOL     OW29408   1.622  11.539   9.684
 9795SOL    HW129409   1.624  11.463   9.748
 9795SOL    HW229410   1.574  11.616   9.724
 9796SOL     OW29411   1.023  11.938  10.276
 9796SOL    HW129412   1.038  11.959  10.372
 9796SOL    HW229413   0.993  11.843  10.267
 9797SOL     OW29414   1.859  12.690  10.915
 9797SOL    HW129415   1.873  12.717  10.820
 9797SOL    HW229416   1.942  12.712  10.968
 9798SOL     OW29417   0.350  12.070  11.114
 9798SOL    HW129418   0.426  12.114  11.162
 9798SOL    HW229419   0.385  12.023  11.032
 9799SOL     OW29420   1.540  11.446   9.435
 9799SOL    HW129421   1.479  11.371   9.458
 9799SOL    HW229422   1.562  11.498   9.518
 9800SOL     OW29423   1.303  12.010   9.352
 9800SOL    HW129424   1.337  11.917   9.367
 9800SOL    HW229425   1.321  12.037   9.257
 9801SOL     OW29426   1.068  12.505  10.159
 9801SOL    HW129427   1.075  12.421  10.104
 9801SOL    HW229428   1.130  12.574  10.123
 9802SOL     OW29429   0.319  11.982  10.259
 9802SOL    HW129430   0.412  12.018  10.264
 9802SOL    HW229431   0.313  11.897  10.311
 9803SOL     OW29432   0.339  11.681  10.316
 9803SOL    HW129433   0.287  11.598  10.299
 9803SOL    HW229434   0.416  11.686  10.252
 9804SOL     OW29435   1.138  11.552  10.988
 9804SOL    HW129436   1.093  11.615  11.052
 9804SOL    HW229437   1.231  11.583  10.971
 9805SOL     OW29438   1.160  11.379  10.787
 9805SOL    HW129439   1.160  11.443  10.864
 9805SOL    HW229440   1.188  11.427  10.704
 9806SOL     OW29441   0.008  12.498   9.510
 9806SOL    HW129442  -0.085  12.519   9.479
 9806SOL    HW229443   0.018  12.399   9.523
 9807SOL     OW29444   0.504  12.740  10.220
 9807SOL    HW129445   0.570  12.814  10.229
 9807SOL    HW229446   0.548  12.661  10.178
 9808SOL     OW29447   1.002  11.968  10.548
 9808SOL    HW129448   1.043  11.936  10.634
 9808SOL    HW229449   0.906  11.941  10.545
 9809SOL     OW29450   0.040  11.716  10.424
 9809SOL    HW129451   0.125  11.683  10.383
 9809SOL    HW229452   0.053  11.731  10.522
 9810SOL     OW29453   0.189  11.692  11.032
 9810SOL    HW129454   0.248  11.652  10.962
 9810SOL    HW229455   0.131  11.763  10.991
 9811SOL     OW29456   1.369  12.122  10.970
 9811SOL    HW129457   1.408  12.211  10.990
 9811SOL    HW229458   1.379  12.102  10.873
 9812SOL     OW29459   0.815  11.744   9.635
 9812SOL    HW129460   0.822  11.655   9.589
 9812SOL    HW229461   0.721  11.778   9.627
 9813SOL     OW29462   1.657  11.776  10.516
 9813SOL    HW129463   1.619  11.707  10.578
 9813SOL    HW229464   1.739  11.740  10.472
 9814SOL     OW29465   0.252  12.736  11.054
 9814SOL    HW129466   0.222  12.793  11.130
 9814SOL    HW229467   0.245  12.639  11.080
 9815SOL     OW29468   0.671  11.636  10.579
 9815SOL    HW129469   0.637  11.547  10.549
 9815SOL    HW229470   0.697  11.690  10.499
 9816SOL     OW29471   0.473  11.672   9.501
 9816SOL    HW129472   0.534  11.752   9.505
 9816SOL    HW229473   0.378  11.703   9.508
 9817SOL     OW29474   0.159  12.309  10.776
 9817SOL    HW129475   0.181  12.248  10.852
 9817SOL    HW229476   0.169  12.260  10.690
 9818SOL     OW29477   1.347  12.231  10.544
 9818SOL    HW129478   1.371  12.168  10.470
 9818SOL    HW229479   1.257  12.271  10.526
 9819SOL     OW29480   1.302  12.027   9.619
 9819SOL    HW129481   1.216  11.996   9.661
 9819SOL    HW229482   1.298  12.013   9.520
 9820SOL     OW29483   1.252  12.903  10.438
 9820SOL    HW129484   1.336  12.908  10.384
 9820SOL    HW229485   1.229  12.807  10.456
 9821SOL     OW29486   0.083  12.430  10.332
 9821SOL    HW129487   0.078  12.429  10.432
 9821SOL    HW229488   0.000  12.389  10.294
 9822SOL     OW29489   1.726  11.307   9.833
 9822SOL    HW129490   1.799  11.290   9.766
 9822SOL    HW229491   1.695  11.220   9.871
 9823SOL     OW29492   0.130  12.966  11.161
 9823SOL    HW129493   0.089  12.892  11.214
 9823SOL    HW229494   0.194  13.017  11.219
 9824SOL     OW29495   1.280  12.099   9.982
 9824SOL    HW129496   1.340  12.018   9.984
 9824SOL    HW229497   1.320  12.168   9.922
 9825SOL     OW29498   0.830  12.445  10.732
 9825SOL    HW129499   0.825  12.478  10.827
 9825SOL    HW229500   0.744  12.464  10.686
 9826SOL     OW29501   0.672  12.788   9.464
 9826SOL    HW129502   0.681  12.798   9.365
 9826SOL    HW229503   0.632  12.699   9.485
 9827SOL     OW29504   1.841  11.347  10.273
 9827SOL    HW129505   1.880  11.262  10.237
 9827SOL    HW229506   1.743  11.349  10.254
 9828SOL     OW29507   0.263  11.498  10.030
 9828SOL    HW129508   0.184  11.549   9.996
 9828SOL    HW229509   0.254  11.483  10.128
 9829SOL     OW29510   1.194  12.784   9.341
 9829SOL    HW129511   1.200  12.691   9.378
 9829SOL    HW229512   1.135  12.784   9.261
 9830SOL     OW29513   0.822  12.174  10.682
 9830SOL    HW129514   0.862  12.173  10.590
 9830SOL    HW229515   0.832  12.266  10.722
 9831SOL     OW29516   0.916  12.082   9.601
 9831SOL    HW129517   0.979  12.120   9.533
 9831SOL    HW229518   0.956  11.999   9.640
 9832SOL     OW29519   0.372  12.460  10.800
 9832SOL    HW129520   0.359  12.553  10.766
 9832SOL    HW229521   0.288  12.408  10.787
 9833SOL     OW29522   1.614  12.464  10.599
 9833SOL    HW129523   1.674  12.467  10.679
 9833SOL    HW229524   1.539  12.528  10.612
 9834SOL     OW29525   1.039  12.270  10.006
 9834SOL    HW129526   0.969  12.223  10.060
 9834SOL    HW229527   1.098  12.202   9.963
 9835SOL     OW29528   1.014  11.408  10.281
 9835SOL    HW129529   1.006  11.372  10.188
 9835SOL    HW229530   1.012  11.332  10.346
 9836SOL     OW29531   0.590  12.659   9.801
 9836SOL    HW129532   0.632  12.601   9.731
 9836SOL    HW229533   0.546  12.738   9.757
 9837SOL     OW29534   1.709  11.557  10.691
 9837SOL    HW129535   1.782  11.626  10.695
 9837SOL    HW229536   1.737  11.482  10.632
 9838SOL     OW29537   0.255  12.520   9.600
 9838SOL    HW129538   0.159  12.521   9.573
 9838SOL    HW229539   0.267  12.573   9.684
 9839SOL     OW29540   0.105  12.185  11.036
 9839SOL    HW129541   0.028  12.152  11.090
 9839SOL    HW229542   0.190  12.155  11.078
 9840SOL     OW29543   0.672  11.375  10.799
 9840SOL    HW129544   0.762  11.359  10.759
 9840SOL    HW229545   0.680  11.380  10.898
 9841SOL     OW29546   0.075  11.517   9.343
 9841SOL    HW129547  -0.017  11.489   9.314
 9841SOL    HW229548   0.106  11.594   9.287
 9842SOL     OW29549   1.440  12.028  10.708
 9842SOL    HW129550   1.383  12.080  10.645
 9842SOL    HW229551   1.536  12.040  10.684
 9843SOL     OW29552   0.072  11.338   9.628
 9843SOL    HW129553   0.055  11.421   9.574
 9843SOL    HW229554   0.162  11.301   9.606
 9844SOL     OW29555   1.183  12.507   9.429
 9844SOL    HW129556   1.084  12.496   9.431
 9844SOL    HW229557   1.217  12.522   9.522
 9845SOL     OW29558   0.613  12.014  10.741
 9845SOL    HW129559   0.669  12.095  10.724
 9845SOL    HW229560   0.672  11.934  10.744
 9846SOL     OW29561   0.716  11.737  11.018
 9846SOL    HW129562   0.735  11.802  11.092
 9846SOL    HW229563   0.776  11.657  11.027
 9847SOL     OW29564   1.450  12.392  10.943
 9847SOL    HW129565   1.441  12.382  11.042
 9847SOL    HW229566   1.546  12.385  10.917
 9848SOL     OW29567   1.674  12.055  10.564
 9848SOL    HW129568   1.647  11.966  10.527
 9848SOL    HW229569   1.675  12.123  10.491
 9849SOL     OW29570   1.225  11.497   9.759
 9849SOL    HW129571   1.290  11.423   9.748
 9849SOL    HW229572   1.245  11.547   9.843
 9850SOL     OW29573   0.594  11.917   9.962
 9850SOL    HW129574   0.644  12.002   9.943
 9850SOL    HW229575   0.506  11.919   9.914
 9851SOL     OW29576   1.777  11.514  10.952
 9851SOL    HW129577   1.760  11.545  10.858
 9851SOL    HW229578   1.693  11.477  10.990
 9852SOL     OW29579   1.730  12.106  10.827
 9852SOL    HW129580   1.768  12.197  10.842
 9852SOL    HW229581   1.722  12.089  10.728
 9853SOL     OW29582   0.859  12.546   9.326
 9853SOL    HW129583   0.813  12.561   9.414
 9853SOL    HW229584   0.903  12.631   9.296
 9854SOL     OW29585   0.859  12.128  10.171
 9854SOL    HW129586   0.913  12.059  10.219
 9854SOL    HW229587   0.827  12.197  10.237
 9855SOL     OW29588   1.083  12.156   9.397
 9855SOL    HW129589   1.060  12.209   9.315
 9855SOL    HW229590   1.164  12.100   9.378
 9856SOL     OW29591   1.861  12.741  10.161
 9856SOL    HW129592   1.790  12.729  10.091
 9856SOL    HW229593   1.862  12.662  10.221
 9857SOL     OW29594   0.221  12.486  11.154
 9857SOL    HW129595   0.156  12.413  11.133
 9857SOL    HW229596   0.225  12.500  11.252
 9858SOL     OW29597   0.079  12.412   9.963
 9858SOL    HW129598   0.078  12.365  10.051
 9858SOL    HW229599   0.161  12.384   9.912
 9859SOL     OW29600   0.672  12.563  10.934
 9859SOL    HW129601   0.594  12.513  10.972
 9859SOL    HW229602   0.669  12.658  10.965
 9860SOL     OW29603   1.824  11.364  10.537
 9860SOL    HW129604   1.820  11.274  10.581
 9860SOL    HW229605   1.827  11.353  10.438
 9861SOL     OW29606   0.428  11.596   9.830
 9861SOL    HW129607   0.458  11.524   9.768
 9861SOL    HW229608   0.389  11.556   9.913
 9862SOL     OW29609   1.705  12.659  10.414
 9862SOL    HW129610   1.612  12.634  10.387
 9862SOL    HW229611   1.731  12.609  10.496
 9863SOL     OW29612   0.317  11.719  10.590
 9863SOL    HW129613   0.355  11.660  10.662
 9863SOL    HW229614   0.357  11.693  10.502
 9864SOL     OW29615   1.424  11.386  10.422
 9864SOL    HW129616   1.476  11.321  10.477
 9864SOL    HW229617   1.375  11.449  10.483
 9865SOL     OW29618   1.001  11.206  10.464
 9865SOL    HW129619   0.938  11.134  10.433
 9865SOL    HW229620   1.094  11.170  10.464
 9866SOL     OW29621   0.770  12.502   9.611
 9866SOL    HW129622   0.724  12.415   9.628
 9866SOL    HW229623   0.861  12.499   9.652
 9867SOL     OW29624   0.618  12.739  10.594
 9867SOL    HW129625   0.613  12.821  10.651
 9867SOL    HW229626   0.707  12.736  10.549
 9868SOL     OW29627   1.352  11.224   9.478
 9868SOL    HW129628   1.387  11.183   9.394
 9868SOL    HW229629   1.262  11.186   9.498
 9869SOL     OW29630   1.300  11.625  10.001
 9869SOL    HW129631   1.241  11.705  10.005
 9869SOL    HW229632   1.315  11.590  10.094
 9870SOL     OW29633   1.593  11.393  10.192
 9870SOL    HW129634   1.509  11.392  10.246
 9870SOL    HW229635   1.595  11.476  10.136
 9871SOL     OW29636   0.039  12.249   9.610
 9871SOL    HW129637   0.138  12.238   9.601
 9871SOL    HW229638  -0.001  12.163   9.642
 9872SOL     OW29639   0.230  11.800  11.285
 9872SOL    HW129640   0.137  11.798  11.322
 9872SOL    HW229641   0.231  11.761  11.193
 9873SOL     OW29642   0.225  11.447  12.168
 9873SOL    HW129643   0.260  11.430  12.260
 9873SOL    HW229644   0.137  11.402  12.156
 9874SOL     OW29645   0.019  11.540  11.819
 9874SOL    HW129646  -0.063  11.583  11.858
 9874SOL    HW229647  -0.009  11.467  11.756
 9875SOL     OW29648   0.569  12.447  12.337
 9875SOL    HW129649   0.476  12.440  12.300
 9875SOL    HW229650   0.580  12.536  12.381
 9876SOL     OW29651   1.555  12.683  11.875
 9876SOL    HW129652   1.498  12.667  11.956
 9876SOL    HW229653   1.496  12.693  11.795
 9877SOL     OW29654   1.135  11.875  11.889
 9877SOL    HW129655   1.192  11.953  11.864
 9877SOL    HW229656   1.075  11.901  11.965
 9878SOL     OW29657   1.755  11.779  11.403
 9878SOL    HW129658   1.743  11.766  11.304
 9878SOL    HW229659   1.725  11.698  11.452
 9879SOL     OW29660   0.768  12.316  12.195
 9879SOL    HW129661   0.690  12.333  12.255
 9879SOL    HW229662   0.802  12.403  12.159
 9880SOL     OW29663   0.685  12.184  11.837
 9880SOL    HW129664   0.754  12.168  11.907
 9880SOL    HW229665   0.612  12.241  11.875
 9881SOL     OW29666   0.335  12.607  12.233
 9881SOL    HW129667   0.257  12.576  12.180
 9881SOL    HW229668   0.393  12.665  12.176
 9882SOL     OW29669   1.460  12.677  12.511
 9882SOL    HW129670   1.484  12.771  12.537
 9882SOL    HW229671   1.444  12.623  12.593
 9883SOL     OW29672   0.438  11.564  12.671
 9883SOL    HW129673   0.520  11.508  12.680
 9883SOL    HW229674   0.357  11.506  12.675
 9884SOL     OW29675   1.603  11.619  11.909
 9884SOL    HW129676   1.529  11.665  11.859
 9884SOL    HW229677   1.654  11.687  11.962
 9885SOL     OW29678   0.230  12.606  11.710
 9885SOL    HW129679   0.204  12.702  11.710
 9885SOL    HW229680   0.159  12.552  11.755
 9886SOL     OW29681   0.240  12.263  12.058
 9886SOL    HW129682   0.254  12.179  12.110
 9886SOL    HW229683   0.185  12.327  12.113
 9887SOL     OW29684   0.606  12.136  11.295
 9887SOL    HW129685   0.613  12.220  11.241
 9887SOL    HW229686   0.652  12.149  11.383
 9888SOL     OW29687   1.594  11.286  12.652
 9888SOL    HW129688   1.576  11.353  12.580
 9888SOL    HW229689   1.591  11.332  12.741
 9889SOL     OW29690   0.122  11.815  11.735
 9889SOL    HW129691   0.077  11.727  11.752
 9889SOL    HW229692   0.121  11.869  11.819
 9890SOL     OW29693   0.027  12.768  11.289
 9890SOL    HW129694   0.008  12.672  11.310
 9890SOL    HW229695  -0.006  12.826  11.364
 9891SOL     OW29696   1.689  12.094  11.784
 9891SOL    HW129697   1.784  12.065  11.792
 9891SOL    HW229698   1.681  12.159  11.709
 9892SOL     OW29699   1.641  12.280  11.604
 9892SOL    HW129700   1.727  12.282  11.552
 9892SOL    HW229701   1.655  12.327  11.692
 9893SOL     OW29702   0.113  11.909  12.769
 9893SOL    HW129703   0.201  11.896  12.814
 9893SOL    HW229704   0.100  12.006  12.747
 9894SOL     OW29705   0.613  12.537  11.898
 9894SOL    HW129706   0.564  12.450  11.907
 9894SOL    HW229707   0.590  12.580  11.811
 9895SOL     OW29708   1.293  12.400  12.595
 9895SOL    HW129709   1.330  12.327  12.537
 9895SOL    HW229710   1.345  12.405  12.680
 9896SOL     OW29711   0.809  11.176  11.674
 9896SOL    HW129712   0.849  11.267  11.665
 9896SOL    HW229713   0.709  11.184  11.680
 9897SOL     OW29714   0.197  12.148  12.436
 9897SOL    HW129715   0.286  12.103  12.422
 9897SOL    HW229716   0.124  12.083  12.417
 9898SOL     OW29717   1.525  12.171  11.362
 9898SOL    HW129718   1.462  12.095  11.375
 9898SOL    HW229719   1.573  12.189  11.448
 9899SOL     OW29720   1.466  12.589  12.125
 9899SOL    HW129721   1.407  12.595  12.205
 9899SOL    HW229722   1.451  12.501  12.079
 9900SOL     OW29723   0.598  11.901  11.442
 9900SOL    HW129724   0.622  11.970  11.374
 9900SOL    HW229725   0.520  11.934  11.496
 9901SOL     OW29726   1.281  11.517  12.116
 9901SOL    HW129727   1.195  11.467  12.103
 9901SOL    HW229728   1.343  11.463  12.172
 9902SOL     OW29729   1.576  12.834  11.479
 9902SOL    HW129730   1.665  12.880  11.482
 9902SOL    HW229731   1.555  12.810  11.384
 9903SOL     OW29732   0.807  11.777  12.637
 9903SOL    HW129733   0.760  11.774  12.726
 9903SOL    HW229734   0.756  11.722  12.571
 9904SOL     OW29735   0.973  12.062  12.744
 9904SOL    HW129736   1.019  11.978  12.715
 9904SOL    HW229737   0.917  12.096  12.669
 9905SOL     OW29738   0.991  11.582  12.414
 9905SOL    HW129739   0.914  11.616  12.468
 9905SOL    HW229740   0.957  11.531  12.335
 9906SOL     OW29741   1.041  11.873  11.601
 9906SOL    HW129742   1.067  11.869  11.697
 9906SOL    HW229743   0.956  11.822  11.587
 9907SOL     OW29744   0.076  11.983  11.961
 9907SOL    HW129745   0.175  11.971  11.970
 9907SOL    HW229746   0.052  12.078  11.982
 9908SOL     OW29747   0.865  11.520  11.367
 9908SOL    HW129748   0.924  11.583  11.318
 9908SOL    HW229749   0.884  11.426  11.338
 9909SOL     OW29750   1.362  12.316  11.717
 9909SOL    HW129751   1.445  12.287  11.669
 9909SOL    HW229752   1.313  12.383  11.661
 9910SOL     OW29753   0.550  11.368  12.057
 9910SOL    HW129754   0.545  11.363  12.157
 9910SOL    HW229755   0.552  11.464  12.028
 9911SOL     OW29756   1.008  12.628  11.649
 9911SOL    HW129757   0.962  12.700  11.597
 9911SOL    HW229758   1.004  12.648  11.747
 9912SOL     OW29759   1.795  12.238  12.045
 9912SOL    HW129760   1.733  12.223  11.969
 9912SOL    HW229761   1.743  12.249  12.130
 9913SOL     OW29762   1.227  12.722  12.678
 9913SOL    HW129763   1.233  12.645  12.742
 9913SOL    HW229764   1.175  12.696  12.598
 9914SOL     OW29765   0.321  12.115  11.414
 9914SOL    HW129766   0.403  12.154  11.372
 9914SOL    HW229767   0.294  12.033  11.365
 9915SOL     OW29768   1.458  11.907  11.900
 9915SOL    HW129769   1.453  11.842  11.975
 9915SOL    HW229770   1.538  11.966  11.913
 9916SOL     OW29771   0.202  11.457  12.670
 9916SOL    HW129772   0.122  11.517  12.657
 9916SOL    HW229773   0.192  11.408  12.756
 9917SOL     OW29774   1.632  12.549  11.253
 9917SOL    HW129775   1.600  12.643  11.243
 9917SOL    HW229776   1.556  12.486  11.241
 9918SOL     OW29777   1.400  11.279  11.598
 9918SOL    HW129778   1.376  11.242  11.508
 9918SOL    HW229779   1.499  11.295  11.602
 9919SOL     OW29780   0.382  11.872  11.652
 9919SOL    HW129781   0.427  11.782  11.649
 9919SOL    HW229782   0.288  11.861  11.685
 9920SOL     OW29783   0.614  11.294  11.289
 9920SOL    HW129784   0.712  11.272  11.296
 9920SOL    HW229785   0.583  11.277  11.196
 9921SOL     OW29786   1.351  11.762  12.605
 9921SOL    HW129787   1.379  11.719  12.690
 9921SOL    HW229788   1.376  11.858  12.606
 9922SOL     OW29789   0.803  12.574  12.096
 9922SOL    HW129790   0.893  12.588  12.054
 9922SOL    HW229791   0.732  12.576  12.025
 9923SOL     OW29792   0.922  11.675  12.071
 9923SOL    HW129793   0.897  11.666  11.975
 9923SOL    HW229794   0.970  11.593  12.102
 9924SOL     OW29795   0.539  11.236  11.684
 9924SOL    HW129796   0.458  11.237  11.742
 9924SOL    HW229797   0.542  11.319  11.629
 9925SOL     OW29798   1.434  12.360  11.213
 9925SOL    HW129799   1.466  12.284  11.270
 9925SOL    HW229800   1.342  12.387  11.243
 9926SOL     OW29801   0.297  11.207  11.343
 9926SOL    HW129802   0.346  11.291  11.322
 9926SOL    HW229803   0.359  11.142  11.388
 9927SOL     OW29804   0.935  11.408  11.652
 9927SOL    HW129805   0.887  11.449  11.574
 9927SOL    HW229806   1.034  11.406  11.633
 9928SOL     OW29807   1.076  11.855  12.636
 9928SOL    HW129808   0.996  11.794  12.639
 9928SOL    HW229809   1.157  11.802  12.612
 9929SOL     OW29810   1.227  12.742  11.965
 9929SOL    HW129811   1.248  12.816  11.900
 9929SOL    HW229812   1.295  12.742  12.038
 9930SOL     OW29813   0.459  12.324  11.913
 9930SOL    HW129814   0.388  12.297  11.978
 9930SOL    HW229815   0.433  12.296  11.820
 9931SOL     OW29816   1.032  11.721  11.188
 9931SOL    HW129817   0.991  11.803  11.149
 9931SOL    HW229818   1.096  11.747  11.261
 9932SOL     OW29819   0.078  11.728  12.558
 9932SOL    HW129820   0.170  11.727  12.517
 9932SOL    HW229821   0.072  11.802  12.625
 9933SOL     OW29822   0.561  11.394  12.319
 9933SOL    HW129823   0.599  11.310  12.356
 9933SOL    HW229824   0.473  11.413  12.363
 9934SOL     OW29825   0.866  11.626  11.814
 9934SOL    HW129826   0.834  11.698  11.752
 9934SOL    HW229827   0.890  11.545  11.761
 9935SOL     OW29828   1.017  11.211  11.925
 9935SOL    HW129829   0.945  11.216  11.856
 9935SOL    HW229830   0.993  11.142  11.994
 9936SOL     OW29831   1.429  12.345  12.039
 9936SOL    HW129832   1.374  12.261  12.032
 9936SOL    HW229833   1.455  12.374  11.947
 9937SOL     OW29834   1.466  11.762  12.164
 9937SOL    HW129835   1.436  11.667  12.171
 9937SOL    HW229836   1.539  11.778  12.230
 9938SOL     OW29837   1.857  12.005  11.549
 9938SOL    HW129838   1.899  11.941  11.613
 9938SOL    HW229839   1.819  11.954  11.471
 9939SOL     OW29840   0.488  12.557  11.346
 9939SOL    HW129841   0.401  12.542  11.393
 9939SOL    HW229842   0.471  12.583  11.251
 9940SOL     OW29843   1.664  12.452  11.829
 9940SOL    HW129844   1.763  12.460  11.843
 9940SOL    HW229845   1.619  12.536  11.860
 9941SOL     OW29846   1.390  11.747  11.250
 9941SOL    HW129847   1.336  11.726  11.331
 9941SOL    HW229848   1.481  11.706  11.259
 9942SOL     OW29849   0.527  11.428  11.500
 9942SOL    HW129850   0.554  11.369  11.425
 9942SOL    HW229851   0.527  11.523  11.469
 9943SOL     OW29852   1.754  12.395  12.760
 9943SOL    HW129853   1.845  12.356  12.747
 9943SOL    HW229854   1.762  12.491  12.784
 9944SOL     OW29855   1.064  12.519  12.512
 9944SOL    HW129856   0.984  12.496  12.567
 9944SOL    HW229857   1.147  12.493  12.561
 9945SOL     OW29858   1.111  12.367  12.272
 9945SOL    HW129859   1.071  12.411  12.353
 9945SOL    HW229860   1.070  12.404  12.189
 9946SOL     OW29861   1.638  12.271  12.251
 9946SOL    HW129862   1.643  12.352  12.310
 9946SOL    HW229863   1.552  12.273  12.200
 9947SOL     OW29864   0.915  11.261  12.574
 9947SOL    HW129865   0.940  11.241  12.479
 9947SOL    HW229866   0.987  11.317  12.616
 9948SOL     OW29867   0.705  12.222  11.540
 9948SOL    HW129868   0.691  12.229  11.639
 9948SOL    HW229869   0.789  12.171  11.522
 9949SOL     OW29870   0.410  11.985  12.423
 9949SOL    HW129871   0.496  11.997  12.473
 9949SOL    HW229872   0.368  11.898  12.450
 9950SOL     OW29873   1.274  11.558  12.434
 9950SOL    HW129874   1.295  11.632  12.498
 9950SOL    HW229875   1.185  11.575  12.391
 9951SOL     OW29876   0.064  12.736  12.503
 9951SOL    HW129877   0.018  12.818  12.469
 9951SOL    HW229878   0.162  12.755  12.512
 9952SOL     OW29879   0.367  12.272  11.673
 9952SOL    HW129880   0.360  12.355  11.617
 9952SOL    HW229881   0.371  12.192  11.613
 9953SOL     OW29882   0.566  11.709  12.037
 9953SOL    HW129883   0.578  11.775  11.963
 9953SOL    HW229884   0.612  11.743  12.120
 9954SOL     OW29885   1.252  12.520  11.560
 9954SOL    HW129886   1.302  12.597  11.600
 9954SOL    HW229887   1.157  12.522  11.592
 9955SOL     OW29888   1.272  12.617  12.314
 9955SOL    HW129889   1.319  12.630  12.401
 9955SOL    HW229890   1.206  12.543  12.323
 9956SOL     OW29891   1.582  11.811  11.644
 9956SOL    HW129892   1.551  11.872  11.717
 9956SOL    HW229893   1.632  11.863  11.575
 9957SOL     OW29894   0.354  12.682  12.501
 9957SOL    HW129895   0.333  12.638  12.414
 9957SOL    HW229896   0.451  12.708  12.504
 9958SOL     OW29897   0.402  11.923  12.770
 9958SOL    HW129898   0.470  11.978  12.723
 9958SOL    HW229899   0.442  11.835  12.797
 9959SOL     OW29900   1.587  11.951  12.842
 9959SOL    HW129901   1.495  11.989  12.837
 9959SOL    HW229902   1.647  11.998  12.777
 9960SOL     OW29903   0.573  12.042  12.201
 9960SOL    HW129904   0.617  12.131  12.192
 9960SOL    HW229905   0.510  12.042  12.278
 9961SOL     OW29906   1.360  12.034  12.217
 9961SOL    HW129907   1.285  12.034  12.151
 9961SOL    HW229908   1.397  11.942  12.226
 9962SOL     OW29909   1.209  11.697  11.447
 9962SOL    HW129910   1.222  11.613  11.501
 9962SOL    HW229911   1.180  11.771  11.507
 9963SOL     OW29912   0.307  11.385  12.403
 9963SOL    HW129913   0.284  11.422  12.493
 9963SOL    HW229914   0.277  11.290  12.397
 9964SOL     OW29915   0.037  12.482  12.454
 9964SOL    HW129916   0.090  12.433  12.522
 9964SOL    HW229917   0.059  12.580  12.459
 9965SOL     OW29918   0.732  11.806  12.236
 9965SOL    HW129919   0.791  11.780  12.160
 9965SOL    HW229920   0.704  11.902  12.225
 9966SOL     OW29921   0.307  11.235  11.790
 9966SOL    HW129922   0.296  11.329  11.823
 9966SOL    HW229923   0.302  11.172  11.867
 9967SOL     OW29924   1.622  11.539  11.546
 9967SOL    HW129925   1.624  11.463  11.610
 9967SOL    HW229926   1.574  11.616  11.586
 9968SOL     OW29927   1.023  11.938  12.138
 9968SOL    HW129928   1.038  11.959  12.234
 9968SOL    HW229929   0.993  11.843  12.129
 9969SOL     OW29930   1.540  11.446  11.297
 9969SOL    HW129931   1.479  11.371  11.320
 9969SOL    HW229932   1.562  11.498  11.380
 9970SOL     OW29933   1.303  12.010  11.214
 9970SOL    HW129934   1.337  11.917  11.229
 9970SOL    HW229935   1.321  12.037  11.119
 9971SOL     OW29936   1.068  12.505  12.021
 9971SOL    HW129937   1.075  12.421  11.966
 9971SOL    HW229938   1.130  12.574  11.985
 9972SOL     OW29939   0.319  11.982  12.121
 9972SOL    HW129940   0.412  12.018  12.126
 9972SOL    HW229941   0.313  11.897  12.173
 9973SOL     OW29942   0.339  11.681  12.178
 9973SOL    HW129943   0.287  11.598  12.161
 9973SOL    HW229944   0.416  11.686  12.114
 9974SOL     OW29945   1.160  11.379  12.649
 9974SOL    HW129946   1.160  11.443  12.726
 9974SOL    HW229947   1.188  11.427  12.566
 9975SOL     OW29948   0.008  12.498  11.372
 9975SOL    HW129949  -0.085  12.519  11.341
 9975SOL    HW229950   0.018  12.399  11.385
 9976SOL     OW29951   0.504  12.740  12.082
 9976SOL    HW129952   0.570  12.814  12.091
 9976SOL    HW229953   0.548  12.661  12.040
 9977SOL     OW29954   1.002  11.968  12.410
 9977SOL    HW129955   1.043  11.936  12.496
 9977SOL    HW229956   0.906  11.941  12.407
 9978SOL     OW29957   0.040  11.716  12.286
 9978SOL    HW129958   0.125  11.683  12.245
 9978SOL    HW229959   0.053  11.731  12.384
 9979SOL     OW29960   0.815  11.744  11.497
 9979SOL    HW129961   0.822  11.655  11.451
 9979SOL    HW229962   0.721  11.778  11.489
 9980SOL     OW29963   1.657  11.776  12.378
 9980SOL    HW129964   1.619  11.707  12.440
 9980SOL    HW229965   1.739  11.740  12.334
 9981SOL     OW29966   0.671  11.636  12.441
 9981SOL    HW129967   0.637  11.547  12.411
 9981SOL    HW229968   0.697  11.690  12.361
 9982SOL     OW29969   0.473  11.672  11.363
 9982SOL    HW129970   0.534  11.752  11.367
 9982SOL    HW229971   0.378  11.703  11.370
 9983SOL     OW29972   0.159  12.309  12.638
 9983SOL    HW129973   0.181  12.248  12.714
 9983SOL    HW229974   0.169  12.260  12.552
 9984SOL     OW29975   1.347  12.231  12.406
 9984SOL    HW129976   1.371  12.168  12.332
 9984SOL    HW229977   1.257  12.271  12.388
 9985SOL     OW29978   1.302  12.027  11.481
 9985SOL    HW129979   1.216  11.996  11.523
 9985SOL    HW229980   1.298  12.013  11.382
 9986SOL     OW29981   1.252  12.903  12.300
 9986SOL    HW129982   1.336  12.908  12.246
 9986SOL    HW229983   1.229  12.807  12.318
 9987SOL     OW29984   0.083  12.430  12.194
 9987SOL    HW129985   0.078  12.429  12.294
 9987SOL    HW229986   0.000  12.389  12.156
 9988SOL     OW29987   1.726  11.307  11.695
 9988SOL    HW129988   1.799  11.290  11.628
 9988SOL    HW229989   1.695  11.220  11.733
 9989SOL     OW29990   1.280  12.099  11.844
 9989SOL    HW129991   1.340  12.018  11.846
 9989SOL    HW229992   1.320  12.168  11.784
 9990SOL     OW29993   0.830  12.445  12.594
 9990SOL    HW129994   0.825  12.478  12.689
 9990SOL    HW229995   0.744  12.464  12.548
 9991SOL     OW29996   0.672  12.788  11.326
 9991SOL    HW129997   0.681  12.798  11.227
 9991SOL    HW229998   0.632  12.699  11.347
 9992SOL     OW29999   1.841  11.347  12.135
 9992SOL    HW130000   1.880  11.262  12.099
 9992SOL    HW230001   1.743  11.349  12.116
 9993SOL     OW30002   0.263  11.498  11.892
 9993SOL    HW130003   0.184  11.549  11.858
 9993SOL    HW230004   0.254  11.483  11.990
 9994SOL     OW30005   1.194  12.784  11.203
 9994SOL    HW130006   1.200  12.691  11.240
 9994SOL    HW230007   1.135  12.784  11.123
 9995SOL     OW30008   0.822  12.174  12.544
 9995SOL    HW130009   0.862  12.173  12.452
 9995SOL    HW230010   0.832  12.266  12.584
 9996SOL     OW30011   0.916  12.082  11.463
 9996SOL    HW130012   0.979  12.120  11.395
 9996SOL    HW230013   0.956  11.999  11.502
 9997SOL     OW30014   0.372  12.460  12.662
 9997SOL    HW130015   0.359  12.553  12.628
 9997SOL    HW230016   0.288  12.408  12.649
 9998SOL     OW30017   1.614  12.464  12.461
 9998SOL    HW130018   1.674  12.467  12.541
 9998SOL    HW230019   1.539  12.528  12.474
 9999SOL     OW30020   1.039  12.270  11.868
 9999SOL    HW130021   0.969  12.223  11.922
 9999SOL    HW230022   1.098  12.202  11.825
10000SOL     OW30023   1.014  11.408  12.143
10000SOL    HW130024   1.006  11.372  12.050
10000SOL    HW230025   1.012  11.332  12.208
10001SOL     OW30026   0.590  12.659  11.663
10001SOL    HW130027   0.632  12.601  11.593
10001SOL    HW230028   0.546  12.738  11.619
10002SOL     OW30029   1.709  11.557  12.553
10002SOL    HW130030   1.782  11.626  12.557
10002SOL    HW230031   1.737  11.482  12.494
10003SOL     OW30032   0.255  12.520  11.462
10003SOL    HW130033   0.159  12.521  11.435
10003SOL    HW230034   0.267  12.573  11.546
10004SOL     OW30035   0.105  12.185  12.898
10004SOL    HW130036   0.028  12.152  12.952
10004SOL    HW230037   0.190  12.155  12.940
10005SOL     OW30038   0.672  11.375  12.661
10005SOL    HW130039   0.762  11.359  12.621
10005SOL    HW230040   0.680  11.380  12.760
10006SOL     OW30041   0.075  11.517  11.205
10006SOL    HW130042  -0.017  11.489  11.176
10006SOL    HW230043   0.106  11.594  11.149
10007SOL     OW30044   1.440  12.028  12.570
10007SOL    HW130045   1.383  12.080  12.507
10007SOL    HW230046   1.536  12.040  12.546
10008SOL     OW30047   0.072  11.338  11.490
10008SOL    HW130048   0.055  11.421  11.436
10008SOL    HW230049   0.162  11.301  11.468
10009SOL     OW30050   1.183  12.507  11.291
10009SOL    HW130051   1.084  12.496  11.293
10009SOL    HW230052   1.217  12.522  11.384
10010SOL     OW30053   0.613  12.014  12.603
10010SOL    HW130054   0.669  12.095  12.586
10010SOL    HW230055   0.672  11.934  12.606
10011SOL     OW30056   0.716  11.737  12.880
10011SOL    HW130057   0.735  11.802  12.954
10011SOL    HW230058   0.776  11.657  12.889
10012SOL     OW30059   0.390  12.913  12.732
10012SOL    HW130060   0.299  12.954  12.730
10012SOL    HW230061   0.383  12.819  12.764
10013SOL     OW30062   1.674  12.055  12.426
10013SOL    HW130063   1.647  11.966  12.389
10013SOL    HW230064   1.675  12.123  12.353
10014SOL     OW30065   1.225  11.497  11.621
10014SOL    HW130066   1.290  11.423  11.610
10014SOL    HW230067   1.245  11.547  11.705
10015SOL     OW30068   0.594  11.917  11.824
10015SOL    HW130069   0.644  12.002  11.805
10015SOL    HW230070   0.506  11.919  11.776
10016SOL     OW30071   1.777  11.514  12.814
10016SOL    HW130072   1.760  11.545  12.720
10016SOL    HW230073   1.693  11.477  12.852
10017SOL     OW30074   1.730  12.106  12.689
10017SOL    HW130075   1.768  12.197  12.704
10017SOL    HW230076   1.722  12.089  12.590
10018SOL     OW30077   0.859  12.546  11.188
10018SOL    HW130078   0.813  12.561  11.276
10018SOL    HW230079   0.903  12.631  11.158
10019SOL     OW30080   0.859  12.128  12.033
10019SOL    HW130081   0.913  12.059  12.081
10019SOL    HW230082   0.827  12.197  12.099
10020SOL     OW30083   1.083  12.156  11.259
10020SOL    HW130084   1.060  12.209  11.177
10020SOL    HW230085   1.164  12.100  11.240
10021SOL     OW30086   1.861  12.741  12.023
10021SOL    HW130087   1.790  12.729  11.953
10021SOL    HW230088   1.862  12.662  12.083
10022SOL     OW30089   0.079  12.412  11.825
10022SOL    HW130090   0.078  12.365  11.913
10022SOL    HW230091   0.161  12.384  11.774
10023SOL     OW30092   0.672  12.563  12.796
10023SOL    HW130093   0.594  12.513  12.834
10023SOL    HW230094   0.669  12.658  12.827
10024SOL     OW30095   1.824  11.364  12.399
10024SOL    HW130096   1.820  11.274  12.443
10024SOL    HW230097   1.827  11.353  12.300
10025SOL     OW30098   0.428  11.596  11.692
10025SOL    HW130099   0.458  11.524  11.630
10025SOL    HW230100   0.389  11.556  11.775
10026SOL     OW30101   1.705  12.659  12.276
10026SOL    HW130102   1.612  12.634  12.249
10026SOL    HW230103   1.731  12.609  12.358
10027SOL     OW30104   0.317  11.719  12.452
10027SOL    HW130105   0.355  11.660  12.524
10027SOL    HW230106   0.357  11.693  12.364
10028SOL     OW30107   1.424  11.386  12.284
10028SOL    HW130108   1.476  11.321  12.339
10028SOL    HW230109   1.375  11.449  12.345
10029SOL     OW30110   1.001  11.206  12.326
10029SOL    HW130111   0.938  11.134  12.295
10029SOL    HW230112   1.094  11.170  12.326
10030SOL     OW30113   0.770  12.502  11.473
10030SOL    HW130114   0.724  12.415  11.490
10030SOL    HW230115   0.861  12.499  11.514
10031SOL     OW30116   0.618  12.739  12.456
10031SOL    HW130117   0.613  12.821  12.513
10031SOL    HW230118   0.707  12.736  12.411
10032SOL     OW30119   1.352  11.224  11.340
10032SOL    HW130120   1.387  11.183  11.256
10032SOL    HW230121   1.262  11.186  11.360
10033SOL     OW30122   1.300  11.625  11.863
10033SOL    HW130123   1.241  11.705  11.867
10033SOL    HW230124   1.315  11.590  11.956
10034SOL     OW30125   1.593  11.393  12.054
10034SOL    HW130126   1.509  11.392  12.108
10034SOL    HW230127   1.595  11.476  11.998
10035SOL     OW30128   0.039  12.249  11.472
10035SOL    HW130129   0.138  12.238  11.463
10035SOL    HW230130  -0.001  12.163  11.504
10036SOL     OW30131   2.092   0.628   0.113
10036SOL    HW130132   1.999   0.626   0.150
10036SOL    HW230133   2.093   0.589   0.021
10037SOL     OW30134   2.087   0.275   0.996
10037SOL    HW130135   2.122   0.258   1.088
10037SOL    HW230136   1.999   0.230   0.984
10038SOL     OW30137   1.881   0.368   0.647
10038SOL    HW130138   1.799   0.411   0.686
10038SOL    HW230139   1.853   0.295   0.584
10039SOL     OW30140   2.431   1.275   1.165
10039SOL    HW130141   2.338   1.268   1.128
10039SOL    HW230142   2.442   1.364   1.209
10040SOL     OW30143   3.417   1.511   0.703
10040SOL    HW130144   3.360   1.495   0.784
10040SOL    HW230145   3.358   1.521   0.623
10041SOL     OW30146   2.997   0.703   0.717
10041SOL    HW130147   3.054   0.781   0.692
10041SOL    HW230148   2.937   0.729   0.793
10042SOL     OW30149   3.617   0.607   0.231
10042SOL    HW130150   3.605   0.594   0.132
10042SOL    HW230151   3.587   0.526   0.280
10043SOL     OW30152   2.630   1.144   1.023
10043SOL    HW130153   2.552   1.161   1.083
10043SOL    HW230154   2.664   1.231   0.987
10044SOL     OW30155   2.712   0.798   1.823
10044SOL    HW130156   2.708   0.874   1.888
10044SOL    HW230157   2.734   0.834   1.732
10045SOL     OW30158   2.547   1.012   0.665
10045SOL    HW130159   2.616   0.996   0.735
10045SOL    HW230160   2.474   1.069   0.703
10046SOL     OW30161   2.548   1.161   1.803
10046SOL    HW130162   2.608   1.240   1.817
10046SOL    HW230163   2.462   1.192   1.762
10047SOL     OW30164   2.197   1.435   1.061
10047SOL    HW130165   2.119   1.404   1.008
10047SOL    HW230166   2.255   1.493   1.004
10048SOL     OW30167   3.322   1.505   1.339
10048SOL    HW130168   3.346   1.599   1.365
10048SOL    HW230169   3.306   1.451   1.421
10049SOL     OW30170   2.300   0.392   1.499
10049SOL    HW130171   2.382   0.336   1.508
10049SOL    HW230172   2.219   0.334   1.503
10050SOL     OW30173   3.465   0.447   0.737
10050SOL    HW130174   3.391   0.493   0.687
10050SOL    HW230175   3.516   0.515   0.790
10051SOL     OW30176   2.093   1.713   0.483
10051SOL    HW130177   2.127   1.790   0.537
10051SOL    HW230178   2.137   1.713   0.393
10052SOL     OW30179   2.989   1.341   1.690
10052SOL    HW130180   3.036   1.341   1.778
10052SOL    HW230181   2.941   1.254   1.679
10053SOL     OW30182   2.092   1.434   0.538
10053SOL    HW130183   2.066   1.530   0.538
10053SOL    HW230184   2.021   1.380   0.583
10054SOL     OW30185   2.102   1.091   0.886
10054SOL    HW130186   2.116   1.007   0.938
10054SOL    HW230187   2.047   1.155   0.941
10055SOL     OW30188   2.482   1.786   1.439
10055SOL    HW130189   2.390   1.769   1.474
10055SOL    HW230190   2.510   1.878   1.465
10056SOL     OW30191   2.468   0.964   0.123
10056SOL    HW130192   2.475   1.048   0.069
10056SOL    HW230193   2.514   0.977   0.211
10057SOL     OW30194   3.456   0.114   1.480
10057SOL    HW130195   3.438   0.181   1.408
10057SOL    HW230196   3.453   0.160   1.569
10058SOL     OW30197   1.984   0.643   0.563
10058SOL    HW130198   1.939   0.555   0.580
10058SOL    HW230199   1.983   0.697   0.647
10059SOL     OW30200   3.704   1.767   0.359
10059SOL    HW130201   3.758   1.738   0.439
10059SOL    HW230202   3.734   1.857   0.330
10060SOL     OW30203   1.889   1.596   0.117
10060SOL    HW130204   1.870   1.500   0.138
10060SOL    HW230205   1.856   1.654   0.192
10061SOL     OW30206   3.551   0.922   0.612
10061SOL    HW130207   3.646   0.893   0.620
10061SOL    HW230208   3.543   0.987   0.537
10062SOL     OW30209   3.503   1.108   0.432
10062SOL    HW130210   3.589   1.110   0.380
10062SOL    HW230211   3.517   1.155   0.520
10063SOL     OW30212   1.975   0.737   1.597
10063SOL    HW130213   2.063   0.724   1.642
10063SOL    HW230214   1.962   0.834   1.575
10064SOL     OW30215   2.475   1.365   0.726
10064SOL    HW130216   2.426   1.278   0.735
10064SOL    HW230217   2.452   1.408   0.639
10065SOL     OW30218   3.155   1.228   1.423
10065SOL    HW130219   3.192   1.155   1.365
10065SOL    HW230220   3.207   1.233   1.508
10066SOL     OW30221   2.671   0.004   0.502
10066SOL    HW130222   2.711   0.095   0.493
10066SOL    HW230223   2.571   0.012   0.508
10067SOL     OW30224   2.059   0.976   1.264
10067SOL    HW130225   2.148   0.931   1.250
10067SOL    HW230226   1.986   0.911   1.245
10068SOL     OW30227   3.387   0.999   0.190
10068SOL    HW130228   3.324   0.923   0.203
10068SOL    HW230229   3.435   1.017   0.276
10069SOL     OW30230   3.049   1.792   1.616
10069SOL    HW130231   3.073   1.852   1.540
10069SOL    HW230232   3.056   1.697   1.586
10070SOL     OW30233   2.179   0.251   1.801
10070SOL    HW130234   2.250   0.322   1.807
10070SOL    HW230235   2.091   0.290   1.829
10071SOL     OW30236   3.328   1.417   0.953
10071SOL    HW130237   3.269   1.423   1.033
10071SOL    HW230238   3.313   1.329   0.907
10072SOL     OW30239   3.529   1.714   0.572
10072SOL    HW130240   3.488   1.691   0.484
10072SOL    HW230241   3.511   1.640   0.637
10073SOL     OW30242   2.460   0.729   0.270
10073SOL    HW130243   2.484   0.798   0.202
10073SOL    HW230244   2.382   0.762   0.324
10074SOL     OW30245   3.143   0.345   0.944
10074SOL    HW130246   3.057   0.295   0.931
10074SOL    HW230247   3.205   0.291   1.000
10075SOL     OW30248   3.438   1.662   0.307
10075SOL    HW130249   3.527   1.708   0.310
10075SOL    HW230250   3.417   1.638   0.212
10076SOL     OW30251   2.669   0.605   1.465
10076SOL    HW130252   2.622   0.602   1.554
10076SOL    HW230253   2.618   0.550   1.399
10077SOL     OW30254   3.256   0.469   1.674
10077SOL    HW130255   3.236   0.512   1.762
10077SOL    HW230256   3.334   0.407   1.683
10078SOL     OW30257   2.835   0.890   1.572
10078SOL    HW130258   2.881   0.806   1.543
10078SOL    HW230259   2.779   0.924   1.497
10079SOL     OW30260   2.853   0.410   1.242
10079SOL    HW130261   2.776   0.444   1.296
10079SOL    HW230262   2.819   0.359   1.163
10080SOL     OW30263   2.903   0.701   0.429
10080SOL    HW130264   2.929   0.697   0.525
10080SOL    HW230265   2.818   0.650   0.415
10081SOL     OW30266   1.938   0.811   0.789
10081SOL    HW130267   2.037   0.799   0.798
10081SOL    HW230268   1.914   0.906   0.810
10082SOL     OW30269   1.992   1.821   1.571
10082SOL    HW130270   1.982   1.806   1.670
10082SOL    HW230271   1.906   1.857   1.535
10083SOL     OW30272   2.727   0.348   0.195
10083SOL    HW130273   2.786   0.411   0.146
10083SOL    HW230274   2.746   0.254   0.166
10084SOL     OW30275   3.581   0.585   1.831
10084SOL    HW130276   3.555   0.674   1.795
10084SOL    HW230277   3.579   0.517   1.758
10085SOL     OW30278   3.224   1.144   0.545
10085SOL    HW130279   3.307   1.115   0.497
10085SOL    HW230280   3.175   1.211   0.489
10086SOL     OW30281   2.412   0.196   0.885
10086SOL    HW130282   2.407   0.191   0.985
10086SOL    HW230283   2.414   0.292   0.856
10087SOL     OW30284   2.870   1.456   0.477
10087SOL    HW130285   2.824   1.528   0.425
10087SOL    HW230286   2.866   1.476   0.575
10088SOL     OW30287   2.213   1.801   0.853
10088SOL    HW130288   2.263   1.715   0.859
10088SOL    HW230289   2.278   1.878   0.850
10089SOL     OW30290   3.657   1.066   0.873
10089SOL    HW130291   3.595   1.051   0.797
10089SOL    HW230292   3.605   1.077   0.958
10090SOL     OW30293   3.089   1.550   1.506
10090SOL    HW130294   3.095   1.473   1.570
10090SOL    HW230295   3.037   1.524   1.426
10091SOL     OW30296   2.183   0.943   0.242
10091SOL    HW130297   2.265   0.982   0.200
10091SOL    HW230298   2.156   0.861   0.193
10092SOL     OW30299   3.320   0.735   0.728
10092SOL    HW130300   3.315   0.670   0.803
10092SOL    HW230301   3.400   0.794   0.741
10093SOL     OW30302   2.323   1.266   1.727
10093SOL    HW130303   2.273   1.267   1.641
10093SOL    HW230304   2.260   1.248   1.803
10094SOL     OW30305   2.973   1.776   0.237
10094SOL    HW130306   2.913   1.714   0.287
10094SOL    HW230307   3.004   1.732   0.152
10095SOL     OW30308   2.064   0.285   1.498
10095SOL    HW130309   1.984   0.345   1.485
10095SOL    HW230310   2.054   0.236   1.584
10096SOL     OW30311   3.494   1.377   0.081
10096SOL    HW130312   3.462   1.471   0.071
10096SOL    HW230313   3.418   1.314   0.069
10097SOL     OW30314   2.326   1.743   0.323
10097SOL    HW130315   2.359   1.782   0.409
10097SOL    HW230316   2.402   1.736   0.258
10098SOL     OW30317   3.262   0.107   0.426
10098SOL    HW130318   3.238   0.070   0.336
10098SOL    HW230319   3.361   0.123   0.430
10099SOL     OW30320   2.111   1.785   1.241
10099SOL    HW130321   2.168   1.720   1.291
10099SOL    HW230322   2.095   1.752   1.148
10100SOL     OW30323   2.802   1.698   0.904
10100SOL    HW130324   2.882   1.641   0.925
10100SOL    HW230325   2.753   1.658   0.827
10101SOL     OW30326   2.244   0.700   0.480
10101SOL    HW130327   2.289   0.610   0.477
10101SOL    HW230328   2.150   0.689   0.513
10102SOL     OW30329   3.409   0.222   1.729
10102SOL    HW130330   3.404   0.259   1.821
10102SOL    HW230331   3.337   0.153   1.717
10103SOL     OW30332   2.476   0.122   0.117
10103SOL    HW130333   2.574   0.100   0.124
10103SOL    HW230334   2.445   0.105   0.024
10104SOL     OW30335   2.643   0.264   1.749
10104SOL    HW130336   2.710   0.203   1.792
10104SOL    HW230337   2.570   0.283   1.814
10105SOL     OW30338   2.750   1.514   1.195
10105SOL    HW130339   2.727   1.489   1.101
10105SOL    HW230340   2.811   1.445   1.234
10106SOL     OW30341   3.213   0.590   1.433
10106SOL    HW130342   3.241   0.547   1.518
10106SOL    HW230343   3.238   0.686   1.434
10107SOL     OW30344   2.665   1.402   0.924
10107SOL    HW130345   2.755   1.416   0.882
10107SOL    HW230346   2.594   1.404   0.853
10108SOL     OW30347   2.784   0.503   0.899
10108SOL    HW130348   2.759   0.494   0.803
10108SOL    HW230349   2.832   0.421   0.930
10109SOL     OW30350   2.401   0.064   0.512
10109SOL    HW130351   2.320   0.065   0.570
10109SOL    HW230352   2.404   0.147   0.457
10110SOL     OW30353   3.296   1.188   0.041
10110SOL    HW130354   3.328   1.112   0.098
10110SOL    HW230355   3.204   1.215   0.071
10111SOL     OW30356   2.159   0.035   0.171
10111SOL    HW130357   2.208   0.119   0.150
10111SOL    HW230358   2.221  -0.030   0.216
10112SOL     OW30359   2.797   0.236   0.480
10112SOL    HW130360   2.749   0.277   0.402
10112SOL    HW230361   2.896   0.234   0.461
10113SOL     OW30362   2.938   0.683   1.464
10113SOL    HW130363   2.858   0.622   1.467
10113SOL    HW230364   3.019   0.630   1.440
10114SOL     OW30365   3.089   1.570   0.793
10114SOL    HW130366   3.110   1.644   0.728
10114SOL    HW230367   3.157   1.570   0.866
10115SOL     OW30368   2.321   1.152   0.741
10115SOL    HW130369   2.250   1.125   0.806
10115SOL    HW230370   2.295   1.124   0.648
10116SOL     OW30371   3.133   1.797   0.591
10116SOL    HW130372   3.177   1.861   0.527
10116SOL    HW230373   3.083   1.849   0.661
10117SOL     OW30374   2.894   0.549   0.016
10117SOL    HW130375   2.853   0.631  -0.023
10117SOL    HW230376   2.958   0.575   0.089
10118SOL     OW30377   1.940   0.556   1.386
10118SOL    HW130378   2.032   0.555   1.345
10118SOL    HW230379   1.934   0.630   1.453
10119SOL     OW30380   2.423   0.222   1.147
10119SOL    HW130381   2.461   0.138   1.184
10119SOL    HW230382   2.335   0.241   1.191
10120SOL     OW30383   2.728   0.454   0.642
10120SOL    HW130384   2.696   0.526   0.580
10120SOL    HW230385   2.752   0.373   0.589
10121SOL     OW30386   2.879   0.039   0.753
10121SOL    HW130387   2.807   0.044   0.684
10121SOL    HW230388   2.855  -0.030   0.822
10122SOL     OW30389   3.291   1.173   0.867
10122SOL    HW130390   3.236   1.089   0.860
10122SOL    HW230391   3.317   1.202   0.775
10123SOL     OW30392   3.328   0.590   0.992
10123SOL    HW130393   3.298   0.495   0.999
10123SOL    HW230394   3.401   0.606   1.058
10124SOL     OW30395   3.719   0.833   0.377
10124SOL    HW130396   3.761   0.769   0.441
10124SOL    HW230397   3.681   0.782   0.299
10125SOL     OW30398   2.350   1.385   0.174
10125SOL    HW130399   2.263   1.370   0.221
10125SOL    HW230400   2.333   1.411   0.079
10126SOL     OW30401   3.526   1.280   0.657
10126SOL    HW130402   3.625   1.288   0.671
10126SOL    HW230403   3.481   1.364   0.688
10127SOL     OW30404   3.252   0.575   0.078
10127SOL    HW130405   3.198   0.554   0.159
10127SOL    HW230406   3.343   0.534   0.087
10128SOL     OW30407   2.389   0.256   0.328
10128SOL    HW130408   2.416   0.197   0.253
10128SOL    HW230409   2.389   0.351   0.297
10129SOL     OW30410   3.616   1.223   1.588
10129SOL    HW130411   3.707   1.184   1.575
10129SOL    HW230412   3.624   1.319   1.612
10130SOL     OW30413   2.926   1.347   1.340
10130SOL    HW130414   2.846   1.324   1.395
10130SOL    HW230415   3.009   1.321   1.389
10131SOL     OW30416   3.454   1.629   1.625
10131SOL    HW130417   3.481   1.663   1.535
10131SOL    HW230418   3.533   1.591   1.671
10132SOL     OW30419   2.973   1.195   1.100
10132SOL    HW130420   2.933   1.239   1.181
10132SOL    HW230421   2.932   1.232   1.017
10133SOL     OW30422   3.500   1.099   1.079
10133SOL    HW130423   3.505   1.180   1.138
10133SOL    HW230424   3.414   1.101   1.028
10134SOL     OW30425   2.777   0.089   1.402
10134SOL    HW130426   2.802   0.069   1.307
10134SOL    HW230427   2.849   0.145   1.444
10135SOL     OW30428   2.842   1.116   1.719
10135SOL    HW130429   2.743   1.122   1.729
10135SOL    HW230430   2.865   1.036   1.663
10136SOL     OW30431   2.567   1.050   0.368
10136SOL    HW130432   2.553   1.057   0.467
10136SOL    HW230433   2.651   0.999   0.350
10137SOL     OW30434   2.272   0.813   1.251
10137SOL    HW130435   2.358   0.825   1.301
10137SOL    HW230436   2.230   0.726   1.278
10138SOL     OW30437   3.136   0.386   1.262
10138SOL    HW130438   3.157   0.460   1.326
10138SOL    HW230439   3.047   0.403   1.219
10139SOL     OW30440   1.926   1.564   1.331
10139SOL    HW130441   1.880   1.646   1.297
10139SOL    HW230442   2.024   1.583   1.340
10140SOL     OW30443   2.229   1.100   0.501
10140SOL    HW130444   2.222   1.183   0.445
10140SOL    HW230445   2.233   1.020   0.441
10141SOL     OW30446   2.428   0.537   0.865
10141SOL    HW130447   2.440   0.603   0.791
10141SOL    HW230448   2.474   0.571   0.948
10142SOL     OW30449   3.114   1.348   0.388
10142SOL    HW130450   3.164   1.425   0.428
10142SOL    HW230451   3.019   1.350   0.420
10143SOL     OW30452   3.134   1.445   1.142
10143SOL    HW130453   3.181   1.458   1.229
10143SOL    HW230454   3.068   1.371   1.151
10144SOL     OW30455   3.444   0.639   0.472
10144SOL    HW130456   3.413   0.700   0.545
10144SOL    HW230457   3.494   0.691   0.403
10145SOL     OW30458   2.216   1.510   1.329
10145SOL    HW130459   2.195   1.466   1.242
10145SOL    HW230460   2.313   1.536   1.332
10146SOL     OW30461   2.264   0.751   1.598
10146SOL    HW130462   2.332   0.806   1.551
10146SOL    HW230463   2.304   0.663   1.625
10147SOL     OW30464   3.449   0.779   1.670
10147SOL    HW130465   3.357   0.817   1.665
10147SOL    HW230466   3.509   0.826   1.605
10148SOL     OW30467   2.875   0.105   1.770
10148SOL    HW130468   2.881   0.190   1.718
10148SOL    HW230469   2.907   0.029   1.713
10149SOL     OW30470   2.366   0.050   1.740
10149SOL    HW130471   2.324  -0.007   1.670
10149SOL    HW230472   2.300   0.119   1.772
10150SOL     OW30473   2.435   0.870   1.029
10150SOL    HW130474   2.479   0.959   1.020
10150SOL    HW230475   2.372   0.870   1.106
10151SOL     OW30476   3.222   0.862   1.045
10151SOL    HW130477   3.147   0.862   0.979
10151SOL    HW230478   3.259   0.770   1.054
10152SOL     OW30479   3.071   0.525   0.275
10152SOL    HW130480   3.084   0.441   0.329
10152SOL    HW230481   3.042   0.599   0.335
10153SOL     OW30482   2.169   0.213   1.231
10153SOL    HW130483   2.146   0.250   1.321
10153SOL    HW230484   2.139   0.118   1.225
10154SOL     OW30485   1.899   1.310   1.282
10154SOL    HW130486   1.952   1.261   1.350
10154SOL    HW230487   1.921   1.408   1.287
10155SOL     OW30488   2.594   0.634   1.064
10155SOL    HW130489   2.653   0.608   0.988
10155SOL    HW230490   2.566   0.730   1.053
10156SOL     OW30491   3.590   0.935   1.854
10156SOL    HW130492   3.544   0.928   1.765
10156SOL    HW230493   3.528   0.979   1.920
10157SOL     OW30494   2.169   0.063   0.618
10157SOL    HW130495   2.158   0.157   0.651
10157SOL    HW230496   2.164   0.000   0.695
10158SOL     OW30497   3.484   0.367   0.374
10158SOL    HW130498   3.486   0.291   0.438
10158SOL    HW230499   3.436   0.444   0.414
10159SOL     OW30500   2.885   0.766   0.966
10159SOL    HW130501   2.900   0.787   1.062
10159SOL    HW230502   2.855   0.671   0.957
10160SOL     OW30503   2.842   1.573   1.700
10160SOL    HW130504   2.822   1.617   1.612
10160SOL    HW230505   2.881   1.482   1.684
10161SOL     OW30506   3.721   1.518   1.605
10161SOL    HW130507   3.735   1.545   1.510
10161SOL    HW230508   3.804   1.540   1.658
10162SOL     OW30509   2.212   0.898   1.804
10162SOL    HW130510   2.288   0.942   1.852
10162SOL    HW230511   2.247   0.851   1.722
10163SOL     OW30512   3.402   0.274   0.125
10163SOL    HW130513   3.341   0.199   0.148
10163SOL    HW230514   3.424   0.326   0.208
10164SOL     OW30515   3.165   0.838   0.042
10164SOL    HW130516   3.199   0.745   0.057
10164SOL    HW230517   3.183   0.865  -0.053
10165SOL     OW30518   2.930   1.333   0.849
10165SOL    HW130519   2.937   1.249   0.794
10165SOL    HW230520   2.992   1.402   0.813
10166SOL     OW30521   2.181   0.810   0.949
10166SOL    HW130522   2.274   0.846   0.954
10166SOL    HW230523   2.175   0.725   1.001
10167SOL     OW30524   2.201   0.509   1.006
10167SOL    HW130525   2.149   0.426   0.989
10167SOL    HW230526   2.278   0.514   0.942
10168SOL     OW30527   3.000   0.380   1.678
10168SOL    HW130528   2.955   0.443   1.742
10168SOL    HW230529   3.093   0.411   1.661
10169SOL     OW30530   3.022   0.207   1.477
10169SOL    HW130531   3.022   0.271   1.554
10169SOL    HW230532   3.050   0.255   1.394
10170SOL     OW30533   1.870   1.326   0.200
10170SOL    HW130534   1.777   1.347   0.169
10170SOL    HW230535   1.880   1.227   0.213
10171SOL     OW30536   1.950   1.801   0.927
10171SOL    HW130537   1.908   1.715   0.900
10171SOL    HW230538   2.044   1.804   0.893
10172SOL     OW30539   2.366   1.568   0.910
10172SOL    HW130540   2.432   1.642   0.919
10172SOL    HW230541   2.410   1.489   0.868
10173SOL     OW30542   2.864   0.796   1.238
10173SOL    HW130543   2.905   0.764   1.324
10173SOL    HW230544   2.768   0.769   1.235
10174SOL     OW30545   1.902   0.544   1.114
10174SOL    HW130546   1.987   0.511   1.073
10174SOL    HW230547   1.915   0.559   1.212
10175SOL     OW30548   2.051   0.520   1.722
10175SOL    HW130549   2.110   0.480   1.652
10175SOL    HW230550   1.993   0.591   1.681
10176SOL     OW30551   3.231   0.950   1.660
10176SOL    HW130552   3.270   1.039   1.680
10176SOL    HW230553   3.241   0.930   1.563
10177SOL     OW30554   2.677   0.572   0.325
10177SOL    HW130555   2.684   0.483   0.279
10177SOL    HW230556   2.583   0.606   0.317
10178SOL     OW30557   3.519   0.604   1.206
10178SOL    HW130558   3.481   0.535   1.268
10178SOL    HW230559   3.601   0.568   1.162
10179SOL     OW30560   2.114   1.564   1.744
10179SOL    HW130561   2.084   1.621   1.820
10179SOL    HW230562   2.107   1.467   1.770
10180SOL     OW30563   2.533   0.464   1.269
10180SOL    HW130564   2.499   0.375   1.239
10180SOL    HW230565   2.559   0.518   1.189
10181SOL     OW30566   2.792   1.678   1.465
10181SOL    HW130567   2.768   1.660   1.370
10181SOL    HW230568   2.822   1.772   1.475
10182SOL     OW30569   2.335   0.500   0.191
10182SOL    HW130570   2.396   0.580   0.195
10182SOL    HW230571   2.240   0.531   0.198
10183SOL     OW30572   2.021   1.137   1.466
10183SOL    HW130573   2.043   1.076   1.542
10183SOL    HW230574   2.031   1.088   1.380
10184SOL     OW30575   3.209   1.059   1.234
10184SOL    HW130576   3.233   0.996   1.160
10184SOL    HW230577   3.119   1.099   1.216
10185SOL     OW30578   3.164   0.855   0.309
10185SOL    HW130579   3.078   0.824   0.351
10185SOL    HW230580   3.160   0.841   0.210
10186SOL     OW30581   3.621   1.747   1.154
10186SOL    HW130582   3.682   1.777   1.081
10186SOL    HW230583   3.583   1.658   1.132
10187SOL     OW30584   3.114   1.731   1.128
10187SOL    HW130585   3.198   1.736   1.074
10187SOL    HW230586   3.091   1.635   1.146
10188SOL     OW30587   1.945   1.258   1.022
10188SOL    HW130588   1.940   1.257   1.122
10188SOL    HW230589   1.862   1.217   0.984
10189SOL     OW30590   2.550   1.662   1.716
10189SOL    HW130591   2.494   1.743   1.725
10189SOL    HW230592   2.602   1.666   1.630
10190SOL     OW30593   2.765   0.086   0.133
10190SOL    HW130594   2.816   0.087   0.047
10190SOL    HW230595   2.821   0.044   0.204
10191SOL     OW30596   3.588   0.135   0.523
10191SOL    HW130597   3.661   0.118   0.456
10191SOL    HW230598   3.557   0.048   0.561
10192SOL     OW30599   3.250   1.573   0.477
10192SOL    HW130600   3.317   1.585   0.403
10192SOL    HW230601   3.210   1.662   0.500
10193SOL     OW30602   1.992   1.794   1.851
10193SOL    HW130603   1.951   1.720   1.904
10193SOL    HW230604   2.056   1.845   1.909
10194SOL     OW30605   3.142   0.927   0.672
10194SOL    HW130606   3.202   0.846   0.674
10194SOL    HW230607   3.182   0.996   0.612
10195SOL     OW30608   2.692   1.273   1.422
10195SOL    HW130609   2.687   1.306   1.517
10195SOL    HW230610   2.606   1.292   1.376
10196SOL     OW30611   2.534   1.616   0.154
10196SOL    HW130612   2.543   1.626   0.055
10196SOL    HW230613   2.494   1.527   0.175
10197SOL     OW30614   3.512   1.720   1.394
10197SOL    HW130615   3.565   1.730   1.310
10197SOL    HW230616   3.485   1.810   1.428
10198SOL     OW30617   3.703   0.175   0.963
10198SOL    HW130618   3.742   0.090   0.927
10198SOL    HW230619   3.605   0.177   0.944
10199SOL     OW30620   2.125   0.326   0.720
10199SOL    HW130621   2.046   0.377   0.686
10199SOL    HW230622   2.116   0.311   0.818
10200SOL     OW30623   3.056   1.612   0.031
10200SOL    HW130624   3.062   1.519   0.068
10200SOL    HW230625   2.997   1.612  -0.049
10201SOL     OW30626   2.684   1.002   1.372
10201SOL    HW130627   2.724   1.001   1.280
10201SOL    HW230628   2.694   1.094   1.412
10202SOL     OW30629   2.778   0.910   0.291
10202SOL    HW130630   2.841   0.948   0.223
10202SOL    HW230631   2.818   0.827   0.330
10203SOL     OW30632   3.366   1.607   0.044
10203SOL    HW130633   3.274   1.644   0.051
10203SOL    HW230634   3.404   1.627  -0.046
10204SOL     OW30635   2.234   1.288   1.490
10204SOL    HW130636   2.221   1.381   1.456
10204SOL    HW230637   2.150   1.236   1.477
10205SOL     OW30638   3.476   1.292   1.289
10205SOL    HW130639   3.536   1.295   1.369
10205SOL    HW230640   3.401   1.356   1.302
10206SOL     OW30641   2.901   1.098   0.696
10206SOL    HW130642   2.831   1.051   0.750
10206SOL    HW230643   2.960   1.030   0.653
10207SOL     OW30644   2.876   0.236   0.971
10207SOL    HW130645   2.868   0.200   0.878
10207SOL    HW230646   2.874   0.160   1.036
10208SOL     OW30647   2.452   1.487   0.491
10208SOL    HW130648   2.494   1.429   0.421
10208SOL    HW230649   2.408   1.566   0.447
10209SOL     OW30650   3.571   0.385   1.381
10209SOL    HW130651   3.644   0.454   1.385
10209SOL    HW230652   3.599   0.310   1.322
10210SOL     OW30653   2.117   1.348   0.290
10210SOL    HW130654   2.021   1.349   0.263
10210SOL    HW230655   2.129   1.401   0.374
10211SOL     OW30656   1.967   1.013   1.726
10211SOL    HW130657   1.890   0.980   1.780
10211SOL    HW230658   2.052   0.983   1.768
10212SOL     OW30659   2.534   0.203   1.489
10212SOL    HW130660   2.624   0.187   1.449
10212SOL    HW230661   2.542   0.208   1.588
10213SOL     OW30662   3.302   0.856   1.398
10213SOL    HW130663   3.245   0.908   1.335
10213SOL    HW230664   3.398   0.868   1.374
10214SOL     OW30665   1.934   0.166   0.318
10214SOL    HW130666   1.917   0.249   0.264
10214SOL    HW230667   2.024   0.129   0.296
10215SOL     OW30668   3.045   1.335   0.119
10215SOL    HW130669   2.946   1.324   0.121
10215SOL    HW230670   3.079   1.350   0.212
10216SOL     OW30671   2.475   0.842   1.431
10216SOL    HW130672   2.531   0.923   1.414
10216SOL    HW230673   2.534   0.762   1.434
10217SOL     OW30674   3.355   1.767   0.959
10217SOL    HW130675   3.388   1.831   0.890
10217SOL    HW230676   3.421   1.761   1.034
10218SOL     OW30677   2.578   0.565   1.708
10218SOL    HW130678   2.597   0.630   1.782
10218SOL    HW230679   2.638   0.485   1.717
10219SOL     OW30680   3.312   1.220   1.633
10219SOL    HW130681   3.303   1.210   1.732
10219SOL    HW230682   3.408   1.213   1.607
10220SOL     OW30683   2.252   1.741   1.560
10220SOL    HW130684   2.161   1.782   1.558
10220SOL    HW230685   2.245   1.647   1.592
10221SOL     OW30686   3.536   0.883   1.254
10221SOL    HW130687   3.509   0.794   1.217
10221SOL    HW230688   3.537   0.951   1.181
10222SOL     OW30689   3.087   0.325   0.449
10222SOL    HW130690   3.152   0.251   0.438
10222SOL    HW230691   3.107   0.375   0.533
10223SOL     OW30692   2.456   0.745   0.652
10223SOL    HW130693   2.506   0.830   0.633
10223SOL    HW230694   2.368   0.747   0.604
10224SOL     OW30695   3.639   0.342   1.642
10224SOL    HW130696   3.622   0.373   1.548
10224SOL    HW230697   3.555   0.305   1.680
10225SOL     OW30698   3.592   0.934   1.517
10225SOL    HW130699   3.630   1.025   1.532
10225SOL    HW230700   3.584   0.917   1.418
10226SOL     OW30701   2.721   1.374   0.016
10226SOL    HW130702   2.675   1.389   0.104
10226SOL    HW230703   2.765   1.459  -0.014
10227SOL     OW30704   2.523   1.790   0.953
10227SOL    HW130705   2.477   1.878   0.940
10227SOL    HW230706   2.622   1.802   0.946
10228SOL     OW30707   2.721   0.956   0.861
10228SOL    HW130708   2.775   0.887   0.909
10228SOL    HW230709   2.689   1.025   0.927
10229SOL     OW30710   2.945   0.984   0.087
10229SOL    HW130711   2.922   1.037   0.005
10229SOL    HW230712   3.026   0.928   0.068
10230SOL     OW30713   3.723   1.569   0.851
10230SOL    HW130714   3.652   1.557   0.781
10230SOL    HW230715   3.724   1.490   0.911
10231SOL     OW30716   2.083   1.314   1.844
10231SOL    HW130717   2.018   1.241   1.823
10231SOL    HW230718   2.087   1.328   1.942
10232SOL     OW30719   1.941   1.240   0.653
10232SOL    HW130720   1.940   1.193   0.741
10232SOL    HW230721   2.023   1.212   0.602
10233SOL     OW30722   2.534   1.391   1.624
10233SOL    HW130723   2.456   1.341   1.662
10233SOL    HW230724   2.531   1.486   1.655
10234SOL     OW30725   3.686   0.192   1.227
10234SOL    HW130726   3.682   0.102   1.271
10234SOL    HW230727   3.689   0.181   1.128
10235SOL     OW30728   2.290   0.424   0.520
10235SOL    HW130729   2.320   0.352   0.458
10235SOL    HW230730   2.251   0.384   0.603
10236SOL     OW30731   3.567   1.487   1.104
10236SOL    HW130732   3.474   1.462   1.077
10236SOL    HW230733   3.593   1.437   1.186
10237SOL     OW30734   2.179   0.547   1.280
10237SOL    HW130735   2.217   0.488   1.352
10237SOL    HW230736   2.219   0.521   1.192
10238SOL     OW30737   2.674   1.586   0.687
10238SOL    HW130738   2.706   1.596   0.593
10238SOL    HW230739   2.595   1.524   0.689
10239SOL     OW30740   3.286   0.214   1.112
10239SOL    HW130741   3.338   0.149   1.167
10239SOL    HW230742   3.237   0.277   1.173
10240SOL     OW30743   2.863   0.034   1.154
10240SOL    HW130744   2.800  -0.038   1.123
10240SOL    HW230745   2.956  -0.002   1.154
10241SOL     OW30746   2.632   1.330   0.301
10241SOL    HW130747   2.586   1.243   0.318
10241SOL    HW230748   2.723   1.327   0.342
10242SOL     OW30749   2.480   1.567   1.284
10242SOL    HW130750   2.475   1.649   1.341
10242SOL    HW230751   2.569   1.564   1.239
10243SOL     OW30752   3.214   0.052   0.168
10243SOL    HW130753   3.249   0.011   0.084
10243SOL    HW230754   3.124   0.014   0.188
10244SOL     OW30755   3.162   0.453   0.691
10244SOL    HW130756   3.103   0.533   0.695
10244SOL    HW230757   3.177   0.418   0.784
10245SOL     OW30758   3.455   0.221   0.882
10245SOL    HW130759   3.371   0.220   0.936
10245SOL    HW230760   3.457   0.304   0.826
10246SOL     OW30761   1.901   1.077   0.300
10246SOL    HW130762   2.000   1.066   0.291
10246SOL    HW230763   1.861   0.991   0.332
10247SOL     OW30764   2.737   1.646   0.337
10247SOL    HW130765   2.660   1.611   0.283
10247SOL    HW230766   2.705   1.717   0.399
10248SOL     OW30767   2.092   0.628   1.975
10248SOL    HW130768   1.999   0.626   2.012
10248SOL    HW230769   2.093   0.589   1.883
10249SOL     OW30770   2.087   0.275   2.858
10249SOL    HW130771   2.122   0.258   2.950
10249SOL    HW230772   1.999   0.230   2.846
10250SOL     OW30773   1.881   0.368   2.509
10250SOL    HW130774   1.799   0.411   2.548
10250SOL    HW230775   1.853   0.295   2.446
10251SOL     OW30776   2.431   1.275   3.027
10251SOL    HW130777   2.338   1.268   2.990
10251SOL    HW230778   2.442   1.364   3.071
10252SOL     OW30779   3.417   1.511   2.565
10252SOL    HW130780   3.360   1.495   2.646
10252SOL    HW230781   3.358   1.521   2.485
10253SOL     OW30782   2.997   0.703   2.579
10253SOL    HW130783   3.054   0.781   2.554
10253SOL    HW230784   2.937   0.729   2.655
10254SOL     OW30785   3.617   0.607   2.093
10254SOL    HW130786   3.605   0.594   1.994
10254SOL    HW230787   3.587   0.526   2.142
10255SOL     OW30788   2.630   1.144   2.885
10255SOL    HW130789   2.552   1.161   2.945
10255SOL    HW230790   2.664   1.231   2.849
10256SOL     OW30791   2.712   0.798   3.685
10256SOL    HW130792   2.708   0.874   3.750
10256SOL    HW230793   2.734   0.834   3.594
10257SOL     OW30794   2.547   1.012   2.527
10257SOL    HW130795   2.616   0.996   2.597
10257SOL    HW230796   2.474   1.069   2.565
10258SOL     OW30797   2.548   1.161   3.665
10258SOL    HW130798   2.608   1.240   3.679
10258SOL    HW230799   2.462   1.192   3.624
10259SOL     OW30800   2.197   1.435   2.923
10259SOL    HW130801   2.119   1.404   2.870
10259SOL    HW230802   2.255   1.493   2.866
10260SOL     OW30803   3.322   1.505   3.201
10260SOL    HW130804   3.346   1.599   3.227
10260SOL    HW230805   3.306   1.451   3.283
10261SOL     OW30806   2.300   0.392   3.361
10261SOL    HW130807   2.382   0.336   3.370
10261SOL    HW230808   2.219   0.334   3.365
10262SOL     OW30809   3.465   0.447   2.599
10262SOL    HW130810   3.391   0.493   2.549
10262SOL    HW230811   3.516   0.515   2.652
10263SOL     OW30812   2.093   1.713   2.345
10263SOL    HW130813   2.127   1.790   2.399
10263SOL    HW230814   2.137   1.713   2.255
10264SOL     OW30815   2.989   1.341   3.552
10264SOL    HW130816   3.036   1.341   3.640
10264SOL    HW230817   2.941   1.254   3.541
10265SOL     OW30818   2.092   1.434   2.400
10265SOL    HW130819   2.066   1.530   2.400
10265SOL    HW230820   2.021   1.380   2.445
10266SOL     OW30821   2.102   1.091   2.748
10266SOL    HW130822   2.116   1.007   2.800
10266SOL    HW230823   2.047   1.155   2.803
10267SOL     OW30824   2.482   1.786   3.301
10267SOL    HW130825   2.390   1.769   3.336
10267SOL    HW230826   2.510   1.878   3.327
10268SOL     OW30827   2.468   0.964   1.985
10268SOL    HW130828   2.475   1.048   1.931
10268SOL    HW230829   2.514   0.977   2.073
10269SOL     OW30830   3.456   0.114   3.342
10269SOL    HW130831   3.438   0.181   3.270
10269SOL    HW230832   3.453   0.160   3.431
10270SOL     OW30833   1.984   0.643   2.425
10270SOL    HW130834   1.939   0.555   2.442
10270SOL    HW230835   1.983   0.697   2.509
10271SOL     OW30836   3.704   1.767   2.221
10271SOL    HW130837   3.758   1.738   2.301
10271SOL    HW230838   3.734   1.857   2.192
10272SOL     OW30839   1.889   1.596   1.979
10272SOL    HW130840   1.870   1.500   2.000
10272SOL    HW230841   1.856   1.654   2.054
10273SOL     OW30842   3.551   0.922   2.474
10273SOL    HW130843   3.646   0.893   2.482
10273SOL    HW230844   3.543   0.987   2.399
10274SOL     OW30845   3.503   1.108   2.294
10274SOL    HW130846   3.589   1.110   2.242
10274SOL    HW230847   3.517   1.155   2.382
10275SOL     OW30848   1.975   0.737   3.459
10275SOL    HW130849   2.063   0.724   3.504
10275SOL    HW230850   1.962   0.834   3.437
10276SOL     OW30851   2.475   1.365   2.588
10276SOL    HW130852   2.426   1.278   2.597
10276SOL    HW230853   2.452   1.408   2.501
10277SOL     OW30854   3.155   1.228   3.285
10277SOL    HW130855   3.192   1.155   3.227
10277SOL    HW230856   3.207   1.233   3.370
10278SOL     OW30857   2.671   0.004   2.364
10278SOL    HW130858   2.711   0.095   2.355
10278SOL    HW230859   2.571   0.012   2.370
10279SOL     OW30860   2.059   0.976   3.126
10279SOL    HW130861   2.148   0.931   3.112
10279SOL    HW230862   1.986   0.911   3.107
10280SOL     OW30863   3.387   0.999   2.052
10280SOL    HW130864   3.324   0.923   2.065
10280SOL    HW230865   3.435   1.017   2.138
10281SOL     OW30866   3.049   1.792   3.478
10281SOL    HW130867   3.073   1.852   3.402
10281SOL    HW230868   3.056   1.697   3.448
10282SOL     OW30869   2.179   0.251   3.663
10282SOL    HW130870   2.250   0.322   3.669
10282SOL    HW230871   2.091   0.290   3.691
10283SOL     OW30872   3.328   1.417   2.815
10283SOL    HW130873   3.269   1.423   2.895
10283SOL    HW230874   3.313   1.329   2.769
10284SOL     OW30875   3.529   1.714   2.434
10284SOL    HW130876   3.488   1.691   2.346
10284SOL    HW230877   3.511   1.640   2.499
10285SOL     OW30878   2.460   0.729   2.132
10285SOL    HW130879   2.484   0.798   2.064
10285SOL    HW230880   2.382   0.762   2.186
10286SOL     OW30881   3.143   0.345   2.806
10286SOL    HW130882   3.057   0.295   2.793
10286SOL    HW230883   3.205   0.291   2.862
10287SOL     OW30884   3.438   1.662   2.169
10287SOL    HW130885   3.527   1.708   2.172
10287SOL    HW230886   3.417   1.638   2.074
10288SOL     OW30887   2.669   0.605   3.327
10288SOL    HW130888   2.622   0.602   3.416
10288SOL    HW230889   2.618   0.550   3.261
10289SOL     OW30890   3.256   0.469   3.536
10289SOL    HW130891   3.236   0.512   3.624
10289SOL    HW230892   3.334   0.407   3.545
10290SOL     OW30893   2.835   0.890   3.434
10290SOL    HW130894   2.881   0.806   3.405
10290SOL    HW230895   2.779   0.924   3.359
10291SOL     OW30896   2.853   0.410   3.104
10291SOL    HW130897   2.776   0.444   3.158
10291SOL    HW230898   2.819   0.359   3.025
10292SOL     OW30899   2.903   0.701   2.291
10292SOL    HW130900   2.929   0.697   2.387
10292SOL    HW230901   2.818   0.650   2.277
10293SOL     OW30902   1.938   0.811   2.651
10293SOL    HW130903   2.037   0.799   2.660
10293SOL    HW230904   1.914   0.906   2.672
10294SOL     OW30905   1.992   1.821   3.433
10294SOL    HW130906   1.982   1.806   3.532
10294SOL    HW230907   1.906   1.857   3.397
10295SOL     OW30908   2.727   0.348   2.057
10295SOL    HW130909   2.786   0.411   2.008
10295SOL    HW230910   2.746   0.254   2.028
10296SOL     OW30911   3.581   0.585   3.693
10296SOL    HW130912   3.555   0.674   3.657
10296SOL    HW230913   3.579   0.517   3.620
10297SOL     OW30914   3.224   1.144   2.407
10297SOL    HW130915   3.307   1.115   2.359
10297SOL    HW230916   3.175   1.211   2.351
10298SOL     OW30917   2.412   0.196   2.747
10298SOL    HW130918   2.407   0.191   2.847
10298SOL    HW230919   2.414   0.292   2.718
10299SOL     OW30920   2.870   1.456   2.339
10299SOL    HW130921   2.824   1.528   2.287
10299SOL    HW230922   2.866   1.476   2.437
10300SOL     OW30923   2.213   1.801   2.715
10300SOL    HW130924   2.263   1.715   2.721
10300SOL    HW230925   2.278   1.878   2.712
10301SOL     OW30926   3.657   1.066   2.735
10301SOL    HW130927   3.595   1.051   2.659
10301SOL    HW230928   3.605   1.077   2.820
10302SOL     OW30929   3.089   1.550   3.368
10302SOL    HW130930   3.095   1.473   3.432
10302SOL    HW230931   3.037   1.524   3.288
10303SOL     OW30932   2.183   0.943   2.104
10303SOL    HW130933   2.265   0.982   2.062
10303SOL    HW230934   2.156   0.861   2.055
10304SOL     OW30935   3.320   0.735   2.590
10304SOL    HW130936   3.315   0.670   2.665
10304SOL    HW230937   3.400   0.794   2.603
10305SOL     OW30938   2.323   1.266   3.589
10305SOL    HW130939   2.273   1.267   3.503
10305SOL    HW230940   2.260   1.248   3.665
10306SOL     OW30941   2.973   1.776   2.099
10306SOL    HW130942   2.913   1.714   2.149
10306SOL    HW230943   3.004   1.732   2.014
10307SOL     OW30944   2.064   0.285   3.360
10307SOL    HW130945   1.984   0.345   3.347
10307SOL    HW230946   2.054   0.236   3.446
10308SOL     OW30947   3.494   1.377   1.943
10308SOL    HW130948   3.462   1.471   1.933
10308SOL    HW230949   3.418   1.314   1.931
10309SOL     OW30950   2.326   1.743   2.185
10309SOL    HW130951   2.359   1.782   2.271
10309SOL    HW230952   2.402   1.736   2.120
10310SOL     OW30953   3.262   0.107   2.288
10310SOL    HW130954   3.238   0.070   2.198
10310SOL    HW230955   3.361   0.123   2.292
10311SOL     OW30956   2.111   1.785   3.103
10311SOL    HW130957   2.168   1.720   3.153
10311SOL    HW230958   2.095   1.752   3.010
10312SOL     OW30959   2.802   1.698   2.766
10312SOL    HW130960   2.882   1.641   2.787
10312SOL    HW230961   2.753   1.658   2.689
10313SOL     OW30962   2.244   0.700   2.342
10313SOL    HW130963   2.289   0.610   2.339
10313SOL    HW230964   2.150   0.689   2.375
10314SOL     OW30965   3.409   0.222   3.591
10314SOL    HW130966   3.404   0.259   3.683
10314SOL    HW230967   3.337   0.153   3.579
10315SOL     OW30968   2.476   0.122   1.979
10315SOL    HW130969   2.574   0.100   1.986
10315SOL    HW230970   2.445   0.105   1.886
10316SOL     OW30971   2.643   0.264   3.611
10316SOL    HW130972   2.710   0.203   3.654
10316SOL    HW230973   2.570   0.283   3.676
10317SOL     OW30974   2.750   1.514   3.057
10317SOL    HW130975   2.727   1.489   2.963
10317SOL    HW230976   2.811   1.445   3.096
10318SOL     OW30977   3.213   0.590   3.295
10318SOL    HW130978   3.241   0.547   3.380
10318SOL    HW230979   3.238   0.686   3.296
10319SOL     OW30980   2.665   1.402   2.786
10319SOL    HW130981   2.755   1.416   2.744
10319SOL    HW230982   2.594   1.404   2.715
10320SOL     OW30983   2.784   0.503   2.761
10320SOL    HW130984   2.759   0.494   2.665
10320SOL    HW230985   2.832   0.421   2.792
10321SOL     OW30986   2.401   0.064   2.374
10321SOL    HW130987   2.320   0.065   2.432
10321SOL    HW230988   2.404   0.147   2.319
10322SOL     OW30989   3.296   1.188   1.903
10322SOL    HW130990   3.328   1.112   1.960
10322SOL    HW230991   3.204   1.215   1.933
10323SOL     OW30992   2.159   0.035   2.033
10323SOL    HW130993   2.208   0.119   2.012
10323SOL    HW230994   2.221  -0.030   2.078
10324SOL     OW30995   2.797   0.236   2.342
10324SOL    HW130996   2.749   0.277   2.264
10324SOL    HW230997   2.896   0.234   2.323
10325SOL     OW30998   2.938   0.683   3.326
10325SOL    HW130999   2.858   0.622   3.329
10325SOL    HW231000   3.019   0.630   3.302
10326SOL     OW31001   3.089   1.570   2.655
10326SOL    HW131002   3.110   1.644   2.590
10326SOL    HW231003   3.157   1.570   2.728
10327SOL     OW31004   2.321   1.152   2.603
10327SOL    HW131005   2.250   1.125   2.668
10327SOL    HW231006   2.295   1.124   2.510
10328SOL     OW31007   3.133   1.797   2.453
10328SOL    HW131008   3.177   1.861   2.389
10328SOL    HW231009   3.083   1.849   2.523
10329SOL     OW31010   2.894   0.549   1.878
10329SOL    HW131011   2.853   0.631   1.839
10329SOL    HW231012   2.958   0.575   1.951
10330SOL     OW31013   1.940   0.556   3.248
10330SOL    HW131014   2.032   0.555   3.207
10330SOL    HW231015   1.934   0.630   3.315
10331SOL     OW31016   2.423   0.222   3.009
10331SOL    HW131017   2.461   0.138   3.046
10331SOL    HW231018   2.335   0.241   3.053
10332SOL     OW31019   2.728   0.454   2.504
10332SOL    HW131020   2.696   0.526   2.442
10332SOL    HW231021   2.752   0.373   2.451
10333SOL     OW31022   2.879   0.039   2.615
10333SOL    HW131023   2.807   0.044   2.546
10333SOL    HW231024   2.855  -0.030   2.684
10334SOL     OW31025   3.291   1.173   2.729
10334SOL    HW131026   3.236   1.089   2.722
10334SOL    HW231027   3.317   1.202   2.637
10335SOL     OW31028   3.328   0.590   2.854
10335SOL    HW131029   3.298   0.495   2.861
10335SOL    HW231030   3.401   0.606   2.920
10336SOL     OW31031   3.719   0.833   2.239
10336SOL    HW131032   3.761   0.769   2.303
10336SOL    HW231033   3.681   0.782   2.161
10337SOL     OW31034   2.350   1.385   2.036
10337SOL    HW131035   2.263   1.370   2.083
10337SOL    HW231036   2.333   1.411   1.941
10338SOL     OW31037   3.526   1.280   2.519
10338SOL    HW131038   3.625   1.288   2.533
10338SOL    HW231039   3.481   1.364   2.550
10339SOL     OW31040   3.252   0.575   1.940
10339SOL    HW131041   3.198   0.554   2.021
10339SOL    HW231042   3.343   0.534   1.949
10340SOL     OW31043   2.389   0.256   2.190
10340SOL    HW131044   2.416   0.197   2.115
10340SOL    HW231045   2.389   0.351   2.159
10341SOL     OW31046   3.616   1.223   3.450
10341SOL    HW131047   3.707   1.184   3.437
10341SOL    HW231048   3.624   1.319   3.474
10342SOL     OW31049   2.926   1.347   3.202
10342SOL    HW131050   2.846   1.324   3.257
10342SOL    HW231051   3.009   1.321   3.251
10343SOL     OW31052   3.454   1.629   3.487
10343SOL    HW131053   3.481   1.663   3.397
10343SOL    HW231054   3.533   1.591   3.533
10344SOL     OW31055   2.973   1.195   2.962
10344SOL    HW131056   2.933   1.239   3.043
10344SOL    HW231057   2.932   1.232   2.879
10345SOL     OW31058   3.500   1.099   2.941
10345SOL    HW131059   3.505   1.180   3.000
10345SOL    HW231060   3.414   1.101   2.890
10346SOL     OW31061   2.777   0.089   3.264
10346SOL    HW131062   2.802   0.069   3.169
10346SOL    HW231063   2.849   0.145   3.306
10347SOL     OW31064   2.842   1.116   3.581
10347SOL    HW131065   2.743   1.122   3.591
10347SOL    HW231066   2.865   1.036   3.525
10348SOL     OW31067   2.567   1.050   2.230
10348SOL    HW131068   2.553   1.057   2.329
10348SOL    HW231069   2.651   0.999   2.212
10349SOL     OW31070   2.272   0.813   3.113
10349SOL    HW131071   2.358   0.825   3.163
10349SOL    HW231072   2.230   0.726   3.140
10350SOL     OW31073   3.136   0.386   3.124
10350SOL    HW131074   3.157   0.460   3.188
10350SOL    HW231075   3.047   0.403   3.081
10351SOL     OW31076   1.926   1.564   3.193
10351SOL    HW131077   1.880   1.646   3.159
10351SOL    HW231078   2.024   1.583   3.202
10352SOL     OW31079   2.229   1.100   2.363
10352SOL    HW131080   2.222   1.183   2.307
10352SOL    HW231081   2.233   1.020   2.303
10353SOL     OW31082   2.428   0.537   2.727
10353SOL    HW131083   2.440   0.603   2.653
10353SOL    HW231084   2.474   0.571   2.810
10354SOL     OW31085   3.114   1.348   2.250
10354SOL    HW131086   3.164   1.425   2.290
10354SOL    HW231087   3.019   1.350   2.282
10355SOL     OW31088   3.134   1.445   3.004
10355SOL    HW131089   3.181   1.458   3.091
10355SOL    HW231090   3.068   1.371   3.013
10356SOL     OW31091   3.444   0.639   2.334
10356SOL    HW131092   3.413   0.700   2.407
10356SOL    HW231093   3.494   0.691   2.265
10357SOL     OW31094   2.216   1.510   3.191
10357SOL    HW131095   2.195   1.466   3.104
10357SOL    HW231096   2.313   1.536   3.194
10358SOL     OW31097   2.264   0.751   3.460
10358SOL    HW131098   2.332   0.806   3.413
10358SOL    HW231099   2.304   0.663   3.487
10359SOL     OW31100   3.449   0.779   3.532
10359SOL    HW131101   3.357   0.817   3.527
10359SOL    HW231102   3.509   0.826   3.467
10360SOL     OW31103   2.875   0.105   3.632
10360SOL    HW131104   2.881   0.190   3.580
10360SOL    HW231105   2.907   0.029   3.575
10361SOL     OW31106   2.366   0.050   3.602
10361SOL    HW131107   2.324  -0.007   3.532
10361SOL    HW231108   2.300   0.119   3.634
10362SOL     OW31109   2.435   0.870   2.891
10362SOL    HW131110   2.479   0.959   2.882
10362SOL    HW231111   2.372   0.870   2.968
10363SOL     OW31112   3.222   0.862   2.907
10363SOL    HW131113   3.147   0.862   2.841
10363SOL    HW231114   3.259   0.770   2.916
10364SOL     OW31115   3.071   0.525   2.137
10364SOL    HW131116   3.084   0.441   2.191
10364SOL    HW231117   3.042   0.599   2.197
10365SOL     OW31118   2.169   0.213   3.093
10365SOL    HW131119   2.146   0.250   3.183
10365SOL    HW231120   2.139   0.118   3.087
10366SOL     OW31121   1.899   1.310   3.144
10366SOL    HW131122   1.952   1.261   3.212
10366SOL    HW231123   1.921   1.408   3.149
10367SOL     OW31124   2.594   0.634   2.926
10367SOL    HW131125   2.653   0.608   2.850
10367SOL    HW231126   2.566   0.730   2.915
10368SOL     OW31127   3.590   0.935   3.716
10368SOL    HW131128   3.544   0.928   3.627
10368SOL    HW231129   3.528   0.979   3.782
10369SOL     OW31130   2.169   0.063   2.480
10369SOL    HW131131   2.158   0.157   2.513
10369SOL    HW231132   2.164   0.000   2.557
10370SOL     OW31133   3.484   0.367   2.236
10370SOL    HW131134   3.486   0.291   2.300
10370SOL    HW231135   3.436   0.444   2.276
10371SOL     OW31136   2.885   0.766   2.828
10371SOL    HW131137   2.900   0.787   2.924
10371SOL    HW231138   2.855   0.671   2.819
10372SOL     OW31139   2.842   1.573   3.562
10372SOL    HW131140   2.822   1.617   3.474
10372SOL    HW231141   2.881   1.482   3.546
10373SOL     OW31142   3.721   1.518   3.467
10373SOL    HW131143   3.735   1.545   3.372
10373SOL    HW231144   3.804   1.540   3.520
10374SOL     OW31145   2.212   0.898   3.666
10374SOL    HW131146   2.288   0.942   3.714
10374SOL    HW231147   2.247   0.851   3.584
10375SOL     OW31148   3.402   0.274   1.987
10375SOL    HW131149   3.341   0.199   2.010
10375SOL    HW231150   3.424   0.326   2.070
10376SOL     OW31151   3.165   0.838   1.904
10376SOL    HW131152   3.199   0.745   1.919
10376SOL    HW231153   3.183   0.865   1.809
10377SOL     OW31154   2.930   1.333   2.711
10377SOL    HW131155   2.937   1.249   2.656
10377SOL    HW231156   2.992   1.402   2.675
10378SOL     OW31157   2.181   0.810   2.811
10378SOL    HW131158   2.274   0.846   2.816
10378SOL    HW231159   2.175   0.725   2.863
10379SOL     OW31160   2.201   0.509   2.868
10379SOL    HW131161   2.149   0.426   2.851
10379SOL    HW231162   2.278   0.514   2.804
10380SOL     OW31163   3.000   0.380   3.540
10380SOL    HW131164   2.955   0.443   3.604
10380SOL    HW231165   3.093   0.411   3.523
10381SOL     OW31166   3.022   0.207   3.339
10381SOL    HW131167   3.022   0.271   3.416
10381SOL    HW231168   3.050   0.255   3.256
10382SOL     OW31169   1.870   1.326   2.062
10382SOL    HW131170   1.777   1.347   2.031
10382SOL    HW231171   1.880   1.227   2.075
10383SOL     OW31172   1.950   1.801   2.789
10383SOL    HW131173   1.908   1.715   2.762
10383SOL    HW231174   2.044   1.804   2.755
10384SOL     OW31175   2.366   1.568   2.772
10384SOL    HW131176   2.432   1.642   2.781
10384SOL    HW231177   2.410   1.489   2.730
10385SOL     OW31178   2.864   0.796   3.100
10385SOL    HW131179   2.905   0.764   3.186
10385SOL    HW231180   2.768   0.769   3.097
10386SOL     OW31181   1.902   0.544   2.976
10386SOL    HW131182   1.987   0.511   2.935
10386SOL    HW231183   1.915   0.559   3.074
10387SOL     OW31184   2.051   0.520   3.584
10387SOL    HW131185   2.110   0.480   3.514
10387SOL    HW231186   1.993   0.591   3.543
10388SOL     OW31187   3.231   0.950   3.522
10388SOL    HW131188   3.270   1.039   3.542
10388SOL    HW231189   3.241   0.930   3.425
10389SOL     OW31190   2.677   0.572   2.187
10389SOL    HW131191   2.684   0.483   2.141
10389SOL    HW231192   2.583   0.606   2.179
10390SOL     OW31193   3.519   0.604   3.068
10390SOL    HW131194   3.481   0.535   3.130
10390SOL    HW231195   3.601   0.568   3.024
10391SOL     OW31196   2.114   1.564   3.606
10391SOL    HW131197   2.084   1.621   3.682
10391SOL    HW231198   2.107   1.467   3.632
10392SOL     OW31199   2.533   0.464   3.131
10392SOL    HW131200   2.499   0.375   3.101
10392SOL    HW231201   2.559   0.518   3.051
10393SOL     OW31202   2.792   1.678   3.327
10393SOL    HW131203   2.768   1.660   3.232
10393SOL    HW231204   2.822   1.772   3.337
10394SOL     OW31205   2.335   0.500   2.053
10394SOL    HW131206   2.396   0.580   2.057
10394SOL    HW231207   2.240   0.531   2.060
10395SOL     OW31208   2.021   1.137   3.328
10395SOL    HW131209   2.043   1.076   3.404
10395SOL    HW231210   2.031   1.088   3.242
10396SOL     OW31211   3.209   1.059   3.096
10396SOL    HW131212   3.233   0.996   3.022
10396SOL    HW231213   3.119   1.099   3.078
10397SOL     OW31214   3.164   0.855   2.171
10397SOL    HW131215   3.078   0.824   2.213
10397SOL    HW231216   3.160   0.841   2.072
10398SOL     OW31217   3.621   1.747   3.016
10398SOL    HW131218   3.682   1.777   2.943
10398SOL    HW231219   3.583   1.658   2.994
10399SOL     OW31220   3.114   1.731   2.990
10399SOL    HW131221   3.198   1.736   2.936
10399SOL    HW231222   3.091   1.635   3.008
10400SOL     OW31223   1.945   1.258   2.884
10400SOL    HW131224   1.940   1.257   2.984
10400SOL    HW231225   1.862   1.217   2.846
10401SOL     OW31226   2.550   1.662   3.578
10401SOL    HW131227   2.494   1.743   3.587
10401SOL    HW231228   2.602   1.666   3.492
10402SOL     OW31229   3.588   0.135   2.385
10402SOL    HW131230   3.661   0.118   2.318
10402SOL    HW231231   3.557   0.048   2.423
10403SOL     OW31232   3.250   1.573   2.339
10403SOL    HW131233   3.317   1.585   2.265
10403SOL    HW231234   3.210   1.662   2.362
10404SOL     OW31235   1.992   1.794   3.713
10404SOL    HW131236   1.951   1.720   3.766
10404SOL    HW231237   2.056   1.845   3.771
10405SOL     OW31238   3.142   0.927   2.534
10405SOL    HW131239   3.202   0.846   2.536
10405SOL    HW231240   3.182   0.996   2.474
10406SOL     OW31241   2.692   1.273   3.284
10406SOL    HW131242   2.687   1.306   3.379
10406SOL    HW231243   2.606   1.292   3.238
10407SOL     OW31244   2.534   1.616   2.016
10407SOL    HW131245   2.543   1.626   1.917
10407SOL    HW231246   2.494   1.527   2.037
10408SOL     OW31247   3.512   1.720   3.256
10408SOL    HW131248   3.565   1.730   3.172
10408SOL    HW231249   3.485   1.810   3.290
10409SOL     OW31250   3.703   0.175   2.825
10409SOL    HW131251   3.742   0.090   2.789
10409SOL    HW231252   3.605   0.177   2.806
10410SOL     OW31253   2.125   0.326   2.582
10410SOL    HW131254   2.046   0.377   2.548
10410SOL    HW231255   2.116   0.311   2.680
10411SOL     OW31256   3.056   1.612   1.893
10411SOL    HW131257   3.062   1.519   1.930
10411SOL    HW231258   2.997   1.612   1.813
10412SOL     OW31259   2.684   1.002   3.234
10412SOL    HW131260   2.724   1.001   3.142
10412SOL    HW231261   2.694   1.094   3.274
10413SOL     OW31262   2.778   0.910   2.153
10413SOL    HW131263   2.841   0.948   2.085
10413SOL    HW231264   2.818   0.827   2.192
10414SOL     OW31265   3.366   1.607   1.906
10414SOL    HW131266   3.274   1.644   1.913
10414SOL    HW231267   3.404   1.627   1.816
10415SOL     OW31268   2.234   1.288   3.352
10415SOL    HW131269   2.221   1.381   3.318
10415SOL    HW231270   2.150   1.236   3.339
10416SOL     OW31271   3.476   1.292   3.151
10416SOL    HW131272   3.536   1.295   3.231
10416SOL    HW231273   3.401   1.356   3.164
10417SOL     OW31274   2.901   1.098   2.558
10417SOL    HW131275   2.831   1.051   2.612
10417SOL    HW231276   2.960   1.030   2.515
10418SOL     OW31277   2.876   0.236   2.833
10418SOL    HW131278   2.868   0.200   2.740
10418SOL    HW231279   2.874   0.160   2.898
10419SOL     OW31280   2.452   1.487   2.353
10419SOL    HW131281   2.494   1.429   2.283
10419SOL    HW231282   2.408   1.566   2.309
10420SOL     OW31283   3.571   0.385   3.243
10420SOL    HW131284   3.644   0.454   3.247
10420SOL    HW231285   3.599   0.310   3.184
10421SOL     OW31286   2.117   1.348   2.152
10421SOL    HW131287   2.021   1.349   2.125
10421SOL    HW231288   2.129   1.401   2.236
10422SOL     OW31289   1.967   1.013   3.588
10422SOL    HW131290   1.890   0.980   3.642
10422SOL    HW231291   2.052   0.983   3.630
10423SOL     OW31292   2.534   0.203   3.351
10423SOL    HW131293   2.624   0.187   3.311
10423SOL    HW231294   2.542   0.208   3.450
10424SOL     OW31295   1.937   0.345   1.895
10424SOL    HW131296   1.845   0.317   1.866
10424SOL    HW231297   1.968   0.422   1.839
10425SOL     OW31298   3.302   0.856   3.260
10425SOL    HW131299   3.245   0.908   3.197
10425SOL    HW231300   3.398   0.868   3.236
10426SOL     OW31301   1.934   0.166   2.180
10426SOL    HW131302   1.917   0.249   2.126
10426SOL    HW231303   2.024   0.129   2.158
10427SOL     OW31304   3.045   1.335   1.981
10427SOL    HW131305   2.946   1.324   1.983
10427SOL    HW231306   3.079   1.350   2.074
10428SOL     OW31307   2.475   0.842   3.293
10428SOL    HW131308   2.531   0.923   3.276
10428SOL    HW231309   2.534   0.762   3.296
10429SOL     OW31310   3.355   1.767   2.821
10429SOL    HW131311   3.388   1.831   2.752
10429SOL    HW231312   3.421   1.761   2.896
10430SOL     OW31313   2.578   0.565   3.570
10430SOL    HW131314   2.597   0.630   3.644
10430SOL    HW231315   2.638   0.485   3.579
10431SOL     OW31316   3.312   1.220   3.495
10431SOL    HW131317   3.303   1.210   3.594
10431SOL    HW231318   3.408   1.213   3.469
10432SOL     OW31319   2.252   1.741   3.422
10432SOL    HW131320   2.161   1.782   3.420
10432SOL    HW231321   2.245   1.647   3.454
10433SOL     OW31322   3.536   0.883   3.116
10433SOL    HW131323   3.509   0.794   3.079
10433SOL    HW231324   3.537   0.951   3.043
10434SOL     OW31325   3.087   0.325   2.311
10434SOL    HW131326   3.152   0.251   2.300
10434SOL    HW231327   3.107   0.375   2.395
10435SOL     OW31328   2.456   0.745   2.514
10435SOL    HW131329   2.506   0.830   2.495
10435SOL    HW231330   2.368   0.747   2.466
10436SOL     OW31331   3.639   0.342   3.504
10436SOL    HW131332   3.622   0.373   3.410
10436SOL    HW231333   3.555   0.305   3.542
10437SOL     OW31334   3.592   0.934   3.379
10437SOL    HW131335   3.630   1.025   3.394
10437SOL    HW231336   3.584   0.917   3.280
10438SOL     OW31337   2.721   1.374   1.878
10438SOL    HW131338   2.675   1.389   1.966
10438SOL    HW231339   2.765   1.459   1.848
10439SOL     OW31340   2.523   1.790   2.815
10439SOL    HW131341   2.477   1.878   2.802
10439SOL    HW231342   2.622   1.802   2.808
10440SOL     OW31343   2.721   0.956   2.723
10440SOL    HW131344   2.775   0.887   2.771
10440SOL    HW231345   2.689   1.025   2.789
10441SOL     OW31346   2.945   0.984   1.949
10441SOL    HW131347   2.922   1.037   1.867
10441SOL    HW231348   3.026   0.928   1.930
10442SOL     OW31349   3.723   1.569   2.713
10442SOL    HW131350   3.652   1.557   2.643
10442SOL    HW231351   3.724   1.490   2.773
10443SOL     OW31352   2.083   1.314   3.706
10443SOL    HW131353   2.018   1.241   3.685
10443SOL    HW231354   2.087   1.328   3.804
10444SOL     OW31355   1.941   1.240   2.515
10444SOL    HW131356   1.940   1.193   2.603
10444SOL    HW231357   2.023   1.212   2.464
10445SOL     OW31358   2.534   1.391   3.486
10445SOL    HW131359   2.456   1.341   3.524
10445SOL    HW231360   2.531   1.486   3.517
10446SOL     OW31361   3.686   0.192   3.089
10446SOL    HW131362   3.682   0.102   3.133
10446SOL    HW231363   3.689   0.181   2.990
10447SOL     OW31364   2.290   0.424   2.382
10447SOL    HW131365   2.320   0.352   2.320
10447SOL    HW231366   2.251   0.384   2.465
10448SOL     OW31367   3.567   1.487   2.966
10448SOL    HW131368   3.474   1.462   2.939
10448SOL    HW231369   3.593   1.437   3.048
10449SOL     OW31370   2.179   0.547   3.142
10449SOL    HW131371   2.217   0.488   3.214
10449SOL    HW231372   2.219   0.521   3.054
10450SOL     OW31373   2.674   1.586   2.549
10450SOL    HW131374   2.706   1.596   2.455
10450SOL    HW231375   2.595   1.524   2.551
10451SOL     OW31376   3.286   0.214   2.974
10451SOL    HW131377   3.338   0.149   3.029
10451SOL    HW231378   3.237   0.277   3.035
10452SOL     OW31379   2.863   0.034   3.016
10452SOL    HW131380   2.800  -0.038   2.985
10452SOL    HW231381   2.956  -0.002   3.016
10453SOL     OW31382   2.632   1.330   2.163
10453SOL    HW131383   2.586   1.243   2.180
10453SOL    HW231384   2.723   1.327   2.204
10454SOL     OW31385   2.480   1.567   3.146
10454SOL    HW131386   2.475   1.649   3.203
10454SOL    HW231387   2.569   1.564   3.101
10455SOL     OW31388   3.214   0.052   2.030
10455SOL    HW131389   3.249   0.011   1.946
10455SOL    HW231390   3.124   0.014   2.050
10456SOL     OW31391   3.162   0.453   2.553
10456SOL    HW131392   3.103   0.533   2.557
10456SOL    HW231393   3.177   0.418   2.646
10457SOL     OW31394   3.455   0.221   2.744
10457SOL    HW131395   3.371   0.220   2.798
10457SOL    HW231396   3.457   0.304   2.688
10458SOL     OW31397   1.901   1.077   2.162
10458SOL    HW131398   2.000   1.066   2.153
10458SOL    HW231399   1.861   0.991   2.194
10459SOL     OW31400   2.737   1.646   2.199
10459SOL    HW131401   2.660   1.611   2.145
10459SOL    HW231402   2.705   1.717   2.261
10460SOL     OW31403   2.092   0.628   3.837
10460SOL    HW131404   1.999   0.626   3.874
10460SOL    HW231405   2.093   0.589   3.745
10461SOL     OW31406   2.087   0.275   4.720
10461SOL    HW131407   2.122   0.258   4.812
10461SOL    HW231408   1.999   0.230   4.708
10462SOL     OW31409   1.881   0.368   4.371
10462SOL    HW131410   1.799   0.411   4.410
10462SOL    HW231411   1.853   0.295   4.308
10463SOL     OW31412   2.431   1.275   4.889
10463SOL    HW131413   2.338   1.268   4.852
10463SOL    HW231414   2.442   1.364   4.933
10464SOL     OW31415   3.417   1.511   4.427
10464SOL    HW131416   3.360   1.495   4.508
10464SOL    HW231417   3.358   1.521   4.347
10465SOL     OW31418   2.997   0.703   4.441
10465SOL    HW131419   3.054   0.781   4.416
10465SOL    HW231420   2.937   0.729   4.517
10466SOL     OW31421   3.617   0.607   3.955
10466SOL    HW131422   3.605   0.594   3.856
10466SOL    HW231423   3.587   0.526   4.004
10467SOL     OW31424   2.630   1.144   4.747
10467SOL    HW131425   2.552   1.161   4.807
10467SOL    HW231426   2.664   1.231   4.711
10468SOL     OW31427   2.712   0.798   5.547
10468SOL    HW131428   2.708   0.874   5.612
10468SOL    HW231429   2.734   0.834   5.456
10469SOL     OW31430   2.547   1.012   4.389
10469SOL    HW131431   2.616   0.996   4.459
10469SOL    HW231432   2.474   1.069   4.427
10470SOL     OW31433   2.548   1.161   5.527
10470SOL    HW131434   2.608   1.240   5.541
10470SOL    HW231435   2.462   1.192   5.486
10471SOL     OW31436   2.197   1.435   4.785
10471SOL    HW131437   2.119   1.404   4.732
10471SOL    HW231438   2.255   1.493   4.728
10472SOL     OW31439   3.322   1.505   5.063
10472SOL    HW131440   3.346   1.599   5.089
10472SOL    HW231441   3.306   1.451   5.145
10473SOL     OW31442   2.300   0.392   5.223
10473SOL    HW131443   2.382   0.336   5.232
10473SOL    HW231444   2.219   0.334   5.227
10474SOL     OW31445   3.465   0.447   4.461
10474SOL    HW131446   3.391   0.493   4.411
10474SOL    HW231447   3.516   0.515   4.514
10475SOL     OW31448   2.093   1.713   4.207
10475SOL    HW131449   2.127   1.790   4.261
10475SOL    HW231450   2.137   1.713   4.117
10476SOL     OW31451   2.989   1.341   5.414
10476SOL    HW131452   3.036   1.341   5.502
10476SOL    HW231453   2.941   1.254   5.403
10477SOL     OW31454   2.092   1.434   4.262
10477SOL    HW131455   2.066   1.530   4.262
10477SOL    HW231456   2.021   1.380   4.307
10478SOL     OW31457   2.102   1.091   4.610
10478SOL    HW131458   2.116   1.007   4.662
10478SOL    HW231459   2.047   1.155   4.665
10479SOL     OW31460   2.482   1.786   5.163
10479SOL    HW131461   2.390   1.769   5.198
10479SOL    HW231462   2.510   1.878   5.189
10480SOL     OW31463   2.468   0.964   3.847
10480SOL    HW131464   2.475   1.048   3.793
10480SOL    HW231465   2.514   0.977   3.935
10481SOL     OW31466   3.456   0.114   5.204
10481SOL    HW131467   3.438   0.181   5.132
10481SOL    HW231468   3.453   0.160   5.293
10482SOL     OW31469   1.984   0.643   4.287
10482SOL    HW131470   1.939   0.555   4.304
10482SOL    HW231471   1.983   0.697   4.371
10483SOL     OW31472   3.704   1.767   4.083
10483SOL    HW131473   3.758   1.738   4.163
10483SOL    HW231474   3.734   1.857   4.054
10484SOL     OW31475   1.889   1.596   3.841
10484SOL    HW131476   1.870   1.500   3.862
10484SOL    HW231477   1.856   1.654   3.916
10485SOL     OW31478   3.551   0.922   4.336
10485SOL    HW131479   3.646   0.893   4.344
10485SOL    HW231480   3.543   0.987   4.261
10486SOL     OW31481   3.503   1.108   4.156
10486SOL    HW131482   3.589   1.110   4.104
10486SOL    HW231483   3.517   1.155   4.244
10487SOL     OW31484   1.975   0.737   5.321
10487SOL    HW131485   2.063   0.724   5.366
10487SOL    HW231486   1.962   0.834   5.299
10488SOL     OW31487   2.475   1.365   4.450
10488SOL    HW131488   2.426   1.278   4.459
10488SOL    HW231489   2.452   1.408   4.363
10489SOL     OW31490   3.155   1.228   5.147
10489SOL    HW131491   3.192   1.155   5.089
10489SOL    HW231492   3.207   1.233   5.232
10490SOL     OW31493   2.671   0.004   4.226
10490SOL    HW131494   2.711   0.095   4.217
10490SOL    HW231495   2.571   0.012   4.232
10491SOL     OW31496   2.059   0.976   4.988
10491SOL    HW131497   2.148   0.931   4.974
10491SOL    HW231498   1.986   0.911   4.969
10492SOL     OW31499   3.387   0.999   3.914
10492SOL    HW131500   3.324   0.923   3.927
10492SOL    HW231501   3.435   1.017   4.000
10493SOL     OW31502   3.049   1.792   5.340
10493SOL    HW131503   3.073   1.852   5.264
10493SOL    HW231504   3.056   1.697   5.310
10494SOL     OW31505   2.179   0.251   5.525
10494SOL    HW131506   2.250   0.322   5.531
10494SOL    HW231507   2.091   0.290   5.553
10495SOL     OW31508   3.328   1.417   4.677
10495SOL    HW131509   3.269   1.423   4.757
10495SOL    HW231510   3.313   1.329   4.631
10496SOL     OW31511   3.529   1.714   4.296
10496SOL    HW131512   3.488   1.691   4.208
10496SOL    HW231513   3.511   1.640   4.361
10497SOL     OW31514   2.460   0.729   3.994
10497SOL    HW131515   2.484   0.798   3.926
10497SOL    HW231516   2.382   0.762   4.048
10498SOL     OW31517   3.143   0.345   4.668
10498SOL    HW131518   3.057   0.295   4.655
10498SOL    HW231519   3.205   0.291   4.724
10499SOL     OW31520   3.438   1.662   4.031
10499SOL    HW131521   3.527   1.708   4.034
10499SOL    HW231522   3.417   1.638   3.936
10500SOL     OW31523   2.669   0.605   5.189
10500SOL    HW131524   2.622   0.602   5.278
10500SOL    HW231525   2.618   0.550   5.123
10501SOL     OW31526   3.256   0.469   5.398
10501SOL    HW131527   3.236   0.512   5.486
10501SOL    HW231528   3.334   0.407   5.407
10502SOL     OW31529   2.835   0.890   5.296
10502SOL    HW131530   2.881   0.806   5.267
10502SOL    HW231531   2.779   0.924   5.221
10503SOL     OW31532   2.853   0.410   4.966
10503SOL    HW131533   2.776   0.444   5.020
10503SOL    HW231534   2.819   0.359   4.887
10504SOL     OW31535   2.903   0.701   4.153
10504SOL    HW131536   2.929   0.697   4.249
10504SOL    HW231537   2.818   0.650   4.139
10505SOL     OW31538   1.938   0.811   4.513
10505SOL    HW131539   2.037   0.799   4.522
10505SOL    HW231540   1.914   0.906   4.534
10506SOL     OW31541   1.992   1.821   5.295
10506SOL    HW131542   1.982   1.806   5.394
10506SOL    HW231543   1.906   1.857   5.259
10507SOL     OW31544   2.727   0.348   3.919
10507SOL    HW131545   2.786   0.411   3.870
10507SOL    HW231546   2.746   0.254   3.890
10508SOL     OW31547   3.581   0.585   5.555
10508SOL    HW131548   3.555   0.674   5.519
10508SOL    HW231549   3.579   0.517   5.482
10509SOL     OW31550   3.224   1.144   4.269
10509SOL    HW131551   3.307   1.115   4.221
10509SOL    HW231552   3.175   1.211   4.213
10510SOL     OW31553   2.412   0.196   4.609
10510SOL    HW131554   2.407   0.191   4.709
10510SOL    HW231555   2.414   0.292   4.580
10511SOL     OW31556   2.870   1.456   4.201
10511SOL    HW131557   2.824   1.528   4.149
10511SOL    HW231558   2.866   1.476   4.299
10512SOL     OW31559   2.213   1.801   4.577
10512SOL    HW131560   2.263   1.715   4.583
10512SOL    HW231561   2.278   1.878   4.574
10513SOL     OW31562   3.657   1.066   4.597
10513SOL    HW131563   3.595   1.051   4.521
10513SOL    HW231564   3.605   1.077   4.682
10514SOL     OW31565   3.089   1.550   5.230
10514SOL    HW131566   3.095   1.473   5.294
10514SOL    HW231567   3.037   1.524   5.150
10515SOL     OW31568   2.183   0.943   3.966
10515SOL    HW131569   2.265   0.982   3.924
10515SOL    HW231570   2.156   0.861   3.917
10516SOL     OW31571   3.320   0.735   4.452
10516SOL    HW131572   3.315   0.670   4.527
10516SOL    HW231573   3.400   0.794   4.465
10517SOL     OW31574   2.323   1.266   5.451
10517SOL    HW131575   2.273   1.267   5.365
10517SOL    HW231576   2.260   1.248   5.527
10518SOL     OW31577   2.973   1.776   3.961
10518SOL    HW131578   2.913   1.714   4.011
10518SOL    HW231579   3.004   1.732   3.876
10519SOL     OW31580   2.064   0.285   5.222
10519SOL    HW131581   1.984   0.345   5.209
10519SOL    HW231582   2.054   0.236   5.308
10520SOL     OW31583   3.494   1.377   3.805
10520SOL    HW131584   3.462   1.471   3.795
10520SOL    HW231585   3.418   1.314   3.793
10521SOL     OW31586   2.326   1.743   4.047
10521SOL    HW131587   2.359   1.782   4.133
10521SOL    HW231588   2.402   1.736   3.982
10522SOL     OW31589   3.262   0.107   4.150
10522SOL    HW131590   3.238   0.070   4.060
10522SOL    HW231591   3.361   0.123   4.154
10523SOL     OW31592   2.111   1.785   4.965
10523SOL    HW131593   2.168   1.720   5.015
10523SOL    HW231594   2.095   1.752   4.872
10524SOL     OW31595   2.802   1.698   4.628
10524SOL    HW131596   2.882   1.641   4.649
10524SOL    HW231597   2.753   1.658   4.551
10525SOL     OW31598   2.244   0.700   4.204
10525SOL    HW131599   2.289   0.610   4.201
10525SOL    HW231600   2.150   0.689   4.237
10526SOL     OW31601   3.409   0.222   5.453
10526SOL    HW131602   3.404   0.259   5.545
10526SOL    HW231603   3.337   0.153   5.441
10527SOL     OW31604   2.476   0.122   3.841
10527SOL    HW131605   2.574   0.100   3.848
10527SOL    HW231606   2.445   0.105   3.748
10528SOL     OW31607   2.643   0.264   5.473
10528SOL    HW131608   2.710   0.203   5.516
10528SOL    HW231609   2.570   0.283   5.538
10529SOL     OW31610   2.750   1.514   4.919
10529SOL    HW131611   2.727   1.489   4.825
10529SOL    HW231612   2.811   1.445   4.958
10530SOL     OW31613   3.213   0.590   5.157
10530SOL    HW131614   3.241   0.547   5.242
10530SOL    HW231615   3.238   0.686   5.158
10531SOL     OW31616   2.665   1.402   4.648
10531SOL    HW131617   2.755   1.416   4.606
10531SOL    HW231618   2.594   1.404   4.577
10532SOL     OW31619   2.784   0.503   4.623
10532SOL    HW131620   2.759   0.494   4.527
10532SOL    HW231621   2.832   0.421   4.654
10533SOL     OW31622   2.401   0.064   4.236
10533SOL    HW131623   2.320   0.065   4.294
10533SOL    HW231624   2.404   0.147   4.181
10534SOL     OW31625   3.296   1.188   3.765
10534SOL    HW131626   3.328   1.112   3.822
10534SOL    HW231627   3.204   1.215   3.795
10535SOL     OW31628   2.159   0.035   3.895
10535SOL    HW131629   2.208   0.119   3.874
10535SOL    HW231630   2.221  -0.030   3.940
10536SOL     OW31631   2.797   0.236   4.204
10536SOL    HW131632   2.749   0.277   4.126
10536SOL    HW231633   2.896   0.234   4.185
10537SOL     OW31634   2.938   0.683   5.188
10537SOL    HW131635   2.858   0.622   5.191
10537SOL    HW231636   3.019   0.630   5.164
10538SOL     OW31637   3.089   1.570   4.517
10538SOL    HW131638   3.110   1.644   4.452
10538SOL    HW231639   3.157   1.570   4.590
10539SOL     OW31640   2.321   1.152   4.465
10539SOL    HW131641   2.250   1.125   4.530
10539SOL    HW231642   2.295   1.124   4.372
10540SOL     OW31643   3.133   1.797   4.315
10540SOL    HW131644   3.177   1.861   4.251
10540SOL    HW231645   3.083   1.849   4.385
10541SOL     OW31646   2.894   0.549   3.740
10541SOL    HW131647   2.853   0.631   3.701
10541SOL    HW231648   2.958   0.575   3.813
10542SOL     OW31649   1.940   0.556   5.110
10542SOL    HW131650   2.032   0.555   5.069
10542SOL    HW231651   1.934   0.630   5.177
10543SOL     OW31652   2.423   0.222   4.871
10543SOL    HW131653   2.461   0.138   4.908
10543SOL    HW231654   2.335   0.241   4.915
10544SOL     OW31655   2.728   0.454   4.366
10544SOL    HW131656   2.696   0.526   4.304
10544SOL    HW231657   2.752   0.373   4.313
10545SOL     OW31658   2.879   0.039   4.477
10545SOL    HW131659   2.807   0.044   4.408
10545SOL    HW231660   2.855  -0.030   4.546
10546SOL     OW31661   3.291   1.173   4.591
10546SOL    HW131662   3.236   1.089   4.584
10546SOL    HW231663   3.317   1.202   4.499
10547SOL     OW31664   3.328   0.590   4.716
10547SOL    HW131665   3.298   0.495   4.723
10547SOL    HW231666   3.401   0.606   4.782
10548SOL     OW31667   3.719   0.833   4.101
10548SOL    HW131668   3.761   0.769   4.165
10548SOL    HW231669   3.681   0.782   4.023
10549SOL     OW31670   2.350   1.385   3.898
10549SOL    HW131671   2.263   1.370   3.945
10549SOL    HW231672   2.333   1.411   3.803
10550SOL     OW31673   3.526   1.280   4.381
10550SOL    HW131674   3.625   1.288   4.395
10550SOL    HW231675   3.481   1.364   4.412
10551SOL     OW31676   3.252   0.575   3.802
10551SOL    HW131677   3.198   0.554   3.883
10551SOL    HW231678   3.343   0.534   3.811
10552SOL     OW31679   2.389   0.256   4.052
10552SOL    HW131680   2.416   0.197   3.977
10552SOL    HW231681   2.389   0.351   4.021
10553SOL     OW31682   3.616   1.223   5.312
10553SOL    HW131683   3.707   1.184   5.299
10553SOL    HW231684   3.624   1.319   5.336
10554SOL     OW31685   2.926   1.347   5.064
10554SOL    HW131686   2.846   1.324   5.119
10554SOL    HW231687   3.009   1.321   5.113
10555SOL     OW31688   3.454   1.629   5.349
10555SOL    HW131689   3.481   1.663   5.259
10555SOL    HW231690   3.533   1.591   5.395
10556SOL     OW31691   2.973   1.195   4.824
10556SOL    HW131692   2.933   1.239   4.905
10556SOL    HW231693   2.932   1.232   4.741
10557SOL     OW31694   3.500   1.099   4.803
10557SOL    HW131695   3.505   1.180   4.862
10557SOL    HW231696   3.414   1.101   4.752
10558SOL     OW31697   2.777   0.089   5.126
10558SOL    HW131698   2.802   0.069   5.031
10558SOL    HW231699   2.849   0.145   5.168
10559SOL     OW31700   2.842   1.116   5.443
10559SOL    HW131701   2.743   1.122   5.453
10559SOL    HW231702   2.865   1.036   5.387
10560SOL     OW31703   2.567   1.050   4.092
10560SOL    HW131704   2.553   1.057   4.191
10560SOL    HW231705   2.651   0.999   4.074
10561SOL     OW31706   2.272   0.813   4.975
10561SOL    HW131707   2.358   0.825   5.025
10561SOL    HW231708   2.230   0.726   5.002
10562SOL     OW31709   3.136   0.386   4.986
10562SOL    HW131710   3.157   0.460   5.050
10562SOL    HW231711   3.047   0.403   4.943
10563SOL     OW31712   1.926   1.564   5.055
10563SOL    HW131713   1.880   1.646   5.021
10563SOL    HW231714   2.024   1.583   5.064
10564SOL     OW31715   2.229   1.100   4.225
10564SOL    HW131716   2.222   1.183   4.169
10564SOL    HW231717   2.233   1.020   4.165
10565SOL     OW31718   2.428   0.537   4.589
10565SOL    HW131719   2.440   0.603   4.515
10565SOL    HW231720   2.474   0.571   4.672
10566SOL     OW31721   3.114   1.348   4.112
10566SOL    HW131722   3.164   1.425   4.152
10566SOL    HW231723   3.019   1.350   4.144
10567SOL     OW31724   3.134   1.445   4.866
10567SOL    HW131725   3.181   1.458   4.953
10567SOL    HW231726   3.068   1.371   4.875
10568SOL     OW31727   3.444   0.639   4.196
10568SOL    HW131728   3.413   0.700   4.269
10568SOL    HW231729   3.494   0.691   4.127
10569SOL     OW31730   2.216   1.510   5.053
10569SOL    HW131731   2.195   1.466   4.966
10569SOL    HW231732   2.313   1.536   5.056
10570SOL     OW31733   2.264   0.751   5.322
10570SOL    HW131734   2.332   0.806   5.275
10570SOL    HW231735   2.304   0.663   5.349
10571SOL     OW31736   3.449   0.779   5.394
10571SOL    HW131737   3.357   0.817   5.389
10571SOL    HW231738   3.509   0.826   5.329
10572SOL     OW31739   2.875   0.105   5.494
10572SOL    HW131740   2.881   0.190   5.442
10572SOL    HW231741   2.907   0.029   5.437
10573SOL     OW31742   2.366   0.050   5.464
10573SOL    HW131743   2.324  -0.007   5.394
10573SOL    HW231744   2.300   0.119   5.496
10574SOL     OW31745   2.435   0.870   4.753
10574SOL    HW131746   2.479   0.959   4.744
10574SOL    HW231747   2.372   0.870   4.830
10575SOL     OW31748   3.222   0.862   4.769
10575SOL    HW131749   3.147   0.862   4.703
10575SOL    HW231750   3.259   0.770   4.778
10576SOL     OW31751   3.071   0.525   3.999
10576SOL    HW131752   3.084   0.441   4.053
10576SOL    HW231753   3.042   0.599   4.059
10577SOL     OW31754   2.169   0.213   4.955
10577SOL    HW131755   2.146   0.250   5.045
10577SOL    HW231756   2.139   0.118   4.949
10578SOL     OW31757   1.899   1.310   5.006
10578SOL    HW131758   1.952   1.261   5.074
10578SOL    HW231759   1.921   1.408   5.011
10579SOL     OW31760   2.594   0.634   4.788
10579SOL    HW131761   2.653   0.608   4.712
10579SOL    HW231762   2.566   0.730   4.777
10580SOL     OW31763   3.590   0.935   5.578
10580SOL    HW131764   3.544   0.928   5.489
10580SOL    HW231765   3.528   0.979   5.644
10581SOL     OW31766   2.169   0.063   4.342
10581SOL    HW131767   2.158   0.157   4.375
10581SOL    HW231768   2.164   0.000   4.419
10582SOL     OW31769   3.484   0.367   4.098
10582SOL    HW131770   3.486   0.291   4.162
10582SOL    HW231771   3.436   0.444   4.138
10583SOL     OW31772   2.885   0.766   4.690
10583SOL    HW131773   2.900   0.787   4.786
10583SOL    HW231774   2.855   0.671   4.681
10584SOL     OW31775   2.842   1.573   5.424
10584SOL    HW131776   2.822   1.617   5.336
10584SOL    HW231777   2.881   1.482   5.408
10585SOL     OW31778   3.721   1.518   5.329
10585SOL    HW131779   3.735   1.545   5.234
10585SOL    HW231780   3.804   1.540   5.382
10586SOL     OW31781   2.212   0.898   5.528
10586SOL    HW131782   2.288   0.942   5.576
10586SOL    HW231783   2.247   0.851   5.446
10587SOL     OW31784   3.402   0.274   3.849
10587SOL    HW131785   3.341   0.199   3.872
10587SOL    HW231786   3.424   0.326   3.932
10588SOL     OW31787   3.165   0.838   3.766
10588SOL    HW131788   3.199   0.745   3.781
10588SOL    HW231789   3.183   0.865   3.671
10589SOL     OW31790   2.930   1.333   4.573
10589SOL    HW131791   2.937   1.249   4.518
10589SOL    HW231792   2.992   1.402   4.537
10590SOL     OW31793   2.181   0.810   4.673
10590SOL    HW131794   2.274   0.846   4.678
10590SOL    HW231795   2.175   0.725   4.725
10591SOL     OW31796   2.201   0.509   4.730
10591SOL    HW131797   2.149   0.426   4.713
10591SOL    HW231798   2.278   0.514   4.666
10592SOL     OW31799   3.000   0.380   5.402
10592SOL    HW131800   2.955   0.443   5.466
10592SOL    HW231801   3.093   0.411   5.385
10593SOL     OW31802   3.022   0.207   5.201
10593SOL    HW131803   3.022   0.271   5.278
10593SOL    HW231804   3.050   0.255   5.118
10594SOL     OW31805   1.870   1.326   3.924
10594SOL    HW131806   1.777   1.347   3.893
10594SOL    HW231807   1.880   1.227   3.937
10595SOL     OW31808   1.950   1.801   4.651
10595SOL    HW131809   1.908   1.715   4.624
10595SOL    HW231810   2.044   1.804   4.617
10596SOL     OW31811   2.366   1.568   4.634
10596SOL    HW131812   2.432   1.642   4.643
10596SOL    HW231813   2.410   1.489   4.592
10597SOL     OW31814   2.864   0.796   4.962
10597SOL    HW131815   2.905   0.764   5.048
10597SOL    HW231816   2.768   0.769   4.959
10598SOL     OW31817   1.902   0.544   4.838
10598SOL    HW131818   1.987   0.511   4.797
10598SOL    HW231819   1.915   0.559   4.936
10599SOL     OW31820   2.051   0.520   5.446
10599SOL    HW131821   2.110   0.480   5.376
10599SOL    HW231822   1.993   0.591   5.405
10600SOL     OW31823   3.231   0.950   5.384
10600SOL    HW131824   3.270   1.039   5.404
10600SOL    HW231825   3.241   0.930   5.287
10601SOL     OW31826   2.677   0.572   4.049
10601SOL    HW131827   2.684   0.483   4.003
10601SOL    HW231828   2.583   0.606   4.041
10602SOL     OW31829   3.519   0.604   4.930
10602SOL    HW131830   3.481   0.535   4.992
10602SOL    HW231831   3.601   0.568   4.886
10603SOL     OW31832   2.114   1.564   5.468
10603SOL    HW131833   2.084   1.621   5.544
10603SOL    HW231834   2.107   1.467   5.494
10604SOL     OW31835   2.533   0.464   4.993
10604SOL    HW131836   2.499   0.375   4.963
10604SOL    HW231837   2.559   0.518   4.913
10605SOL     OW31838   2.792   1.678   5.189
10605SOL    HW131839   2.768   1.660   5.094
10605SOL    HW231840   2.822   1.772   5.199
10606SOL     OW31841   2.335   0.500   3.915
10606SOL    HW131842   2.396   0.580   3.919
10606SOL    HW231843   2.240   0.531   3.922
10607SOL     OW31844   2.021   1.137   5.190
10607SOL    HW131845   2.043   1.076   5.266
10607SOL    HW231846   2.031   1.088   5.104
10608SOL     OW31847   3.209   1.059   4.958
10608SOL    HW131848   3.233   0.996   4.884
10608SOL    HW231849   3.119   1.099   4.940
10609SOL     OW31850   3.164   0.855   4.033
10609SOL    HW131851   3.078   0.824   4.075
10609SOL    HW231852   3.160   0.841   3.934
10610SOL     OW31853   3.621   1.747   4.878
10610SOL    HW131854   3.682   1.777   4.805
10610SOL    HW231855   3.583   1.658   4.856
10611SOL     OW31856   3.114   1.731   4.852
10611SOL    HW131857   3.198   1.736   4.798
10611SOL    HW231858   3.091   1.635   4.870
10612SOL     OW31859   1.945   1.258   4.746
10612SOL    HW131860   1.940   1.257   4.846
10612SOL    HW231861   1.862   1.217   4.708
10613SOL     OW31862   2.550   1.662   5.440
10613SOL    HW131863   2.494   1.743   5.449
10613SOL    HW231864   2.602   1.666   5.354
10614SOL     OW31865   3.588   0.135   4.247
10614SOL    HW131866   3.661   0.118   4.180
10614SOL    HW231867   3.557   0.048   4.285
10615SOL     OW31868   3.250   1.573   4.201
10615SOL    HW131869   3.317   1.585   4.127
10615SOL    HW231870   3.210   1.662   4.224
10616SOL     OW31871   1.992   1.794   5.575
10616SOL    HW131872   1.951   1.720   5.628
10616SOL    HW231873   2.056   1.845   5.633
10617SOL     OW31874   3.142   0.927   4.396
10617SOL    HW131875   3.202   0.846   4.398
10617SOL    HW231876   3.182   0.996   4.336
10618SOL     OW31877   2.692   1.273   5.146
10618SOL    HW131878   2.687   1.306   5.241
10618SOL    HW231879   2.606   1.292   5.100
10619SOL     OW31880   2.534   1.616   3.878
10619SOL    HW131881   2.543   1.626   3.779
10619SOL    HW231882   2.494   1.527   3.899
10620SOL     OW31883   3.512   1.720   5.118
10620SOL    HW131884   3.565   1.730   5.034
10620SOL    HW231885   3.485   1.810   5.152
10621SOL     OW31886   3.703   0.175   4.687
10621SOL    HW131887   3.742   0.090   4.651
10621SOL    HW231888   3.605   0.177   4.668
10622SOL     OW31889   2.125   0.326   4.444
10622SOL    HW131890   2.046   0.377   4.410
10622SOL    HW231891   2.116   0.311   4.542
10623SOL     OW31892   3.056   1.612   3.755
10623SOL    HW131893   3.062   1.519   3.792
10623SOL    HW231894   2.997   1.612   3.675
10624SOL     OW31895   2.684   1.002   5.096
10624SOL    HW131896   2.724   1.001   5.004
10624SOL    HW231897   2.694   1.094   5.136
10625SOL     OW31898   2.778   0.910   4.015
10625SOL    HW131899   2.841   0.948   3.947
10625SOL    HW231900   2.818   0.827   4.054
10626SOL     OW31901   3.366   1.607   3.768
10626SOL    HW131902   3.274   1.644   3.775
10626SOL    HW231903   3.404   1.627   3.678
10627SOL     OW31904   2.234   1.288   5.214
10627SOL    HW131905   2.221   1.381   5.180
10627SOL    HW231906   2.150   1.236   5.201
10628SOL     OW31907   3.476   1.292   5.013
10628SOL    HW131908   3.536   1.295   5.093
10628SOL    HW231909   3.401   1.356   5.026
10629SOL     OW31910   2.901   1.098   4.420
10629SOL    HW131911   2.831   1.051   4.474
10629SOL    HW231912   2.960   1.030   4.377
10630SOL     OW31913   2.876   0.236   4.695
10630SOL    HW131914   2.868   0.200   4.602
10630SOL    HW231915   2.874   0.160   4.760
10631SOL     OW31916   2.452   1.487   4.215
10631SOL    HW131917   2.494   1.429   4.145
10631SOL    HW231918   2.408   1.566   4.171
10632SOL     OW31919   3.571   0.385   5.105
10632SOL    HW131920   3.644   0.454   5.109
10632SOL    HW231921   3.599   0.310   5.046
10633SOL     OW31922   2.117   1.348   4.014
10633SOL    HW131923   2.021   1.349   3.987
10633SOL    HW231924   2.129   1.401   4.098
10634SOL     OW31925   1.967   1.013   5.450
10634SOL    HW131926   1.890   0.980   5.504
10634SOL    HW231927   2.052   0.983   5.492
10635SOL     OW31928   2.534   0.203   5.213
10635SOL    HW131929   2.624   0.187   5.173
10635SOL    HW231930   2.542   0.208   5.312
10636SOL     OW31931   1.937   0.345   3.757
10636SOL    HW131932   1.845   0.317   3.728
10636SOL    HW231933   1.968   0.422   3.701
10637SOL     OW31934   3.302   0.856   5.122
10637SOL    HW131935   3.245   0.908   5.059
10637SOL    HW231936   3.398   0.868   5.098
10638SOL     OW31937   1.934   0.166   4.042
10638SOL    HW131938   1.917   0.249   3.988
10638SOL    HW231939   2.024   0.129   4.020
10639SOL     OW31940   3.045   1.335   3.843
10639SOL    HW131941   2.946   1.324   3.845
10639SOL    HW231942   3.079   1.350   3.936
10640SOL     OW31943   2.475   0.842   5.155
10640SOL    HW131944   2.531   0.923   5.138
10640SOL    HW231945   2.534   0.762   5.158
10641SOL     OW31946   3.355   1.767   4.683
10641SOL    HW131947   3.388   1.831   4.614
10641SOL    HW231948   3.421   1.761   4.758
10642SOL     OW31949   2.578   0.565   5.432
10642SOL    HW131950   2.597   0.630   5.506
10642SOL    HW231951   2.638   0.485   5.441
10643SOL     OW31952   3.312   1.220   5.357
10643SOL    HW131953   3.303   1.210   5.456
10643SOL    HW231954   3.408   1.213   5.331
10644SOL     OW31955   2.252   1.741   5.284
10644SOL    HW131956   2.161   1.782   5.282
10644SOL    HW231957   2.245   1.647   5.316
10645SOL     OW31958   3.536   0.883   4.978
10645SOL    HW131959   3.509   0.794   4.941
10645SOL    HW231960   3.537   0.951   4.905
10646SOL     OW31961   3.087   0.325   4.173
10646SOL    HW131962   3.152   0.251   4.162
10646SOL    HW231963   3.107   0.375   4.257
10647SOL     OW31964   2.456   0.745   4.376
10647SOL    HW131965   2.506   0.830   4.357
10647SOL    HW231966   2.368   0.747   4.328
10648SOL     OW31967   3.639   0.342   5.366
10648SOL    HW131968   3.622   0.373   5.272
10648SOL    HW231969   3.555   0.305   5.404
10649SOL     OW31970   3.592   0.934   5.241
10649SOL    HW131971   3.630   1.025   5.256
10649SOL    HW231972   3.584   0.917   5.142
10650SOL     OW31973   2.721   1.374   3.740
10650SOL    HW131974   2.675   1.389   3.828
10650SOL    HW231975   2.765   1.459   3.710
10651SOL     OW31976   2.523   1.790   4.677
10651SOL    HW131977   2.477   1.878   4.664
10651SOL    HW231978   2.622   1.802   4.670
10652SOL     OW31979   2.721   0.956   4.585
10652SOL    HW131980   2.775   0.887   4.633
10652SOL    HW231981   2.689   1.025   4.651
10653SOL     OW31982   2.945   0.984   3.811
10653SOL    HW131983   2.922   1.037   3.729
10653SOL    HW231984   3.026   0.928   3.792
10654SOL     OW31985   3.723   1.569   4.575
10654SOL    HW131986   3.652   1.557   4.505
10654SOL    HW231987   3.724   1.490   4.635
10655SOL     OW31988   2.083   1.314   5.568
10655SOL    HW131989   2.018   1.241   5.547
10655SOL    HW231990   2.087   1.328   5.666
10656SOL     OW31991   1.941   1.240   4.377
10656SOL    HW131992   1.940   1.193   4.465
10656SOL    HW231993   2.023   1.212   4.326
10657SOL     OW31994   2.534   1.391   5.348
10657SOL    HW131995   2.456   1.341   5.386
10657SOL    HW231996   2.531   1.486   5.379
10658SOL     OW31997   3.686   0.192   4.951
10658SOL    HW131998   3.682   0.102   4.995
10658SOL    HW231999   3.689   0.181   4.852
10659SOL     OW32000   2.290   0.424   4.244
10659SOL    HW132001   2.320   0.352   4.182
10659SOL    HW232002   2.251   0.384   4.327
10660SOL     OW32003   3.567   1.487   4.828
10660SOL    HW132004   3.474   1.462   4.801
10660SOL    HW232005   3.593   1.437   4.910
10661SOL     OW32006   2.179   0.547   5.004
10661SOL    HW132007   2.217   0.488   5.076
10661SOL    HW232008   2.219   0.521   4.916
10662SOL     OW32009   2.674   1.586   4.411
10662SOL    HW132010   2.706   1.596   4.317
10662SOL    HW232011   2.595   1.524   4.413
10663SOL     OW32012   3.286   0.214   4.836
10663SOL    HW132013   3.338   0.149   4.891
10663SOL    HW232014   3.237   0.277   4.897
10664SOL     OW32015   2.863   0.034   4.878
10664SOL    HW132016   2.800  -0.038   4.847
10664SOL    HW232017   2.956  -0.002   4.878
10665SOL     OW32018   2.632   1.330   4.025
10665SOL    HW132019   2.586   1.243   4.042
10665SOL    HW232020   2.723   1.327   4.066
10666SOL     OW32021   2.480   1.567   5.008
10666SOL    HW132022   2.475   1.649   5.065
10666SOL    HW232023   2.569   1.564   4.963
10667SOL     OW32024   3.214   0.052   3.892
10667SOL    HW132025   3.249   0.011   3.808
10667SOL    HW232026   3.124   0.014   3.912
10668SOL     OW32027   3.162   0.453   4.415
10668SOL    HW132028   3.103   0.533   4.419
10668SOL    HW232029   3.177   0.418   4.508
10669SOL     OW32030   3.455   0.221   4.606
10669SOL    HW132031   3.371   0.220   4.660
10669SOL    HW232032   3.457   0.304   4.550
10670SOL     OW32033   1.901   1.077   4.024
10670SOL    HW132034   2.000   1.066   4.015
10670SOL    HW232035   1.861   0.991   4.056
10671SOL     OW32036   2.737   1.646   4.061
10671SOL    HW132037   2.660   1.611   4.007
10671SOL    HW232038   2.705   1.717   4.123
10672SOL     OW32039   2.092   0.628   5.699
10672SOL    HW132040   1.999   0.626   5.736
10672SOL    HW232041   2.093   0.589   5.607
10673SOL     OW32042   2.087   0.275   6.582
10673SOL    HW132043   2.122   0.258   6.674
10673SOL    HW232044   1.999   0.230   6.570
10674SOL     OW32045   1.881   0.368   6.233
10674SOL    HW132046   1.799   0.411   6.272
10674SOL    HW232047   1.853   0.295   6.170
10675SOL     OW32048   2.431   1.275   6.751
10675SOL    HW132049   2.338   1.268   6.714
10675SOL    HW232050   2.442   1.364   6.795
10676SOL     OW32051   3.417   1.511   6.289
10676SOL    HW132052   3.360   1.495   6.370
10676SOL    HW232053   3.358   1.521   6.209
10677SOL     OW32054   2.997   0.703   6.303
10677SOL    HW132055   3.054   0.781   6.278
10677SOL    HW232056   2.937   0.729   6.379
10678SOL     OW32057   3.617   0.607   5.817
10678SOL    HW132058   3.605   0.594   5.718
10678SOL    HW232059   3.587   0.526   5.866
10679SOL     OW32060   2.630   1.144   6.609
10679SOL    HW132061   2.552   1.161   6.669
10679SOL    HW232062   2.664   1.231   6.573
10680SOL     OW32063   2.712   0.798   7.409
10680SOL    HW132064   2.708   0.874   7.474
10680SOL    HW232065   2.734   0.834   7.318
10681SOL     OW32066   2.547   1.012   6.251
10681SOL    HW132067   2.616   0.996   6.321
10681SOL    HW232068   2.474   1.069   6.289
10682SOL     OW32069   2.548   1.161   7.389
10682SOL    HW132070   2.608   1.240   7.403
10682SOL    HW232071   2.462   1.192   7.348
10683SOL     OW32072   2.197   1.435   6.647
10683SOL    HW132073   2.119   1.404   6.594
10683SOL    HW232074   2.255   1.493   6.590
10684SOL     OW32075   3.322   1.505   6.925
10684SOL    HW132076   3.346   1.599   6.951
10684SOL    HW232077   3.306   1.451   7.007
10685SOL     OW32078   2.300   0.392   7.085
10685SOL    HW132079   2.382   0.336   7.094
10685SOL    HW232080   2.219   0.334   7.089
10686SOL     OW32081   3.465   0.447   6.323
10686SOL    HW132082   3.391   0.493   6.273
10686SOL    HW232083   3.516   0.515   6.376
10687SOL     OW32084   2.093   1.713   6.069
10687SOL    HW132085   2.127   1.790   6.123
10687SOL    HW232086   2.137   1.713   5.979
10688SOL     OW32087   2.989   1.341   7.276
10688SOL    HW132088   3.036   1.341   7.364
10688SOL    HW232089   2.941   1.254   7.265
10689SOL     OW32090   2.092   1.434   6.124
10689SOL    HW132091   2.066   1.530   6.124
10689SOL    HW232092   2.021   1.380   6.169
10690SOL     OW32093   2.102   1.091   6.472
10690SOL    HW132094   2.116   1.007   6.524
10690SOL    HW232095   2.047   1.155   6.527
10691SOL     OW32096   2.482   1.786   7.025
10691SOL    HW132097   2.390   1.769   7.060
10691SOL    HW232098   2.510   1.878   7.051
10692SOL     OW32099   2.468   0.964   5.709
10692SOL    HW132100   2.475   1.048   5.655
10692SOL    HW232101   2.514   0.977   5.797
10693SOL     OW32102   3.456   0.114   7.066
10693SOL    HW132103   3.438   0.181   6.994
10693SOL    HW232104   3.453   0.160   7.155
10694SOL     OW32105   1.984   0.643   6.149
10694SOL    HW132106   1.939   0.555   6.166
10694SOL    HW232107   1.983   0.697   6.233
10695SOL     OW32108   3.704   1.767   5.945
10695SOL    HW132109   3.758   1.738   6.025
10695SOL    HW232110   3.734   1.857   5.916
10696SOL     OW32111   1.889   1.596   5.703
10696SOL    HW132112   1.870   1.500   5.724
10696SOL    HW232113   1.856   1.654   5.778
10697SOL     OW32114   3.551   0.922   6.198
10697SOL    HW132115   3.646   0.893   6.206
10697SOL    HW232116   3.543   0.987   6.123
10698SOL     OW32117   3.503   1.108   6.018
10698SOL    HW132118   3.589   1.110   5.966
10698SOL    HW232119   3.517   1.155   6.106
10699SOL     OW32120   1.975   0.737   7.183
10699SOL    HW132121   2.063   0.724   7.228
10699SOL    HW232122   1.962   0.834   7.161
10700SOL     OW32123   2.475   1.365   6.312
10700SOL    HW132124   2.426   1.278   6.321
10700SOL    HW232125   2.452   1.408   6.225
10701SOL     OW32126   3.155   1.228   7.009
10701SOL    HW132127   3.192   1.155   6.951
10701SOL    HW232128   3.207   1.233   7.094
10702SOL     OW32129   2.671   0.004   6.088
10702SOL    HW132130   2.711   0.095   6.079
10702SOL    HW232131   2.571   0.012   6.094
10703SOL     OW32132   2.059   0.976   6.850
10703SOL    HW132133   2.148   0.931   6.836
10703SOL    HW232134   1.986   0.911   6.831
10704SOL     OW32135   3.387   0.999   5.776
10704SOL    HW132136   3.324   0.923   5.789
10704SOL    HW232137   3.435   1.017   5.862
10705SOL     OW32138   3.049   1.792   7.202
10705SOL    HW132139   3.073   1.852   7.126
10705SOL    HW232140   3.056   1.697   7.172
10706SOL     OW32141   2.179   0.251   7.387
10706SOL    HW132142   2.250   0.322   7.393
10706SOL    HW232143   2.091   0.290   7.415
10707SOL     OW32144   3.328   1.417   6.539
10707SOL    HW132145   3.269   1.423   6.619
10707SOL    HW232146   3.313   1.329   6.493
10708SOL     OW32147   3.529   1.714   6.158
10708SOL    HW132148   3.488   1.691   6.070
10708SOL    HW232149   3.511   1.640   6.223
10709SOL     OW32150   2.460   0.729   5.856
10709SOL    HW132151   2.484   0.798   5.788
10709SOL    HW232152   2.382   0.762   5.910
10710SOL     OW32153   3.143   0.345   6.530
10710SOL    HW132154   3.057   0.295   6.517
10710SOL    HW232155   3.205   0.291   6.586
10711SOL     OW32156   3.438   1.662   5.893
10711SOL    HW132157   3.527   1.708   5.896
10711SOL    HW232158   3.417   1.638   5.798
10712SOL     OW32159   2.669   0.605   7.051
10712SOL    HW132160   2.622   0.602   7.140
10712SOL    HW232161   2.618   0.550   6.985
10713SOL     OW32162   3.256   0.469   7.260
10713SOL    HW132163   3.236   0.512   7.348
10713SOL    HW232164   3.334   0.407   7.269
10714SOL     OW32165   2.835   0.890   7.158
10714SOL    HW132166   2.881   0.806   7.129
10714SOL    HW232167   2.779   0.924   7.083
10715SOL     OW32168   2.853   0.410   6.828
10715SOL    HW132169   2.776   0.444   6.882
10715SOL    HW232170   2.819   0.359   6.749
10716SOL     OW32171   2.903   0.701   6.015
10716SOL    HW132172   2.929   0.697   6.111
10716SOL    HW232173   2.818   0.650   6.001
10717SOL     OW32174   1.938   0.811   6.375
10717SOL    HW132175   2.037   0.799   6.384
10717SOL    HW232176   1.914   0.906   6.396
10718SOL     OW32177   1.992   1.821   7.157
10718SOL    HW132178   1.982   1.806   7.256
10718SOL    HW232179   1.906   1.857   7.121
10719SOL     OW32180   2.727   0.348   5.781
10719SOL    HW132181   2.786   0.411   5.732
10719SOL    HW232182   2.746   0.254   5.752
10720SOL     OW32183   3.581   0.585   7.417
10720SOL    HW132184   3.555   0.674   7.381
10720SOL    HW232185   3.579   0.517   7.344
10721SOL     OW32186   3.224   1.144   6.131
10721SOL    HW132187   3.307   1.115   6.083
10721SOL    HW232188   3.175   1.211   6.075
10722SOL     OW32189   2.412   0.196   6.471
10722SOL    HW132190   2.407   0.191   6.571
10722SOL    HW232191   2.414   0.292   6.442
10723SOL     OW32192   2.870   1.456   6.063
10723SOL    HW132193   2.824   1.528   6.011
10723SOL    HW232194   2.866   1.476   6.161
10724SOL     OW32195   2.213   1.801   6.439
10724SOL    HW132196   2.263   1.715   6.445
10724SOL    HW232197   2.278   1.878   6.436
10725SOL     OW32198   3.657   1.066   6.459
10725SOL    HW132199   3.595   1.051   6.383
10725SOL    HW232200   3.605   1.077   6.544
10726SOL     OW32201   3.089   1.550   7.092
10726SOL    HW132202   3.095   1.473   7.156
10726SOL    HW232203   3.037   1.524   7.012
10727SOL     OW32204   2.183   0.943   5.828
10727SOL    HW132205   2.265   0.982   5.786
10727SOL    HW232206   2.156   0.861   5.779
10728SOL     OW32207   3.320   0.735   6.314
10728SOL    HW132208   3.315   0.670   6.389
10728SOL    HW232209   3.400   0.794   6.327
10729SOL     OW32210   2.323   1.266   7.313
10729SOL    HW132211   2.273   1.267   7.227
10729SOL    HW232212   2.260   1.248   7.389
10730SOL     OW32213   2.973   1.776   5.823
10730SOL    HW132214   2.913   1.714   5.873
10730SOL    HW232215   3.004   1.732   5.738
10731SOL     OW32216   2.064   0.285   7.084
10731SOL    HW132217   1.984   0.345   7.071
10731SOL    HW232218   2.054   0.236   7.170
10732SOL     OW32219   3.494   1.377   5.667
10732SOL    HW132220   3.462   1.471   5.657
10732SOL    HW232221   3.418   1.314   5.655
10733SOL     OW32222   2.326   1.743   5.909
10733SOL    HW132223   2.359   1.782   5.995
10733SOL    HW232224   2.402   1.736   5.844
10734SOL     OW32225   3.262   0.107   6.012
10734SOL    HW132226   3.238   0.070   5.922
10734SOL    HW232227   3.361   0.123   6.016
10735SOL     OW32228   2.111   1.785   6.827
10735SOL    HW132229   2.168   1.720   6.877
10735SOL    HW232230   2.095   1.752   6.734
10736SOL     OW32231   2.802   1.698   6.490
10736SOL    HW132232   2.882   1.641   6.511
10736SOL    HW232233   2.753   1.658   6.413
10737SOL     OW32234   2.244   0.700   6.066
10737SOL    HW132235   2.289   0.610   6.063
10737SOL    HW232236   2.150   0.689   6.099
10738SOL     OW32237   3.409   0.222   7.315
10738SOL    HW132238   3.404   0.259   7.407
10738SOL    HW232239   3.337   0.153   7.303
10739SOL     OW32240   2.476   0.122   5.703
10739SOL    HW132241   2.574   0.100   5.710
10739SOL    HW232242   2.445   0.105   5.610
10740SOL     OW32243   2.643   0.264   7.335
10740SOL    HW132244   2.710   0.203   7.378
10740SOL    HW232245   2.570   0.283   7.400
10741SOL     OW32246   2.750   1.514   6.781
10741SOL    HW132247   2.727   1.489   6.687
10741SOL    HW232248   2.811   1.445   6.820
10742SOL     OW32249   3.213   0.590   7.019
10742SOL    HW132250   3.241   0.547   7.104
10742SOL    HW232251   3.238   0.686   7.020
10743SOL     OW32252   2.665   1.402   6.510
10743SOL    HW132253   2.755   1.416   6.468
10743SOL    HW232254   2.594   1.404   6.439
10744SOL     OW32255   2.784   0.503   6.485
10744SOL    HW132256   2.759   0.494   6.389
10744SOL    HW232257   2.832   0.421   6.516
10745SOL     OW32258   2.401   0.064   6.098
10745SOL    HW132259   2.320   0.065   6.156
10745SOL    HW232260   2.404   0.147   6.043
10746SOL     OW32261   3.296   1.188   5.627
10746SOL    HW132262   3.328   1.112   5.684
10746SOL    HW232263   3.204   1.215   5.657
10747SOL     OW32264   2.159   0.035   5.757
10747SOL    HW132265   2.208   0.119   5.736
10747SOL    HW232266   2.221  -0.030   5.802
10748SOL     OW32267   2.797   0.236   6.066
10748SOL    HW132268   2.749   0.277   5.988
10748SOL    HW232269   2.896   0.234   6.047
10749SOL     OW32270   2.938   0.683   7.050
10749SOL    HW132271   2.858   0.622   7.053
10749SOL    HW232272   3.019   0.630   7.026
10750SOL     OW32273   3.089   1.570   6.379
10750SOL    HW132274   3.110   1.644   6.314
10750SOL    HW232275   3.157   1.570   6.452
10751SOL     OW32276   2.321   1.152   6.327
10751SOL    HW132277   2.250   1.125   6.392
10751SOL    HW232278   2.295   1.124   6.234
10752SOL     OW32279   3.133   1.797   6.177
10752SOL    HW132280   3.177   1.861   6.113
10752SOL    HW232281   3.083   1.849   6.247
10753SOL     OW32282   2.894   0.549   5.602
10753SOL    HW132283   2.853   0.631   5.563
10753SOL    HW232284   2.958   0.575   5.675
10754SOL     OW32285   1.940   0.556   6.972
10754SOL    HW132286   2.032   0.555   6.931
10754SOL    HW232287   1.934   0.630   7.039
10755SOL     OW32288   2.423   0.222   6.733
10755SOL    HW132289   2.461   0.138   6.770
10755SOL    HW232290   2.335   0.241   6.777
10756SOL     OW32291   2.728   0.454   6.228
10756SOL    HW132292   2.696   0.526   6.166
10756SOL    HW232293   2.752   0.373   6.175
10757SOL     OW32294   2.879   0.039   6.339
10757SOL    HW132295   2.807   0.044   6.270
10757SOL    HW232296   2.855  -0.030   6.408
10758SOL     OW32297   3.291   1.173   6.453
10758SOL    HW132298   3.236   1.089   6.446
10758SOL    HW232299   3.317   1.202   6.361
10759SOL     OW32300   3.328   0.590   6.578
10759SOL    HW132301   3.298   0.495   6.585
10759SOL    HW232302   3.401   0.606   6.644
10760SOL     OW32303   3.719   0.833   5.963
10760SOL    HW132304   3.761   0.769   6.027
10760SOL    HW232305   3.681   0.782   5.885
10761SOL     OW32306   2.350   1.385   5.760
10761SOL    HW132307   2.263   1.370   5.807
10761SOL    HW232308   2.333   1.411   5.665
10762SOL     OW32309   3.526   1.280   6.243
10762SOL    HW132310   3.625   1.288   6.257
10762SOL    HW232311   3.481   1.364   6.274
10763SOL     OW32312   3.252   0.575   5.664
10763SOL    HW132313   3.198   0.554   5.745
10763SOL    HW232314   3.343   0.534   5.673
10764SOL     OW32315   2.389   0.256   5.914
10764SOL    HW132316   2.416   0.197   5.839
10764SOL    HW232317   2.389   0.351   5.883
10765SOL     OW32318   3.616   1.223   7.174
10765SOL    HW132319   3.707   1.184   7.161
10765SOL    HW232320   3.624   1.319   7.198
10766SOL     OW32321   2.926   1.347   6.926
10766SOL    HW132322   2.846   1.324   6.981
10766SOL    HW232323   3.009   1.321   6.975
10767SOL     OW32324   3.454   1.629   7.211
10767SOL    HW132325   3.481   1.663   7.121
10767SOL    HW232326   3.533   1.591   7.257
10768SOL     OW32327   2.973   1.195   6.686
10768SOL    HW132328   2.933   1.239   6.767
10768SOL    HW232329   2.932   1.232   6.603
10769SOL     OW32330   3.500   1.099   6.665
10769SOL    HW132331   3.505   1.180   6.724
10769SOL    HW232332   3.414   1.101   6.614
10770SOL     OW32333   2.777   0.089   6.988
10770SOL    HW132334   2.802   0.069   6.893
10770SOL    HW232335   2.849   0.145   7.030
10771SOL     OW32336   2.842   1.116   7.305
10771SOL    HW132337   2.743   1.122   7.315
10771SOL    HW232338   2.865   1.036   7.249
10772SOL     OW32339   2.567   1.050   5.954
10772SOL    HW132340   2.553   1.057   6.053
10772SOL    HW232341   2.651   0.999   5.936
10773SOL     OW32342   2.272   0.813   6.837
10773SOL    HW132343   2.358   0.825   6.887
10773SOL    HW232344   2.230   0.726   6.864
10774SOL     OW32345   3.136   0.386   6.848
10774SOL    HW132346   3.157   0.460   6.912
10774SOL    HW232347   3.047   0.403   6.805
10775SOL     OW32348   1.926   1.564   6.917
10775SOL    HW132349   1.880   1.646   6.883
10775SOL    HW232350   2.024   1.583   6.926
10776SOL     OW32351   2.229   1.100   6.087
10776SOL    HW132352   2.222   1.183   6.031
10776SOL    HW232353   2.233   1.020   6.027
10777SOL     OW32354   2.428   0.537   6.451
10777SOL    HW132355   2.440   0.603   6.377
10777SOL    HW232356   2.474   0.571   6.534
10778SOL     OW32357   3.114   1.348   5.974
10778SOL    HW132358   3.164   1.425   6.014
10778SOL    HW232359   3.019   1.350   6.006
10779SOL     OW32360   3.134   1.445   6.728
10779SOL    HW132361   3.181   1.458   6.815
10779SOL    HW232362   3.068   1.371   6.737
10780SOL     OW32363   3.444   0.639   6.058
10780SOL    HW132364   3.413   0.700   6.131
10780SOL    HW232365   3.494   0.691   5.989
10781SOL     OW32366   2.216   1.510   6.915
10781SOL    HW132367   2.195   1.466   6.828
10781SOL    HW232368   2.313   1.536   6.918
10782SOL     OW32369   2.264   0.751   7.184
10782SOL    HW132370   2.332   0.806   7.137
10782SOL    HW232371   2.304   0.663   7.211
10783SOL     OW32372   3.449   0.779   7.256
10783SOL    HW132373   3.357   0.817   7.251
10783SOL    HW232374   3.509   0.826   7.191
10784SOL     OW32375   2.875   0.105   7.356
10784SOL    HW132376   2.881   0.190   7.304
10784SOL    HW232377   2.907   0.029   7.299
10785SOL     OW32378   2.366   0.050   7.326
10785SOL    HW132379   2.324  -0.007   7.256
10785SOL    HW232380   2.300   0.119   7.358
10786SOL     OW32381   2.435   0.870   6.615
10786SOL    HW132382   2.479   0.959   6.606
10786SOL    HW232383   2.372   0.870   6.692
10787SOL     OW32384   3.222   0.862   6.631
10787SOL    HW132385   3.147   0.862   6.565
10787SOL    HW232386   3.259   0.770   6.640
10788SOL     OW32387   3.071   0.525   5.861
10788SOL    HW132388   3.084   0.441   5.915
10788SOL    HW232389   3.042   0.599   5.921
10789SOL     OW32390   2.169   0.213   6.817
10789SOL    HW132391   2.146   0.250   6.907
10789SOL    HW232392   2.139   0.118   6.811
10790SOL     OW32393   1.899   1.310   6.868
10790SOL    HW132394   1.952   1.261   6.936
10790SOL    HW232395   1.921   1.408   6.873
10791SOL     OW32396   2.594   0.634   6.650
10791SOL    HW132397   2.653   0.608   6.574
10791SOL    HW232398   2.566   0.730   6.639
10792SOL     OW32399   3.590   0.935   7.440
10792SOL    HW132400   3.544   0.928   7.351
10792SOL    HW232401   3.528   0.979   7.506
10793SOL     OW32402   2.169   0.063   6.204
10793SOL    HW132403   2.158   0.157   6.237
10793SOL    HW232404   2.164   0.000   6.281
10794SOL     OW32405   3.484   0.367   5.960
10794SOL    HW132406   3.486   0.291   6.024
10794SOL    HW232407   3.436   0.444   6.000
10795SOL     OW32408   2.885   0.766   6.552
10795SOL    HW132409   2.900   0.787   6.648
10795SOL    HW232410   2.855   0.671   6.543
10796SOL     OW32411   2.842   1.573   7.286
10796SOL    HW132412   2.822   1.617   7.198
10796SOL    HW232413   2.881   1.482   7.270
10797SOL     OW32414   3.721   1.518   7.191
10797SOL    HW132415   3.735   1.545   7.096
10797SOL    HW232416   3.804   1.540   7.244
10798SOL     OW32417   2.212   0.898   7.390
10798SOL    HW132418   2.288   0.942   7.438
10798SOL    HW232419   2.247   0.851   7.308
10799SOL     OW32420   3.402   0.274   5.711
10799SOL    HW132421   3.341   0.199   5.734
10799SOL    HW232422   3.424   0.326   5.794
10800SOL     OW32423   3.165   0.838   5.628
10800SOL    HW132424   3.199   0.745   5.643
10800SOL    HW232425   3.183   0.865   5.533
10801SOL     OW32426   2.930   1.333   6.435
10801SOL    HW132427   2.937   1.249   6.380
10801SOL    HW232428   2.992   1.402   6.399
10802SOL     OW32429   2.181   0.810   6.535
10802SOL    HW132430   2.274   0.846   6.540
10802SOL    HW232431   2.175   0.725   6.587
10803SOL     OW32432   2.201   0.509   6.592
10803SOL    HW132433   2.149   0.426   6.575
10803SOL    HW232434   2.278   0.514   6.528
10804SOL     OW32435   3.000   0.380   7.264
10804SOL    HW132436   2.955   0.443   7.328
10804SOL    HW232437   3.093   0.411   7.247
10805SOL     OW32438   3.022   0.207   7.063
10805SOL    HW132439   3.022   0.271   7.140
10805SOL    HW232440   3.050   0.255   6.980
10806SOL     OW32441   1.870   1.326   5.786
10806SOL    HW132442   1.777   1.347   5.755
10806SOL    HW232443   1.880   1.227   5.799
10807SOL     OW32444   1.950   1.801   6.513
10807SOL    HW132445   1.908   1.715   6.486
10807SOL    HW232446   2.044   1.804   6.479
10808SOL     OW32447   2.366   1.568   6.496
10808SOL    HW132448   2.432   1.642   6.505
10808SOL    HW232449   2.410   1.489   6.454
10809SOL     OW32450   2.864   0.796   6.824
10809SOL    HW132451   2.905   0.764   6.910
10809SOL    HW232452   2.768   0.769   6.821
10810SOL     OW32453   1.902   0.544   6.700
10810SOL    HW132454   1.987   0.511   6.659
10810SOL    HW232455   1.915   0.559   6.798
10811SOL     OW32456   2.051   0.520   7.308
10811SOL    HW132457   2.110   0.480   7.238
10811SOL    HW232458   1.993   0.591   7.267
10812SOL     OW32459   3.231   0.950   7.246
10812SOL    HW132460   3.270   1.039   7.266
10812SOL    HW232461   3.241   0.930   7.149
10813SOL     OW32462   2.677   0.572   5.911
10813SOL    HW132463   2.684   0.483   5.865
10813SOL    HW232464   2.583   0.606   5.903
10814SOL     OW32465   3.519   0.604   6.792
10814SOL    HW132466   3.481   0.535   6.854
10814SOL    HW232467   3.601   0.568   6.748
10815SOL     OW32468   2.114   1.564   7.330
10815SOL    HW132469   2.084   1.621   7.406
10815SOL    HW232470   2.107   1.467   7.356
10816SOL     OW32471   2.533   0.464   6.855
10816SOL    HW132472   2.499   0.375   6.825
10816SOL    HW232473   2.559   0.518   6.775
10817SOL     OW32474   2.792   1.678   7.051
10817SOL    HW132475   2.768   1.660   6.956
10817SOL    HW232476   2.822   1.772   7.061
10818SOL     OW32477   2.335   0.500   5.777
10818SOL    HW132478   2.396   0.580   5.781
10818SOL    HW232479   2.240   0.531   5.784
10819SOL     OW32480   2.021   1.137   7.052
10819SOL    HW132481   2.043   1.076   7.128
10819SOL    HW232482   2.031   1.088   6.966
10820SOL     OW32483   3.209   1.059   6.820
10820SOL    HW132484   3.233   0.996   6.746
10820SOL    HW232485   3.119   1.099   6.802
10821SOL     OW32486   3.164   0.855   5.895
10821SOL    HW132487   3.078   0.824   5.937
10821SOL    HW232488   3.160   0.841   5.796
10822SOL     OW32489   3.621   1.747   6.740
10822SOL    HW132490   3.682   1.777   6.667
10822SOL    HW232491   3.583   1.658   6.718
10823SOL     OW32492   3.114   1.731   6.714
10823SOL    HW132493   3.198   1.736   6.660
10823SOL    HW232494   3.091   1.635   6.732
10824SOL     OW32495   1.945   1.258   6.608
10824SOL    HW132496   1.940   1.257   6.708
10824SOL    HW232497   1.862   1.217   6.570
10825SOL     OW32498   2.550   1.662   7.302
10825SOL    HW132499   2.494   1.743   7.311
10825SOL    HW232500   2.602   1.666   7.216
10826SOL     OW32501   3.588   0.135   6.109
10826SOL    HW132502   3.661   0.118   6.042
10826SOL    HW232503   3.557   0.048   6.147
10827SOL     OW32504   3.250   1.573   6.063
10827SOL    HW132505   3.317   1.585   5.989
10827SOL    HW232506   3.210   1.662   6.086
10828SOL     OW32507   1.992   1.794   7.437
10828SOL    HW132508   1.951   1.720   7.490
10828SOL    HW232509   2.056   1.845   7.495
10829SOL     OW32510   3.142   0.927   6.258
10829SOL    HW132511   3.202   0.846   6.260
10829SOL    HW232512   3.182   0.996   6.198
10830SOL     OW32513   2.692   1.273   7.008
10830SOL    HW132514   2.687   1.306   7.103
10830SOL    HW232515   2.606   1.292   6.962
10831SOL     OW32516   2.534   1.616   5.740
10831SOL    HW132517   2.543   1.626   5.641
10831SOL    HW232518   2.494   1.527   5.761
10832SOL     OW32519   3.512   1.720   6.980
10832SOL    HW132520   3.565   1.730   6.896
10832SOL    HW232521   3.485   1.810   7.014
10833SOL     OW32522   3.703   0.175   6.549
10833SOL    HW132523   3.742   0.090   6.513
10833SOL    HW232524   3.605   0.177   6.530
10834SOL     OW32525   2.125   0.326   6.306
10834SOL    HW132526   2.046   0.377   6.272
10834SOL    HW232527   2.116   0.311   6.404
10835SOL     OW32528   3.056   1.612   5.617
10835SOL    HW132529   3.062   1.519   5.654
10835SOL    HW232530   2.997   1.612   5.537
10836SOL     OW32531   2.684   1.002   6.958
10836SOL    HW132532   2.724   1.001   6.866
10836SOL    HW232533   2.694   1.094   6.998
10837SOL     OW32534   2.778   0.910   5.877
10837SOL    HW132535   2.841   0.948   5.809
10837SOL    HW232536   2.818   0.827   5.916
10838SOL     OW32537   3.366   1.607   5.630
10838SOL    HW132538   3.274   1.644   5.637
10838SOL    HW232539   3.404   1.627   5.540
10839SOL     OW32540   2.234   1.288   7.076
10839SOL    HW132541   2.221   1.381   7.042
10839SOL    HW232542   2.150   1.236   7.063
10840SOL     OW32543   3.476   1.292   6.875
10840SOL    HW132544   3.536   1.295   6.955
10840SOL    HW232545   3.401   1.356   6.888
10841SOL     OW32546   2.901   1.098   6.282
10841SOL    HW132547   2.831   1.051   6.336
10841SOL    HW232548   2.960   1.030   6.239
10842SOL     OW32549   2.876   0.236   6.557
10842SOL    HW132550   2.868   0.200   6.464
10842SOL    HW232551   2.874   0.160   6.622
10843SOL     OW32552   2.452   1.487   6.077
10843SOL    HW132553   2.494   1.429   6.007
10843SOL    HW232554   2.408   1.566   6.033
10844SOL     OW32555   3.571   0.385   6.967
10844SOL    HW132556   3.644   0.454   6.971
10844SOL    HW232557   3.599   0.310   6.908
10845SOL     OW32558   2.117   1.348   5.876
10845SOL    HW132559   2.021   1.349   5.849
10845SOL    HW232560   2.129   1.401   5.960
10846SOL     OW32561   1.967   1.013   7.312
10846SOL    HW132562   1.890   0.980   7.366
10846SOL    HW232563   2.052   0.983   7.354
10847SOL     OW32564   2.534   0.203   7.075
10847SOL    HW132565   2.624   0.187   7.035
10847SOL    HW232566   2.542   0.208   7.174
10848SOL     OW32567   1.937   0.345   5.619
10848SOL    HW132568   1.845   0.317   5.590
10848SOL    HW232569   1.968   0.422   5.563
10849SOL     OW32570   3.302   0.856   6.984
10849SOL    HW132571   3.245   0.908   6.921
10849SOL    HW232572   3.398   0.868   6.960
10850SOL     OW32573   1.934   0.166   5.904
10850SOL    HW132574   1.917   0.249   5.850
10850SOL    HW232575   2.024   0.129   5.882
10851SOL     OW32576   3.045   1.335   5.705
10851SOL    HW132577   2.946   1.324   5.707
10851SOL    HW232578   3.079   1.350   5.798
10852SOL     OW32579   2.475   0.842   7.017
10852SOL    HW132580   2.531   0.923   7.000
10852SOL    HW232581   2.534   0.762   7.020
10853SOL     OW32582   3.355   1.767   6.545
10853SOL    HW132583   3.388   1.831   6.476
10853SOL    HW232584   3.421   1.761   6.620
10854SOL     OW32585   2.578   0.565   7.294
10854SOL    HW132586   2.597   0.630   7.368
10854SOL    HW232587   2.638   0.485   7.303
10855SOL     OW32588   3.312   1.220   7.219
10855SOL    HW132589   3.303   1.210   7.318
10855SOL    HW232590   3.408   1.213   7.193
10856SOL     OW32591   2.252   1.741   7.146
10856SOL    HW132592   2.161   1.782   7.144
10856SOL    HW232593   2.245   1.647   7.178
10857SOL     OW32594   3.536   0.883   6.840
10857SOL    HW132595   3.509   0.794   6.803
10857SOL    HW232596   3.537   0.951   6.767
10858SOL     OW32597   3.087   0.325   6.035
10858SOL    HW132598   3.152   0.251   6.024
10858SOL    HW232599   3.107   0.375   6.119
10859SOL     OW32600   2.456   0.745   6.238
10859SOL    HW132601   2.506   0.830   6.219
10859SOL    HW232602   2.368   0.747   6.190
10860SOL     OW32603   3.639   0.342   7.228
10860SOL    HW132604   3.622   0.373   7.134
10860SOL    HW232605   3.555   0.305   7.266
10861SOL     OW32606   3.592   0.934   7.103
10861SOL    HW132607   3.630   1.025   7.118
10861SOL    HW232608   3.584   0.917   7.004
10862SOL     OW32609   2.721   1.374   5.602
10862SOL    HW132610   2.675   1.389   5.690
10862SOL    HW232611   2.765   1.459   5.572
10863SOL     OW32612   2.523   1.790   6.539
10863SOL    HW132613   2.477   1.878   6.526
10863SOL    HW232614   2.622   1.802   6.532
10864SOL     OW32615   2.721   0.956   6.447
10864SOL    HW132616   2.775   0.887   6.495
10864SOL    HW232617   2.689   1.025   6.513
10865SOL     OW32618   2.945   0.984   5.673
10865SOL    HW132619   2.922   1.037   5.591
10865SOL    HW232620   3.026   0.928   5.654
10866SOL     OW32621   3.723   1.569   6.437
10866SOL    HW132622   3.652   1.557   6.367
10866SOL    HW232623   3.724   1.490   6.497
10867SOL     OW32624   2.083   1.314   7.430
10867SOL    HW132625   2.018   1.241   7.409
10867SOL    HW232626   2.087   1.328   7.528
10868SOL     OW32627   1.941   1.240   6.239
10868SOL    HW132628   1.940   1.193   6.327
10868SOL    HW232629   2.023   1.212   6.188
10869SOL     OW32630   2.534   1.391   7.210
10869SOL    HW132631   2.456   1.341   7.248
10869SOL    HW232632   2.531   1.486   7.241
10870SOL     OW32633   3.686   0.192   6.813
10870SOL    HW132634   3.682   0.102   6.857
10870SOL    HW232635   3.689   0.181   6.714
10871SOL     OW32636   2.290   0.424   6.106
10871SOL    HW132637   2.320   0.352   6.044
10871SOL    HW232638   2.251   0.384   6.189
10872SOL     OW32639   3.567   1.487   6.690
10872SOL    HW132640   3.474   1.462   6.663
10872SOL    HW232641   3.593   1.437   6.772
10873SOL     OW32642   2.179   0.547   6.866
10873SOL    HW132643   2.217   0.488   6.938
10873SOL    HW232644   2.219   0.521   6.778
10874SOL     OW32645   2.674   1.586   6.273
10874SOL    HW132646   2.706   1.596   6.179
10874SOL    HW232647   2.595   1.524   6.275
10875SOL     OW32648   3.286   0.214   6.698
10875SOL    HW132649   3.338   0.149   6.753
10875SOL    HW232650   3.237   0.277   6.759
10876SOL     OW32651   2.863   0.034   6.740
10876SOL    HW132652   2.800  -0.038   6.709
10876SOL    HW232653   2.956  -0.002   6.740
10877SOL     OW32654   2.632   1.330   5.887
10877SOL    HW132655   2.586   1.243   5.904
10877SOL    HW232656   2.723   1.327   5.928
10878SOL     OW32657   2.480   1.567   6.870
10878SOL    HW132658   2.475   1.649   6.927
10878SOL    HW232659   2.569   1.564   6.825
10879SOL     OW32660   3.214   0.052   5.754
10879SOL    HW132661   3.249   0.011   5.670
10879SOL    HW232662   3.124   0.014   5.774
10880SOL     OW32663   3.162   0.453   6.277
10880SOL    HW132664   3.103   0.533   6.281
10880SOL    HW232665   3.177   0.418   6.370
10881SOL     OW32666   3.455   0.221   6.468
10881SOL    HW132667   3.371   0.220   6.522
10881SOL    HW232668   3.457   0.304   6.412
10882SOL     OW32669   1.901   1.077   5.886
10882SOL    HW132670   2.000   1.066   5.877
10882SOL    HW232671   1.861   0.991   5.918
10883SOL     OW32672   2.737   1.646   5.923
10883SOL    HW132673   2.660   1.611   5.869
10883SOL    HW232674   2.705   1.717   5.985
10884SOL     OW32675   2.092   0.628   7.561
10884SOL    HW132676   1.999   0.626   7.598
10884SOL    HW232677   2.093   0.589   7.469
10885SOL     OW32678   2.087   0.275   8.444
10885SOL    HW132679   2.122   0.258   8.536
10885SOL    HW232680   1.999   0.230   8.432
10886SOL     OW32681   1.881   0.368   8.095
10886SOL    HW132682   1.799   0.411   8.134
10886SOL    HW232683   1.853   0.295   8.032
10887SOL     OW32684   2.431   1.275   8.613
10887SOL    HW132685   2.338   1.268   8.576
10887SOL    HW232686   2.442   1.364   8.657
10888SOL     OW32687   3.417   1.511   8.151
10888SOL    HW132688   3.360   1.495   8.232
10888SOL    HW232689   3.358   1.521   8.071
10889SOL     OW32690   2.997   0.703   8.165
10889SOL    HW132691   3.054   0.781   8.140
10889SOL    HW232692   2.937   0.729   8.241
10890SOL     OW32693   3.617   0.607   7.679
10890SOL    HW132694   3.605   0.594   7.580
10890SOL    HW232695   3.587   0.526   7.728
10891SOL     OW32696   2.630   1.144   8.471
10891SOL    HW132697   2.552   1.161   8.531
10891SOL    HW232698   2.664   1.231   8.435
10892SOL     OW32699   2.712   0.798   9.271
10892SOL    HW132700   2.708   0.874   9.336
10892SOL    HW232701   2.734   0.834   9.180
10893SOL     OW32702   2.547   1.012   8.113
10893SOL    HW132703   2.616   0.996   8.183
10893SOL    HW232704   2.474   1.069   8.151
10894SOL     OW32705   2.548   1.161   9.251
10894SOL    HW132706   2.608   1.240   9.265
10894SOL    HW232707   2.462   1.192   9.210
10895SOL     OW32708   2.197   1.435   8.509
10895SOL    HW132709   2.119   1.404   8.456
10895SOL    HW232710   2.255   1.493   8.452
10896SOL     OW32711   3.322   1.505   8.787
10896SOL    HW132712   3.346   1.599   8.813
10896SOL    HW232713   3.306   1.451   8.869
10897SOL     OW32714   2.300   0.392   8.947
10897SOL    HW132715   2.382   0.336   8.956
10897SOL    HW232716   2.219   0.334   8.951
10898SOL     OW32717   3.465   0.447   8.185
10898SOL    HW132718   3.391   0.493   8.135
10898SOL    HW232719   3.516   0.515   8.238
10899SOL     OW32720   2.093   1.713   7.931
10899SOL    HW132721   2.127   1.790   7.985
10899SOL    HW232722   2.137   1.713   7.841
10900SOL     OW32723   2.989   1.341   9.138
10900SOL    HW132724   3.036   1.341   9.226
10900SOL    HW232725   2.941   1.254   9.127
10901SOL     OW32726   2.092   1.434   7.986
10901SOL    HW132727   2.066   1.530   7.986
10901SOL    HW232728   2.021   1.380   8.031
10902SOL     OW32729   2.102   1.091   8.334
10902SOL    HW132730   2.116   1.007   8.386
10902SOL    HW232731   2.047   1.155   8.389
10903SOL     OW32732   2.482   1.786   8.887
10903SOL    HW132733   2.390   1.769   8.922
10903SOL    HW232734   2.510   1.878   8.913
10904SOL     OW32735   2.468   0.964   7.571
10904SOL    HW132736   2.475   1.048   7.517
10904SOL    HW232737   2.514   0.977   7.659
10905SOL     OW32738   3.456   0.114   8.928
10905SOL    HW132739   3.438   0.181   8.856
10905SOL    HW232740   3.453   0.160   9.017
10906SOL     OW32741   1.984   0.643   8.011
10906SOL    HW132742   1.939   0.555   8.028
10906SOL    HW232743   1.983   0.697   8.095
10907SOL     OW32744   3.704   1.767   7.807
10907SOL    HW132745   3.758   1.738   7.887
10907SOL    HW232746   3.734   1.857   7.778
10908SOL     OW32747   1.889   1.596   7.565
10908SOL    HW132748   1.870   1.500   7.586
10908SOL    HW232749   1.856   1.654   7.640
10909SOL     OW32750   3.551   0.922   8.060
10909SOL    HW132751   3.646   0.893   8.068
10909SOL    HW232752   3.543   0.987   7.985
10910SOL     OW32753   3.503   1.108   7.880
10910SOL    HW132754   3.589   1.110   7.828
10910SOL    HW232755   3.517   1.155   7.968
10911SOL     OW32756   1.975   0.737   9.045
10911SOL    HW132757   2.063   0.724   9.090
10911SOL    HW232758   1.962   0.834   9.023
10912SOL     OW32759   2.475   1.365   8.174
10912SOL    HW132760   2.426   1.278   8.183
10912SOL    HW232761   2.452   1.408   8.087
10913SOL     OW32762   3.155   1.228   8.871
10913SOL    HW132763   3.192   1.155   8.813
10913SOL    HW232764   3.207   1.233   8.956
10914SOL     OW32765   2.671   0.004   7.950
10914SOL    HW132766   2.711   0.095   7.941
10914SOL    HW232767   2.571   0.012   7.956
10915SOL     OW32768   2.059   0.976   8.712
10915SOL    HW132769   2.148   0.931   8.698
10915SOL    HW232770   1.986   0.911   8.693
10916SOL     OW32771   3.387   0.999   7.638
10916SOL    HW132772   3.324   0.923   7.651
10916SOL    HW232773   3.435   1.017   7.724
10917SOL     OW32774   3.049   1.792   9.064
10917SOL    HW132775   3.073   1.852   8.988
10917SOL    HW232776   3.056   1.697   9.034
10918SOL     OW32777   2.179   0.251   9.249
10918SOL    HW132778   2.250   0.322   9.255
10918SOL    HW232779   2.091   0.290   9.277
10919SOL     OW32780   3.328   1.417   8.401
10919SOL    HW132781   3.269   1.423   8.481
10919SOL    HW232782   3.313   1.329   8.355
10920SOL     OW32783   3.529   1.714   8.020
10920SOL    HW132784   3.488   1.691   7.932
10920SOL    HW232785   3.511   1.640   8.085
10921SOL     OW32786   2.460   0.729   7.718
10921SOL    HW132787   2.484   0.798   7.650
10921SOL    HW232788   2.382   0.762   7.772
10922SOL     OW32789   3.143   0.345   8.392
10922SOL    HW132790   3.057   0.295   8.379
10922SOL    HW232791   3.205   0.291   8.448
10923SOL     OW32792   3.438   1.662   7.755
10923SOL    HW132793   3.527   1.708   7.758
10923SOL    HW232794   3.417   1.638   7.660
10924SOL     OW32795   2.669   0.605   8.913
10924SOL    HW132796   2.622   0.602   9.002
10924SOL    HW232797   2.618   0.550   8.847
10925SOL     OW32798   3.256   0.469   9.122
10925SOL    HW132799   3.236   0.512   9.210
10925SOL    HW232800   3.334   0.407   9.131
10926SOL     OW32801   2.835   0.890   9.020
10926SOL    HW132802   2.881   0.806   8.991
10926SOL    HW232803   2.779   0.924   8.945
10927SOL     OW32804   2.853   0.410   8.690
10927SOL    HW132805   2.776   0.444   8.744
10927SOL    HW232806   2.819   0.359   8.611
10928SOL     OW32807   2.903   0.701   7.877
10928SOL    HW132808   2.929   0.697   7.973
10928SOL    HW232809   2.818   0.650   7.863
10929SOL     OW32810   1.938   0.811   8.237
10929SOL    HW132811   2.037   0.799   8.246
10929SOL    HW232812   1.914   0.906   8.258
10930SOL     OW32813   1.992   1.821   9.019
10930SOL    HW132814   1.982   1.806   9.118
10930SOL    HW232815   1.906   1.857   8.983
10931SOL     OW32816   2.727   0.348   7.643
10931SOL    HW132817   2.786   0.411   7.594
10931SOL    HW232818   2.746   0.254   7.614
10932SOL     OW32819   3.581   0.585   9.279
10932SOL    HW132820   3.555   0.674   9.243
10932SOL    HW232821   3.579   0.517   9.206
10933SOL     OW32822   3.224   1.144   7.993
10933SOL    HW132823   3.307   1.115   7.945
10933SOL    HW232824   3.175   1.211   7.937
10934SOL     OW32825   2.412   0.196   8.333
10934SOL    HW132826   2.407   0.191   8.433
10934SOL    HW232827   2.414   0.292   8.304
10935SOL     OW32828   2.870   1.456   7.925
10935SOL    HW132829   2.824   1.528   7.873
10935SOL    HW232830   2.866   1.476   8.023
10936SOL     OW32831   2.213   1.801   8.301
10936SOL    HW132832   2.263   1.715   8.307
10936SOL    HW232833   2.278   1.878   8.298
10937SOL     OW32834   3.657   1.066   8.321
10937SOL    HW132835   3.595   1.051   8.245
10937SOL    HW232836   3.605   1.077   8.406
10938SOL     OW32837   3.089   1.550   8.954
10938SOL    HW132838   3.095   1.473   9.018
10938SOL    HW232839   3.037   1.524   8.874
10939SOL     OW32840   2.183   0.943   7.690
10939SOL    HW132841   2.265   0.982   7.648
10939SOL    HW232842   2.156   0.861   7.641
10940SOL     OW32843   3.320   0.735   8.176
10940SOL    HW132844   3.315   0.670   8.251
10940SOL    HW232845   3.400   0.794   8.189
10941SOL     OW32846   2.323   1.266   9.175
10941SOL    HW132847   2.273   1.267   9.089
10941SOL    HW232848   2.260   1.248   9.251
10942SOL     OW32849   2.973   1.776   7.685
10942SOL    HW132850   2.913   1.714   7.735
10942SOL    HW232851   3.004   1.732   7.600
10943SOL     OW32852   2.064   0.285   8.946
10943SOL    HW132853   1.984   0.345   8.933
10943SOL    HW232854   2.054   0.236   9.032
10944SOL     OW32855   3.494   1.377   7.529
10944SOL    HW132856   3.462   1.471   7.519
10944SOL    HW232857   3.418   1.314   7.517
10945SOL     OW32858   2.326   1.743   7.771
10945SOL    HW132859   2.359   1.782   7.857
10945SOL    HW232860   2.402   1.736   7.706
10946SOL     OW32861   3.262   0.107   7.874
10946SOL    HW132862   3.238   0.070   7.784
10946SOL    HW232863   3.361   0.123   7.878
10947SOL     OW32864   2.111   1.785   8.689
10947SOL    HW132865   2.168   1.720   8.739
10947SOL    HW232866   2.095   1.752   8.596
10948SOL     OW32867   2.802   1.698   8.352
10948SOL    HW132868   2.882   1.641   8.373
10948SOL    HW232869   2.753   1.658   8.275
10949SOL     OW32870   2.244   0.700   7.928
10949SOL    HW132871   2.289   0.610   7.925
10949SOL    HW232872   2.150   0.689   7.961
10950SOL     OW32873   3.409   0.222   9.177
10950SOL    HW132874   3.404   0.259   9.269
10950SOL    HW232875   3.337   0.153   9.165
10951SOL     OW32876   2.476   0.122   7.565
10951SOL    HW132877   2.574   0.100   7.572
10951SOL    HW232878   2.445   0.105   7.472
10952SOL     OW32879   2.643   0.264   9.197
10952SOL    HW132880   2.710   0.203   9.240
10952SOL    HW232881   2.570   0.283   9.262
10953SOL     OW32882   2.750   1.514   8.643
10953SOL    HW132883   2.727   1.489   8.549
10953SOL    HW232884   2.811   1.445   8.682
10954SOL     OW32885   3.213   0.590   8.881
10954SOL    HW132886   3.241   0.547   8.966
10954SOL    HW232887   3.238   0.686   8.882
10955SOL     OW32888   2.665   1.402   8.372
10955SOL    HW132889   2.755   1.416   8.330
10955SOL    HW232890   2.594   1.404   8.301
10956SOL     OW32891   2.784   0.503   8.347
10956SOL    HW132892   2.759   0.494   8.251
10956SOL    HW232893   2.832   0.421   8.378
10957SOL     OW32894   2.401   0.064   7.960
10957SOL    HW132895   2.320   0.065   8.018
10957SOL    HW232896   2.404   0.147   7.905
10958SOL     OW32897   3.296   1.188   7.489
10958SOL    HW132898   3.328   1.112   7.546
10958SOL    HW232899   3.204   1.215   7.519
10959SOL     OW32900   2.159   0.035   7.619
10959SOL    HW132901   2.208   0.119   7.598
10959SOL    HW232902   2.221  -0.030   7.664
10960SOL     OW32903   2.797   0.236   7.928
10960SOL    HW132904   2.749   0.277   7.850
10960SOL    HW232905   2.896   0.234   7.909
10961SOL     OW32906   2.938   0.683   8.912
10961SOL    HW132907   2.858   0.622   8.915
10961SOL    HW232908   3.019   0.630   8.888
10962SOL     OW32909   3.089   1.570   8.241
10962SOL    HW132910   3.110   1.644   8.176
10962SOL    HW232911   3.157   1.570   8.314
10963SOL     OW32912   2.321   1.152   8.189
10963SOL    HW132913   2.250   1.125   8.254
10963SOL    HW232914   2.295   1.124   8.096
10964SOL     OW32915   3.133   1.797   8.039
10964SOL    HW132916   3.177   1.861   7.975
10964SOL    HW232917   3.083   1.849   8.109
10965SOL     OW32918   2.894   0.549   7.464
10965SOL    HW132919   2.853   0.631   7.425
10965SOL    HW232920   2.958   0.575   7.537
10966SOL     OW32921   1.940   0.556   8.834
10966SOL    HW132922   2.032   0.555   8.793
10966SOL    HW232923   1.934   0.630   8.901
10967SOL     OW32924   2.423   0.222   8.595
10967SOL    HW132925   2.461   0.138   8.632
10967SOL    HW232926   2.335   0.241   8.639
10968SOL     OW32927   2.728   0.454   8.090
10968SOL    HW132928   2.696   0.526   8.028
10968SOL    HW232929   2.752   0.373   8.037
10969SOL     OW32930   2.879   0.039   8.201
10969SOL    HW132931   2.807   0.044   8.132
10969SOL    HW232932   2.855  -0.030   8.270
10970SOL     OW32933   3.291   1.173   8.315
10970SOL    HW132934   3.236   1.089   8.308
10970SOL    HW232935   3.317   1.202   8.223
10971SOL     OW32936   3.328   0.590   8.440
10971SOL    HW132937   3.298   0.495   8.447
10971SOL    HW232938   3.401   0.606   8.506
10972SOL     OW32939   3.719   0.833   7.825
10972SOL    HW132940   3.761   0.769   7.889
10972SOL    HW232941   3.681   0.782   7.747
10973SOL     OW32942   2.350   1.385   7.622
10973SOL    HW132943   2.263   1.370   7.669
10973SOL    HW232944   2.333   1.411   7.527
10974SOL     OW32945   3.526   1.280   8.105
10974SOL    HW132946   3.625   1.288   8.119
10974SOL    HW232947   3.481   1.364   8.136
10975SOL     OW32948   3.252   0.575   7.526
10975SOL    HW132949   3.198   0.554   7.607
10975SOL    HW232950   3.343   0.534   7.535
10976SOL     OW32951   2.389   0.256   7.776
10976SOL    HW132952   2.416   0.197   7.701
10976SOL    HW232953   2.389   0.351   7.745
10977SOL     OW32954   3.616   1.223   9.036
10977SOL    HW132955   3.707   1.184   9.023
10977SOL    HW232956   3.624   1.319   9.060
10978SOL     OW32957   2.926   1.347   8.788
10978SOL    HW132958   2.846   1.324   8.843
10978SOL    HW232959   3.009   1.321   8.837
10979SOL     OW32960   3.454   1.629   9.073
10979SOL    HW132961   3.481   1.663   8.983
10979SOL    HW232962   3.533   1.591   9.119
10980SOL     OW32963   2.973   1.195   8.548
10980SOL    HW132964   2.933   1.239   8.629
10980SOL    HW232965   2.932   1.232   8.465
10981SOL     OW32966   3.500   1.099   8.527
10981SOL    HW132967   3.505   1.180   8.586
10981SOL    HW232968   3.414   1.101   8.476
10982SOL     OW32969   2.777   0.089   8.850
10982SOL    HW132970   2.802   0.069   8.755
10982SOL    HW232971   2.849   0.145   8.892
10983SOL     OW32972   2.842   1.116   9.167
10983SOL    HW132973   2.743   1.122   9.177
10983SOL    HW232974   2.865   1.036   9.111
10984SOL     OW32975   2.567   1.050   7.816
10984SOL    HW132976   2.553   1.057   7.915
10984SOL    HW232977   2.651   0.999   7.798
10985SOL     OW32978   2.272   0.813   8.699
10985SOL    HW132979   2.358   0.825   8.749
10985SOL    HW232980   2.230   0.726   8.726
10986SOL     OW32981   3.136   0.386   8.710
10986SOL    HW132982   3.157   0.460   8.774
10986SOL    HW232983   3.047   0.403   8.667
10987SOL     OW32984   1.926   1.564   8.779
10987SOL    HW132985   1.880   1.646   8.745
10987SOL    HW232986   2.024   1.583   8.788
10988SOL     OW32987   2.229   1.100   7.949
10988SOL    HW132988   2.222   1.183   7.893
10988SOL    HW232989   2.233   1.020   7.889
10989SOL     OW32990   2.428   0.537   8.313
10989SOL    HW132991   2.440   0.603   8.239
10989SOL    HW232992   2.474   0.571   8.396
10990SOL     OW32993   3.114   1.348   7.836
10990SOL    HW132994   3.164   1.425   7.876
10990SOL    HW232995   3.019   1.350   7.868
10991SOL     OW32996   3.134   1.445   8.590
10991SOL    HW132997   3.181   1.458   8.677
10991SOL    HW232998   3.068   1.371   8.599
10992SOL     OW32999   3.444   0.639   7.920
10992SOL    HW133000   3.413   0.700   7.993
10992SOL    HW233001   3.494   0.691   7.851
10993SOL     OW33002   2.216   1.510   8.777
10993SOL    HW133003   2.195   1.466   8.690
10993SOL    HW233004   2.313   1.536   8.780
10994SOL     OW33005   2.264   0.751   9.046
10994SOL    HW133006   2.332   0.806   8.999
10994SOL    HW233007   2.304   0.663   9.073
10995SOL     OW33008   3.449   0.779   9.118
10995SOL    HW133009   3.357   0.817   9.113
10995SOL    HW233010   3.509   0.826   9.053
10996SOL     OW33011   2.875   0.105   9.218
10996SOL    HW133012   2.881   0.190   9.166
10996SOL    HW233013   2.907   0.029   9.161
10997SOL     OW33014   2.366   0.050   9.188
10997SOL    HW133015   2.324  -0.007   9.118
10997SOL    HW233016   2.300   0.119   9.220
10998SOL     OW33017   2.435   0.870   8.477
10998SOL    HW133018   2.479   0.959   8.468
10998SOL    HW233019   2.372   0.870   8.554
10999SOL     OW33020   3.222   0.862   8.493
10999SOL    HW133021   3.147   0.862   8.427
10999SOL    HW233022   3.259   0.770   8.502
11000SOL     OW33023   3.071   0.525   7.723
11000SOL    HW133024   3.084   0.441   7.777
11000SOL    HW233025   3.042   0.599   7.783
11001SOL     OW33026   2.169   0.213   8.679
11001SOL    HW133027   2.146   0.250   8.769
11001SOL    HW233028   2.139   0.118   8.673
11002SOL     OW33029   1.899   1.310   8.730
11002SOL    HW133030   1.952   1.261   8.798
11002SOL    HW233031   1.921   1.408   8.735
11003SOL     OW33032   2.594   0.634   8.512
11003SOL    HW133033   2.653   0.608   8.436
11003SOL    HW233034   2.566   0.730   8.501
11004SOL     OW33035   3.590   0.935   9.302
11004SOL    HW133036   3.544   0.928   9.213
11004SOL    HW233037   3.528   0.979   9.368
11005SOL     OW33038   2.169   0.063   8.066
11005SOL    HW133039   2.158   0.157   8.099
11005SOL    HW233040   2.164   0.000   8.143
11006SOL     OW33041   3.484   0.367   7.822
11006SOL    HW133042   3.486   0.291   7.886
11006SOL    HW233043   3.436   0.444   7.862
11007SOL     OW33044   2.885   0.766   8.414
11007SOL    HW133045   2.900   0.787   8.510
11007SOL    HW233046   2.855   0.671   8.405
11008SOL     OW33047   2.842   1.573   9.148
11008SOL    HW133048   2.822   1.617   9.060
11008SOL    HW233049   2.881   1.482   9.132
11009SOL     OW33050   3.721   1.518   9.053
11009SOL    HW133051   3.735   1.545   8.958
11009SOL    HW233052   3.804   1.540   9.106
11010SOL     OW33053   2.212   0.898   9.252
11010SOL    HW133054   2.288   0.942   9.300
11010SOL    HW233055   2.247   0.851   9.170
11011SOL     OW33056   3.402   0.274   7.573
11011SOL    HW133057   3.341   0.199   7.596
11011SOL    HW233058   3.424   0.326   7.656
11012SOL     OW33059   3.165   0.838   7.490
11012SOL    HW133060   3.199   0.745   7.505
11012SOL    HW233061   3.183   0.865   7.395
11013SOL     OW33062   2.930   1.333   8.297
11013SOL    HW133063   2.937   1.249   8.242
11013SOL    HW233064   2.992   1.402   8.261
11014SOL     OW33065   2.181   0.810   8.397
11014SOL    HW133066   2.274   0.846   8.402
11014SOL    HW233067   2.175   0.725   8.449
11015SOL     OW33068   2.201   0.509   8.454
11015SOL    HW133069   2.149   0.426   8.437
11015SOL    HW233070   2.278   0.514   8.390
11016SOL     OW33071   3.000   0.380   9.126
11016SOL    HW133072   2.955   0.443   9.190
11016SOL    HW233073   3.093   0.411   9.109
11017SOL     OW33074   3.022   0.207   8.925
11017SOL    HW133075   3.022   0.271   9.002
11017SOL    HW233076   3.050   0.255   8.842
11018SOL     OW33077   1.870   1.326   7.648
11018SOL    HW133078   1.777   1.347   7.617
11018SOL    HW233079   1.880   1.227   7.661
11019SOL     OW33080   1.950   1.801   8.375
11019SOL    HW133081   1.908   1.715   8.348
11019SOL    HW233082   2.044   1.804   8.341
11020SOL     OW33083   2.366   1.568   8.358
11020SOL    HW133084   2.432   1.642   8.367
11020SOL    HW233085   2.410   1.489   8.316
11021SOL     OW33086   2.864   0.796   8.686
11021SOL    HW133087   2.905   0.764   8.772
11021SOL    HW233088   2.768   0.769   8.683
11022SOL     OW33089   1.902   0.544   8.562
11022SOL    HW133090   1.987   0.511   8.521
11022SOL    HW233091   1.915   0.559   8.660
11023SOL     OW33092   2.051   0.520   9.170
11023SOL    HW133093   2.110   0.480   9.100
11023SOL    HW233094   1.993   0.591   9.129
11024SOL     OW33095   3.231   0.950   9.108
11024SOL    HW133096   3.270   1.039   9.128
11024SOL    HW233097   3.241   0.930   9.011
11025SOL     OW33098   2.677   0.572   7.773
11025SOL    HW133099   2.684   0.483   7.727
11025SOL    HW233100   2.583   0.606   7.765
11026SOL     OW33101   3.519   0.604   8.654
11026SOL    HW133102   3.481   0.535   8.716
11026SOL    HW233103   3.601   0.568   8.610
11027SOL     OW33104   2.114   1.564   9.192
11027SOL    HW133105   2.084   1.621   9.268
11027SOL    HW233106   2.107   1.467   9.218
11028SOL     OW33107   2.533   0.464   8.717
11028SOL    HW133108   2.499   0.375   8.687
11028SOL    HW233109   2.559   0.518   8.637
11029SOL     OW33110   2.792   1.678   8.913
11029SOL    HW133111   2.768   1.660   8.818
11029SOL    HW233112   2.822   1.772   8.923
11030SOL     OW33113   2.335   0.500   7.639
11030SOL    HW133114   2.396   0.580   7.643
11030SOL    HW233115   2.240   0.531   7.646
11031SOL     OW33116   2.021   1.137   8.914
11031SOL    HW133117   2.043   1.076   8.990
11031SOL    HW233118   2.031   1.088   8.828
11032SOL     OW33119   3.209   1.059   8.682
11032SOL    HW133120   3.233   0.996   8.608
11032SOL    HW233121   3.119   1.099   8.664
11033SOL     OW33122   3.164   0.855   7.757
11033SOL    HW133123   3.078   0.824   7.799
11033SOL    HW233124   3.160   0.841   7.658
11034SOL     OW33125   3.621   1.747   8.602
11034SOL    HW133126   3.682   1.777   8.529
11034SOL    HW233127   3.583   1.658   8.580
11035SOL     OW33128   3.114   1.731   8.576
11035SOL    HW133129   3.198   1.736   8.522
11035SOL    HW233130   3.091   1.635   8.594
11036SOL     OW33131   1.945   1.258   8.470
11036SOL    HW133132   1.940   1.257   8.570
11036SOL    HW233133   1.862   1.217   8.432
11037SOL     OW33134   2.550   1.662   9.164
11037SOL    HW133135   2.494   1.743   9.173
11037SOL    HW233136   2.602   1.666   9.078
11038SOL     OW33137   3.588   0.135   7.971
11038SOL    HW133138   3.661   0.118   7.904
11038SOL    HW233139   3.557   0.048   8.009
11039SOL     OW33140   3.250   1.573   7.925
11039SOL    HW133141   3.317   1.585   7.851
11039SOL    HW233142   3.210   1.662   7.948
11040SOL     OW33143   1.992   1.794   9.299
11040SOL    HW133144   1.951   1.720   9.352
11040SOL    HW233145   2.056   1.845   9.357
11041SOL     OW33146   3.142   0.927   8.120
11041SOL    HW133147   3.202   0.846   8.122
11041SOL    HW233148   3.182   0.996   8.060
11042SOL     OW33149   2.692   1.273   8.870
11042SOL    HW133150   2.687   1.306   8.965
11042SOL    HW233151   2.606   1.292   8.824
11043SOL     OW33152   2.534   1.616   7.602
11043SOL    HW133153   2.543   1.626   7.503
11043SOL    HW233154   2.494   1.527   7.623
11044SOL     OW33155   3.512   1.720   8.842
11044SOL    HW133156   3.565   1.730   8.758
11044SOL    HW233157   3.485   1.810   8.876
11045SOL     OW33158   3.703   0.175   8.411
11045SOL    HW133159   3.742   0.090   8.375
11045SOL    HW233160   3.605   0.177   8.392
11046SOL     OW33161   2.125   0.326   8.168
11046SOL    HW133162   2.046   0.377   8.134
11046SOL    HW233163   2.116   0.311   8.266
11047SOL     OW33164   3.056   1.612   7.479
11047SOL    HW133165   3.062   1.519   7.516
11047SOL    HW233166   2.997   1.612   7.399
11048SOL     OW33167   2.684   1.002   8.820
11048SOL    HW133168   2.724   1.001   8.728
11048SOL    HW233169   2.694   1.094   8.860
11049SOL     OW33170   2.778   0.910   7.739
11049SOL    HW133171   2.841   0.948   7.671
11049SOL    HW233172   2.818   0.827   7.778
11050SOL     OW33173   3.366   1.607   7.492
11050SOL    HW133174   3.274   1.644   7.499
11050SOL    HW233175   3.404   1.627   7.402
11051SOL     OW33176   2.234   1.288   8.938
11051SOL    HW133177   2.221   1.381   8.904
11051SOL    HW233178   2.150   1.236   8.925
11052SOL     OW33179   3.476   1.292   8.737
11052SOL    HW133180   3.536   1.295   8.817
11052SOL    HW233181   3.401   1.356   8.750
11053SOL     OW33182   2.901   1.098   8.144
11053SOL    HW133183   2.831   1.051   8.198
11053SOL    HW233184   2.960   1.030   8.101
11054SOL     OW33185   2.876   0.236   8.419
11054SOL    HW133186   2.868   0.200   8.326
11054SOL    HW233187   2.874   0.160   8.484
11055SOL     OW33188   2.452   1.487   7.939
11055SOL    HW133189   2.494   1.429   7.869
11055SOL    HW233190   2.408   1.566   7.895
11056SOL     OW33191   3.571   0.385   8.829
11056SOL    HW133192   3.644   0.454   8.833
11056SOL    HW233193   3.599   0.310   8.770
11057SOL     OW33194   2.117   1.348   7.738
11057SOL    HW133195   2.021   1.349   7.711
11057SOL    HW233196   2.129   1.401   7.822
11058SOL     OW33197   1.967   1.013   9.174
11058SOL    HW133198   1.890   0.980   9.228
11058SOL    HW233199   2.052   0.983   9.216
11059SOL     OW33200   2.534   0.203   8.937
11059SOL    HW133201   2.624   0.187   8.897
11059SOL    HW233202   2.542   0.208   9.036
11060SOL     OW33203   1.937   0.345   7.481
11060SOL    HW133204   1.845   0.317   7.452
11060SOL    HW233205   1.968   0.422   7.425
11061SOL     OW33206   3.302   0.856   8.846
11061SOL    HW133207   3.245   0.908   8.783
11061SOL    HW233208   3.398   0.868   8.822
11062SOL     OW33209   1.934   0.166   7.766
11062SOL    HW133210   1.917   0.249   7.712
11062SOL    HW233211   2.024   0.129   7.744
11063SOL     OW33212   3.045   1.335   7.567
11063SOL    HW133213   2.946   1.324   7.569
11063SOL    HW233214   3.079   1.350   7.660
11064SOL     OW33215   2.475   0.842   8.879
11064SOL    HW133216   2.531   0.923   8.862
11064SOL    HW233217   2.534   0.762   8.882
11065SOL     OW33218   3.355   1.767   8.407
11065SOL    HW133219   3.388   1.831   8.338
11065SOL    HW233220   3.421   1.761   8.482
11066SOL     OW33221   2.578   0.565   9.156
11066SOL    HW133222   2.597   0.630   9.230
11066SOL    HW233223   2.638   0.485   9.165
11067SOL     OW33224   3.312   1.220   9.081
11067SOL    HW133225   3.303   1.210   9.180
11067SOL    HW233226   3.408   1.213   9.055
11068SOL     OW33227   2.252   1.741   9.008
11068SOL    HW133228   2.161   1.782   9.006
11068SOL    HW233229   2.245   1.647   9.040
11069SOL     OW33230   3.536   0.883   8.702
11069SOL    HW133231   3.509   0.794   8.665
11069SOL    HW233232   3.537   0.951   8.629
11070SOL     OW33233   3.087   0.325   7.897
11070SOL    HW133234   3.152   0.251   7.886
11070SOL    HW233235   3.107   0.375   7.981
11071SOL     OW33236   2.456   0.745   8.100
11071SOL    HW133237   2.506   0.830   8.081
11071SOL    HW233238   2.368   0.747   8.052
11072SOL     OW33239   3.639   0.342   9.090
11072SOL    HW133240   3.622   0.373   8.996
11072SOL    HW233241   3.555   0.305   9.128
11073SOL     OW33242   3.592   0.934   8.965
11073SOL    HW133243   3.630   1.025   8.980
11073SOL    HW233244   3.584   0.917   8.866
11074SOL     OW33245   2.721   1.374   7.464
11074SOL    HW133246   2.675   1.389   7.552
11074SOL    HW233247   2.765   1.459   7.434
11075SOL     OW33248   2.523   1.790   8.401
11075SOL    HW133249   2.477   1.878   8.388
11075SOL    HW233250   2.622   1.802   8.394
11076SOL     OW33251   2.721   0.956   8.309
11076SOL    HW133252   2.775   0.887   8.357
11076SOL    HW233253   2.689   1.025   8.375
11077SOL     OW33254   2.945   0.984   7.535
11077SOL    HW133255   2.922   1.037   7.453
11077SOL    HW233256   3.026   0.928   7.516
11078SOL     OW33257   3.723   1.569   8.299
11078SOL    HW133258   3.652   1.557   8.229
11078SOL    HW233259   3.724   1.490   8.359
11079SOL     OW33260   2.083   1.314   9.292
11079SOL    HW133261   2.018   1.241   9.271
11079SOL    HW233262   2.087   1.328   9.390
11080SOL     OW33263   1.941   1.240   8.101
11080SOL    HW133264   1.940   1.193   8.189
11080SOL    HW233265   2.023   1.212   8.050
11081SOL     OW33266   2.534   1.391   9.072
11081SOL    HW133267   2.456   1.341   9.110
11081SOL    HW233268   2.531   1.486   9.103
11082SOL     OW33269   3.686   0.192   8.675
11082SOL    HW133270   3.682   0.102   8.719
11082SOL    HW233271   3.689   0.181   8.576
11083SOL     OW33272   2.290   0.424   7.968
11083SOL    HW133273   2.320   0.352   7.906
11083SOL    HW233274   2.251   0.384   8.051
11084SOL     OW33275   3.567   1.487   8.552
11084SOL    HW133276   3.474   1.462   8.525
11084SOL    HW233277   3.593   1.437   8.634
11085SOL     OW33278   2.179   0.547   8.728
11085SOL    HW133279   2.217   0.488   8.800
11085SOL    HW233280   2.219   0.521   8.640
11086SOL     OW33281   2.674   1.586   8.135
11086SOL    HW133282   2.706   1.596   8.041
11086SOL    HW233283   2.595   1.524   8.137
11087SOL     OW33284   3.286   0.214   8.560
11087SOL    HW133285   3.338   0.149   8.615
11087SOL    HW233286   3.237   0.277   8.621
11088SOL     OW33287   2.863   0.034   8.602
11088SOL    HW133288   2.800  -0.038   8.571
11088SOL    HW233289   2.956  -0.002   8.602
11089SOL     OW33290   2.632   1.330   7.749
11089SOL    HW133291   2.586   1.243   7.766
11089SOL    HW233292   2.723   1.327   7.790
11090SOL     OW33293   2.480   1.567   8.732
11090SOL    HW133294   2.475   1.649   8.789
11090SOL    HW233295   2.569   1.564   8.687
11091SOL     OW33296   3.214   0.052   7.616
11091SOL    HW133297   3.249   0.011   7.532
11091SOL    HW233298   3.124   0.014   7.636
11092SOL     OW33299   3.162   0.453   8.139
11092SOL    HW133300   3.103   0.533   8.143
11092SOL    HW233301   3.177   0.418   8.232
11093SOL     OW33302   3.455   0.221   8.330
11093SOL    HW133303   3.371   0.220   8.384
11093SOL    HW233304   3.457   0.304   8.274
11094SOL     OW33305   1.901   1.077   7.748
11094SOL    HW133306   2.000   1.066   7.739
11094SOL    HW233307   1.861   0.991   7.780
11095SOL     OW33308   2.737   1.646   7.785
11095SOL    HW133309   2.660   1.611   7.731
11095SOL    HW233310   2.705   1.717   7.847
11096SOL     OW33311   2.092   0.628   9.423
11096SOL    HW133312   1.999   0.626   9.460
11096SOL    HW233313   2.093   0.589   9.331
11097SOL     OW33314   2.087   0.275  10.306
11097SOL    HW133315   2.122   0.258  10.398
11097SOL    HW233316   1.999   0.230  10.294
11098SOL     OW33317   1.881   0.368   9.957
11098SOL    HW133318   1.799   0.411   9.996
11098SOL    HW233319   1.853   0.295   9.894
11099SOL     OW33320   2.431   1.275  10.475
11099SOL    HW133321   2.338   1.268  10.438
11099SOL    HW233322   2.442   1.364  10.519
11100SOL     OW33323   3.417   1.511  10.013
11100SOL    HW133324   3.360   1.495  10.094
11100SOL    HW233325   3.358   1.521   9.933
11101SOL     OW33326   2.997   0.703  10.027
11101SOL    HW133327   3.054   0.781  10.002
11101SOL    HW233328   2.937   0.729  10.103
11102SOL     OW33329   3.617   0.607   9.541
11102SOL    HW133330   3.605   0.594   9.442
11102SOL    HW233331   3.587   0.526   9.590
11103SOL     OW33332   2.630   1.144  10.333
11103SOL    HW133333   2.552   1.161  10.393
11103SOL    HW233334   2.664   1.231  10.297
11104SOL     OW33335   2.712   0.798  11.133
11104SOL    HW133336   2.708   0.874  11.198
11104SOL    HW233337   2.734   0.834  11.042
11105SOL     OW33338   2.547   1.012   9.975
11105SOL    HW133339   2.616   0.996  10.045
11105SOL    HW233340   2.474   1.069  10.013
11106SOL     OW33341   2.548   1.161  11.113
11106SOL    HW133342   2.608   1.240  11.127
11106SOL    HW233343   2.462   1.192  11.072
11107SOL     OW33344   2.197   1.435  10.371
11107SOL    HW133345   2.119   1.404  10.318
11107SOL    HW233346   2.255   1.493  10.314
11108SOL     OW33347   3.322   1.505  10.649
11108SOL    HW133348   3.346   1.599  10.675
11108SOL    HW233349   3.306   1.451  10.731
11109SOL     OW33350   2.300   0.392  10.809
11109SOL    HW133351   2.382   0.336  10.818
11109SOL    HW233352   2.219   0.334  10.813
11110SOL     OW33353   3.465   0.447  10.047
11110SOL    HW133354   3.391   0.493   9.997
11110SOL    HW233355   3.516   0.515  10.100
11111SOL     OW33356   2.093   1.713   9.793
11111SOL    HW133357   2.127   1.790   9.847
11111SOL    HW233358   2.137   1.713   9.703
11112SOL     OW33359   2.989   1.341  11.000
11112SOL    HW133360   3.036   1.341  11.088
11112SOL    HW233361   2.941   1.254  10.989
11113SOL     OW33362   2.092   1.434   9.848
11113SOL    HW133363   2.066   1.530   9.848
11113SOL    HW233364   2.021   1.380   9.893
11114SOL     OW33365   2.102   1.091  10.196
11114SOL    HW133366   2.116   1.007  10.248
11114SOL    HW233367   2.047   1.155  10.251
11115SOL     OW33368   2.482   1.786  10.749
11115SOL    HW133369   2.390   1.769  10.784
11115SOL    HW233370   2.510   1.878  10.775
11116SOL     OW33371   2.468   0.964   9.433
11116SOL    HW133372   2.475   1.048   9.379
11116SOL    HW233373   2.514   0.977   9.521
11117SOL     OW33374   3.456   0.114  10.790
11117SOL    HW133375   3.438   0.181  10.718
11117SOL    HW233376   3.453   0.160  10.879
11118SOL     OW33377   1.984   0.643   9.873
11118SOL    HW133378   1.939   0.555   9.890
11118SOL    HW233379   1.983   0.697   9.957
11119SOL     OW33380   3.704   1.767   9.669
11119SOL    HW133381   3.758   1.738   9.749
11119SOL    HW233382   3.734   1.857   9.640
11120SOL     OW33383   1.889   1.596   9.427
11120SOL    HW133384   1.870   1.500   9.448
11120SOL    HW233385   1.856   1.654   9.502
11121SOL     OW33386   3.551   0.922   9.922
11121SOL    HW133387   3.646   0.893   9.930
11121SOL    HW233388   3.543   0.987   9.847
11122SOL     OW33389   3.503   1.108   9.742
11122SOL    HW133390   3.589   1.110   9.690
11122SOL    HW233391   3.517   1.155   9.830
11123SOL     OW33392   1.975   0.737  10.907
11123SOL    HW133393   2.063   0.724  10.952
11123SOL    HW233394   1.962   0.834  10.885
11124SOL     OW33395   2.475   1.365  10.036
11124SOL    HW133396   2.426   1.278  10.045
11124SOL    HW233397   2.452   1.408   9.949
11125SOL     OW33398   3.155   1.228  10.733
11125SOL    HW133399   3.192   1.155  10.675
11125SOL    HW233400   3.207   1.233  10.818
11126SOL     OW33401   2.671   0.004   9.812
11126SOL    HW133402   2.711   0.095   9.803
11126SOL    HW233403   2.571   0.012   9.818
11127SOL     OW33404   2.059   0.976  10.574
11127SOL    HW133405   2.148   0.931  10.560
11127SOL    HW233406   1.986   0.911  10.555
11128SOL     OW33407   3.387   0.999   9.500
11128SOL    HW133408   3.324   0.923   9.513
11128SOL    HW233409   3.435   1.017   9.586
11129SOL     OW33410   3.049   1.792  10.926
11129SOL    HW133411   3.073   1.852  10.850
11129SOL    HW233412   3.056   1.697  10.896
11130SOL     OW33413   2.179   0.251  11.111
11130SOL    HW133414   2.250   0.322  11.117
11130SOL    HW233415   2.091   0.290  11.139
11131SOL     OW33416   3.328   1.417  10.263
11131SOL    HW133417   3.269   1.423  10.343
11131SOL    HW233418   3.313   1.329  10.217
11132SOL     OW33419   3.529   1.714   9.882
11132SOL    HW133420   3.488   1.691   9.794
11132SOL    HW233421   3.511   1.640   9.947
11133SOL     OW33422   2.460   0.729   9.580
11133SOL    HW133423   2.484   0.798   9.512
11133SOL    HW233424   2.382   0.762   9.634
11134SOL     OW33425   3.143   0.345  10.254
11134SOL    HW133426   3.057   0.295  10.241
11134SOL    HW233427   3.205   0.291  10.310
11135SOL     OW33428   3.438   1.662   9.617
11135SOL    HW133429   3.527   1.708   9.620
11135SOL    HW233430   3.417   1.638   9.522
11136SOL     OW33431   2.669   0.605  10.775
11136SOL    HW133432   2.622   0.602  10.864
11136SOL    HW233433   2.618   0.550  10.709
11137SOL     OW33434   3.256   0.469  10.984
11137SOL    HW133435   3.236   0.512  11.072
11137SOL    HW233436   3.334   0.407  10.993
11138SOL     OW33437   2.835   0.890  10.882
11138SOL    HW133438   2.881   0.806  10.853
11138SOL    HW233439   2.779   0.924  10.807
11139SOL     OW33440   2.853   0.410  10.552
11139SOL    HW133441   2.776   0.444  10.606
11139SOL    HW233442   2.819   0.359  10.473
11140SOL     OW33443   2.903   0.701   9.739
11140SOL    HW133444   2.929   0.697   9.835
11140SOL    HW233445   2.818   0.650   9.725
11141SOL     OW33446   1.938   0.811  10.099
11141SOL    HW133447   2.037   0.799  10.108
11141SOL    HW233448   1.914   0.906  10.120
11142SOL     OW33449   1.992   1.821  10.881
11142SOL    HW133450   1.982   1.806  10.980
11142SOL    HW233451   1.906   1.857  10.845
11143SOL     OW33452   2.727   0.348   9.505
11143SOL    HW133453   2.786   0.411   9.456
11143SOL    HW233454   2.746   0.254   9.476
11144SOL     OW33455   3.581   0.585  11.141
11144SOL    HW133456   3.555   0.674  11.105
11144SOL    HW233457   3.579   0.517  11.068
11145SOL     OW33458   3.224   1.144   9.855
11145SOL    HW133459   3.307   1.115   9.807
11145SOL    HW233460   3.175   1.211   9.799
11146SOL     OW33461   2.412   0.196  10.195
11146SOL    HW133462   2.407   0.191  10.295
11146SOL    HW233463   2.414   0.292  10.166
11147SOL     OW33464   2.870   1.456   9.787
11147SOL    HW133465   2.824   1.528   9.735
11147SOL    HW233466   2.866   1.476   9.885
11148SOL     OW33467   2.213   1.801  10.163
11148SOL    HW133468   2.263   1.715  10.169
11148SOL    HW233469   2.278   1.878  10.160
11149SOL     OW33470   3.657   1.066  10.183
11149SOL    HW133471   3.595   1.051  10.107
11149SOL    HW233472   3.605   1.077  10.268
11150SOL     OW33473   3.089   1.550  10.816
11150SOL    HW133474   3.095   1.473  10.880
11150SOL    HW233475   3.037   1.524  10.736
11151SOL     OW33476   2.183   0.943   9.552
11151SOL    HW133477   2.265   0.982   9.510
11151SOL    HW233478   2.156   0.861   9.503
11152SOL     OW33479   3.320   0.735  10.038
11152SOL    HW133480   3.315   0.670  10.113
11152SOL    HW233481   3.400   0.794  10.051
11153SOL     OW33482   2.323   1.266  11.037
11153SOL    HW133483   2.273   1.267  10.951
11153SOL    HW233484   2.260   1.248  11.113
11154SOL     OW33485   2.973   1.776   9.547
11154SOL    HW133486   2.913   1.714   9.597
11154SOL    HW233487   3.004   1.732   9.462
11155SOL     OW33488   2.064   0.285  10.808
11155SOL    HW133489   1.984   0.345  10.795
11155SOL    HW233490   2.054   0.236  10.894
11156SOL     OW33491   3.494   1.377   9.391
11156SOL    HW133492   3.462   1.471   9.381
11156SOL    HW233493   3.418   1.314   9.379
11157SOL     OW33494   2.326   1.743   9.633
11157SOL    HW133495   2.359   1.782   9.719
11157SOL    HW233496   2.402   1.736   9.568
11158SOL     OW33497   3.262   0.107   9.736
11158SOL    HW133498   3.238   0.070   9.646
11158SOL    HW233499   3.361   0.123   9.740
11159SOL     OW33500   2.111   1.785  10.551
11159SOL    HW133501   2.168   1.720  10.601
11159SOL    HW233502   2.095   1.752  10.458
11160SOL     OW33503   2.802   1.698  10.214
11160SOL    HW133504   2.882   1.641  10.235
11160SOL    HW233505   2.753   1.658  10.137
11161SOL     OW33506   2.244   0.700   9.790
11161SOL    HW133507   2.289   0.610   9.787
11161SOL    HW233508   2.150   0.689   9.823
11162SOL     OW33509   3.409   0.222  11.039
11162SOL    HW133510   3.404   0.259  11.131
11162SOL    HW233511   3.337   0.153  11.027
11163SOL     OW33512   2.476   0.122   9.427
11163SOL    HW133513   2.574   0.100   9.434
11163SOL    HW233514   2.445   0.105   9.334
11164SOL     OW33515   2.643   0.264  11.059
11164SOL    HW133516   2.710   0.203  11.102
11164SOL    HW233517   2.570   0.283  11.124
11165SOL     OW33518   2.750   1.514  10.505
11165SOL    HW133519   2.727   1.489  10.411
11165SOL    HW233520   2.811   1.445  10.544
11166SOL     OW33521   3.213   0.590  10.743
11166SOL    HW133522   3.241   0.547  10.828
11166SOL    HW233523   3.238   0.686  10.744
11167SOL     OW33524   2.665   1.402  10.234
11167SOL    HW133525   2.755   1.416  10.192
11167SOL    HW233526   2.594   1.404  10.163
11168SOL     OW33527   2.784   0.503  10.209
11168SOL    HW133528   2.759   0.494  10.113
11168SOL    HW233529   2.832   0.421  10.240
11169SOL     OW33530   2.401   0.064   9.822
11169SOL    HW133531   2.320   0.065   9.880
11169SOL    HW233532   2.404   0.147   9.767
11170SOL     OW33533   3.296   1.188   9.351
11170SOL    HW133534   3.328   1.112   9.408
11170SOL    HW233535   3.204   1.215   9.381
11171SOL     OW33536   2.159   0.035   9.481
11171SOL    HW133537   2.208   0.119   9.460
11171SOL    HW233538   2.221  -0.030   9.526
11172SOL     OW33539   2.797   0.236   9.790
11172SOL    HW133540   2.749   0.277   9.712
11172SOL    HW233541   2.896   0.234   9.771
11173SOL     OW33542   2.938   0.683  10.774
11173SOL    HW133543   2.858   0.622  10.777
11173SOL    HW233544   3.019   0.630  10.750
11174SOL     OW33545   3.089   1.570  10.103
11174SOL    HW133546   3.110   1.644  10.038
11174SOL    HW233547   3.157   1.570  10.176
11175SOL     OW33548   2.321   1.152  10.051
11175SOL    HW133549   2.250   1.125  10.116
11175SOL    HW233550   2.295   1.124   9.958
11176SOL     OW33551   3.133   1.797   9.901
11176SOL    HW133552   3.177   1.861   9.837
11176SOL    HW233553   3.083   1.849   9.971
11177SOL     OW33554   2.894   0.549   9.326
11177SOL    HW133555   2.853   0.631   9.287
11177SOL    HW233556   2.958   0.575   9.399
11178SOL     OW33557   1.940   0.556  10.696
11178SOL    HW133558   2.032   0.555  10.655
11178SOL    HW233559   1.934   0.630  10.763
11179SOL     OW33560   2.423   0.222  10.457
11179SOL    HW133561   2.461   0.138  10.494
11179SOL    HW233562   2.335   0.241  10.501
11180SOL     OW33563   2.728   0.454   9.952
11180SOL    HW133564   2.696   0.526   9.890
11180SOL    HW233565   2.752   0.373   9.899
11181SOL     OW33566   2.879   0.039  10.063
11181SOL    HW133567   2.807   0.044   9.994
11181SOL    HW233568   2.855  -0.030  10.132
11182SOL     OW33569   3.291   1.173  10.177
11182SOL    HW133570   3.236   1.089  10.170
11182SOL    HW233571   3.317   1.202  10.085
11183SOL     OW33572   3.328   0.590  10.302
11183SOL    HW133573   3.298   0.495  10.309
11183SOL    HW233574   3.401   0.606  10.368
11184SOL     OW33575   3.719   0.833   9.687
11184SOL    HW133576   3.761   0.769   9.751
11184SOL    HW233577   3.681   0.782   9.609
11185SOL     OW33578   2.350   1.385   9.484
11185SOL    HW133579   2.263   1.370   9.531
11185SOL    HW233580   2.333   1.411   9.389
11186SOL     OW33581   3.526   1.280   9.967
11186SOL    HW133582   3.625   1.288   9.981
11186SOL    HW233583   3.481   1.364   9.998
11187SOL     OW33584   3.252   0.575   9.388
11187SOL    HW133585   3.198   0.554   9.469
11187SOL    HW233586   3.343   0.534   9.397
11188SOL     OW33587   2.389   0.256   9.638
11188SOL    HW133588   2.416   0.197   9.563
11188SOL    HW233589   2.389   0.351   9.607
11189SOL     OW33590   3.616   1.223  10.898
11189SOL    HW133591   3.707   1.184  10.885
11189SOL    HW233592   3.624   1.319  10.922
11190SOL     OW33593   2.926   1.347  10.650
11190SOL    HW133594   2.846   1.324  10.705
11190SOL    HW233595   3.009   1.321  10.699
11191SOL     OW33596   3.454   1.629  10.935
11191SOL    HW133597   3.481   1.663  10.845
11191SOL    HW233598   3.533   1.591  10.981
11192SOL     OW33599   2.973   1.195  10.410
11192SOL    HW133600   2.933   1.239  10.491
11192SOL    HW233601   2.932   1.232  10.327
11193SOL     OW33602   3.500   1.099  10.389
11193SOL    HW133603   3.505   1.180  10.448
11193SOL    HW233604   3.414   1.101  10.338
11194SOL     OW33605   2.777   0.089  10.712
11194SOL    HW133606   2.802   0.069  10.617
11194SOL    HW233607   2.849   0.145  10.754
11195SOL     OW33608   2.842   1.116  11.029
11195SOL    HW133609   2.743   1.122  11.039
11195SOL    HW233610   2.865   1.036  10.973
11196SOL     OW33611   2.567   1.050   9.678
11196SOL    HW133612   2.553   1.057   9.777
11196SOL    HW233613   2.651   0.999   9.660
11197SOL     OW33614   2.272   0.813  10.561
11197SOL    HW133615   2.358   0.825  10.611
11197SOL    HW233616   2.230   0.726  10.588
11198SOL     OW33617   3.136   0.386  10.572
11198SOL    HW133618   3.157   0.460  10.636
11198SOL    HW233619   3.047   0.403  10.529
11199SOL     OW33620   1.926   1.564  10.641
11199SOL    HW133621   1.880   1.646  10.607
11199SOL    HW233622   2.024   1.583  10.650
11200SOL     OW33623   2.229   1.100   9.811
11200SOL    HW133624   2.222   1.183   9.755
11200SOL    HW233625   2.233   1.020   9.751
11201SOL     OW33626   2.428   0.537  10.175
11201SOL    HW133627   2.440   0.603  10.101
11201SOL    HW233628   2.474   0.571  10.258
11202SOL     OW33629   3.114   1.348   9.698
11202SOL    HW133630   3.164   1.425   9.738
11202SOL    HW233631   3.019   1.350   9.730
11203SOL     OW33632   3.134   1.445  10.452
11203SOL    HW133633   3.181   1.458  10.539
11203SOL    HW233634   3.068   1.371  10.461
11204SOL     OW33635   3.444   0.639   9.782
11204SOL    HW133636   3.413   0.700   9.855
11204SOL    HW233637   3.494   0.691   9.713
11205SOL     OW33638   2.216   1.510  10.639
11205SOL    HW133639   2.195   1.466  10.552
11205SOL    HW233640   2.313   1.536  10.642
11206SOL     OW33641   2.264   0.751  10.908
11206SOL    HW133642   2.332   0.806  10.861
11206SOL    HW233643   2.304   0.663  10.935
11207SOL     OW33644   3.449   0.779  10.980
11207SOL    HW133645   3.357   0.817  10.975
11207SOL    HW233646   3.509   0.826  10.915
11208SOL     OW33647   2.875   0.105  11.080
11208SOL    HW133648   2.881   0.190  11.028
11208SOL    HW233649   2.907   0.029  11.023
11209SOL     OW33650   2.366   0.050  11.050
11209SOL    HW133651   2.324  -0.007  10.980
11209SOL    HW233652   2.300   0.119  11.082
11210SOL     OW33653   2.435   0.870  10.339
11210SOL    HW133654   2.479   0.959  10.330
11210SOL    HW233655   2.372   0.870  10.416
11211SOL     OW33656   3.222   0.862  10.355
11211SOL    HW133657   3.147   0.862  10.289
11211SOL    HW233658   3.259   0.770  10.364
11212SOL     OW33659   3.071   0.525   9.585
11212SOL    HW133660   3.084   0.441   9.639
11212SOL    HW233661   3.042   0.599   9.645
11213SOL     OW33662   2.169   0.213  10.541
11213SOL    HW133663   2.146   0.250  10.631
11213SOL    HW233664   2.139   0.118  10.535
11214SOL     OW33665   1.899   1.310  10.592
11214SOL    HW133666   1.952   1.261  10.660
11214SOL    HW233667   1.921   1.408  10.597
11215SOL     OW33668   2.594   0.634  10.374
11215SOL    HW133669   2.653   0.608  10.298
11215SOL    HW233670   2.566   0.730  10.363
11216SOL     OW33671   3.590   0.935  11.164
11216SOL    HW133672   3.544   0.928  11.075
11216SOL    HW233673   3.528   0.979  11.230
11217SOL     OW33674   2.169   0.063   9.928
11217SOL    HW133675   2.158   0.157   9.961
11217SOL    HW233676   2.164   0.000  10.005
11218SOL     OW33677   3.484   0.367   9.684
11218SOL    HW133678   3.486   0.291   9.748
11218SOL    HW233679   3.436   0.444   9.724
11219SOL     OW33680   2.885   0.766  10.276
11219SOL    HW133681   2.900   0.787  10.372
11219SOL    HW233682   2.855   0.671  10.267
11220SOL     OW33683   2.842   1.573  11.010
11220SOL    HW133684   2.822   1.617  10.922
11220SOL    HW233685   2.881   1.482  10.994
11221SOL     OW33686   3.721   1.518  10.915
11221SOL    HW133687   3.735   1.545  10.820
11221SOL    HW233688   3.804   1.540  10.968
11222SOL     OW33689   2.212   0.898  11.114
11222SOL    HW133690   2.288   0.942  11.162
11222SOL    HW233691   2.247   0.851  11.032
11223SOL     OW33692   3.402   0.274   9.435
11223SOL    HW133693   3.341   0.199   9.458
11223SOL    HW233694   3.424   0.326   9.518
11224SOL     OW33695   3.165   0.838   9.352
11224SOL    HW133696   3.199   0.745   9.367
11224SOL    HW233697   3.183   0.865   9.257
11225SOL     OW33698   2.930   1.333  10.159
11225SOL    HW133699   2.937   1.249  10.104
11225SOL    HW233700   2.992   1.402  10.123
11226SOL     OW33701   2.181   0.810  10.259
11226SOL    HW133702   2.274   0.846  10.264
11226SOL    HW233703   2.175   0.725  10.311
11227SOL     OW33704   2.201   0.509  10.316
11227SOL    HW133705   2.149   0.426  10.299
11227SOL    HW233706   2.278   0.514  10.252
11228SOL     OW33707   3.000   0.380  10.988
11228SOL    HW133708   2.955   0.443  11.052
11228SOL    HW233709   3.093   0.411  10.971
11229SOL     OW33710   3.022   0.207  10.787
11229SOL    HW133711   3.022   0.271  10.864
11229SOL    HW233712   3.050   0.255  10.704
11230SOL     OW33713   1.870   1.326   9.510
11230SOL    HW133714   1.777   1.347   9.479
11230SOL    HW233715   1.880   1.227   9.523
11231SOL     OW33716   1.950   1.801  10.237
11231SOL    HW133717   1.908   1.715  10.210
11231SOL    HW233718   2.044   1.804  10.203
11232SOL     OW33719   2.366   1.568  10.220
11232SOL    HW133720   2.432   1.642  10.229
11232SOL    HW233721   2.410   1.489  10.178
11233SOL     OW33722   2.864   0.796  10.548
11233SOL    HW133723   2.905   0.764  10.634
11233SOL    HW233724   2.768   0.769  10.545
11234SOL     OW33725   1.902   0.544  10.424
11234SOL    HW133726   1.987   0.511  10.383
11234SOL    HW233727   1.915   0.559  10.522
11235SOL     OW33728   2.051   0.520  11.032
11235SOL    HW133729   2.110   0.480  10.962
11235SOL    HW233730   1.993   0.591  10.991
11236SOL     OW33731   3.231   0.950  10.970
11236SOL    HW133732   3.270   1.039  10.990
11236SOL    HW233733   3.241   0.930  10.873
11237SOL     OW33734   2.677   0.572   9.635
11237SOL    HW133735   2.684   0.483   9.589
11237SOL    HW233736   2.583   0.606   9.627
11238SOL     OW33737   3.519   0.604  10.516
11238SOL    HW133738   3.481   0.535  10.578
11238SOL    HW233739   3.601   0.568  10.472
11239SOL     OW33740   2.114   1.564  11.054
11239SOL    HW133741   2.084   1.621  11.130
11239SOL    HW233742   2.107   1.467  11.080
11240SOL     OW33743   2.533   0.464  10.579
11240SOL    HW133744   2.499   0.375  10.549
11240SOL    HW233745   2.559   0.518  10.499
11241SOL     OW33746   2.792   1.678  10.775
11241SOL    HW133747   2.768   1.660  10.680
11241SOL    HW233748   2.822   1.772  10.785
11242SOL     OW33749   2.335   0.500   9.501
11242SOL    HW133750   2.396   0.580   9.505
11242SOL    HW233751   2.240   0.531   9.508
11243SOL     OW33752   2.021   1.137  10.776
11243SOL    HW133753   2.043   1.076  10.852
11243SOL    HW233754   2.031   1.088  10.690
11244SOL     OW33755   3.209   1.059  10.544
11244SOL    HW133756   3.233   0.996  10.470
11244SOL    HW233757   3.119   1.099  10.526
11245SOL     OW33758   3.164   0.855   9.619
11245SOL    HW133759   3.078   0.824   9.661
11245SOL    HW233760   3.160   0.841   9.520
11246SOL     OW33761   3.621   1.747  10.464
11246SOL    HW133762   3.682   1.777  10.391
11246SOL    HW233763   3.583   1.658  10.442
11247SOL     OW33764   3.114   1.731  10.438
11247SOL    HW133765   3.198   1.736  10.384
11247SOL    HW233766   3.091   1.635  10.456
11248SOL     OW33767   1.945   1.258  10.332
11248SOL    HW133768   1.940   1.257  10.432
11248SOL    HW233769   1.862   1.217  10.294
11249SOL     OW33770   2.550   1.662  11.026
11249SOL    HW133771   2.494   1.743  11.035
11249SOL    HW233772   2.602   1.666  10.940
11250SOL     OW33773   3.588   0.135   9.833
11250SOL    HW133774   3.661   0.118   9.766
11250SOL    HW233775   3.557   0.048   9.871
11251SOL     OW33776   3.250   1.573   9.787
11251SOL    HW133777   3.317   1.585   9.713
11251SOL    HW233778   3.210   1.662   9.810
11252SOL     OW33779   1.992   1.794  11.161
11252SOL    HW133780   1.951   1.720  11.214
11252SOL    HW233781   2.056   1.845  11.219
11253SOL     OW33782   3.142   0.927   9.982
11253SOL    HW133783   3.202   0.846   9.984
11253SOL    HW233784   3.182   0.996   9.922
11254SOL     OW33785   2.692   1.273  10.732
11254SOL    HW133786   2.687   1.306  10.827
11254SOL    HW233787   2.606   1.292  10.686
11255SOL     OW33788   2.534   1.616   9.464
11255SOL    HW133789   2.543   1.626   9.365
11255SOL    HW233790   2.494   1.527   9.485
11256SOL     OW33791   3.512   1.720  10.704
11256SOL    HW133792   3.565   1.730  10.620
11256SOL    HW233793   3.485   1.810  10.738
11257SOL     OW33794   3.703   0.175  10.273
11257SOL    HW133795   3.742   0.090  10.237
11257SOL    HW233796   3.605   0.177  10.254
11258SOL     OW33797   2.125   0.326  10.030
11258SOL    HW133798   2.046   0.377   9.996
11258SOL    HW233799   2.116   0.311  10.128
11259SOL     OW33800   3.056   1.612   9.341
11259SOL    HW133801   3.062   1.519   9.378
11259SOL    HW233802   2.997   1.612   9.261
11260SOL     OW33803   2.684   1.002  10.682
11260SOL    HW133804   2.724   1.001  10.590
11260SOL    HW233805   2.694   1.094  10.722
11261SOL     OW33806   2.778   0.910   9.601
11261SOL    HW133807   2.841   0.948   9.533
11261SOL    HW233808   2.818   0.827   9.640
11262SOL     OW33809   3.366   1.607   9.354
11262SOL    HW133810   3.274   1.644   9.361
11262SOL    HW233811   3.404   1.627   9.264
11263SOL     OW33812   2.234   1.288  10.800
11263SOL    HW133813   2.221   1.381  10.766
11263SOL    HW233814   2.150   1.236  10.787
11264SOL     OW33815   3.476   1.292  10.599
11264SOL    HW133816   3.536   1.295  10.679
11264SOL    HW233817   3.401   1.356  10.612
11265SOL     OW33818   2.901   1.098  10.006
11265SOL    HW133819   2.831   1.051  10.060
11265SOL    HW233820   2.960   1.030   9.963
11266SOL     OW33821   2.876   0.236  10.281
11266SOL    HW133822   2.868   0.200  10.188
11266SOL    HW233823   2.874   0.160  10.346
11267SOL     OW33824   2.452   1.487   9.801
11267SOL    HW133825   2.494   1.429   9.731
11267SOL    HW233826   2.408   1.566   9.757
11268SOL     OW33827   3.571   0.385  10.691
11268SOL    HW133828   3.644   0.454  10.695
11268SOL    HW233829   3.599   0.310  10.632
11269SOL     OW33830   2.117   1.348   9.600
11269SOL    HW133831   2.021   1.349   9.573
11269SOL    HW233832   2.129   1.401   9.684
11270SOL     OW33833   1.967   1.013  11.036
11270SOL    HW133834   1.890   0.980  11.090
11270SOL    HW233835   2.052   0.983  11.078
11271SOL     OW33836   2.534   0.203  10.799
11271SOL    HW133837   2.624   0.187  10.759
11271SOL    HW233838   2.542   0.208  10.898
11272SOL     OW33839   1.937   0.345   9.343
11272SOL    HW133840   1.845   0.317   9.314
11272SOL    HW233841   1.968   0.422   9.287
11273SOL     OW33842   3.302   0.856  10.708
11273SOL    HW133843   3.245   0.908  10.645
11273SOL    HW233844   3.398   0.868  10.684
11274SOL     OW33845   1.934   0.166   9.628
11274SOL    HW133846   1.917   0.249   9.574
11274SOL    HW233847   2.024   0.129   9.606
11275SOL     OW33848   3.045   1.335   9.429
11275SOL    HW133849   2.946   1.324   9.431
11275SOL    HW233850   3.079   1.350   9.522
11276SOL     OW33851   2.475   0.842  10.741
11276SOL    HW133852   2.531   0.923  10.724
11276SOL    HW233853   2.534   0.762  10.744
11277SOL     OW33854   3.355   1.767  10.269
11277SOL    HW133855   3.388   1.831  10.200
11277SOL    HW233856   3.421   1.761  10.344
11278SOL     OW33857   2.578   0.565  11.018
11278SOL    HW133858   2.597   0.630  11.092
11278SOL    HW233859   2.638   0.485  11.027
11279SOL     OW33860   3.312   1.220  10.943
11279SOL    HW133861   3.303   1.210  11.042
11279SOL    HW233862   3.408   1.213  10.917
11280SOL     OW33863   2.252   1.741  10.870
11280SOL    HW133864   2.161   1.782  10.868
11280SOL    HW233865   2.245   1.647  10.902
11281SOL     OW33866   3.536   0.883  10.564
11281SOL    HW133867   3.509   0.794  10.527
11281SOL    HW233868   3.537   0.951  10.491
11282SOL     OW33869   3.087   0.325   9.759
11282SOL    HW133870   3.152   0.251   9.748
11282SOL    HW233871   3.107   0.375   9.843
11283SOL     OW33872   2.456   0.745   9.962
11283SOL    HW133873   2.506   0.830   9.943
11283SOL    HW233874   2.368   0.747   9.914
11284SOL     OW33875   3.639   0.342  10.952
11284SOL    HW133876   3.622   0.373  10.858
11284SOL    HW233877   3.555   0.305  10.990
11285SOL     OW33878   3.592   0.934  10.827
11285SOL    HW133879   3.630   1.025  10.842
11285SOL    HW233880   3.584   0.917  10.728
11286SOL     OW33881   2.721   1.374   9.326
11286SOL    HW133882   2.675   1.389   9.414
11286SOL    HW233883   2.765   1.459   9.296
11287SOL     OW33884   2.523   1.790  10.263
11287SOL    HW133885   2.477   1.878  10.250
11287SOL    HW233886   2.622   1.802  10.256
11288SOL     OW33887   2.721   0.956  10.171
11288SOL    HW133888   2.775   0.887  10.219
11288SOL    HW233889   2.689   1.025  10.237
11289SOL     OW33890   2.945   0.984   9.397
11289SOL    HW133891   2.922   1.037   9.315
11289SOL    HW233892   3.026   0.928   9.378
11290SOL     OW33893   3.723   1.569  10.161
11290SOL    HW133894   3.652   1.557  10.091
11290SOL    HW233895   3.724   1.490  10.221
11291SOL     OW33896   2.083   1.314  11.154
11291SOL    HW133897   2.018   1.241  11.133
11291SOL    HW233898   2.087   1.328  11.252
11292SOL     OW33899   1.941   1.240   9.963
11292SOL    HW133900   1.940   1.193  10.051
11292SOL    HW233901   2.023   1.212   9.912
11293SOL     OW33902   2.534   1.391  10.934
11293SOL    HW133903   2.456   1.341  10.972
11293SOL    HW233904   2.531   1.486  10.965
11294SOL     OW33905   3.686   0.192  10.537
11294SOL    HW133906   3.682   0.102  10.581
11294SOL    HW233907   3.689   0.181  10.438
11295SOL     OW33908   2.290   0.424   9.830
11295SOL    HW133909   2.320   0.352   9.768
11295SOL    HW233910   2.251   0.384   9.913
11296SOL     OW33911   3.567   1.487  10.414
11296SOL    HW133912   3.474   1.462  10.387
11296SOL    HW233913   3.593   1.437  10.496
11297SOL     OW33914   2.179   0.547  10.590
11297SOL    HW133915   2.217   0.488  10.662
11297SOL    HW233916   2.219   0.521  10.502
11298SOL     OW33917   2.674   1.586   9.997
11298SOL    HW133918   2.706   1.596   9.903
11298SOL    HW233919   2.595   1.524   9.999
11299SOL     OW33920   3.286   0.214  10.422
11299SOL    HW133921   3.338   0.149  10.477
11299SOL    HW233922   3.237   0.277  10.483
11300SOL     OW33923   2.863   0.034  10.464
11300SOL    HW133924   2.800  -0.038  10.433
11300SOL    HW233925   2.956  -0.002  10.464
11301SOL     OW33926   2.632   1.330   9.611
11301SOL    HW133927   2.586   1.243   9.628
11301SOL    HW233928   2.723   1.327   9.652
11302SOL     OW33929   2.480   1.567  10.594
11302SOL    HW133930   2.475   1.649  10.651
11302SOL    HW233931   2.569   1.564  10.549
11303SOL     OW33932   3.214   0.052   9.478
11303SOL    HW133933   3.249   0.011   9.394
11303SOL    HW233934   3.124   0.014   9.498
11304SOL     OW33935   3.162   0.453  10.001
11304SOL    HW133936   3.103   0.533  10.005
11304SOL    HW233937   3.177   0.418  10.094
11305SOL     OW33938   3.455   0.221  10.192
11305SOL    HW133939   3.371   0.220  10.246
11305SOL    HW233940   3.457   0.304  10.136
11306SOL     OW33941   1.901   1.077   9.610
11306SOL    HW133942   2.000   1.066   9.601
11306SOL    HW233943   1.861   0.991   9.642
11307SOL     OW33944   2.737   1.646   9.647
11307SOL    HW133945   2.660   1.611   9.593
11307SOL    HW233946   2.705   1.717   9.709
11308SOL     OW33947   2.092   0.628  11.285
11308SOL    HW133948   1.999   0.626  11.322
11308SOL    HW233949   2.093   0.589  11.193
11309SOL     OW33950   2.087   0.275  12.168
11309SOL    HW133951   2.122   0.258  12.260
11309SOL    HW233952   1.999   0.230  12.156
11310SOL     OW33953   1.881   0.368  11.819
11310SOL    HW133954   1.799   0.411  11.858
11310SOL    HW233955   1.853   0.295  11.756
11311SOL     OW33956   2.431   1.275  12.337
11311SOL    HW133957   2.338   1.268  12.300
11311SOL    HW233958   2.442   1.364  12.381
11312SOL     OW33959   3.417   1.511  11.875
11312SOL    HW133960   3.360   1.495  11.956
11312SOL    HW233961   3.358   1.521  11.795
11313SOL     OW33962   2.997   0.703  11.889
11313SOL    HW133963   3.054   0.781  11.864
11313SOL    HW233964   2.937   0.729  11.965
11314SOL     OW33965   3.617   0.607  11.403
11314SOL    HW133966   3.605   0.594  11.304
11314SOL    HW233967   3.587   0.526  11.452
11315SOL     OW33968   2.630   1.144  12.195
11315SOL    HW133969   2.552   1.161  12.255
11315SOL    HW233970   2.664   1.231  12.159
11316SOL     OW33971   2.547   1.012  11.837
11316SOL    HW133972   2.616   0.996  11.907
11316SOL    HW233973   2.474   1.069  11.875
11317SOL     OW33974   2.197   1.435  12.233
11317SOL    HW133975   2.119   1.404  12.180
11317SOL    HW233976   2.255   1.493  12.176
11318SOL     OW33977   3.322   1.505  12.511
11318SOL    HW133978   3.346   1.599  12.537
11318SOL    HW233979   3.306   1.451  12.593
11319SOL     OW33980   2.300   0.392  12.671
11319SOL    HW133981   2.382   0.336  12.680
11319SOL    HW233982   2.219   0.334  12.675
11320SOL     OW33983   3.465   0.447  11.909
11320SOL    HW133984   3.391   0.493  11.859
11320SOL    HW233985   3.516   0.515  11.962
11321SOL     OW33986   2.093   1.713  11.655
11321SOL    HW133987   2.127   1.790  11.709
11321SOL    HW233988   2.137   1.713  11.565
11322SOL     OW33989   2.092   1.434  11.710
11322SOL    HW133990   2.066   1.530  11.710
11322SOL    HW233991   2.021   1.380  11.755
11323SOL     OW33992   2.102   1.091  12.058
11323SOL    HW133993   2.116   1.007  12.110
11323SOL    HW233994   2.047   1.155  12.113
11324SOL     OW33995   2.482   1.786  12.611
11324SOL    HW133996   2.390   1.769  12.646
11324SOL    HW233997   2.510   1.878  12.637
11325SOL     OW33998   2.468   0.964  11.295
11325SOL    HW133999   2.475   1.048  11.241
11325SOL    HW234000   2.514   0.977  11.383
11326SOL     OW34001   3.456   0.114  12.652
11326SOL    HW134002   3.438   0.181  12.580
11326SOL    HW234003   3.453   0.160  12.741
11327SOL     OW34004   1.984   0.643  11.735
11327SOL    HW134005   1.939   0.555  11.752
11327SOL    HW234006   1.983   0.697  11.819
11328SOL     OW34007   3.704   1.767  11.531
11328SOL    HW134008   3.758   1.738  11.611
11328SOL    HW234009   3.734   1.857  11.502
11329SOL     OW34010   1.889   1.596  11.289
11329SOL    HW134011   1.870   1.500  11.310
11329SOL    HW234012   1.856   1.654  11.364
11330SOL     OW34013   3.551   0.922  11.784
11330SOL    HW134014   3.646   0.893  11.792
11330SOL    HW234015   3.543   0.987  11.709
11331SOL     OW34016   3.503   1.108  11.604
11331SOL    HW134017   3.589   1.110  11.552
11331SOL    HW234018   3.517   1.155  11.692
11332SOL     OW34019   1.975   0.737  12.769
11332SOL    HW134020   2.063   0.724  12.814
11332SOL    HW234021   1.962   0.834  12.747
11333SOL     OW34022   2.475   1.365  11.898
11333SOL    HW134023   2.426   1.278  11.907
11333SOL    HW234024   2.452   1.408  11.811
11334SOL     OW34025   3.155   1.228  12.595
11334SOL    HW134026   3.192   1.155  12.537
11334SOL    HW234027   3.207   1.233  12.680
11335SOL     OW34028   2.671   0.004  11.674
11335SOL    HW134029   2.711   0.095  11.665
11335SOL    HW234030   2.571   0.012  11.680
11336SOL     OW34031   2.059   0.976  12.436
11336SOL    HW134032   2.148   0.931  12.422
11336SOL    HW234033   1.986   0.911  12.417
11337SOL     OW34034   3.387   0.999  11.362
11337SOL    HW134035   3.324   0.923  11.375
11337SOL    HW234036   3.435   1.017  11.448
11338SOL     OW34037   3.328   1.417  12.125
11338SOL    HW134038   3.269   1.423  12.205
11338SOL    HW234039   3.313   1.329  12.079
11339SOL     OW34040   3.529   1.714  11.744
11339SOL    HW134041   3.488   1.691  11.656
11339SOL    HW234042   3.511   1.640  11.809
11340SOL     OW34043   2.460   0.729  11.442
11340SOL    HW134044   2.484   0.798  11.374
11340SOL    HW234045   2.382   0.762  11.496
11341SOL     OW34046   3.143   0.345  12.116
11341SOL    HW134047   3.057   0.295  12.103
11341SOL    HW234048   3.205   0.291  12.172
11342SOL     OW34049   3.438   1.662  11.479
11342SOL    HW134050   3.527   1.708  11.482
11342SOL    HW234051   3.417   1.638  11.384
11343SOL     OW34052   2.669   0.605  12.637
11343SOL    HW134053   2.622   0.602  12.726
11343SOL    HW234054   2.618   0.550  12.571
11344SOL     OW34055   2.835   0.890  12.744
11344SOL    HW134056   2.881   0.806  12.715
11344SOL    HW234057   2.779   0.924  12.669
11345SOL     OW34058   2.853   0.410  12.414
11345SOL    HW134059   2.776   0.444  12.468
11345SOL    HW234060   2.819   0.359  12.335
11346SOL     OW34061   2.903   0.701  11.601
11346SOL    HW134062   2.929   0.697  11.697
11346SOL    HW234063   2.818   0.650  11.587
11347SOL     OW34064   1.938   0.811  11.961
11347SOL    HW134065   2.037   0.799  11.970
11347SOL    HW234066   1.914   0.906  11.982
11348SOL     OW34067   1.992   1.821  12.743
11348SOL    HW134068   1.982   1.806  12.842
11348SOL    HW234069   1.906   1.857  12.707
11349SOL     OW34070   2.727   0.348  11.367
11349SOL    HW134071   2.786   0.411  11.318
11349SOL    HW234072   2.746   0.254  11.338
11350SOL     OW34073   3.224   1.144  11.717
11350SOL    HW134074   3.307   1.115  11.669
11350SOL    HW234075   3.175   1.211  11.661
11351SOL     OW34076   2.412   0.196  12.057
11351SOL    HW134077   2.407   0.191  12.157
11351SOL    HW234078   2.414   0.292  12.028
11352SOL     OW34079   2.870   1.456  11.649
11352SOL    HW134080   2.824   1.528  11.597
11352SOL    HW234081   2.866   1.476  11.747
11353SOL     OW34082   2.213   1.801  12.025
11353SOL    HW134083   2.263   1.715  12.031
11353SOL    HW234084   2.278   1.878  12.022
11354SOL     OW34085   3.657   1.066  12.045
11354SOL    HW134086   3.595   1.051  11.969
11354SOL    HW234087   3.605   1.077  12.130
11355SOL     OW34088   3.089   1.550  12.678
11355SOL    HW134089   3.095   1.473  12.742
11355SOL    HW234090   3.037   1.524  12.598
11356SOL     OW34091   2.183   0.943  11.414
11356SOL    HW134092   2.265   0.982  11.372
11356SOL    HW234093   2.156   0.861  11.365
11357SOL     OW34094   3.320   0.735  11.900
11357SOL    HW134095   3.315   0.670  11.975
11357SOL    HW234096   3.400   0.794  11.913
11358SOL     OW34097   2.973   1.776  11.409
11358SOL    HW134098   2.913   1.714  11.459
11358SOL    HW234099   3.004   1.732  11.324
11359SOL     OW34100   2.064   0.285  12.670
11359SOL    HW134101   1.984   0.345  12.657
11359SOL    HW234102   2.054   0.236  12.756
11360SOL     OW34103   3.494   1.377  11.253
11360SOL    HW134104   3.462   1.471  11.243
11360SOL    HW234105   3.418   1.314  11.241
11361SOL     OW34106   2.326   1.743  11.495
11361SOL    HW134107   2.359   1.782  11.581
11361SOL    HW234108   2.402   1.736  11.430
11362SOL     OW34109   3.262   0.107  11.598
11362SOL    HW134110   3.238   0.070  11.508
11362SOL    HW234111   3.361   0.123  11.602
11363SOL     OW34112   2.111   1.785  12.413
11363SOL    HW134113   2.168   1.720  12.463
11363SOL    HW234114   2.095   1.752  12.320
11364SOL     OW34115   2.802   1.698  12.076
11364SOL    HW134116   2.882   1.641  12.097
11364SOL    HW234117   2.753   1.658  11.999
11365SOL     OW34118   2.244   0.700  11.652
11365SOL    HW134119   2.289   0.610  11.649
11365SOL    HW234120   2.150   0.689  11.685
11366SOL     OW34121   2.476   0.122  11.289
11366SOL    HW134122   2.574   0.100  11.296
11366SOL    HW234123   2.445   0.105  11.196
11367SOL     OW34124   2.750   1.514  12.367
11367SOL    HW134125   2.727   1.489  12.273
11367SOL    HW234126   2.811   1.445  12.406
11368SOL     OW34127   3.213   0.590  12.605
11368SOL    HW134128   3.241   0.547  12.690
11368SOL    HW234129   3.238   0.686  12.606
11369SOL     OW34130   2.665   1.402  12.096
11369SOL    HW134131   2.755   1.416  12.054
11369SOL    HW234132   2.594   1.404  12.025
11370SOL     OW34133   2.784   0.503  12.071
11370SOL    HW134134   2.759   0.494  11.975
11370SOL    HW234135   2.832   0.421  12.102
11371SOL     OW34136   2.401   0.064  11.684
11371SOL    HW134137   2.320   0.065  11.742
11371SOL    HW234138   2.404   0.147  11.629
11372SOL     OW34139   3.296   1.188  11.213
11372SOL    HW134140   3.328   1.112  11.270
11372SOL    HW234141   3.204   1.215  11.243
11373SOL     OW34142   2.159   0.035  11.343
11373SOL    HW134143   2.208   0.119  11.322
11373SOL    HW234144   2.221  -0.030  11.388
11374SOL     OW34145   2.797   0.236  11.652
11374SOL    HW134146   2.749   0.277  11.574
11374SOL    HW234147   2.896   0.234  11.633
11375SOL     OW34148   2.938   0.683  12.636
11375SOL    HW134149   2.858   0.622  12.639
11375SOL    HW234150   3.019   0.630  12.612
11376SOL     OW34151   3.089   1.570  11.965
11376SOL    HW134152   3.110   1.644  11.900
11376SOL    HW234153   3.157   1.570  12.038
11377SOL     OW34154   2.321   1.152  11.913
11377SOL    HW134155   2.250   1.125  11.978
11377SOL    HW234156   2.295   1.124  11.820
11378SOL     OW34157   3.133   1.797  11.763
11378SOL    HW134158   3.177   1.861  11.699
11378SOL    HW234159   3.083   1.849  11.833
11379SOL     OW34160   2.894   0.549  11.188
11379SOL    HW134161   2.853   0.631  11.149
11379SOL    HW234162   2.958   0.575  11.261
11380SOL     OW34163   1.940   0.556  12.558
11380SOL    HW134164   2.032   0.555  12.517
11380SOL    HW234165   1.934   0.630  12.625
11381SOL     OW34166   2.423   0.222  12.319
11381SOL    HW134167   2.461   0.138  12.356
11381SOL    HW234168   2.335   0.241  12.363
11382SOL     OW34169   2.728   0.454  11.814
11382SOL    HW134170   2.696   0.526  11.752
11382SOL    HW234171   2.752   0.373  11.761
11383SOL     OW34172   2.879   0.039  11.925
11383SOL    HW134173   2.807   0.044  11.856
11383SOL    HW234174   2.855  -0.030  11.994
11384SOL     OW34175   3.291   1.173  12.039
11384SOL    HW134176   3.236   1.089  12.032
11384SOL    HW234177   3.317   1.202  11.947
11385SOL     OW34178   3.328   0.590  12.164
11385SOL    HW134179   3.298   0.495  12.171
11385SOL    HW234180   3.401   0.606  12.230
11386SOL     OW34181   3.719   0.833  11.549
11386SOL    HW134182   3.761   0.769  11.613
11386SOL    HW234183   3.681   0.782  11.471
11387SOL     OW34184   2.350   1.385  11.346
11387SOL    HW134185   2.263   1.370  11.393
11387SOL    HW234186   2.333   1.411  11.251
11388SOL     OW34187   3.526   1.280  11.829
11388SOL    HW134188   3.625   1.288  11.843
11388SOL    HW234189   3.481   1.364  11.860
11389SOL     OW34190   3.252   0.575  11.250
11389SOL    HW134191   3.198   0.554  11.331
11389SOL    HW234192   3.343   0.534  11.259
11390SOL     OW34193   2.389   0.256  11.500
11390SOL    HW134194   2.416   0.197  11.425
11390SOL    HW234195   2.389   0.351  11.469
11391SOL     OW34196   3.616   1.223  12.760
11391SOL    HW134197   3.707   1.184  12.747
11391SOL    HW234198   3.624   1.319  12.784
11392SOL     OW34199   2.926   1.347  12.512
11392SOL    HW134200   2.846   1.324  12.567
11392SOL    HW234201   3.009   1.321  12.561
11393SOL     OW34202   2.973   1.195  12.272
11393SOL    HW134203   2.933   1.239  12.353
11393SOL    HW234204   2.932   1.232  12.189
11394SOL     OW34205   3.500   1.099  12.251
11394SOL    HW134206   3.505   1.180  12.310
11394SOL    HW234207   3.414   1.101  12.200
11395SOL     OW34208   2.777   0.089  12.574
11395SOL    HW134209   2.802   0.069  12.479
11395SOL    HW234210   2.849   0.145  12.616
11396SOL     OW34211   2.567   1.050  11.540
11396SOL    HW134212   2.553   1.057  11.639
11396SOL    HW234213   2.651   0.999  11.522
11397SOL     OW34214   2.272   0.813  12.423
11397SOL    HW134215   2.358   0.825  12.473
11397SOL    HW234216   2.230   0.726  12.450
11398SOL     OW34217   3.136   0.386  12.434
11398SOL    HW134218   3.157   0.460  12.498
11398SOL    HW234219   3.047   0.403  12.391
11399SOL     OW34220   1.926   1.564  12.503
11399SOL    HW134221   1.880   1.646  12.469
11399SOL    HW234222   2.024   1.583  12.512
11400SOL     OW34223   2.229   1.100  11.673
11400SOL    HW134224   2.222   1.183  11.617
11400SOL    HW234225   2.233   1.020  11.613
11401SOL     OW34226   2.428   0.537  12.037
11401SOL    HW134227   2.440   0.603  11.963
11401SOL    HW234228   2.474   0.571  12.120
11402SOL     OW34229   3.114   1.348  11.560
11402SOL    HW134230   3.164   1.425  11.600
11402SOL    HW234231   3.019   1.350  11.592
11403SOL     OW34232   3.134   1.445  12.314
11403SOL    HW134233   3.181   1.458  12.401
11403SOL    HW234234   3.068   1.371  12.323
11404SOL     OW34235   3.444   0.639  11.644
11404SOL    HW134236   3.413   0.700  11.717
11404SOL    HW234237   3.494   0.691  11.575
11405SOL     OW34238   2.216   1.510  12.501
11405SOL    HW134239   2.195   1.466  12.414
11405SOL    HW234240   2.313   1.536  12.504
11406SOL     OW34241   2.264   0.751  12.770
11406SOL    HW134242   2.332   0.806  12.723
11406SOL    HW234243   2.304   0.663  12.797
11407SOL     OW34244   3.449   0.779  12.842
11407SOL    HW134245   3.357   0.817  12.837
11407SOL    HW234246   3.509   0.826  12.777
11408SOL     OW34247   2.435   0.870  12.201
11408SOL    HW134248   2.479   0.959  12.192
11408SOL    HW234249   2.372   0.870  12.278
11409SOL     OW34250   3.222   0.862  12.217
11409SOL    HW134251   3.147   0.862  12.151
11409SOL    HW234252   3.259   0.770  12.226
11410SOL     OW34253   3.071   0.525  11.447
11410SOL    HW134254   3.084   0.441  11.501
11410SOL    HW234255   3.042   0.599  11.507
11411SOL     OW34256   2.169   0.213  12.403
11411SOL    HW134257   2.146   0.250  12.493
11411SOL    HW234258   2.139   0.118  12.397
11412SOL     OW34259   1.899   1.310  12.454
11412SOL    HW134260   1.952   1.261  12.522
11412SOL    HW234261   1.921   1.408  12.459
11413SOL     OW34262   2.594   0.634  12.236
11413SOL    HW134263   2.653   0.608  12.160
11413SOL    HW234264   2.566   0.730  12.225
11414SOL     OW34265   2.169   0.063  11.790
11414SOL    HW134266   2.158   0.157  11.823
11414SOL    HW234267   2.164   0.000  11.867
11415SOL     OW34268   3.484   0.367  11.546
11415SOL    HW134269   3.486   0.291  11.610
11415SOL    HW234270   3.436   0.444  11.586
11416SOL     OW34271   2.885   0.766  12.138
11416SOL    HW134272   2.900   0.787  12.234
11416SOL    HW234273   2.855   0.671  12.129
11417SOL     OW34274   3.402   0.274  11.297
11417SOL    HW134275   3.341   0.199  11.320
11417SOL    HW234276   3.424   0.326  11.380
11418SOL     OW34277   3.165   0.838  11.214
11418SOL    HW134278   3.199   0.745  11.229
11418SOL    HW234279   3.183   0.865  11.119
11419SOL     OW34280   2.930   1.333  12.021
11419SOL    HW134281   2.937   1.249  11.966
11419SOL    HW234282   2.992   1.402  11.985
11420SOL     OW34283   2.181   0.810  12.121
11420SOL    HW134284   2.274   0.846  12.126
11420SOL    HW234285   2.175   0.725  12.173
11421SOL     OW34286   2.201   0.509  12.178
11421SOL    HW134287   2.149   0.426  12.161
11421SOL    HW234288   2.278   0.514  12.114
11422SOL     OW34289   3.022   0.207  12.649
11422SOL    HW134290   3.022   0.271  12.726
11422SOL    HW234291   3.050   0.255  12.566
11423SOL     OW34292   1.870   1.326  11.372
11423SOL    HW134293   1.777   1.347  11.341
11423SOL    HW234294   1.880   1.227  11.385
11424SOL     OW34295   1.950   1.801  12.099
11424SOL    HW134296   1.908   1.715  12.072
11424SOL    HW234297   2.044   1.804  12.065
11425SOL     OW34298   2.366   1.568  12.082
11425SOL    HW134299   2.432   1.642  12.091
11425SOL    HW234300   2.410   1.489  12.040
11426SOL     OW34301   2.864   0.796  12.410
11426SOL    HW134302   2.905   0.764  12.496
11426SOL    HW234303   2.768   0.769  12.407
11427SOL     OW34304   1.902   0.544  12.286
11427SOL    HW134305   1.987   0.511  12.245
11427SOL    HW234306   1.915   0.559  12.384
11428SOL     OW34307   2.677   0.572  11.497
11428SOL    HW134308   2.684   0.483  11.451
11428SOL    HW234309   2.583   0.606  11.489
11429SOL     OW34310   3.519   0.604  12.378
11429SOL    HW134311   3.481   0.535  12.440
11429SOL    HW234312   3.601   0.568  12.334
11430SOL     OW34313   2.114   1.564  12.916
11430SOL    HW134314   2.084   1.621  12.992
11430SOL    HW234315   2.107   1.467  12.942
11431SOL     OW34316   2.533   0.464  12.441
11431SOL    HW134317   2.499   0.375  12.411
11431SOL    HW234318   2.559   0.518  12.361
11432SOL     OW34319   2.792   1.678  12.637
11432SOL    HW134320   2.768   1.660  12.542
11432SOL    HW234321   2.822   1.772  12.647
11433SOL     OW34322   2.335   0.500  11.363
11433SOL    HW134323   2.396   0.580  11.367
11433SOL    HW234324   2.240   0.531  11.370
11434SOL     OW34325   2.021   1.137  12.638
11434SOL    HW134326   2.043   1.076  12.714
11434SOL    HW234327   2.031   1.088  12.552
11435SOL     OW34328   3.209   1.059  12.406
11435SOL    HW134329   3.233   0.996  12.332
11435SOL    HW234330   3.119   1.099  12.388
11436SOL     OW34331   3.164   0.855  11.481
11436SOL    HW134332   3.078   0.824  11.523
11436SOL    HW234333   3.160   0.841  11.382
11437SOL     OW34334   3.621   1.747  12.326
11437SOL    HW134335   3.682   1.777  12.253
11437SOL    HW234336   3.583   1.658  12.304
11438SOL     OW34337   3.114   1.731  12.300
11438SOL    HW134338   3.198   1.736  12.246
11438SOL    HW234339   3.091   1.635  12.318
11439SOL     OW34340   1.945   1.258  12.194
11439SOL    HW134341   1.940   1.257  12.294
11439SOL    HW234342   1.862   1.217  12.156
11440SOL     OW34343   3.588   0.135  11.695
11440SOL    HW134344   3.661   0.118  11.628
11440SOL    HW234345   3.557   0.048  11.733
11441SOL     OW34346   3.250   1.573  11.649
11441SOL    HW134347   3.317   1.585  11.575
11441SOL    HW234348   3.210   1.662  11.672
11442SOL     OW34349   3.142   0.927  11.844
11442SOL    HW134350   3.202   0.846  11.846
11442SOL    HW234351   3.182   0.996  11.784
11443SOL     OW34352   2.692   1.273  12.594
11443SOL    HW134353   2.687   1.306  12.689
11443SOL    HW234354   2.606   1.292  12.548
11444SOL     OW34355   2.534   1.616  11.326
11444SOL    HW134356   2.543   1.626  11.227
11444SOL    HW234357   2.494   1.527  11.347
11445SOL     OW34358   3.512   1.720  12.566
11445SOL    HW134359   3.565   1.730  12.482
11445SOL    HW234360   3.485   1.810  12.600
11446SOL     OW34361   3.703   0.175  12.135
11446SOL    HW134362   3.742   0.090  12.099
11446SOL    HW234363   3.605   0.177  12.116
11447SOL     OW34364   2.125   0.326  11.892
11447SOL    HW134365   2.046   0.377  11.858
11447SOL    HW234366   2.116   0.311  11.990
11448SOL     OW34367   3.056   1.612  11.203
11448SOL    HW134368   3.062   1.519  11.240
11448SOL    HW234369   2.997   1.612  11.123
11449SOL     OW34370   2.684   1.002  12.544
11449SOL    HW134371   2.724   1.001  12.452
11449SOL    HW234372   2.694   1.094  12.584
11450SOL     OW34373   2.778   0.910  11.463
11450SOL    HW134374   2.841   0.948  11.395
11450SOL    HW234375   2.818   0.827  11.502
11451SOL     OW34376   3.366   1.607  11.216
11451SOL    HW134377   3.274   1.644  11.223
11451SOL    HW234378   3.404   1.627  11.126
11452SOL     OW34379   2.234   1.288  12.662
11452SOL    HW134380   2.221   1.381  12.628
11452SOL    HW234381   2.150   1.236  12.649
11453SOL     OW34382   3.476   1.292  12.461
11453SOL    HW134383   3.536   1.295  12.541
11453SOL    HW234384   3.401   1.356  12.474
11454SOL     OW34385   2.901   1.098  11.868
11454SOL    HW134386   2.831   1.051  11.922
11454SOL    HW234387   2.960   1.030  11.825
11455SOL     OW34388   2.876   0.236  12.143
11455SOL    HW134389   2.868   0.200  12.050
11455SOL    HW234390   2.874   0.160  12.208
11456SOL     OW34391   2.452   1.487  11.663
11456SOL    HW134392   2.494   1.429  11.593
11456SOL    HW234393   2.408   1.566  11.619
11457SOL     OW34394   3.571   0.385  12.553
11457SOL    HW134395   3.644   0.454  12.557
11457SOL    HW234396   3.599   0.310  12.494
11458SOL     OW34397   2.117   1.348  11.462
11458SOL    HW134398   2.021   1.349  11.435
11458SOL    HW234399   2.129   1.401  11.546
11459SOL     OW34400   1.967   1.013  12.898
11459SOL    HW134401   1.890   0.980  12.952
11459SOL    HW234402   2.052   0.983  12.940
11460SOL     OW34403   2.534   0.203  12.661
11460SOL    HW134404   2.624   0.187  12.621
11460SOL    HW234405   2.542   0.208  12.760
11461SOL     OW34406   1.937   0.345  11.205
11461SOL    HW134407   1.845   0.317  11.176
11461SOL    HW234408   1.968   0.422  11.149
11462SOL     OW34409   3.302   0.856  12.570
11462SOL    HW134410   3.245   0.908  12.507
11462SOL    HW234411   3.398   0.868  12.546
11463SOL     OW34412   1.934   0.166  11.490
11463SOL    HW134413   1.917   0.249  11.436
11463SOL    HW234414   2.024   0.129  11.468
11464SOL     OW34415   3.045   1.335  11.291
11464SOL    HW134416   2.946   1.324  11.293
11464SOL    HW234417   3.079   1.350  11.384
11465SOL     OW34418   2.475   0.842  12.603
11465SOL    HW134419   2.531   0.923  12.586
11465SOL    HW234420   2.534   0.762  12.606
11466SOL     OW34421   3.355   1.767  12.131
11466SOL    HW134422   3.388   1.831  12.062
11466SOL    HW234423   3.421   1.761  12.206
11467SOL     OW34424   2.578   0.565  12.880
11467SOL    HW134425   2.597   0.630  12.954
11467SOL    HW234426   2.638   0.485  12.889
11468SOL     OW34427   2.252   1.741  12.732
11468SOL    HW134428   2.161   1.782  12.730
11468SOL    HW234429   2.245   1.647  12.764
11469SOL     OW34430   3.536   0.883  12.426
11469SOL    HW134431   3.509   0.794  12.389
11469SOL    HW234432   3.537   0.951  12.353
11470SOL     OW34433   3.087   0.325  11.621
11470SOL    HW134434   3.152   0.251  11.610
11470SOL    HW234435   3.107   0.375  11.705
11471SOL     OW34436   2.456   0.745  11.824
11471SOL    HW134437   2.506   0.830  11.805
11471SOL    HW234438   2.368   0.747  11.776
11472SOL     OW34439   3.639   0.342  12.814
11472SOL    HW134440   3.622   0.373  12.720
11472SOL    HW234441   3.555   0.305  12.852
11473SOL     OW34442   3.592   0.934  12.689
11473SOL    HW134443   3.630   1.025  12.704
11473SOL    HW234444   3.584   0.917  12.590
11474SOL     OW34445   2.721   1.374  11.188
11474SOL    HW134446   2.675   1.389  11.276
11474SOL    HW234447   2.765   1.459  11.158
11475SOL     OW34448   2.523   1.790  12.125
11475SOL    HW134449   2.477   1.878  12.112
11475SOL    HW234450   2.622   1.802  12.118
11476SOL     OW34451   2.721   0.956  12.033
11476SOL    HW134452   2.775   0.887  12.081
11476SOL    HW234453   2.689   1.025  12.099
11477SOL     OW34454   2.945   0.984  11.259
11477SOL    HW134455   2.922   1.037  11.177
11477SOL    HW234456   3.026   0.928  11.240
11478SOL     OW34457   3.723   1.569  12.023
11478SOL    HW134458   3.652   1.557  11.953
11478SOL    HW234459   3.724   1.490  12.083
11479SOL     OW34460   1.941   1.240  11.825
11479SOL    HW134461   1.940   1.193  11.913
11479SOL    HW234462   2.023   1.212  11.774
11480SOL     OW34463   2.534   1.391  12.796
11480SOL    HW134464   2.456   1.341  12.834
11480SOL    HW234465   2.531   1.486  12.827
11481SOL     OW34466   3.686   0.192  12.399
11481SOL    HW134467   3.682   0.102  12.443
11481SOL    HW234468   3.689   0.181  12.300
11482SOL     OW34469   2.290   0.424  11.692
11482SOL    HW134470   2.320   0.352  11.630
11482SOL    HW234471   2.251   0.384  11.775
11483SOL     OW34472   3.567   1.487  12.276
11483SOL    HW134473   3.474   1.462  12.249
11483SOL    HW234474   3.593   1.437  12.358
11484SOL     OW34475   2.179   0.547  12.452
11484SOL    HW134476   2.217   0.488  12.524
11484SOL    HW234477   2.219   0.521  12.364
11485SOL     OW34478   2.674   1.586  11.859
11485SOL    HW134479   2.706   1.596  11.765
11485SOL    HW234480   2.595   1.524  11.861
11486SOL     OW34481   3.286   0.214  12.284
11486SOL    HW134482   3.338   0.149  12.339
11486SOL    HW234483   3.237   0.277  12.345
11487SOL     OW34484   2.863   0.034  12.326
11487SOL    HW134485   2.800  -0.038  12.295
11487SOL    HW234486   2.956  -0.002  12.326
11488SOL     OW34487   2.632   1.330  11.473
11488SOL    HW134488   2.586   1.243  11.490
11488SOL    HW234489   2.723   1.327  11.514
11489SOL     OW34490   2.480   1.567  12.456
11489SOL    HW134491   2.475   1.649  12.513
11489SOL    HW234492   2.569   1.564  12.411
11490SOL     OW34493   3.214   0.052  11.340
11490SOL    HW134494   3.249   0.011  11.256
11490SOL    HW234495   3.124   0.014  11.360
11491SOL     OW34496   3.162   0.453  11.863
11491SOL    HW134497   3.103   0.533  11.867
11491SOL    HW234498   3.177   0.418  11.956
11492SOL     OW34499   3.455   0.221  12.054
11492SOL    HW134500   3.371   0.220  12.108
11492SOL    HW234501   3.457   0.304  11.998
11493SOL     OW34502   1.901   1.077  11.472
11493SOL    HW134503   2.000   1.066  11.463
11493SOL    HW234504   1.861   0.991  11.504
11494SOL     OW34505   2.737   1.646  11.509
11494SOL    HW134506   2.660   1.611  11.455
11494SOL    HW234507   2.705   1.717  11.571
11495SOL     OW34508   2.092   2.490   0.113
11495SOL    HW134509   1.999   2.488   0.150
11495SOL    HW234510   2.093   2.451   0.021
11496SOL     OW34511   2.087   2.137   0.996
11496SOL    HW134512   2.122   2.120   1.088
11496SOL    HW234513   1.999   2.092   0.984
11497SOL     OW34514   1.881   2.230   0.647
11497SOL    HW134515   1.799   2.273   0.686
11497SOL    HW234516   1.853   2.157   0.584
11498SOL     OW34517   2.431   3.137   1.165
11498SOL    HW134518   2.338   3.130   1.128
11498SOL    HW234519   2.442   3.226   1.209
11499SOL     OW34520   3.417   3.373   0.703
11499SOL    HW134521   3.360   3.357   0.784
11499SOL    HW234522   3.358   3.383   0.623
11500SOL     OW34523   2.997   2.565   0.717
11500SOL    HW134524   3.054   2.643   0.692
11500SOL    HW234525   2.937   2.591   0.793
11501SOL     OW34526   3.617   2.469   0.231
11501SOL    HW134527   3.605   2.456   0.132
11501SOL    HW234528   3.587   2.388   0.280
11502SOL     OW34529   2.630   3.006   1.023
11502SOL    HW134530   2.552   3.023   1.083
11502SOL    HW234531   2.664   3.093   0.987
11503SOL     OW34532   2.712   2.660   1.823
11503SOL    HW134533   2.708   2.736   1.888
11503SOL    HW234534   2.734   2.696   1.732
11504SOL     OW34535   2.547   2.874   0.665
11504SOL    HW134536   2.616   2.858   0.735
11504SOL    HW234537   2.474   2.931   0.703
11505SOL     OW34538   2.548   3.023   1.803
11505SOL    HW134539   2.608   3.102   1.817
11505SOL    HW234540   2.462   3.054   1.762
11506SOL     OW34541   2.197   3.297   1.061
11506SOL    HW134542   2.119   3.266   1.008
11506SOL    HW234543   2.255   3.355   1.004
11507SOL     OW34544   3.322   3.367   1.339
11507SOL    HW134545   3.346   3.461   1.365
11507SOL    HW234546   3.306   3.313   1.421
11508SOL     OW34547   2.300   2.254   1.499
11508SOL    HW134548   2.382   2.198   1.508
11508SOL    HW234549   2.219   2.196   1.503
11509SOL     OW34550   3.465   2.309   0.737
11509SOL    HW134551   3.391   2.355   0.687
11509SOL    HW234552   3.516   2.377   0.790
11510SOL     OW34553   2.093   3.575   0.483
11510SOL    HW134554   2.127   3.652   0.537
11510SOL    HW234555   2.137   3.575   0.393
11511SOL     OW34556   2.989   3.203   1.690
11511SOL    HW134557   3.036   3.203   1.778
11511SOL    HW234558   2.941   3.116   1.679
11512SOL     OW34559   2.092   3.296   0.538
11512SOL    HW134560   2.066   3.392   0.538
11512SOL    HW234561   2.021   3.242   0.583
11513SOL     OW34562   2.102   2.953   0.886
11513SOL    HW134563   2.116   2.869   0.938
11513SOL    HW234564   2.047   3.017   0.941
11514SOL     OW34565   2.482   3.648   1.439
11514SOL    HW134566   2.390   3.631   1.474
11514SOL    HW234567   2.510   3.740   1.465
11515SOL     OW34568   2.468   2.826   0.123
11515SOL    HW134569   2.475   2.910   0.069
11515SOL    HW234570   2.514   2.839   0.211
11516SOL     OW34571   3.456   1.976   1.480
11516SOL    HW134572   3.438   2.043   1.408
11516SOL    HW234573   3.453   2.022   1.569
11517SOL     OW34574   1.984   2.505   0.563
11517SOL    HW134575   1.939   2.417   0.580
11517SOL    HW234576   1.983   2.559   0.647
11518SOL     OW34577   3.704   3.629   0.359
11518SOL    HW134578   3.758   3.600   0.439
11518SOL    HW234579   3.734   3.719   0.330
11519SOL     OW34580   1.889   3.458   0.117
11519SOL    HW134581   1.870   3.362   0.138
11519SOL    HW234582   1.856   3.516   0.192
11520SOL     OW34583   3.551   2.784   0.612
11520SOL    HW134584   3.646   2.755   0.620
11520SOL    HW234585   3.543   2.849   0.537
11521SOL     OW34586   3.503   2.970   0.432
11521SOL    HW134587   3.589   2.972   0.380
11521SOL    HW234588   3.517   3.017   0.520
11522SOL     OW34589   1.975   2.599   1.597
11522SOL    HW134590   2.063   2.586   1.642
11522SOL    HW234591   1.962   2.696   1.575
11523SOL     OW34592   2.475   3.227   0.726
11523SOL    HW134593   2.426   3.140   0.735
11523SOL    HW234594   2.452   3.270   0.639
11524SOL     OW34595   3.155   3.090   1.423
11524SOL    HW134596   3.192   3.017   1.365
11524SOL    HW234597   3.207   3.095   1.508
11525SOL     OW34598   2.671   1.866   0.502
11525SOL    HW134599   2.711   1.957   0.493
11525SOL    HW234600   2.571   1.874   0.508
11526SOL     OW34601   2.059   2.838   1.264
11526SOL    HW134602   2.148   2.793   1.250
11526SOL    HW234603   1.986   2.773   1.245
11527SOL     OW34604   3.387   2.861   0.190
11527SOL    HW134605   3.324   2.785   0.203
11527SOL    HW234606   3.435   2.879   0.276
11528SOL     OW34607   3.049   3.654   1.616
11528SOL    HW134608   3.073   3.714   1.540
11528SOL    HW234609   3.056   3.559   1.586
11529SOL     OW34610   2.179   2.113   1.801
11529SOL    HW134611   2.250   2.184   1.807
11529SOL    HW234612   2.091   2.152   1.829
11530SOL     OW34613   3.328   3.279   0.953
11530SOL    HW134614   3.269   3.285   1.033
11530SOL    HW234615   3.313   3.191   0.907
11531SOL     OW34616   3.529   3.576   0.572
11531SOL    HW134617   3.488   3.553   0.484
11531SOL    HW234618   3.511   3.502   0.637
11532SOL     OW34619   2.460   2.591   0.270
11532SOL    HW134620   2.484   2.660   0.202
11532SOL    HW234621   2.382   2.624   0.324
11533SOL     OW34622   3.143   2.207   0.944
11533SOL    HW134623   3.057   2.157   0.931
11533SOL    HW234624   3.205   2.153   1.000
11534SOL     OW34625   3.438   3.524   0.307
11534SOL    HW134626   3.527   3.570   0.310
11534SOL    HW234627   3.417   3.500   0.212
11535SOL     OW34628   2.669   2.467   1.465
11535SOL    HW134629   2.622   2.464   1.554
11535SOL    HW234630   2.618   2.412   1.399
11536SOL     OW34631   3.256   2.331   1.674
11536SOL    HW134632   3.236   2.374   1.762
11536SOL    HW234633   3.334   2.269   1.683
11537SOL     OW34634   2.835   2.752   1.572
11537SOL    HW134635   2.881   2.668   1.543
11537SOL    HW234636   2.779   2.786   1.497
11538SOL     OW34637   2.853   2.272   1.242
11538SOL    HW134638   2.776   2.306   1.296
11538SOL    HW234639   2.819   2.221   1.163
11539SOL     OW34640   2.903   2.563   0.429
11539SOL    HW134641   2.929   2.559   0.525
11539SOL    HW234642   2.818   2.512   0.415
11540SOL     OW34643   1.938   2.673   0.789
11540SOL    HW134644   2.037   2.661   0.798
11540SOL    HW234645   1.914   2.768   0.810
11541SOL     OW34646   1.992   3.683   1.571
11541SOL    HW134647   1.982   3.668   1.670
11541SOL    HW234648   1.906   3.719   1.535
11542SOL     OW34649   2.727   2.210   0.195
11542SOL    HW134650   2.786   2.273   0.146
11542SOL    HW234651   2.746   2.116   0.166
11543SOL     OW34652   3.581   2.447   1.831
11543SOL    HW134653   3.555   2.536   1.795
11543SOL    HW234654   3.579   2.379   1.758
11544SOL     OW34655   3.224   3.006   0.545
11544SOL    HW134656   3.307   2.977   0.497
11544SOL    HW234657   3.175   3.073   0.489
11545SOL     OW34658   2.412   2.058   0.885
11545SOL    HW134659   2.407   2.053   0.985
11545SOL    HW234660   2.414   2.154   0.856
11546SOL     OW34661   2.870   3.318   0.477
11546SOL    HW134662   2.824   3.390   0.425
11546SOL    HW234663   2.866   3.338   0.575
11547SOL     OW34664   2.213   3.663   0.853
11547SOL    HW134665   2.263   3.577   0.859
11547SOL    HW234666   2.278   3.740   0.850
11548SOL     OW34667   3.657   2.928   0.873
11548SOL    HW134668   3.595   2.913   0.797
11548SOL    HW234669   3.605   2.939   0.958
11549SOL     OW34670   3.089   3.412   1.506
11549SOL    HW134671   3.095   3.335   1.570
11549SOL    HW234672   3.037   3.386   1.426
11550SOL     OW34673   2.183   2.805   0.242
11550SOL    HW134674   2.265   2.844   0.200
11550SOL    HW234675   2.156   2.723   0.193
11551SOL     OW34676   3.320   2.597   0.728
11551SOL    HW134677   3.315   2.532   0.803
11551SOL    HW234678   3.400   2.656   0.741
11552SOL     OW34679   2.323   3.128   1.727
11552SOL    HW134680   2.273   3.129   1.641
11552SOL    HW234681   2.260   3.110   1.803
11553SOL     OW34682   2.973   3.638   0.237
11553SOL    HW134683   2.913   3.576   0.287
11553SOL    HW234684   3.004   3.594   0.152
11554SOL     OW34685   2.064   2.147   1.498
11554SOL    HW134686   1.984   2.207   1.485
11554SOL    HW234687   2.054   2.098   1.584
11555SOL     OW34688   3.494   3.239   0.081
11555SOL    HW134689   3.462   3.333   0.071
11555SOL    HW234690   3.418   3.176   0.069
11556SOL     OW34691   2.326   3.605   0.323
11556SOL    HW134692   2.359   3.644   0.409
11556SOL    HW234693   2.402   3.598   0.258
11557SOL     OW34694   3.262   1.969   0.426
11557SOL    HW134695   3.238   1.932   0.336
11557SOL    HW234696   3.361   1.985   0.430
11558SOL     OW34697   2.111   3.647   1.241
11558SOL    HW134698   2.168   3.582   1.291
11558SOL    HW234699   2.095   3.614   1.148
11559SOL     OW34700   2.802   3.560   0.904
11559SOL    HW134701   2.882   3.503   0.925
11559SOL    HW234702   2.753   3.520   0.827
11560SOL     OW34703   2.244   2.562   0.480
11560SOL    HW134704   2.289   2.472   0.477
11560SOL    HW234705   2.150   2.551   0.513
11561SOL     OW34706   3.409   2.084   1.729
11561SOL    HW134707   3.404   2.121   1.821
11561SOL    HW234708   3.337   2.015   1.717
11562SOL     OW34709   2.476   1.984   0.117
11562SOL    HW134710   2.574   1.962   0.124
11562SOL    HW234711   2.445   1.967   0.024
11563SOL     OW34712   2.643   2.126   1.749
11563SOL    HW134713   2.710   2.065   1.792
11563SOL    HW234714   2.570   2.145   1.814
11564SOL     OW34715   2.750   3.376   1.195
11564SOL    HW134716   2.727   3.351   1.101
11564SOL    HW234717   2.811   3.307   1.234
11565SOL     OW34718   3.213   2.452   1.433
11565SOL    HW134719   3.241   2.409   1.518
11565SOL    HW234720   3.238   2.548   1.434
11566SOL     OW34721   2.665   3.264   0.924
11566SOL    HW134722   2.755   3.278   0.882
11566SOL    HW234723   2.594   3.266   0.853
11567SOL     OW34724   2.784   2.365   0.899
11567SOL    HW134725   2.759   2.356   0.803
11567SOL    HW234726   2.832   2.283   0.930
11568SOL     OW34727   2.401   1.926   0.512
11568SOL    HW134728   2.320   1.927   0.570
11568SOL    HW234729   2.404   2.009   0.457
11569SOL     OW34730   3.296   3.050   0.041
11569SOL    HW134731   3.328   2.974   0.098
11569SOL    HW234732   3.204   3.077   0.071
11570SOL     OW34733   2.159   1.897   0.171
11570SOL    HW134734   2.208   1.981   0.150
11570SOL    HW234735   2.221   1.832   0.216
11571SOL     OW34736   2.797   2.098   0.480
11571SOL    HW134737   2.749   2.139   0.402
11571SOL    HW234738   2.896   2.096   0.461
11572SOL     OW34739   2.938   2.545   1.464
11572SOL    HW134740   2.858   2.484   1.467
11572SOL    HW234741   3.019   2.492   1.440
11573SOL     OW34742   3.089   3.432   0.793
11573SOL    HW134743   3.110   3.506   0.728
11573SOL    HW234744   3.157   3.432   0.866
11574SOL     OW34745   2.321   3.014   0.741
11574SOL    HW134746   2.250   2.987   0.806
11574SOL    HW234747   2.295   2.986   0.648
11575SOL     OW34748   3.133   3.659   0.591
11575SOL    HW134749   3.177   3.723   0.527
11575SOL    HW234750   3.083   3.711   0.661
11576SOL     OW34751   2.894   2.411   0.016
11576SOL    HW134752   2.853   2.493  -0.023
11576SOL    HW234753   2.958   2.437   0.089
11577SOL     OW34754   1.940   2.418   1.386
11577SOL    HW134755   2.032   2.417   1.345
11577SOL    HW234756   1.934   2.492   1.453
11578SOL     OW34757   2.423   2.084   1.147
11578SOL    HW134758   2.461   2.000   1.184
11578SOL    HW234759   2.335   2.103   1.191
11579SOL     OW34760   2.728   2.316   0.642
11579SOL    HW134761   2.696   2.388   0.580
11579SOL    HW234762   2.752   2.235   0.589
11580SOL     OW34763   2.879   1.901   0.753
11580SOL    HW134764   2.807   1.906   0.684
11580SOL    HW234765   2.855   1.832   0.822
11581SOL     OW34766   3.291   3.035   0.867
11581SOL    HW134767   3.236   2.951   0.860
11581SOL    HW234768   3.317   3.064   0.775
11582SOL     OW34769   3.328   2.452   0.992
11582SOL    HW134770   3.298   2.357   0.999
11582SOL    HW234771   3.401   2.468   1.058
11583SOL     OW34772   3.719   2.695   0.377
11583SOL    HW134773   3.761   2.631   0.441
11583SOL    HW234774   3.681   2.644   0.299
11584SOL     OW34775   2.350   3.247   0.174
11584SOL    HW134776   2.263   3.232   0.221
11584SOL    HW234777   2.333   3.273   0.079
11585SOL     OW34778   3.526   3.142   0.657
11585SOL    HW134779   3.625   3.150   0.671
11585SOL    HW234780   3.481   3.226   0.688
11586SOL     OW34781   3.252   2.437   0.078
11586SOL    HW134782   3.198   2.416   0.159
11586SOL    HW234783   3.343   2.396   0.087
11587SOL     OW34784   2.389   2.118   0.328
11587SOL    HW134785   2.416   2.059   0.253
11587SOL    HW234786   2.389   2.213   0.297
11588SOL     OW34787   3.616   3.085   1.588
11588SOL    HW134788   3.707   3.046   1.575
11588SOL    HW234789   3.624   3.181   1.612
11589SOL     OW34790   2.926   3.209   1.340
11589SOL    HW134791   2.846   3.186   1.395
11589SOL    HW234792   3.009   3.183   1.389
11590SOL     OW34793   3.454   3.491   1.625
11590SOL    HW134794   3.481   3.525   1.535
11590SOL    HW234795   3.533   3.453   1.671
11591SOL     OW34796   2.973   3.057   1.100
11591SOL    HW134797   2.933   3.101   1.181
11591SOL    HW234798   2.932   3.094   1.017
11592SOL     OW34799   3.500   2.961   1.079
11592SOL    HW134800   3.505   3.042   1.138
11592SOL    HW234801   3.414   2.963   1.028
11593SOL     OW34802   2.777   1.951   1.402
11593SOL    HW134803   2.802   1.931   1.307
11593SOL    HW234804   2.849   2.007   1.444
11594SOL     OW34805   2.842   2.978   1.719
11594SOL    HW134806   2.743   2.984   1.729
11594SOL    HW234807   2.865   2.898   1.663
11595SOL     OW34808   2.567   2.912   0.368
11595SOL    HW134809   2.553   2.919   0.467
11595SOL    HW234810   2.651   2.861   0.350
11596SOL     OW34811   2.272   2.675   1.251
11596SOL    HW134812   2.358   2.687   1.301
11596SOL    HW234813   2.230   2.588   1.278
11597SOL     OW34814   3.136   2.248   1.262
11597SOL    HW134815   3.157   2.322   1.326
11597SOL    HW234816   3.047   2.265   1.219
11598SOL     OW34817   1.926   3.426   1.331
11598SOL    HW134818   1.880   3.508   1.297
11598SOL    HW234819   2.024   3.445   1.340
11599SOL     OW34820   2.229   2.962   0.501
11599SOL    HW134821   2.222   3.045   0.445
11599SOL    HW234822   2.233   2.882   0.441
11600SOL     OW34823   2.428   2.399   0.865
11600SOL    HW134824   2.440   2.465   0.791
11600SOL    HW234825   2.474   2.433   0.948
11601SOL     OW34826   3.114   3.210   0.388
11601SOL    HW134827   3.164   3.287   0.428
11601SOL    HW234828   3.019   3.212   0.420
11602SOL     OW34829   3.134   3.307   1.142
11602SOL    HW134830   3.181   3.320   1.229
11602SOL    HW234831   3.068   3.233   1.151
11603SOL     OW34832   3.444   2.501   0.472
11603SOL    HW134833   3.413   2.562   0.545
11603SOL    HW234834   3.494   2.553   0.403
11604SOL     OW34835   2.216   3.372   1.329
11604SOL    HW134836   2.195   3.328   1.242
11604SOL    HW234837   2.313   3.398   1.332
11605SOL     OW34838   2.264   2.613   1.598
11605SOL    HW134839   2.332   2.668   1.551
11605SOL    HW234840   2.304   2.525   1.625
11606SOL     OW34841   3.449   2.641   1.670
11606SOL    HW134842   3.357   2.679   1.665
11606SOL    HW234843   3.509   2.688   1.605
11607SOL     OW34844   2.875   1.967   1.770
11607SOL    HW134845   2.881   2.052   1.718
11607SOL    HW234846   2.907   1.891   1.713
11608SOL     OW34847   2.366   1.912   1.740
11608SOL    HW134848   2.324   1.855   1.670
11608SOL    HW234849   2.300   1.981   1.772
11609SOL     OW34850   2.435   2.732   1.029
11609SOL    HW134851   2.479   2.821   1.020
11609SOL    HW234852   2.372   2.732   1.106
11610SOL     OW34853   3.222   2.724   1.045
11610SOL    HW134854   3.147   2.724   0.979
11610SOL    HW234855   3.259   2.632   1.054
11611SOL     OW34856   3.071   2.387   0.275
11611SOL    HW134857   3.084   2.303   0.329
11611SOL    HW234858   3.042   2.461   0.335
11612SOL     OW34859   2.169   2.075   1.231
11612SOL    HW134860   2.146   2.112   1.321
11612SOL    HW234861   2.139   1.980   1.225
11613SOL     OW34862   1.899   3.172   1.282
11613SOL    HW134863   1.952   3.123   1.350
11613SOL    HW234864   1.921   3.270   1.287
11614SOL     OW34865   2.594   2.496   1.064
11614SOL    HW134866   2.653   2.470   0.988
11614SOL    HW234867   2.566   2.592   1.053
11615SOL     OW34868   3.590   2.797   1.854
11615SOL    HW134869   3.544   2.790   1.765
11615SOL    HW234870   3.528   2.841   1.920
11616SOL     OW34871   2.169   1.925   0.618
11616SOL    HW134872   2.158   2.019   0.651
11616SOL    HW234873   2.164   1.862   0.695
11617SOL     OW34874   3.484   2.229   0.374
11617SOL    HW134875   3.486   2.153   0.438
11617SOL    HW234876   3.436   2.306   0.414
11618SOL     OW34877   2.885   2.628   0.966
11618SOL    HW134878   2.900   2.649   1.062
11618SOL    HW234879   2.855   2.533   0.957
11619SOL     OW34880   2.842   3.435   1.700
11619SOL    HW134881   2.822   3.479   1.612
11619SOL    HW234882   2.881   3.344   1.684
11620SOL     OW34883   3.721   3.380   1.605
11620SOL    HW134884   3.735   3.407   1.510
11620SOL    HW234885   3.804   3.402   1.658
11621SOL     OW34886   2.212   2.760   1.804
11621SOL    HW134887   2.288   2.804   1.852
11621SOL    HW234888   2.247   2.713   1.722
11622SOL     OW34889   3.402   2.136   0.125
11622SOL    HW134890   3.341   2.061   0.148
11622SOL    HW234891   3.424   2.188   0.208
11623SOL     OW34892   3.165   2.700   0.042
11623SOL    HW134893   3.199   2.607   0.057
11623SOL    HW234894   3.183   2.727  -0.053
11624SOL     OW34895   2.930   3.195   0.849
11624SOL    HW134896   2.937   3.111   0.794
11624SOL    HW234897   2.992   3.264   0.813
11625SOL     OW34898   2.181   2.672   0.949
11625SOL    HW134899   2.274   2.708   0.954
11625SOL    HW234900   2.175   2.587   1.001
11626SOL     OW34901   2.201   2.371   1.006
11626SOL    HW134902   2.149   2.288   0.989
11626SOL    HW234903   2.278   2.376   0.942
11627SOL     OW34904   3.000   2.242   1.678
11627SOL    HW134905   2.955   2.305   1.742
11627SOL    HW234906   3.093   2.273   1.661
11628SOL     OW34907   3.022   2.069   1.477
11628SOL    HW134908   3.022   2.133   1.554
11628SOL    HW234909   3.050   2.117   1.394
11629SOL     OW34910   1.870   3.188   0.200
11629SOL    HW134911   1.777   3.209   0.169
11629SOL    HW234912   1.880   3.089   0.213
11630SOL     OW34913   1.950   3.663   0.927
11630SOL    HW134914   1.908   3.577   0.900
11630SOL    HW234915   2.044   3.666   0.893
11631SOL     OW34916   2.366   3.430   0.910
11631SOL    HW134917   2.432   3.504   0.919
11631SOL    HW234918   2.410   3.351   0.868
11632SOL     OW34919   2.864   2.658   1.238
11632SOL    HW134920   2.905   2.626   1.324
11632SOL    HW234921   2.768   2.631   1.235
11633SOL     OW34922   1.902   2.406   1.114
11633SOL    HW134923   1.987   2.373   1.073
11633SOL    HW234924   1.915   2.421   1.212
11634SOL     OW34925   2.051   2.382   1.722
11634SOL    HW134926   2.110   2.342   1.652
11634SOL    HW234927   1.993   2.453   1.681
11635SOL     OW34928   3.231   2.812   1.660
11635SOL    HW134929   3.270   2.901   1.680
11635SOL    HW234930   3.241   2.792   1.563
11636SOL     OW34931   2.677   2.434   0.325
11636SOL    HW134932   2.684   2.345   0.279
11636SOL    HW234933   2.583   2.468   0.317
11637SOL     OW34934   3.519   2.466   1.206
11637SOL    HW134935   3.481   2.397   1.268
11637SOL    HW234936   3.601   2.430   1.162
11638SOL     OW34937   2.114   3.426   1.744
11638SOL    HW134938   2.084   3.483   1.820
11638SOL    HW234939   2.107   3.329   1.770
11639SOL     OW34940   2.533   2.326   1.269
11639SOL    HW134941   2.499   2.237   1.239
11639SOL    HW234942   2.559   2.380   1.189
11640SOL     OW34943   2.792   3.540   1.465
11640SOL    HW134944   2.768   3.522   1.370
11640SOL    HW234945   2.822   3.634   1.475
11641SOL     OW34946   2.335   2.362   0.191
11641SOL    HW134947   2.396   2.442   0.195
11641SOL    HW234948   2.240   2.393   0.198
11642SOL     OW34949   2.021   2.999   1.466
11642SOL    HW134950   2.043   2.938   1.542
11642SOL    HW234951   2.031   2.950   1.380
11643SOL     OW34952   3.209   2.921   1.234
11643SOL    HW134953   3.233   2.858   1.160
11643SOL    HW234954   3.119   2.961   1.216
11644SOL     OW34955   3.164   2.717   0.309
11644SOL    HW134956   3.078   2.686   0.351
11644SOL    HW234957   3.160   2.703   0.210
11645SOL     OW34958   3.621   3.609   1.154
11645SOL    HW134959   3.682   3.639   1.081
11645SOL    HW234960   3.583   3.520   1.132
11646SOL     OW34961   3.114   3.593   1.128
11646SOL    HW134962   3.198   3.598   1.074
11646SOL    HW234963   3.091   3.497   1.146
11647SOL     OW34964   1.945   3.120   1.022
11647SOL    HW134965   1.940   3.119   1.122
11647SOL    HW234966   1.862   3.079   0.984
11648SOL     OW34967   2.550   3.524   1.716
11648SOL    HW134968   2.494   3.605   1.725
11648SOL    HW234969   2.602   3.528   1.630
11649SOL     OW34970   2.765   1.948   0.133
11649SOL    HW134971   2.816   1.949   0.047
11649SOL    HW234972   2.821   1.906   0.204
11650SOL     OW34973   3.588   1.997   0.523
11650SOL    HW134974   3.661   1.980   0.456
11650SOL    HW234975   3.557   1.910   0.561
11651SOL     OW34976   3.250   3.435   0.477
11651SOL    HW134977   3.317   3.447   0.403
11651SOL    HW234978   3.210   3.524   0.500
11652SOL     OW34979   1.992   3.656   1.851
11652SOL    HW134980   1.951   3.582   1.904
11652SOL    HW234981   2.056   3.707   1.909
11653SOL     OW34982   3.142   2.789   0.672
11653SOL    HW134983   3.202   2.708   0.674
11653SOL    HW234984   3.182   2.858   0.612
11654SOL     OW34985   2.692   3.135   1.422
11654SOL    HW134986   2.687   3.168   1.517
11654SOL    HW234987   2.606   3.154   1.376
11655SOL     OW34988   2.534   3.478   0.154
11655SOL    HW134989   2.543   3.488   0.055
11655SOL    HW234990   2.494   3.389   0.175
11656SOL     OW34991   3.512   3.582   1.394
11656SOL    HW134992   3.565   3.592   1.310
11656SOL    HW234993   3.485   3.672   1.428
11657SOL     OW34994   3.703   2.037   0.963
11657SOL    HW134995   3.742   1.952   0.927
11657SOL    HW234996   3.605   2.039   0.944
11658SOL     OW34997   2.125   2.188   0.720
11658SOL    HW134998   2.046   2.239   0.686
11658SOL    HW234999   2.116   2.173   0.818
11659SOL     OW35000   3.056   3.474   0.031
11659SOL    HW135001   3.062   3.381   0.068
11659SOL    HW235002   2.997   3.474  -0.049
11660SOL     OW35003   2.684   2.864   1.372
11660SOL    HW135004   2.724   2.863   1.280
11660SOL    HW235005   2.694   2.956   1.412
11661SOL     OW35006   2.778   2.772   0.291
11661SOL    HW135007   2.841   2.810   0.223
11661SOL    HW235008   2.818   2.689   0.330
11662SOL     OW35009   3.366   3.469   0.044
11662SOL    HW135010   3.274   3.506   0.051
11662SOL    HW235011   3.404   3.489  -0.046
11663SOL     OW35012   2.234   3.150   1.490
11663SOL    HW135013   2.221   3.243   1.456
11663SOL    HW235014   2.150   3.098   1.477
11664SOL     OW35015   3.476   3.154   1.289
11664SOL    HW135016   3.536   3.157   1.369
11664SOL    HW235017   3.401   3.218   1.302
11665SOL     OW35018   2.901   2.960   0.696
11665SOL    HW135019   2.831   2.913   0.750
11665SOL    HW235020   2.960   2.892   0.653
11666SOL     OW35021   2.876   2.098   0.971
11666SOL    HW135022   2.868   2.062   0.878
11666SOL    HW235023   2.874   2.022   1.036
11667SOL     OW35024   2.452   3.349   0.491
11667SOL    HW135025   2.494   3.291   0.421
11667SOL    HW235026   2.408   3.428   0.447
11668SOL     OW35027   3.571   2.247   1.381
11668SOL    HW135028   3.644   2.316   1.385
11668SOL    HW235029   3.599   2.172   1.322
11669SOL     OW35030   2.117   3.210   0.290
11669SOL    HW135031   2.021   3.211   0.263
11669SOL    HW235032   2.129   3.263   0.374
11670SOL     OW35033   1.967   2.875   1.726
11670SOL    HW135034   1.890   2.842   1.780
11670SOL    HW235035   2.052   2.845   1.768
11671SOL     OW35036   2.534   2.065   1.489
11671SOL    HW135037   2.624   2.049   1.449
11671SOL    HW235038   2.542   2.070   1.588
11672SOL     OW35039   3.302   2.718   1.398
11672SOL    HW135040   3.245   2.770   1.335
11672SOL    HW235041   3.398   2.730   1.374
11673SOL     OW35042   1.934   2.028   0.318
11673SOL    HW135043   1.917   2.111   0.264
11673SOL    HW235044   2.024   1.991   0.296
11674SOL     OW35045   3.045   3.197   0.119
11674SOL    HW135046   2.946   3.186   0.121
11674SOL    HW235047   3.079   3.212   0.212
11675SOL     OW35048   2.475   2.704   1.431
11675SOL    HW135049   2.531   2.785   1.414
11675SOL    HW235050   2.534   2.624   1.434
11676SOL     OW35051   3.355   3.629   0.959
11676SOL    HW135052   3.388   3.693   0.890
11676SOL    HW235053   3.421   3.623   1.034
11677SOL     OW35054   2.578   2.427   1.708
11677SOL    HW135055   2.597   2.492   1.782
11677SOL    HW235056   2.638   2.347   1.717
11678SOL     OW35057   3.312   3.082   1.633
11678SOL    HW135058   3.303   3.072   1.732
11678SOL    HW235059   3.408   3.075   1.607
11679SOL     OW35060   2.252   3.603   1.560
11679SOL    HW135061   2.161   3.644   1.558
11679SOL    HW235062   2.245   3.509   1.592
11680SOL     OW35063   3.536   2.745   1.254
11680SOL    HW135064   3.509   2.656   1.217
11680SOL    HW235065   3.537   2.813   1.181
11681SOL     OW35066   3.087   2.187   0.449
11681SOL    HW135067   3.152   2.113   0.438
11681SOL    HW235068   3.107   2.237   0.533
11682SOL     OW35069   2.456   2.607   0.652
11682SOL    HW135070   2.506   2.692   0.633
11682SOL    HW235071   2.368   2.609   0.604
11683SOL     OW35072   3.639   2.204   1.642
11683SOL    HW135073   3.622   2.235   1.548
11683SOL    HW235074   3.555   2.167   1.680
11684SOL     OW35075   3.592   2.796   1.517
11684SOL    HW135076   3.630   2.887   1.532
11684SOL    HW235077   3.584   2.779   1.418
11685SOL     OW35078   2.721   3.236   0.016
11685SOL    HW135079   2.675   3.251   0.104
11685SOL    HW235080   2.765   3.321  -0.014
11686SOL     OW35081   2.523   3.652   0.953
11686SOL    HW135082   2.477   3.740   0.940
11686SOL    HW235083   2.622   3.664   0.946
11687SOL     OW35084   2.721   2.818   0.861
11687SOL    HW135085   2.775   2.749   0.909
11687SOL    HW235086   2.689   2.887   0.927
11688SOL     OW35087   2.945   2.846   0.087
11688SOL    HW135088   2.922   2.899   0.005
11688SOL    HW235089   3.026   2.790   0.068
11689SOL     OW35090   3.723   3.431   0.851
11689SOL    HW135091   3.652   3.419   0.781
11689SOL    HW235092   3.724   3.352   0.911
11690SOL     OW35093   2.083   3.176   1.844
11690SOL    HW135094   2.018   3.103   1.823
11690SOL    HW235095   2.087   3.190   1.942
11691SOL     OW35096   1.941   3.102   0.653
11691SOL    HW135097   1.940   3.055   0.741
11691SOL    HW235098   2.023   3.074   0.602
11692SOL     OW35099   2.534   3.253   1.624
11692SOL    HW135100   2.456   3.203   1.662
11692SOL    HW235101   2.531   3.348   1.655
11693SOL     OW35102   3.686   2.054   1.227
11693SOL    HW135103   3.682   1.964   1.271
11693SOL    HW235104   3.689   2.043   1.128
11694SOL     OW35105   2.290   2.286   0.520
11694SOL    HW135106   2.320   2.214   0.458
11694SOL    HW235107   2.251   2.246   0.603
11695SOL     OW35108   3.567   3.349   1.104
11695SOL    HW135109   3.474   3.324   1.077
11695SOL    HW235110   3.593   3.299   1.186
11696SOL     OW35111   2.179   2.409   1.280
11696SOL    HW135112   2.217   2.350   1.352
11696SOL    HW235113   2.219   2.383   1.192
11697SOL     OW35114   2.674   3.448   0.687
11697SOL    HW135115   2.706   3.458   0.593
11697SOL    HW235116   2.595   3.386   0.689
11698SOL     OW35117   3.286   2.076   1.112
11698SOL    HW135118   3.338   2.011   1.167
11698SOL    HW235119   3.237   2.139   1.173
11699SOL     OW35120   2.863   1.896   1.154
11699SOL    HW135121   2.800   1.824   1.123
11699SOL    HW235122   2.956   1.860   1.154
11700SOL     OW35123   2.632   3.192   0.301
11700SOL    HW135124   2.586   3.105   0.318
11700SOL    HW235125   2.723   3.189   0.342
11701SOL     OW35126   2.480   3.429   1.284
11701SOL    HW135127   2.475   3.511   1.341
11701SOL    HW235128   2.569   3.426   1.239
11702SOL     OW35129   3.214   1.914   0.168
11702SOL    HW135130   3.249   1.873   0.084
11702SOL    HW235131   3.124   1.876   0.188
11703SOL     OW35132   3.162   2.315   0.691
11703SOL    HW135133   3.103   2.395   0.695
11703SOL    HW235134   3.177   2.280   0.784
11704SOL     OW35135   3.455   2.083   0.882
11704SOL    HW135136   3.371   2.082   0.936
11704SOL    HW235137   3.457   2.166   0.826
11705SOL     OW35138   1.901   2.939   0.300
11705SOL    HW135139   2.000   2.928   0.291
11705SOL    HW235140   1.861   2.853   0.332
11706SOL     OW35141   2.737   3.508   0.337
11706SOL    HW135142   2.660   3.473   0.283
11706SOL    HW235143   2.705   3.579   0.399
11707SOL     OW35144   2.092   2.490   1.975
11707SOL    HW135145   1.999   2.488   2.012
11707SOL    HW235146   2.093   2.451   1.883
11708SOL     OW35147   2.087   2.137   2.858
11708SOL    HW135148   2.122   2.120   2.950
11708SOL    HW235149   1.999   2.092   2.846
11709SOL     OW35150   1.881   2.230   2.509
11709SOL    HW135151   1.799   2.273   2.548
11709SOL    HW235152   1.853   2.157   2.446
11710SOL     OW35153   2.431   3.137   3.027
11710SOL    HW135154   2.338   3.130   2.990
11710SOL    HW235155   2.442   3.226   3.071
11711SOL     OW35156   3.417   3.373   2.565
11711SOL    HW135157   3.360   3.357   2.646
11711SOL    HW235158   3.358   3.383   2.485
11712SOL     OW35159   2.997   2.565   2.579
11712SOL    HW135160   3.054   2.643   2.554
11712SOL    HW235161   2.937   2.591   2.655
11713SOL     OW35162   3.617   2.469   2.093
11713SOL    HW135163   3.605   2.456   1.994
11713SOL    HW235164   3.587   2.388   2.142
11714SOL     OW35165   2.630   3.006   2.885
11714SOL    HW135166   2.552   3.023   2.945
11714SOL    HW235167   2.664   3.093   2.849
11715SOL     OW35168   2.712   2.660   3.685
11715SOL    HW135169   2.708   2.736   3.750
11715SOL    HW235170   2.734   2.696   3.594
11716SOL     OW35171   2.547   2.874   2.527
11716SOL    HW135172   2.616   2.858   2.597
11716SOL    HW235173   2.474   2.931   2.565
11717SOL     OW35174   2.548   3.023   3.665
11717SOL    HW135175   2.608   3.102   3.679
11717SOL    HW235176   2.462   3.054   3.624
11718SOL     OW35177   2.197   3.297   2.923
11718SOL    HW135178   2.119   3.266   2.870
11718SOL    HW235179   2.255   3.355   2.866
11719SOL     OW35180   3.322   3.367   3.201
11719SOL    HW135181   3.346   3.461   3.227
11719SOL    HW235182   3.306   3.313   3.283
11720SOL     OW35183   2.300   2.254   3.361
11720SOL    HW135184   2.382   2.198   3.370
11720SOL    HW235185   2.219   2.196   3.365
11721SOL     OW35186   3.465   2.309   2.599
11721SOL    HW135187   3.391   2.355   2.549
11721SOL    HW235188   3.516   2.377   2.652
11722SOL     OW35189   2.093   3.575   2.345
11722SOL    HW135190   2.127   3.652   2.399
11722SOL    HW235191   2.137   3.575   2.255
11723SOL     OW35192   2.989   3.203   3.552
11723SOL    HW135193   3.036   3.203   3.640
11723SOL    HW235194   2.941   3.116   3.541
11724SOL     OW35195   2.092   3.296   2.400
11724SOL    HW135196   2.066   3.392   2.400
11724SOL    HW235197   2.021   3.242   2.445
11725SOL     OW35198   2.102   2.953   2.748
11725SOL    HW135199   2.116   2.869   2.800
11725SOL    HW235200   2.047   3.017   2.803
11726SOL     OW35201   2.482   3.648   3.301
11726SOL    HW135202   2.390   3.631   3.336
11726SOL    HW235203   2.510   3.740   3.327
11727SOL     OW35204   2.468   2.826   1.985
11727SOL    HW135205   2.475   2.910   1.931
11727SOL    HW235206   2.514   2.839   2.073
11728SOL     OW35207   3.456   1.976   3.342
11728SOL    HW135208   3.438   2.043   3.270
11728SOL    HW235209   3.453   2.022   3.431
11729SOL     OW35210   1.984   2.505   2.425
11729SOL    HW135211   1.939   2.417   2.442
11729SOL    HW235212   1.983   2.559   2.509
11730SOL     OW35213   3.704   3.629   2.221
11730SOL    HW135214   3.758   3.600   2.301
11730SOL    HW235215   3.734   3.719   2.192
11731SOL     OW35216   1.889   3.458   1.979
11731SOL    HW135217   1.870   3.362   2.000
11731SOL    HW235218   1.856   3.516   2.054
11732SOL     OW35219   3.551   2.784   2.474
11732SOL    HW135220   3.646   2.755   2.482
11732SOL    HW235221   3.543   2.849   2.399
11733SOL     OW35222   3.503   2.970   2.294
11733SOL    HW135223   3.589   2.972   2.242
11733SOL    HW235224   3.517   3.017   2.382
11734SOL     OW35225   1.975   2.599   3.459
11734SOL    HW135226   2.063   2.586   3.504
11734SOL    HW235227   1.962   2.696   3.437
11735SOL     OW35228   2.475   3.227   2.588
11735SOL    HW135229   2.426   3.140   2.597
11735SOL    HW235230   2.452   3.270   2.501
11736SOL     OW35231   3.155   3.090   3.285
11736SOL    HW135232   3.192   3.017   3.227
11736SOL    HW235233   3.207   3.095   3.370
11737SOL     OW35234   2.671   1.866   2.364
11737SOL    HW135235   2.711   1.957   2.355
11737SOL    HW235236   2.571   1.874   2.370
11738SOL     OW35237   2.059   2.838   3.126
11738SOL    HW135238   2.148   2.793   3.112
11738SOL    HW235239   1.986   2.773   3.107
11739SOL     OW35240   3.387   2.861   2.052
11739SOL    HW135241   3.324   2.785   2.065
11739SOL    HW235242   3.435   2.879   2.138
11740SOL     OW35243   3.049   3.654   3.478
11740SOL    HW135244   3.073   3.714   3.402
11740SOL    HW235245   3.056   3.559   3.448
11741SOL     OW35246   2.179   2.113   3.663
11741SOL    HW135247   2.250   2.184   3.669
11741SOL    HW235248   2.091   2.152   3.691
11742SOL     OW35249   3.328   3.279   2.815
11742SOL    HW135250   3.269   3.285   2.895
11742SOL    HW235251   3.313   3.191   2.769
11743SOL     OW35252   3.529   3.576   2.434
11743SOL    HW135253   3.488   3.553   2.346
11743SOL    HW235254   3.511   3.502   2.499
11744SOL     OW35255   2.460   2.591   2.132
11744SOL    HW135256   2.484   2.660   2.064
11744SOL    HW235257   2.382   2.624   2.186
11745SOL     OW35258   3.143   2.207   2.806
11745SOL    HW135259   3.057   2.157   2.793
11745SOL    HW235260   3.205   2.153   2.862
11746SOL     OW35261   3.438   3.524   2.169
11746SOL    HW135262   3.527   3.570   2.172
11746SOL    HW235263   3.417   3.500   2.074
11747SOL     OW35264   2.669   2.467   3.327
11747SOL    HW135265   2.622   2.464   3.416
11747SOL    HW235266   2.618   2.412   3.261
11748SOL     OW35267   3.256   2.331   3.536
11748SOL    HW135268   3.236   2.374   3.624
11748SOL    HW235269   3.334   2.269   3.545
11749SOL     OW35270   2.835   2.752   3.434
11749SOL    HW135271   2.881   2.668   3.405
11749SOL    HW235272   2.779   2.786   3.359
11750SOL     OW35273   2.853   2.272   3.104
11750SOL    HW135274   2.776   2.306   3.158
11750SOL    HW235275   2.819   2.221   3.025
11751SOL     OW35276   2.903   2.563   2.291
11751SOL    HW135277   2.929   2.559   2.387
11751SOL    HW235278   2.818   2.512   2.277
11752SOL     OW35279   1.938   2.673   2.651
11752SOL    HW135280   2.037   2.661   2.660
11752SOL    HW235281   1.914   2.768   2.672
11753SOL     OW35282   1.992   3.683   3.433
11753SOL    HW135283   1.982   3.668   3.532
11753SOL    HW235284   1.906   3.719   3.397
11754SOL     OW35285   2.727   2.210   2.057
11754SOL    HW135286   2.786   2.273   2.008
11754SOL    HW235287   2.746   2.116   2.028
11755SOL     OW35288   3.581   2.447   3.693
11755SOL    HW135289   3.555   2.536   3.657
11755SOL    HW235290   3.579   2.379   3.620
11756SOL     OW35291   3.224   3.006   2.407
11756SOL    HW135292   3.307   2.977   2.359
11756SOL    HW235293   3.175   3.073   2.351
11757SOL     OW35294   2.412   2.058   2.747
11757SOL    HW135295   2.407   2.053   2.847
11757SOL    HW235296   2.414   2.154   2.718
11758SOL     OW35297   2.870   3.318   2.339
11758SOL    HW135298   2.824   3.390   2.287
11758SOL    HW235299   2.866   3.338   2.437
11759SOL     OW35300   2.213   3.663   2.715
11759SOL    HW135301   2.263   3.577   2.721
11759SOL    HW235302   2.278   3.740   2.712
11760SOL     OW35303   3.657   2.928   2.735
11760SOL    HW135304   3.595   2.913   2.659
11760SOL    HW235305   3.605   2.939   2.820
11761SOL     OW35306   3.089   3.412   3.368
11761SOL    HW135307   3.095   3.335   3.432
11761SOL    HW235308   3.037   3.386   3.288
11762SOL     OW35309   2.183   2.805   2.104
11762SOL    HW135310   2.265   2.844   2.062
11762SOL    HW235311   2.156   2.723   2.055
11763SOL     OW35312   3.320   2.597   2.590
11763SOL    HW135313   3.315   2.532   2.665
11763SOL    HW235314   3.400   2.656   2.603
11764SOL     OW35315   2.323   3.128   3.589
11764SOL    HW135316   2.273   3.129   3.503
11764SOL    HW235317   2.260   3.110   3.665
11765SOL     OW35318   2.973   3.638   2.099
11765SOL    HW135319   2.913   3.576   2.149
11765SOL    HW235320   3.004   3.594   2.014
11766SOL     OW35321   2.064   2.147   3.360
11766SOL    HW135322   1.984   2.207   3.347
11766SOL    HW235323   2.054   2.098   3.446
11767SOL     OW35324   3.494   3.239   1.943
11767SOL    HW135325   3.462   3.333   1.933
11767SOL    HW235326   3.418   3.176   1.931
11768SOL     OW35327   2.326   3.605   2.185
11768SOL    HW135328   2.359   3.644   2.271
11768SOL    HW235329   2.402   3.598   2.120
11769SOL     OW35330   3.262   1.969   2.288
11769SOL    HW135331   3.238   1.932   2.198
11769SOL    HW235332   3.361   1.985   2.292
11770SOL     OW35333   2.111   3.647   3.103
11770SOL    HW135334   2.168   3.582   3.153
11770SOL    HW235335   2.095   3.614   3.010
11771SOL     OW35336   2.802   3.560   2.766
11771SOL    HW135337   2.882   3.503   2.787
11771SOL    HW235338   2.753   3.520   2.689
11772SOL     OW35339   2.244   2.562   2.342
11772SOL    HW135340   2.289   2.472   2.339
11772SOL    HW235341   2.150   2.551   2.375
11773SOL     OW35342   3.409   2.084   3.591
11773SOL    HW135343   3.404   2.121   3.683
11773SOL    HW235344   3.337   2.015   3.579
11774SOL     OW35345   2.476   1.984   1.979
11774SOL    HW135346   2.574   1.962   1.986
11774SOL    HW235347   2.445   1.967   1.886
11775SOL     OW35348   2.643   2.126   3.611
11775SOL    HW135349   2.710   2.065   3.654
11775SOL    HW235350   2.570   2.145   3.676
11776SOL     OW35351   2.750   3.376   3.057
11776SOL    HW135352   2.727   3.351   2.963
11776SOL    HW235353   2.811   3.307   3.096
11777SOL     OW35354   3.213   2.452   3.295
11777SOL    HW135355   3.241   2.409   3.380
11777SOL    HW235356   3.238   2.548   3.296
11778SOL     OW35357   2.665   3.264   2.786
11778SOL    HW135358   2.755   3.278   2.744
11778SOL    HW235359   2.594   3.266   2.715
11779SOL     OW35360   2.784   2.365   2.761
11779SOL    HW135361   2.759   2.356   2.665
11779SOL    HW235362   2.832   2.283   2.792
11780SOL     OW35363   2.401   1.926   2.374
11780SOL    HW135364   2.320   1.927   2.432
11780SOL    HW235365   2.404   2.009   2.319
11781SOL     OW35366   3.296   3.050   1.903
11781SOL    HW135367   3.328   2.974   1.960
11781SOL    HW235368   3.204   3.077   1.933
11782SOL     OW35369   2.159   1.897   2.033
11782SOL    HW135370   2.208   1.981   2.012
11782SOL    HW235371   2.221   1.832   2.078
11783SOL     OW35372   2.797   2.098   2.342
11783SOL    HW135373   2.749   2.139   2.264
11783SOL    HW235374   2.896   2.096   2.323
11784SOL     OW35375   2.938   2.545   3.326
11784SOL    HW135376   2.858   2.484   3.329
11784SOL    HW235377   3.019   2.492   3.302
11785SOL     OW35378   3.089   3.432   2.655
11785SOL    HW135379   3.110   3.506   2.590
11785SOL    HW235380   3.157   3.432   2.728
11786SOL     OW35381   2.321   3.014   2.603
11786SOL    HW135382   2.250   2.987   2.668
11786SOL    HW235383   2.295   2.986   2.510
11787SOL     OW35384   3.133   3.659   2.453
11787SOL    HW135385   3.177   3.723   2.389
11787SOL    HW235386   3.083   3.711   2.523
11788SOL     OW35387   2.894   2.411   1.878
11788SOL    HW135388   2.853   2.493   1.839
11788SOL    HW235389   2.958   2.437   1.951
11789SOL     OW35390   1.940   2.418   3.248
11789SOL    HW135391   2.032   2.417   3.207
11789SOL    HW235392   1.934   2.492   3.315
11790SOL     OW35393   2.423   2.084   3.009
11790SOL    HW135394   2.461   2.000   3.046
11790SOL    HW235395   2.335   2.103   3.053
11791SOL     OW35396   2.728   2.316   2.504
11791SOL    HW135397   2.696   2.388   2.442
11791SOL    HW235398   2.752   2.235   2.451
11792SOL     OW35399   2.879   1.901   2.615
11792SOL    HW135400   2.807   1.906   2.546
11792SOL    HW235401   2.855   1.832   2.684
11793SOL     OW35402   3.291   3.035   2.729
11793SOL    HW135403   3.236   2.951   2.722
11793SOL    HW235404   3.317   3.064   2.637
11794SOL     OW35405   3.328   2.452   2.854
11794SOL    HW135406   3.298   2.357   2.861
11794SOL    HW235407   3.401   2.468   2.920
11795SOL     OW35408   3.719   2.695   2.239
11795SOL    HW135409   3.761   2.631   2.303
11795SOL    HW235410   3.681   2.644   2.161
11796SOL     OW35411   2.350   3.247   2.036
11796SOL    HW135412   2.263   3.232   2.083
11796SOL    HW235413   2.333   3.273   1.941
11797SOL     OW35414   3.526   3.142   2.519
11797SOL    HW135415   3.625   3.150   2.533
11797SOL    HW235416   3.481   3.226   2.550
11798SOL     OW35417   3.252   2.437   1.940
11798SOL    HW135418   3.198   2.416   2.021
11798SOL    HW235419   3.343   2.396   1.949
11799SOL     OW35420   2.389   2.118   2.190
11799SOL    HW135421   2.416   2.059   2.115
11799SOL    HW235422   2.389   2.213   2.159
11800SOL     OW35423   3.616   3.085   3.450
11800SOL    HW135424   3.707   3.046   3.437
11800SOL    HW235425   3.624   3.181   3.474
11801SOL     OW35426   2.926   3.209   3.202
11801SOL    HW135427   2.846   3.186   3.257
11801SOL    HW235428   3.009   3.183   3.251
11802SOL     OW35429   3.454   3.491   3.487
11802SOL    HW135430   3.481   3.525   3.397
11802SOL    HW235431   3.533   3.453   3.533
11803SOL     OW35432   2.973   3.057   2.962
11803SOL    HW135433   2.933   3.101   3.043
11803SOL    HW235434   2.932   3.094   2.879
11804SOL     OW35435   3.500   2.961   2.941
11804SOL    HW135436   3.505   3.042   3.000
11804SOL    HW235437   3.414   2.963   2.890
11805SOL     OW35438   2.777   1.951   3.264
11805SOL    HW135439   2.802   1.931   3.169
11805SOL    HW235440   2.849   2.007   3.306
11806SOL     OW35441   2.842   2.978   3.581
11806SOL    HW135442   2.743   2.984   3.591
11806SOL    HW235443   2.865   2.898   3.525
11807SOL     OW35444   2.567   2.912   2.230
11807SOL    HW135445   2.553   2.919   2.329
11807SOL    HW235446   2.651   2.861   2.212
11808SOL     OW35447   2.272   2.675   3.113
11808SOL    HW135448   2.358   2.687   3.163
11808SOL    HW235449   2.230   2.588   3.140
11809SOL     OW35450   3.136   2.248   3.124
11809SOL    HW135451   3.157   2.322   3.188
11809SOL    HW235452   3.047   2.265   3.081
11810SOL     OW35453   1.926   3.426   3.193
11810SOL    HW135454   1.880   3.508   3.159
11810SOL    HW235455   2.024   3.445   3.202
11811SOL     OW35456   2.229   2.962   2.363
11811SOL    HW135457   2.222   3.045   2.307
11811SOL    HW235458   2.233   2.882   2.303
11812SOL     OW35459   2.428   2.399   2.727
11812SOL    HW135460   2.440   2.465   2.653
11812SOL    HW235461   2.474   2.433   2.810
11813SOL     OW35462   3.114   3.210   2.250
11813SOL    HW135463   3.164   3.287   2.290
11813SOL    HW235464   3.019   3.212   2.282
11814SOL     OW35465   3.134   3.307   3.004
11814SOL    HW135466   3.181   3.320   3.091
11814SOL    HW235467   3.068   3.233   3.013
11815SOL     OW35468   3.444   2.501   2.334
11815SOL    HW135469   3.413   2.562   2.407
11815SOL    HW235470   3.494   2.553   2.265
11816SOL     OW35471   2.216   3.372   3.191
11816SOL    HW135472   2.195   3.328   3.104
11816SOL    HW235473   2.313   3.398   3.194
11817SOL     OW35474   2.264   2.613   3.460
11817SOL    HW135475   2.332   2.668   3.413
11817SOL    HW235476   2.304   2.525   3.487
11818SOL     OW35477   3.449   2.641   3.532
11818SOL    HW135478   3.357   2.679   3.527
11818SOL    HW235479   3.509   2.688   3.467
11819SOL     OW35480   2.875   1.967   3.632
11819SOL    HW135481   2.881   2.052   3.580
11819SOL    HW235482   2.907   1.891   3.575
11820SOL     OW35483   2.366   1.912   3.602
11820SOL    HW135484   2.324   1.855   3.532
11820SOL    HW235485   2.300   1.981   3.634
11821SOL     OW35486   2.435   2.732   2.891
11821SOL    HW135487   2.479   2.821   2.882
11821SOL    HW235488   2.372   2.732   2.968
11822SOL     OW35489   3.222   2.724   2.907
11822SOL    HW135490   3.147   2.724   2.841
11822SOL    HW235491   3.259   2.632   2.916
11823SOL     OW35492   3.071   2.387   2.137
11823SOL    HW135493   3.084   2.303   2.191
11823SOL    HW235494   3.042   2.461   2.197
11824SOL     OW35495   2.169   2.075   3.093
11824SOL    HW135496   2.146   2.112   3.183
11824SOL    HW235497   2.139   1.980   3.087
11825SOL     OW35498   1.899   3.172   3.144
11825SOL    HW135499   1.952   3.123   3.212
11825SOL    HW235500   1.921   3.270   3.149
11826SOL     OW35501   2.594   2.496   2.926
11826SOL    HW135502   2.653   2.470   2.850
11826SOL    HW235503   2.566   2.592   2.915
11827SOL     OW35504   3.590   2.797   3.716
11827SOL    HW135505   3.544   2.790   3.627
11827SOL    HW235506   3.528   2.841   3.782
11828SOL     OW35507   2.169   1.925   2.480
11828SOL    HW135508   2.158   2.019   2.513
11828SOL    HW235509   2.164   1.862   2.557
11829SOL     OW35510   3.484   2.229   2.236
11829SOL    HW135511   3.486   2.153   2.300
11829SOL    HW235512   3.436   2.306   2.276
11830SOL     OW35513   2.885   2.628   2.828
11830SOL    HW135514   2.900   2.649   2.924
11830SOL    HW235515   2.855   2.533   2.819
11831SOL     OW35516   2.842   3.435   3.562
11831SOL    HW135517   2.822   3.479   3.474
11831SOL    HW235518   2.881   3.344   3.546
11832SOL     OW35519   3.721   3.380   3.467
11832SOL    HW135520   3.735   3.407   3.372
11832SOL    HW235521   3.804   3.402   3.520
11833SOL     OW35522   2.212   2.760   3.666
11833SOL    HW135523   2.288   2.804   3.714
11833SOL    HW235524   2.247   2.713   3.584
11834SOL     OW35525   3.402   2.136   1.987
11834SOL    HW135526   3.341   2.061   2.010
11834SOL    HW235527   3.424   2.188   2.070
11835SOL     OW35528   3.165   2.700   1.904
11835SOL    HW135529   3.199   2.607   1.919
11835SOL    HW235530   3.183   2.727   1.809
11836SOL     OW35531   2.930   3.195   2.711
11836SOL    HW135532   2.937   3.111   2.656
11836SOL    HW235533   2.992   3.264   2.675
11837SOL     OW35534   2.181   2.672   2.811
11837SOL    HW135535   2.274   2.708   2.816
11837SOL    HW235536   2.175   2.587   2.863
11838SOL     OW35537   2.201   2.371   2.868
11838SOL    HW135538   2.149   2.288   2.851
11838SOL    HW235539   2.278   2.376   2.804
11839SOL     OW35540   3.000   2.242   3.540
11839SOL    HW135541   2.955   2.305   3.604
11839SOL    HW235542   3.093   2.273   3.523
11840SOL     OW35543   3.022   2.069   3.339
11840SOL    HW135544   3.022   2.133   3.416
11840SOL    HW235545   3.050   2.117   3.256
11841SOL     OW35546   1.870   3.188   2.062
11841SOL    HW135547   1.777   3.209   2.031
11841SOL    HW235548   1.880   3.089   2.075
11842SOL     OW35549   1.950   3.663   2.789
11842SOL    HW135550   1.908   3.577   2.762
11842SOL    HW235551   2.044   3.666   2.755
11843SOL     OW35552   2.366   3.430   2.772
11843SOL    HW135553   2.432   3.504   2.781
11843SOL    HW235554   2.410   3.351   2.730
11844SOL     OW35555   2.864   2.658   3.100
11844SOL    HW135556   2.905   2.626   3.186
11844SOL    HW235557   2.768   2.631   3.097
11845SOL     OW35558   1.902   2.406   2.976
11845SOL    HW135559   1.987   2.373   2.935
11845SOL    HW235560   1.915   2.421   3.074
11846SOL     OW35561   2.051   2.382   3.584
11846SOL    HW135562   2.110   2.342   3.514
11846SOL    HW235563   1.993   2.453   3.543
11847SOL     OW35564   3.231   2.812   3.522
11847SOL    HW135565   3.270   2.901   3.542
11847SOL    HW235566   3.241   2.792   3.425
11848SOL     OW35567   2.677   2.434   2.187
11848SOL    HW135568   2.684   2.345   2.141
11848SOL    HW235569   2.583   2.468   2.179
11849SOL     OW35570   3.519   2.466   3.068
11849SOL    HW135571   3.481   2.397   3.130
11849SOL    HW235572   3.601   2.430   3.024
11850SOL     OW35573   2.114   3.426   3.606
11850SOL    HW135574   2.084   3.483   3.682
11850SOL    HW235575   2.107   3.329   3.632
11851SOL     OW35576   2.533   2.326   3.131
11851SOL    HW135577   2.499   2.237   3.101
11851SOL    HW235578   2.559   2.380   3.051
11852SOL     OW35579   2.792   3.540   3.327
11852SOL    HW135580   2.768   3.522   3.232
11852SOL    HW235581   2.822   3.634   3.337
11853SOL     OW35582   2.335   2.362   2.053
11853SOL    HW135583   2.396   2.442   2.057
11853SOL    HW235584   2.240   2.393   2.060
11854SOL     OW35585   2.021   2.999   3.328
11854SOL    HW135586   2.043   2.938   3.404
11854SOL    HW235587   2.031   2.950   3.242
11855SOL     OW35588   3.209   2.921   3.096
11855SOL    HW135589   3.233   2.858   3.022
11855SOL    HW235590   3.119   2.961   3.078
11856SOL     OW35591   3.164   2.717   2.171
11856SOL    HW135592   3.078   2.686   2.213
11856SOL    HW235593   3.160   2.703   2.072
11857SOL     OW35594   3.621   3.609   3.016
11857SOL    HW135595   3.682   3.639   2.943
11857SOL    HW235596   3.583   3.520   2.994
11858SOL     OW35597   3.114   3.593   2.990
11858SOL    HW135598   3.198   3.598   2.936
11858SOL    HW235599   3.091   3.497   3.008
11859SOL     OW35600   1.945   3.120   2.884
11859SOL    HW135601   1.940   3.119   2.984
11859SOL    HW235602   1.862   3.079   2.846
11860SOL     OW35603   2.550   3.524   3.578
11860SOL    HW135604   2.494   3.605   3.587
11860SOL    HW235605   2.602   3.528   3.492
11861SOL     OW35606   3.588   1.997   2.385
11861SOL    HW135607   3.661   1.980   2.318
11861SOL    HW235608   3.557   1.910   2.423
11862SOL     OW35609   3.250   3.435   2.339
11862SOL    HW135610   3.317   3.447   2.265
11862SOL    HW235611   3.210   3.524   2.362
11863SOL     OW35612   1.992   3.656   3.713
11863SOL    HW135613   1.951   3.582   3.766
11863SOL    HW235614   2.056   3.707   3.771
11864SOL     OW35615   3.142   2.789   2.534
11864SOL    HW135616   3.202   2.708   2.536
11864SOL    HW235617   3.182   2.858   2.474
11865SOL     OW35618   2.692   3.135   3.284
11865SOL    HW135619   2.687   3.168   3.379
11865SOL    HW235620   2.606   3.154   3.238
11866SOL     OW35621   2.534   3.478   2.016
11866SOL    HW135622   2.543   3.488   1.917
11866SOL    HW235623   2.494   3.389   2.037
11867SOL     OW35624   3.512   3.582   3.256
11867SOL    HW135625   3.565   3.592   3.172
11867SOL    HW235626   3.485   3.672   3.290
11868SOL     OW35627   3.703   2.037   2.825
11868SOL    HW135628   3.742   1.952   2.789
11868SOL    HW235629   3.605   2.039   2.806
11869SOL     OW35630   2.125   2.188   2.582
11869SOL    HW135631   2.046   2.239   2.548
11869SOL    HW235632   2.116   2.173   2.680
11870SOL     OW35633   3.056   3.474   1.893
11870SOL    HW135634   3.062   3.381   1.930
11870SOL    HW235635   2.997   3.474   1.813
11871SOL     OW35636   2.684   2.864   3.234
11871SOL    HW135637   2.724   2.863   3.142
11871SOL    HW235638   2.694   2.956   3.274
11872SOL     OW35639   2.778   2.772   2.153
11872SOL    HW135640   2.841   2.810   2.085
11872SOL    HW235641   2.818   2.689   2.192
11873SOL     OW35642   3.366   3.469   1.906
11873SOL    HW135643   3.274   3.506   1.913
11873SOL    HW235644   3.404   3.489   1.816
11874SOL     OW35645   2.234   3.150   3.352
11874SOL    HW135646   2.221   3.243   3.318
11874SOL    HW235647   2.150   3.098   3.339
11875SOL     OW35648   3.476   3.154   3.151
11875SOL    HW135649   3.536   3.157   3.231
11875SOL    HW235650   3.401   3.218   3.164
11876SOL     OW35651   2.901   2.960   2.558
11876SOL    HW135652   2.831   2.913   2.612
11876SOL    HW235653   2.960   2.892   2.515
11877SOL     OW35654   2.876   2.098   2.833
11877SOL    HW135655   2.868   2.062   2.740
11877SOL    HW235656   2.874   2.022   2.898
11878SOL     OW35657   2.452   3.349   2.353
11878SOL    HW135658   2.494   3.291   2.283
11878SOL    HW235659   2.408   3.428   2.309
11879SOL     OW35660   3.571   2.247   3.243
11879SOL    HW135661   3.644   2.316   3.247
11879SOL    HW235662   3.599   2.172   3.184
11880SOL     OW35663   2.117   3.210   2.152
11880SOL    HW135664   2.021   3.211   2.125
11880SOL    HW235665   2.129   3.263   2.236
11881SOL     OW35666   1.967   2.875   3.588
11881SOL    HW135667   1.890   2.842   3.642
11881SOL    HW235668   2.052   2.845   3.630
11882SOL     OW35669   2.534   2.065   3.351
11882SOL    HW135670   2.624   2.049   3.311
11882SOL    HW235671   2.542   2.070   3.450
11883SOL     OW35672   1.937   2.207   1.895
11883SOL    HW135673   1.845   2.179   1.866
11883SOL    HW235674   1.968   2.284   1.839
11884SOL     OW35675   3.302   2.718   3.260
11884SOL    HW135676   3.245   2.770   3.197
11884SOL    HW235677   3.398   2.730   3.236
11885SOL     OW35678   1.934   2.028   2.180
11885SOL    HW135679   1.917   2.111   2.126
11885SOL    HW235680   2.024   1.991   2.158
11886SOL     OW35681   3.045   3.197   1.981
11886SOL    HW135682   2.946   3.186   1.983
11886SOL    HW235683   3.079   3.212   2.074
11887SOL     OW35684   2.475   2.704   3.293
11887SOL    HW135685   2.531   2.785   3.276
11887SOL    HW235686   2.534   2.624   3.296
11888SOL     OW35687   3.355   3.629   2.821
11888SOL    HW135688   3.388   3.693   2.752
11888SOL    HW235689   3.421   3.623   2.896
11889SOL     OW35690   2.578   2.427   3.570
11889SOL    HW135691   2.597   2.492   3.644
11889SOL    HW235692   2.638   2.347   3.579
11890SOL     OW35693   3.312   3.082   3.495
11890SOL    HW135694   3.303   3.072   3.594
11890SOL    HW235695   3.408   3.075   3.469
11891SOL     OW35696   2.252   3.603   3.422
11891SOL    HW135697   2.161   3.644   3.420
11891SOL    HW235698   2.245   3.509   3.454
11892SOL     OW35699   3.536   2.745   3.116
11892SOL    HW135700   3.509   2.656   3.079
11892SOL    HW235701   3.537   2.813   3.043
11893SOL     OW35702   3.087   2.187   2.311
11893SOL    HW135703   3.152   2.113   2.300
11893SOL    HW235704   3.107   2.237   2.395
11894SOL     OW35705   2.456   2.607   2.514
11894SOL    HW135706   2.506   2.692   2.495
11894SOL    HW235707   2.368   2.609   2.466
11895SOL     OW35708   3.639   2.204   3.504
11895SOL    HW135709   3.622   2.235   3.410
11895SOL    HW235710   3.555   2.167   3.542
11896SOL     OW35711   3.592   2.796   3.379
11896SOL    HW135712   3.630   2.887   3.394
11896SOL    HW235713   3.584   2.779   3.280
11897SOL     OW35714   2.721   3.236   1.878
11897SOL    HW135715   2.675   3.251   1.966
11897SOL    HW235716   2.765   3.321   1.848
11898SOL     OW35717   2.523   3.652   2.815
11898SOL    HW135718   2.477   3.740   2.802
11898SOL    HW235719   2.622   3.664   2.808
11899SOL     OW35720   2.721   2.818   2.723
11899SOL    HW135721   2.775   2.749   2.771
11899SOL    HW235722   2.689   2.887   2.789
11900SOL     OW35723   2.945   2.846   1.949
11900SOL    HW135724   2.922   2.899   1.867
11900SOL    HW235725   3.026   2.790   1.930
11901SOL     OW35726   3.723   3.431   2.713
11901SOL    HW135727   3.652   3.419   2.643
11901SOL    HW235728   3.724   3.352   2.773
11902SOL     OW35729   2.083   3.176   3.706
11902SOL    HW135730   2.018   3.103   3.685
11902SOL    HW235731   2.087   3.190   3.804
11903SOL     OW35732   1.941   3.102   2.515
11903SOL    HW135733   1.940   3.055   2.603
11903SOL    HW235734   2.023   3.074   2.464
11904SOL     OW35735   2.534   3.253   3.486
11904SOL    HW135736   2.456   3.203   3.524
11904SOL    HW235737   2.531   3.348   3.517
11905SOL     OW35738   3.686   2.054   3.089
11905SOL    HW135739   3.682   1.964   3.133
11905SOL    HW235740   3.689   2.043   2.990
11906SOL     OW35741   2.290   2.286   2.382
11906SOL    HW135742   2.320   2.214   2.320
11906SOL    HW235743   2.251   2.246   2.465
11907SOL     OW35744   3.567   3.349   2.966
11907SOL    HW135745   3.474   3.324   2.939
11907SOL    HW235746   3.593   3.299   3.048
11908SOL     OW35747   2.179   2.409   3.142
11908SOL    HW135748   2.217   2.350   3.214
11908SOL    HW235749   2.219   2.383   3.054
11909SOL     OW35750   2.674   3.448   2.549
11909SOL    HW135751   2.706   3.458   2.455
11909SOL    HW235752   2.595   3.386   2.551
11910SOL     OW35753   3.286   2.076   2.974
11910SOL    HW135754   3.338   2.011   3.029
11910SOL    HW235755   3.237   2.139   3.035
11911SOL     OW35756   2.863   1.896   3.016
11911SOL    HW135757   2.800   1.824   2.985
11911SOL    HW235758   2.956   1.860   3.016
11912SOL     OW35759   2.632   3.192   2.163
11912SOL    HW135760   2.586   3.105   2.180
11912SOL    HW235761   2.723   3.189   2.204
11913SOL     OW35762   2.480   3.429   3.146
11913SOL    HW135763   2.475   3.511   3.203
11913SOL    HW235764   2.569   3.426   3.101
11914SOL     OW35765   3.214   1.914   2.030
11914SOL    HW135766   3.249   1.873   1.946
11914SOL    HW235767   3.124   1.876   2.050
11915SOL     OW35768   3.162   2.315   2.553
11915SOL    HW135769   3.103   2.395   2.557
11915SOL    HW235770   3.177   2.280   2.646
11916SOL     OW35771   3.455   2.083   2.744
11916SOL    HW135772   3.371   2.082   2.798
11916SOL    HW235773   3.457   2.166   2.688
11917SOL     OW35774   1.901   2.939   2.162
11917SOL    HW135775   2.000   2.928   2.153
11917SOL    HW235776   1.861   2.853   2.194
11918SOL     OW35777   2.737   3.508   2.199
11918SOL    HW135778   2.660   3.473   2.145
11918SOL    HW235779   2.705   3.579   2.261
11919SOL     OW35780   2.092   2.490   3.837
11919SOL    HW135781   1.999   2.488   3.874
11919SOL    HW235782   2.093   2.451   3.745
11920SOL     OW35783   2.087   2.137   4.720
11920SOL    HW135784   2.122   2.120   4.812
11920SOL    HW235785   1.999   2.092   4.708
11921SOL     OW35786   1.881   2.230   4.371
11921SOL    HW135787   1.799   2.273   4.410
11921SOL    HW235788   1.853   2.157   4.308
11922SOL     OW35789   2.431   3.137   4.889
11922SOL    HW135790   2.338   3.130   4.852
11922SOL    HW235791   2.442   3.226   4.933
11923SOL     OW35792   3.417   3.373   4.427
11923SOL    HW135793   3.360   3.357   4.508
11923SOL    HW235794   3.358   3.383   4.347
11924SOL     OW35795   2.997   2.565   4.441
11924SOL    HW135796   3.054   2.643   4.416
11924SOL    HW235797   2.937   2.591   4.517
11925SOL     OW35798   3.617   2.469   3.955
11925SOL    HW135799   3.605   2.456   3.856
11925SOL    HW235800   3.587   2.388   4.004
11926SOL     OW35801   2.630   3.006   4.747
11926SOL    HW135802   2.552   3.023   4.807
11926SOL    HW235803   2.664   3.093   4.711
11927SOL     OW35804   2.712   2.660   5.547
11927SOL    HW135805   2.708   2.736   5.612
11927SOL    HW235806   2.734   2.696   5.456
11928SOL     OW35807   2.547   2.874   4.389
11928SOL    HW135808   2.616   2.858   4.459
11928SOL    HW235809   2.474   2.931   4.427
11929SOL     OW35810   2.548   3.023   5.527
11929SOL    HW135811   2.608   3.102   5.541
11929SOL    HW235812   2.462   3.054   5.486
11930SOL     OW35813   2.197   3.297   4.785
11930SOL    HW135814   2.119   3.266   4.732
11930SOL    HW235815   2.255   3.355   4.728
11931SOL     OW35816   3.322   3.367   5.063
11931SOL    HW135817   3.346   3.461   5.089
11931SOL    HW235818   3.306   3.313   5.145
11932SOL     OW35819   2.300   2.254   5.223
11932SOL    HW135820   2.382   2.198   5.232
11932SOL    HW235821   2.219   2.196   5.227
11933SOL     OW35822   3.465   2.309   4.461
11933SOL    HW135823   3.391   2.355   4.411
11933SOL    HW235824   3.516   2.377   4.514
11934SOL     OW35825   2.093   3.575   4.207
11934SOL    HW135826   2.127   3.652   4.261
11934SOL    HW235827   2.137   3.575   4.117
11935SOL     OW35828   2.989   3.203   5.414
11935SOL    HW135829   3.036   3.203   5.502
11935SOL    HW235830   2.941   3.116   5.403
11936SOL     OW35831   2.092   3.296   4.262
11936SOL    HW135832   2.066   3.392   4.262
11936SOL    HW235833   2.021   3.242   4.307
11937SOL     OW35834   2.102   2.953   4.610
11937SOL    HW135835   2.116   2.869   4.662
11937SOL    HW235836   2.047   3.017   4.665
11938SOL     OW35837   2.482   3.648   5.163
11938SOL    HW135838   2.390   3.631   5.198
11938SOL    HW235839   2.510   3.740   5.189
11939SOL     OW35840   2.468   2.826   3.847
11939SOL    HW135841   2.475   2.910   3.793
11939SOL    HW235842   2.514   2.839   3.935
11940SOL     OW35843   3.456   1.976   5.204
11940SOL    HW135844   3.438   2.043   5.132
11940SOL    HW235845   3.453   2.022   5.293
11941SOL     OW35846   1.984   2.505   4.287
11941SOL    HW135847   1.939   2.417   4.304
11941SOL    HW235848   1.983   2.559   4.371
11942SOL     OW35849   3.704   3.629   4.083
11942SOL    HW135850   3.758   3.600   4.163
11942SOL    HW235851   3.734   3.719   4.054
11943SOL     OW35852   1.889   3.458   3.841
11943SOL    HW135853   1.870   3.362   3.862
11943SOL    HW235854   1.856   3.516   3.916
11944SOL     OW35855   3.551   2.784   4.336
11944SOL    HW135856   3.646   2.755   4.344
11944SOL    HW235857   3.543   2.849   4.261
11945SOL     OW35858   3.503   2.970   4.156
11945SOL    HW135859   3.589   2.972   4.104
11945SOL    HW235860   3.517   3.017   4.244
11946SOL     OW35861   1.975   2.599   5.321
11946SOL    HW135862   2.063   2.586   5.366
11946SOL    HW235863   1.962   2.696   5.299
11947SOL     OW35864   2.475   3.227   4.450
11947SOL    HW135865   2.426   3.140   4.459
11947SOL    HW235866   2.452   3.270   4.363
11948SOL     OW35867   3.155   3.090   5.147
11948SOL    HW135868   3.192   3.017   5.089
11948SOL    HW235869   3.207   3.095   5.232
11949SOL     OW35870   2.671   1.866   4.226
11949SOL    HW135871   2.711   1.957   4.217
11949SOL    HW235872   2.571   1.874   4.232
11950SOL     OW35873   2.059   2.838   4.988
11950SOL    HW135874   2.148   2.793   4.974
11950SOL    HW235875   1.986   2.773   4.969
11951SOL     OW35876   3.387   2.861   3.914
11951SOL    HW135877   3.324   2.785   3.927
11951SOL    HW235878   3.435   2.879   4.000
11952SOL     OW35879   3.049   3.654   5.340
11952SOL    HW135880   3.073   3.714   5.264
11952SOL    HW235881   3.056   3.559   5.310
11953SOL     OW35882   2.179   2.113   5.525
11953SOL    HW135883   2.250   2.184   5.531
11953SOL    HW235884   2.091   2.152   5.553
11954SOL     OW35885   3.328   3.279   4.677
11954SOL    HW135886   3.269   3.285   4.757
11954SOL    HW235887   3.313   3.191   4.631
11955SOL     OW35888   3.529   3.576   4.296
11955SOL    HW135889   3.488   3.553   4.208
11955SOL    HW235890   3.511   3.502   4.361
11956SOL     OW35891   2.460   2.591   3.994
11956SOL    HW135892   2.484   2.660   3.926
11956SOL    HW235893   2.382   2.624   4.048
11957SOL     OW35894   3.143   2.207   4.668
11957SOL    HW135895   3.057   2.157   4.655
11957SOL    HW235896   3.205   2.153   4.724
11958SOL     OW35897   3.438   3.524   4.031
11958SOL    HW135898   3.527   3.570   4.034
11958SOL    HW235899   3.417   3.500   3.936
11959SOL     OW35900   2.669   2.467   5.189
11959SOL    HW135901   2.622   2.464   5.278
11959SOL    HW235902   2.618   2.412   5.123
11960SOL     OW35903   3.256   2.331   5.398
11960SOL    HW135904   3.236   2.374   5.486
11960SOL    HW235905   3.334   2.269   5.407
11961SOL     OW35906   2.835   2.752   5.296
11961SOL    HW135907   2.881   2.668   5.267
11961SOL    HW235908   2.779   2.786   5.221
11962SOL     OW35909   2.853   2.272   4.966
11962SOL    HW135910   2.776   2.306   5.020
11962SOL    HW235911   2.819   2.221   4.887
11963SOL     OW35912   2.903   2.563   4.153
11963SOL    HW135913   2.929   2.559   4.249
11963SOL    HW235914   2.818   2.512   4.139
11964SOL     OW35915   1.938   2.673   4.513
11964SOL    HW135916   2.037   2.661   4.522
11964SOL    HW235917   1.914   2.768   4.534
11965SOL     OW35918   1.992   3.683   5.295
11965SOL    HW135919   1.982   3.668   5.394
11965SOL    HW235920   1.906   3.719   5.259
11966SOL     OW35921   2.727   2.210   3.919
11966SOL    HW135922   2.786   2.273   3.870
11966SOL    HW235923   2.746   2.116   3.890
11967SOL     OW35924   3.581   2.447   5.555
11967SOL    HW135925   3.555   2.536   5.519
11967SOL    HW235926   3.579   2.379   5.482
11968SOL     OW35927   3.224   3.006   4.269
11968SOL    HW135928   3.307   2.977   4.221
11968SOL    HW235929   3.175   3.073   4.213
11969SOL     OW35930   2.412   2.058   4.609
11969SOL    HW135931   2.407   2.053   4.709
11969SOL    HW235932   2.414   2.154   4.580
11970SOL     OW35933   2.870   3.318   4.201
11970SOL    HW135934   2.824   3.390   4.149
11970SOL    HW235935   2.866   3.338   4.299
11971SOL     OW35936   2.213   3.663   4.577
11971SOL    HW135937   2.263   3.577   4.583
11971SOL    HW235938   2.278   3.740   4.574
11972SOL     OW35939   3.657   2.928   4.597
11972SOL    HW135940   3.595   2.913   4.521
11972SOL    HW235941   3.605   2.939   4.682
11973SOL     OW35942   3.089   3.412   5.230
11973SOL    HW135943   3.095   3.335   5.294
11973SOL    HW235944   3.037   3.386   5.150
11974SOL     OW35945   2.183   2.805   3.966
11974SOL    HW135946   2.265   2.844   3.924
11974SOL    HW235947   2.156   2.723   3.917
11975SOL     OW35948   3.320   2.597   4.452
11975SOL    HW135949   3.315   2.532   4.527
11975SOL    HW235950   3.400   2.656   4.465
11976SOL     OW35951   2.323   3.128   5.451
11976SOL    HW135952   2.273   3.129   5.365
11976SOL    HW235953   2.260   3.110   5.527
11977SOL     OW35954   2.973   3.638   3.961
11977SOL    HW135955   2.913   3.576   4.011
11977SOL    HW235956   3.004   3.594   3.876
11978SOL     OW35957   2.064   2.147   5.222
11978SOL    HW135958   1.984   2.207   5.209
11978SOL    HW235959   2.054   2.098   5.308
11979SOL     OW35960   3.494   3.239   3.805
11979SOL    HW135961   3.462   3.333   3.795
11979SOL    HW235962   3.418   3.176   3.793
11980SOL     OW35963   2.326   3.605   4.047
11980SOL    HW135964   2.359   3.644   4.133
11980SOL    HW235965   2.402   3.598   3.982
11981SOL     OW35966   3.262   1.969   4.150
11981SOL    HW135967   3.238   1.932   4.060
11981SOL    HW235968   3.361   1.985   4.154
11982SOL     OW35969   2.111   3.647   4.965
11982SOL    HW135970   2.168   3.582   5.015
11982SOL    HW235971   2.095   3.614   4.872
11983SOL     OW35972   2.802   3.560   4.628
11983SOL    HW135973   2.882   3.503   4.649
11983SOL    HW235974   2.753   3.520   4.551
11984SOL     OW35975   2.244   2.562   4.204
11984SOL    HW135976   2.289   2.472   4.201
11984SOL    HW235977   2.150   2.551   4.237
11985SOL     OW35978   3.409   2.084   5.453
11985SOL    HW135979   3.404   2.121   5.545
11985SOL    HW235980   3.337   2.015   5.441
11986SOL     OW35981   2.476   1.984   3.841
11986SOL    HW135982   2.574   1.962   3.848
11986SOL    HW235983   2.445   1.967   3.748
11987SOL     OW35984   2.643   2.126   5.473
11987SOL    HW135985   2.710   2.065   5.516
11987SOL    HW235986   2.570   2.145   5.538
11988SOL     OW35987   2.750   3.376   4.919
11988SOL    HW135988   2.727   3.351   4.825
11988SOL    HW235989   2.811   3.307   4.958
11989SOL     OW35990   3.213   2.452   5.157
11989SOL    HW135991   3.241   2.409   5.242
11989SOL    HW235992   3.238   2.548   5.158
11990SOL     OW35993   2.665   3.264   4.648
11990SOL    HW135994   2.755   3.278   4.606
11990SOL    HW235995   2.594   3.266   4.577
11991SOL     OW35996   2.784   2.365   4.623
11991SOL    HW135997   2.759   2.356   4.527
11991SOL    HW235998   2.832   2.283   4.654
11992SOL     OW35999   2.401   1.926   4.236
11992SOL    HW136000   2.320   1.927   4.294
11992SOL    HW236001   2.404   2.009   4.181
11993SOL     OW36002   3.296   3.050   3.765
11993SOL    HW136003   3.328   2.974   3.822
11993SOL    HW236004   3.204   3.077   3.795
11994SOL     OW36005   2.159   1.897   3.895
11994SOL    HW136006   2.208   1.981   3.874
11994SOL    HW236007   2.221   1.832   3.940
11995SOL     OW36008   2.797   2.098   4.204
11995SOL    HW136009   2.749   2.139   4.126
11995SOL    HW236010   2.896   2.096   4.185
11996SOL     OW36011   2.938   2.545   5.188
11996SOL    HW136012   2.858   2.484   5.191
11996SOL    HW236013   3.019   2.492   5.164
11997SOL     OW36014   3.089   3.432   4.517
11997SOL    HW136015   3.110   3.506   4.452
11997SOL    HW236016   3.157   3.432   4.590
11998SOL     OW36017   2.321   3.014   4.465
11998SOL    HW136018   2.250   2.987   4.530
11998SOL    HW236019   2.295   2.986   4.372
11999SOL     OW36020   3.133   3.659   4.315
11999SOL    HW136021   3.177   3.723   4.251
11999SOL    HW236022   3.083   3.711   4.385
12000SOL     OW36023   2.894   2.411   3.740
12000SOL    HW136024   2.853   2.493   3.701
12000SOL    HW236025   2.958   2.437   3.813
12001SOL     OW36026   1.940   2.418   5.110
12001SOL    HW136027   2.032   2.417   5.069
12001SOL    HW236028   1.934   2.492   5.177
12002SOL     OW36029   2.423   2.084   4.871
12002SOL    HW136030   2.461   2.000   4.908
12002SOL    HW236031   2.335   2.103   4.915
12003SOL     OW36032   2.728   2.316   4.366
12003SOL    HW136033   2.696   2.388   4.304
12003SOL    HW236034   2.752   2.235   4.313
12004SOL     OW36035   2.879   1.901   4.477
12004SOL    HW136036   2.807   1.906   4.408
12004SOL    HW236037   2.855   1.832   4.546
12005SOL     OW36038   3.291   3.035   4.591
12005SOL    HW136039   3.236   2.951   4.584
12005SOL    HW236040   3.317   3.064   4.499
12006SOL     OW36041   3.328   2.452   4.716
12006SOL    HW136042   3.298   2.357   4.723
12006SOL    HW236043   3.401   2.468   4.782
12007SOL     OW36044   3.719   2.695   4.101
12007SOL    HW136045   3.761   2.631   4.165
12007SOL    HW236046   3.681   2.644   4.023
12008SOL     OW36047   2.350   3.247   3.898
12008SOL    HW136048   2.263   3.232   3.945
12008SOL    HW236049   2.333   3.273   3.803
12009SOL     OW36050   3.526   3.142   4.381
12009SOL    HW136051   3.625   3.150   4.395
12009SOL    HW236052   3.481   3.226   4.412
12010SOL     OW36053   3.252   2.437   3.802
12010SOL    HW136054   3.198   2.416   3.883
12010SOL    HW236055   3.343   2.396   3.811
12011SOL     OW36056   2.389   2.118   4.052
12011SOL    HW136057   2.416   2.059   3.977
12011SOL    HW236058   2.389   2.213   4.021
12012SOL     OW36059   3.616   3.085   5.312
12012SOL    HW136060   3.707   3.046   5.299
12012SOL    HW236061   3.624   3.181   5.336
12013SOL     OW36062   2.926   3.209   5.064
12013SOL    HW136063   2.846   3.186   5.119
12013SOL    HW236064   3.009   3.183   5.113
12014SOL     OW36065   3.454   3.491   5.349
12014SOL    HW136066   3.481   3.525   5.259
12014SOL    HW236067   3.533   3.453   5.395
12015SOL     OW36068   2.973   3.057   4.824
12015SOL    HW136069   2.933   3.101   4.905
12015SOL    HW236070   2.932   3.094   4.741
12016SOL     OW36071   3.500   2.961   4.803
12016SOL    HW136072   3.505   3.042   4.862
12016SOL    HW236073   3.414   2.963   4.752
12017SOL     OW36074   2.777   1.951   5.126
12017SOL    HW136075   2.802   1.931   5.031
12017SOL    HW236076   2.849   2.007   5.168
12018SOL     OW36077   2.842   2.978   5.443
12018SOL    HW136078   2.743   2.984   5.453
12018SOL    HW236079   2.865   2.898   5.387
12019SOL     OW36080   2.567   2.912   4.092
12019SOL    HW136081   2.553   2.919   4.191
12019SOL    HW236082   2.651   2.861   4.074
12020SOL     OW36083   2.272   2.675   4.975
12020SOL    HW136084   2.358   2.687   5.025
12020SOL    HW236085   2.230   2.588   5.002
12021SOL     OW36086   3.136   2.248   4.986
12021SOL    HW136087   3.157   2.322   5.050
12021SOL    HW236088   3.047   2.265   4.943
12022SOL     OW36089   1.926   3.426   5.055
12022SOL    HW136090   1.880   3.508   5.021
12022SOL    HW236091   2.024   3.445   5.064
12023SOL     OW36092   2.229   2.962   4.225
12023SOL    HW136093   2.222   3.045   4.169
12023SOL    HW236094   2.233   2.882   4.165
12024SOL     OW36095   2.428   2.399   4.589
12024SOL    HW136096   2.440   2.465   4.515
12024SOL    HW236097   2.474   2.433   4.672
12025SOL     OW36098   3.114   3.210   4.112
12025SOL    HW136099   3.164   3.287   4.152
12025SOL    HW236100   3.019   3.212   4.144
12026SOL     OW36101   3.134   3.307   4.866
12026SOL    HW136102   3.181   3.320   4.953
12026SOL    HW236103   3.068   3.233   4.875
12027SOL     OW36104   3.444   2.501   4.196
12027SOL    HW136105   3.413   2.562   4.269
12027SOL    HW236106   3.494   2.553   4.127
12028SOL     OW36107   2.216   3.372   5.053
12028SOL    HW136108   2.195   3.328   4.966
12028SOL    HW236109   2.313   3.398   5.056
12029SOL     OW36110   2.264   2.613   5.322
12029SOL    HW136111   2.332   2.668   5.275
12029SOL    HW236112   2.304   2.525   5.349
12030SOL     OW36113   3.449   2.641   5.394
12030SOL    HW136114   3.357   2.679   5.389
12030SOL    HW236115   3.509   2.688   5.329
12031SOL     OW36116   2.875   1.967   5.494
12031SOL    HW136117   2.881   2.052   5.442
12031SOL    HW236118   2.907   1.891   5.437
12032SOL     OW36119   2.366   1.912   5.464
12032SOL    HW136120   2.324   1.855   5.394
12032SOL    HW236121   2.300   1.981   5.496
12033SOL     OW36122   2.435   2.732   4.753
12033SOL    HW136123   2.479   2.821   4.744
12033SOL    HW236124   2.372   2.732   4.830
12034SOL     OW36125   3.222   2.724   4.769
12034SOL    HW136126   3.147   2.724   4.703
12034SOL    HW236127   3.259   2.632   4.778
12035SOL     OW36128   3.071   2.387   3.999
12035SOL    HW136129   3.084   2.303   4.053
12035SOL    HW236130   3.042   2.461   4.059
12036SOL     OW36131   2.169   2.075   4.955
12036SOL    HW136132   2.146   2.112   5.045
12036SOL    HW236133   2.139   1.980   4.949
12037SOL     OW36134   1.899   3.172   5.006
12037SOL    HW136135   1.952   3.123   5.074
12037SOL    HW236136   1.921   3.270   5.011
12038SOL     OW36137   2.594   2.496   4.788
12038SOL    HW136138   2.653   2.470   4.712
12038SOL    HW236139   2.566   2.592   4.777
12039SOL     OW36140   3.590   2.797   5.578
12039SOL    HW136141   3.544   2.790   5.489
12039SOL    HW236142   3.528   2.841   5.644
12040SOL     OW36143   2.169   1.925   4.342
12040SOL    HW136144   2.158   2.019   4.375
12040SOL    HW236145   2.164   1.862   4.419
12041SOL     OW36146   3.484   2.229   4.098
12041SOL    HW136147   3.486   2.153   4.162
12041SOL    HW236148   3.436   2.306   4.138
12042SOL     OW36149   2.885   2.628   4.690
12042SOL    HW136150   2.900   2.649   4.786
12042SOL    HW236151   2.855   2.533   4.681
12043SOL     OW36152   2.842   3.435   5.424
12043SOL    HW136153   2.822   3.479   5.336
12043SOL    HW236154   2.881   3.344   5.408
12044SOL     OW36155   3.721   3.380   5.329
12044SOL    HW136156   3.735   3.407   5.234
12044SOL    HW236157   3.804   3.402   5.382
12045SOL     OW36158   2.212   2.760   5.528
12045SOL    HW136159   2.288   2.804   5.576
12045SOL    HW236160   2.247   2.713   5.446
12046SOL     OW36161   3.402   2.136   3.849
12046SOL    HW136162   3.341   2.061   3.872
12046SOL    HW236163   3.424   2.188   3.932
12047SOL     OW36164   3.165   2.700   3.766
12047SOL    HW136165   3.199   2.607   3.781
12047SOL    HW236166   3.183   2.727   3.671
12048SOL     OW36167   2.930   3.195   4.573
12048SOL    HW136168   2.937   3.111   4.518
12048SOL    HW236169   2.992   3.264   4.537
12049SOL     OW36170   2.181   2.672   4.673
12049SOL    HW136171   2.274   2.708   4.678
12049SOL    HW236172   2.175   2.587   4.725
12050SOL     OW36173   2.201   2.371   4.730
12050SOL    HW136174   2.149   2.288   4.713
12050SOL    HW236175   2.278   2.376   4.666
12051SOL     OW36176   3.000   2.242   5.402
12051SOL    HW136177   2.955   2.305   5.466
12051SOL    HW236178   3.093   2.273   5.385
12052SOL     OW36179   3.022   2.069   5.201
12052SOL    HW136180   3.022   2.133   5.278
12052SOL    HW236181   3.050   2.117   5.118
12053SOL     OW36182   1.870   3.188   3.924
12053SOL    HW136183   1.777   3.209   3.893
12053SOL    HW236184   1.880   3.089   3.937
12054SOL     OW36185   1.950   3.663   4.651
12054SOL    HW136186   1.908   3.577   4.624
12054SOL    HW236187   2.044   3.666   4.617
12055SOL     OW36188   2.366   3.430   4.634
12055SOL    HW136189   2.432   3.504   4.643
12055SOL    HW236190   2.410   3.351   4.592
12056SOL     OW36191   2.864   2.658   4.962
12056SOL    HW136192   2.905   2.626   5.048
12056SOL    HW236193   2.768   2.631   4.959
12057SOL     OW36194   1.902   2.406   4.838
12057SOL    HW136195   1.987   2.373   4.797
12057SOL    HW236196   1.915   2.421   4.936
12058SOL     OW36197   2.051   2.382   5.446
12058SOL    HW136198   2.110   2.342   5.376
12058SOL    HW236199   1.993   2.453   5.405
12059SOL     OW36200   3.231   2.812   5.384
12059SOL    HW136201   3.270   2.901   5.404
12059SOL    HW236202   3.241   2.792   5.287
12060SOL     OW36203   2.677   2.434   4.049
12060SOL    HW136204   2.684   2.345   4.003
12060SOL    HW236205   2.583   2.468   4.041
12061SOL     OW36206   3.519   2.466   4.930
12061SOL    HW136207   3.481   2.397   4.992
12061SOL    HW236208   3.601   2.430   4.886
12062SOL     OW36209   2.114   3.426   5.468
12062SOL    HW136210   2.084   3.483   5.544
12062SOL    HW236211   2.107   3.329   5.494
12063SOL     OW36212   2.533   2.326   4.993
12063SOL    HW136213   2.499   2.237   4.963
12063SOL    HW236214   2.559   2.380   4.913
12064SOL     OW36215   2.792   3.540   5.189
12064SOL    HW136216   2.768   3.522   5.094
12064SOL    HW236217   2.822   3.634   5.199
12065SOL     OW36218   2.335   2.362   3.915
12065SOL    HW136219   2.396   2.442   3.919
12065SOL    HW236220   2.240   2.393   3.922
12066SOL     OW36221   2.021   2.999   5.190
12066SOL    HW136222   2.043   2.938   5.266
12066SOL    HW236223   2.031   2.950   5.104
12067SOL     OW36224   3.209   2.921   4.958
12067SOL    HW136225   3.233   2.858   4.884
12067SOL    HW236226   3.119   2.961   4.940
12068SOL     OW36227   3.164   2.717   4.033
12068SOL    HW136228   3.078   2.686   4.075
12068SOL    HW236229   3.160   2.703   3.934
12069SOL     OW36230   3.621   3.609   4.878
12069SOL    HW136231   3.682   3.639   4.805
12069SOL    HW236232   3.583   3.520   4.856
12070SOL     OW36233   3.114   3.593   4.852
12070SOL    HW136234   3.198   3.598   4.798
12070SOL    HW236235   3.091   3.497   4.870
12071SOL     OW36236   1.945   3.120   4.746
12071SOL    HW136237   1.940   3.119   4.846
12071SOL    HW236238   1.862   3.079   4.708
12072SOL     OW36239   2.550   3.524   5.440
12072SOL    HW136240   2.494   3.605   5.449
12072SOL    HW236241   2.602   3.528   5.354
12073SOL     OW36242   3.588   1.997   4.247
12073SOL    HW136243   3.661   1.980   4.180
12073SOL    HW236244   3.557   1.910   4.285
12074SOL     OW36245   3.250   3.435   4.201
12074SOL    HW136246   3.317   3.447   4.127
12074SOL    HW236247   3.210   3.524   4.224
12075SOL     OW36248   1.992   3.656   5.575
12075SOL    HW136249   1.951   3.582   5.628
12075SOL    HW236250   2.056   3.707   5.633
12076SOL     OW36251   3.142   2.789   4.396
12076SOL    HW136252   3.202   2.708   4.398
12076SOL    HW236253   3.182   2.858   4.336
12077SOL     OW36254   2.692   3.135   5.146
12077SOL    HW136255   2.687   3.168   5.241
12077SOL    HW236256   2.606   3.154   5.100
12078SOL     OW36257   2.534   3.478   3.878
12078SOL    HW136258   2.543   3.488   3.779
12078SOL    HW236259   2.494   3.389   3.899
12079SOL     OW36260   3.512   3.582   5.118
12079SOL    HW136261   3.565   3.592   5.034
12079SOL    HW236262   3.485   3.672   5.152
12080SOL     OW36263   3.703   2.037   4.687
12080SOL    HW136264   3.742   1.952   4.651
12080SOL    HW236265   3.605   2.039   4.668
12081SOL     OW36266   2.125   2.188   4.444
12081SOL    HW136267   2.046   2.239   4.410
12081SOL    HW236268   2.116   2.173   4.542
12082SOL     OW36269   3.056   3.474   3.755
12082SOL    HW136270   3.062   3.381   3.792
12082SOL    HW236271   2.997   3.474   3.675
12083SOL     OW36272   2.684   2.864   5.096
12083SOL    HW136273   2.724   2.863   5.004
12083SOL    HW236274   2.694   2.956   5.136
12084SOL     OW36275   2.778   2.772   4.015
12084SOL    HW136276   2.841   2.810   3.947
12084SOL    HW236277   2.818   2.689   4.054
12085SOL     OW36278   3.366   3.469   3.768
12085SOL    HW136279   3.274   3.506   3.775
12085SOL    HW236280   3.404   3.489   3.678
12086SOL     OW36281   2.234   3.150   5.214
12086SOL    HW136282   2.221   3.243   5.180
12086SOL    HW236283   2.150   3.098   5.201
12087SOL     OW36284   3.476   3.154   5.013
12087SOL    HW136285   3.536   3.157   5.093
12087SOL    HW236286   3.401   3.218   5.026
12088SOL     OW36287   2.901   2.960   4.420
12088SOL    HW136288   2.831   2.913   4.474
12088SOL    HW236289   2.960   2.892   4.377
12089SOL     OW36290   2.876   2.098   4.695
12089SOL    HW136291   2.868   2.062   4.602
12089SOL    HW236292   2.874   2.022   4.760
12090SOL     OW36293   2.452   3.349   4.215
12090SOL    HW136294   2.494   3.291   4.145
12090SOL    HW236295   2.408   3.428   4.171
12091SOL     OW36296   3.571   2.247   5.105
12091SOL    HW136297   3.644   2.316   5.109
12091SOL    HW236298   3.599   2.172   5.046
12092SOL     OW36299   2.117   3.210   4.014
12092SOL    HW136300   2.021   3.211   3.987
12092SOL    HW236301   2.129   3.263   4.098
12093SOL     OW36302   1.967   2.875   5.450
12093SOL    HW136303   1.890   2.842   5.504
12093SOL    HW236304   2.052   2.845   5.492
12094SOL     OW36305   2.534   2.065   5.213
12094SOL    HW136306   2.624   2.049   5.173
12094SOL    HW236307   2.542   2.070   5.312
12095SOL     OW36308   1.937   2.207   3.757
12095SOL    HW136309   1.845   2.179   3.728
12095SOL    HW236310   1.968   2.284   3.701
12096SOL     OW36311   3.302   2.718   5.122
12096SOL    HW136312   3.245   2.770   5.059
12096SOL    HW236313   3.398   2.730   5.098
12097SOL     OW36314   1.934   2.028   4.042
12097SOL    HW136315   1.917   2.111   3.988
12097SOL    HW236316   2.024   1.991   4.020
12098SOL     OW36317   3.045   3.197   3.843
12098SOL    HW136318   2.946   3.186   3.845
12098SOL    HW236319   3.079   3.212   3.936
12099SOL     OW36320   2.475   2.704   5.155
12099SOL    HW136321   2.531   2.785   5.138
12099SOL    HW236322   2.534   2.624   5.158
12100SOL     OW36323   3.355   3.629   4.683
12100SOL    HW136324   3.388   3.693   4.614
12100SOL    HW236325   3.421   3.623   4.758
12101SOL     OW36326   2.578   2.427   5.432
12101SOL    HW136327   2.597   2.492   5.506
12101SOL    HW236328   2.638   2.347   5.441
12102SOL     OW36329   3.312   3.082   5.357
12102SOL    HW136330   3.303   3.072   5.456
12102SOL    HW236331   3.408   3.075   5.331
12103SOL     OW36332   2.252   3.603   5.284
12103SOL    HW136333   2.161   3.644   5.282
12103SOL    HW236334   2.245   3.509   5.316
12104SOL     OW36335   3.536   2.745   4.978
12104SOL    HW136336   3.509   2.656   4.941
12104SOL    HW236337   3.537   2.813   4.905
12105SOL     OW36338   3.087   2.187   4.173
12105SOL    HW136339   3.152   2.113   4.162
12105SOL    HW236340   3.107   2.237   4.257
12106SOL     OW36341   2.456   2.607   4.376
12106SOL    HW136342   2.506   2.692   4.357
12106SOL    HW236343   2.368   2.609   4.328
12107SOL     OW36344   3.639   2.204   5.366
12107SOL    HW136345   3.622   2.235   5.272
12107SOL    HW236346   3.555   2.167   5.404
12108SOL     OW36347   3.592   2.796   5.241
12108SOL    HW136348   3.630   2.887   5.256
12108SOL    HW236349   3.584   2.779   5.142
12109SOL     OW36350   2.721   3.236   3.740
12109SOL    HW136351   2.675   3.251   3.828
12109SOL    HW236352   2.765   3.321   3.710
12110SOL     OW36353   2.523   3.652   4.677
12110SOL    HW136354   2.477   3.740   4.664
12110SOL    HW236355   2.622   3.664   4.670
12111SOL     OW36356   2.721   2.818   4.585
12111SOL    HW136357   2.775   2.749   4.633
12111SOL    HW236358   2.689   2.887   4.651
12112SOL     OW36359   2.945   2.846   3.811
12112SOL    HW136360   2.922   2.899   3.729
12112SOL    HW236361   3.026   2.790   3.792
12113SOL     OW36362   3.723   3.431   4.575
12113SOL    HW136363   3.652   3.419   4.505
12113SOL    HW236364   3.724   3.352   4.635
12114SOL     OW36365   2.083   3.176   5.568
12114SOL    HW136366   2.018   3.103   5.547
12114SOL    HW236367   2.087   3.190   5.666
12115SOL     OW36368   1.941   3.102   4.377
12115SOL    HW136369   1.940   3.055   4.465
12115SOL    HW236370   2.023   3.074   4.326
12116SOL     OW36371   2.534   3.253   5.348
12116SOL    HW136372   2.456   3.203   5.386
12116SOL    HW236373   2.531   3.348   5.379
12117SOL     OW36374   3.686   2.054   4.951
12117SOL    HW136375   3.682   1.964   4.995
12117SOL    HW236376   3.689   2.043   4.852
12118SOL     OW36377   2.290   2.286   4.244
12118SOL    HW136378   2.320   2.214   4.182
12118SOL    HW236379   2.251   2.246   4.327
12119SOL     OW36380   3.567   3.349   4.828
12119SOL    HW136381   3.474   3.324   4.801
12119SOL    HW236382   3.593   3.299   4.910
12120SOL     OW36383   2.179   2.409   5.004
12120SOL    HW136384   2.217   2.350   5.076
12120SOL    HW236385   2.219   2.383   4.916
12121SOL     OW36386   2.674   3.448   4.411
12121SOL    HW136387   2.706   3.458   4.317
12121SOL    HW236388   2.595   3.386   4.413
12122SOL     OW36389   3.286   2.076   4.836
12122SOL    HW136390   3.338   2.011   4.891
12122SOL    HW236391   3.237   2.139   4.897
12123SOL     OW36392   2.863   1.896   4.878
12123SOL    HW136393   2.800   1.824   4.847
12123SOL    HW236394   2.956   1.860   4.878
12124SOL     OW36395   2.632   3.192   4.025
12124SOL    HW136396   2.586   3.105   4.042
12124SOL    HW236397   2.723   3.189   4.066
12125SOL     OW36398   2.480   3.429   5.008
12125SOL    HW136399   2.475   3.511   5.065
12125SOL    HW236400   2.569   3.426   4.963
12126SOL     OW36401   3.214   1.914   3.892
12126SOL    HW136402   3.249   1.873   3.808
12126SOL    HW236403   3.124   1.876   3.912
12127SOL     OW36404   3.162   2.315   4.415
12127SOL    HW136405   3.103   2.395   4.419
12127SOL    HW236406   3.177   2.280   4.508
12128SOL     OW36407   3.455   2.083   4.606
12128SOL    HW136408   3.371   2.082   4.660
12128SOL    HW236409   3.457   2.166   4.550
12129SOL     OW36410   1.901   2.939   4.024
12129SOL    HW136411   2.000   2.928   4.015
12129SOL    HW236412   1.861   2.853   4.056
12130SOL     OW36413   2.737   3.508   4.061
12130SOL    HW136414   2.660   3.473   4.007
12130SOL    HW236415   2.705   3.579   4.123
12131SOL     OW36416   2.092   2.490   5.699
12131SOL    HW136417   1.999   2.488   5.736
12131SOL    HW236418   2.093   2.451   5.607
12132SOL     OW36419   2.087   2.137   6.582
12132SOL    HW136420   2.122   2.120   6.674
12132SOL    HW236421   1.999   2.092   6.570
12133SOL     OW36422   1.881   2.230   6.233
12133SOL    HW136423   1.799   2.273   6.272
12133SOL    HW236424   1.853   2.157   6.170
12134SOL     OW36425   2.431   3.137   6.751
12134SOL    HW136426   2.338   3.130   6.714
12134SOL    HW236427   2.442   3.226   6.795
12135SOL     OW36428   3.417   3.373   6.289
12135SOL    HW136429   3.360   3.357   6.370
12135SOL    HW236430   3.358   3.383   6.209
12136SOL     OW36431   2.997   2.565   6.303
12136SOL    HW136432   3.054   2.643   6.278
12136SOL    HW236433   2.937   2.591   6.379
12137SOL     OW36434   3.617   2.469   5.817
12137SOL    HW136435   3.605   2.456   5.718
12137SOL    HW236436   3.587   2.388   5.866
12138SOL     OW36437   2.630   3.006   6.609
12138SOL    HW136438   2.552   3.023   6.669
12138SOL    HW236439   2.664   3.093   6.573
12139SOL     OW36440   2.712   2.660   7.409
12139SOL    HW136441   2.708   2.736   7.474
12139SOL    HW236442   2.734   2.696   7.318
12140SOL     OW36443   2.547   2.874   6.251
12140SOL    HW136444   2.616   2.858   6.321
12140SOL    HW236445   2.474   2.931   6.289
12141SOL     OW36446   2.548   3.023   7.389
12141SOL    HW136447   2.608   3.102   7.403
12141SOL    HW236448   2.462   3.054   7.348
12142SOL     OW36449   2.197   3.297   6.647
12142SOL    HW136450   2.119   3.266   6.594
12142SOL    HW236451   2.255   3.355   6.590
12143SOL     OW36452   3.322   3.367   6.925
12143SOL    HW136453   3.346   3.461   6.951
12143SOL    HW236454   3.306   3.313   7.007
12144SOL     OW36455   2.300   2.254   7.085
12144SOL    HW136456   2.382   2.198   7.094
12144SOL    HW236457   2.219   2.196   7.089
12145SOL     OW36458   3.465   2.309   6.323
12145SOL    HW136459   3.391   2.355   6.273
12145SOL    HW236460   3.516   2.377   6.376
12146SOL     OW36461   2.093   3.575   6.069
12146SOL    HW136462   2.127   3.652   6.123
12146SOL    HW236463   2.137   3.575   5.979
12147SOL     OW36464   2.989   3.203   7.276
12147SOL    HW136465   3.036   3.203   7.364
12147SOL    HW236466   2.941   3.116   7.265
12148SOL     OW36467   2.092   3.296   6.124
12148SOL    HW136468   2.066   3.392   6.124
12148SOL    HW236469   2.021   3.242   6.169
12149SOL     OW36470   2.102   2.953   6.472
12149SOL    HW136471   2.116   2.869   6.524
12149SOL    HW236472   2.047   3.017   6.527
12150SOL     OW36473   2.482   3.648   7.025
12150SOL    HW136474   2.390   3.631   7.060
12150SOL    HW236475   2.510   3.740   7.051
12151SOL     OW36476   2.468   2.826   5.709
12151SOL    HW136477   2.475   2.910   5.655
12151SOL    HW236478   2.514   2.839   5.797
12152SOL     OW36479   3.456   1.976   7.066
12152SOL    HW136480   3.438   2.043   6.994
12152SOL    HW236481   3.453   2.022   7.155
12153SOL     OW36482   1.984   2.505   6.149
12153SOL    HW136483   1.939   2.417   6.166
12153SOL    HW236484   1.983   2.559   6.233
12154SOL     OW36485   3.704   3.629   5.945
12154SOL    HW136486   3.758   3.600   6.025
12154SOL    HW236487   3.734   3.719   5.916
12155SOL     OW36488   1.889   3.458   5.703
12155SOL    HW136489   1.870   3.362   5.724
12155SOL    HW236490   1.856   3.516   5.778
12156SOL     OW36491   3.551   2.784   6.198
12156SOL    HW136492   3.646   2.755   6.206
12156SOL    HW236493   3.543   2.849   6.123
12157SOL     OW36494   3.503   2.970   6.018
12157SOL    HW136495   3.589   2.972   5.966
12157SOL    HW236496   3.517   3.017   6.106
12158SOL     OW36497   1.975   2.599   7.183
12158SOL    HW136498   2.063   2.586   7.228
12158SOL    HW236499   1.962   2.696   7.161
12159SOL     OW36500   2.475   3.227   6.312
12159SOL    HW136501   2.426   3.140   6.321
12159SOL    HW236502   2.452   3.270   6.225
12160SOL     OW36503   3.155   3.090   7.009
12160SOL    HW136504   3.192   3.017   6.951
12160SOL    HW236505   3.207   3.095   7.094
12161SOL     OW36506   2.671   1.866   6.088
12161SOL    HW136507   2.711   1.957   6.079
12161SOL    HW236508   2.571   1.874   6.094
12162SOL     OW36509   2.059   2.838   6.850
12162SOL    HW136510   2.148   2.793   6.836
12162SOL    HW236511   1.986   2.773   6.831
12163SOL     OW36512   3.387   2.861   5.776
12163SOL    HW136513   3.324   2.785   5.789
12163SOL    HW236514   3.435   2.879   5.862
12164SOL     OW36515   3.049   3.654   7.202
12164SOL    HW136516   3.073   3.714   7.126
12164SOL    HW236517   3.056   3.559   7.172
12165SOL     OW36518   2.179   2.113   7.387
12165SOL    HW136519   2.250   2.184   7.393
12165SOL    HW236520   2.091   2.152   7.415
12166SOL     OW36521   3.328   3.279   6.539
12166SOL    HW136522   3.269   3.285   6.619
12166SOL    HW236523   3.313   3.191   6.493
12167SOL     OW36524   3.529   3.576   6.158
12167SOL    HW136525   3.488   3.553   6.070
12167SOL    HW236526   3.511   3.502   6.223
12168SOL     OW36527   2.460   2.591   5.856
12168SOL    HW136528   2.484   2.660   5.788
12168SOL    HW236529   2.382   2.624   5.910
12169SOL     OW36530   3.143   2.207   6.530
12169SOL    HW136531   3.057   2.157   6.517
12169SOL    HW236532   3.205   2.153   6.586
12170SOL     OW36533   3.438   3.524   5.893
12170SOL    HW136534   3.527   3.570   5.896
12170SOL    HW236535   3.417   3.500   5.798
12171SOL     OW36536   2.669   2.467   7.051
12171SOL    HW136537   2.622   2.464   7.140
12171SOL    HW236538   2.618   2.412   6.985
12172SOL     OW36539   3.256   2.331   7.260
12172SOL    HW136540   3.236   2.374   7.348
12172SOL    HW236541   3.334   2.269   7.269
12173SOL     OW36542   2.835   2.752   7.158
12173SOL    HW136543   2.881   2.668   7.129
12173SOL    HW236544   2.779   2.786   7.083
12174SOL     OW36545   2.853   2.272   6.828
12174SOL    HW136546   2.776   2.306   6.882
12174SOL    HW236547   2.819   2.221   6.749
12175SOL     OW36548   2.903   2.563   6.015
12175SOL    HW136549   2.929   2.559   6.111
12175SOL    HW236550   2.818   2.512   6.001
12176SOL     OW36551   1.938   2.673   6.375
12176SOL    HW136552   2.037   2.661   6.384
12176SOL    HW236553   1.914   2.768   6.396
12177SOL     OW36554   1.992   3.683   7.157
12177SOL    HW136555   1.982   3.668   7.256
12177SOL    HW236556   1.906   3.719   7.121
12178SOL     OW36557   2.727   2.210   5.781
12178SOL    HW136558   2.786   2.273   5.732
12178SOL    HW236559   2.746   2.116   5.752
12179SOL     OW36560   3.581   2.447   7.417
12179SOL    HW136561   3.555   2.536   7.381
12179SOL    HW236562   3.579   2.379   7.344
12180SOL     OW36563   3.224   3.006   6.131
12180SOL    HW136564   3.307   2.977   6.083
12180SOL    HW236565   3.175   3.073   6.075
12181SOL     OW36566   2.412   2.058   6.471
12181SOL    HW136567   2.407   2.053   6.571
12181SOL    HW236568   2.414   2.154   6.442
12182SOL     OW36569   2.870   3.318   6.063
12182SOL    HW136570   2.824   3.390   6.011
12182SOL    HW236571   2.866   3.338   6.161
12183SOL     OW36572   2.213   3.663   6.439
12183SOL    HW136573   2.263   3.577   6.445
12183SOL    HW236574   2.278   3.740   6.436
12184SOL     OW36575   3.657   2.928   6.459
12184SOL    HW136576   3.595   2.913   6.383
12184SOL    HW236577   3.605   2.939   6.544
12185SOL     OW36578   3.089   3.412   7.092
12185SOL    HW136579   3.095   3.335   7.156
12185SOL    HW236580   3.037   3.386   7.012
12186SOL     OW36581   2.183   2.805   5.828
12186SOL    HW136582   2.265   2.844   5.786
12186SOL    HW236583   2.156   2.723   5.779
12187SOL     OW36584   3.320   2.597   6.314
12187SOL    HW136585   3.315   2.532   6.389
12187SOL    HW236586   3.400   2.656   6.327
12188SOL     OW36587   2.323   3.128   7.313
12188SOL    HW136588   2.273   3.129   7.227
12188SOL    HW236589   2.260   3.110   7.389
12189SOL     OW36590   2.973   3.638   5.823
12189SOL    HW136591   2.913   3.576   5.873
12189SOL    HW236592   3.004   3.594   5.738
12190SOL     OW36593   2.064   2.147   7.084
12190SOL    HW136594   1.984   2.207   7.071
12190SOL    HW236595   2.054   2.098   7.170
12191SOL     OW36596   3.494   3.239   5.667
12191SOL    HW136597   3.462   3.333   5.657
12191SOL    HW236598   3.418   3.176   5.655
12192SOL     OW36599   2.326   3.605   5.909
12192SOL    HW136600   2.359   3.644   5.995
12192SOL    HW236601   2.402   3.598   5.844
12193SOL     OW36602   3.262   1.969   6.012
12193SOL    HW136603   3.238   1.932   5.922
12193SOL    HW236604   3.361   1.985   6.016
12194SOL     OW36605   2.111   3.647   6.827
12194SOL    HW136606   2.168   3.582   6.877
12194SOL    HW236607   2.095   3.614   6.734
12195SOL     OW36608   2.802   3.560   6.490
12195SOL    HW136609   2.882   3.503   6.511
12195SOL    HW236610   2.753   3.520   6.413
12196SOL     OW36611   2.244   2.562   6.066
12196SOL    HW136612   2.289   2.472   6.063
12196SOL    HW236613   2.150   2.551   6.099
12197SOL     OW36614   3.409   2.084   7.315
12197SOL    HW136615   3.404   2.121   7.407
12197SOL    HW236616   3.337   2.015   7.303
12198SOL     OW36617   2.476   1.984   5.703
12198SOL    HW136618   2.574   1.962   5.710
12198SOL    HW236619   2.445   1.967   5.610
12199SOL     OW36620   2.643   2.126   7.335
12199SOL    HW136621   2.710   2.065   7.378
12199SOL    HW236622   2.570   2.145   7.400
12200SOL     OW36623   2.750   3.376   6.781
12200SOL    HW136624   2.727   3.351   6.687
12200SOL    HW236625   2.811   3.307   6.820
12201SOL     OW36626   3.213   2.452   7.019
12201SOL    HW136627   3.241   2.409   7.104
12201SOL    HW236628   3.238   2.548   7.020
12202SOL     OW36629   2.665   3.264   6.510
12202SOL    HW136630   2.755   3.278   6.468
12202SOL    HW236631   2.594   3.266   6.439
12203SOL     OW36632   2.784   2.365   6.485
12203SOL    HW136633   2.759   2.356   6.389
12203SOL    HW236634   2.832   2.283   6.516
12204SOL     OW36635   2.401   1.926   6.098
12204SOL    HW136636   2.320   1.927   6.156
12204SOL    HW236637   2.404   2.009   6.043
12205SOL     OW36638   3.296   3.050   5.627
12205SOL    HW136639   3.328   2.974   5.684
12205SOL    HW236640   3.204   3.077   5.657
12206SOL     OW36641   2.159   1.897   5.757
12206SOL    HW136642   2.208   1.981   5.736
12206SOL    HW236643   2.221   1.832   5.802
12207SOL     OW36644   2.797   2.098   6.066
12207SOL    HW136645   2.749   2.139   5.988
12207SOL    HW236646   2.896   2.096   6.047
12208SOL     OW36647   2.938   2.545   7.050
12208SOL    HW136648   2.858   2.484   7.053
12208SOL    HW236649   3.019   2.492   7.026
12209SOL     OW36650   3.089   3.432   6.379
12209SOL    HW136651   3.110   3.506   6.314
12209SOL    HW236652   3.157   3.432   6.452
12210SOL     OW36653   2.321   3.014   6.327
12210SOL    HW136654   2.250   2.987   6.392
12210SOL    HW236655   2.295   2.986   6.234
12211SOL     OW36656   3.133   3.659   6.177
12211SOL    HW136657   3.177   3.723   6.113
12211SOL    HW236658   3.083   3.711   6.247
12212SOL     OW36659   2.894   2.411   5.602
12212SOL    HW136660   2.853   2.493   5.563
12212SOL    HW236661   2.958   2.437   5.675
12213SOL     OW36662   1.940   2.418   6.972
12213SOL    HW136663   2.032   2.417   6.931
12213SOL    HW236664   1.934   2.492   7.039
12214SOL     OW36665   2.423   2.084   6.733
12214SOL    HW136666   2.461   2.000   6.770
12214SOL    HW236667   2.335   2.103   6.777
12215SOL     OW36668   2.728   2.316   6.228
12215SOL    HW136669   2.696   2.388   6.166
12215SOL    HW236670   2.752   2.235   6.175
12216SOL     OW36671   2.879   1.901   6.339
12216SOL    HW136672   2.807   1.906   6.270
12216SOL    HW236673   2.855   1.832   6.408
12217SOL     OW36674   3.291   3.035   6.453
12217SOL    HW136675   3.236   2.951   6.446
12217SOL    HW236676   3.317   3.064   6.361
12218SOL     OW36677   3.328   2.452   6.578
12218SOL    HW136678   3.298   2.357   6.585
12218SOL    HW236679   3.401   2.468   6.644
12219SOL     OW36680   3.719   2.695   5.963
12219SOL    HW136681   3.761   2.631   6.027
12219SOL    HW236682   3.681   2.644   5.885
12220SOL     OW36683   2.350   3.247   5.760
12220SOL    HW136684   2.263   3.232   5.807
12220SOL    HW236685   2.333   3.273   5.665
12221SOL     OW36686   3.526   3.142   6.243
12221SOL    HW136687   3.625   3.150   6.257
12221SOL    HW236688   3.481   3.226   6.274
12222SOL     OW36689   3.252   2.437   5.664
12222SOL    HW136690   3.198   2.416   5.745
12222SOL    HW236691   3.343   2.396   5.673
12223SOL     OW36692   2.389   2.118   5.914
12223SOL    HW136693   2.416   2.059   5.839
12223SOL    HW236694   2.389   2.213   5.883
12224SOL     OW36695   3.616   3.085   7.174
12224SOL    HW136696   3.707   3.046   7.161
12224SOL    HW236697   3.624   3.181   7.198
12225SOL     OW36698   2.926   3.209   6.926
12225SOL    HW136699   2.846   3.186   6.981
12225SOL    HW236700   3.009   3.183   6.975
12226SOL     OW36701   3.454   3.491   7.211
12226SOL    HW136702   3.481   3.525   7.121
12226SOL    HW236703   3.533   3.453   7.257
12227SOL     OW36704   2.973   3.057   6.686
12227SOL    HW136705   2.933   3.101   6.767
12227SOL    HW236706   2.932   3.094   6.603
12228SOL     OW36707   3.500   2.961   6.665
12228SOL    HW136708   3.505   3.042   6.724
12228SOL    HW236709   3.414   2.963   6.614
12229SOL     OW36710   2.777   1.951   6.988
12229SOL    HW136711   2.802   1.931   6.893
12229SOL    HW236712   2.849   2.007   7.030
12230SOL     OW36713   2.842   2.978   7.305
12230SOL    HW136714   2.743   2.984   7.315
12230SOL    HW236715   2.865   2.898   7.249
12231SOL     OW36716   2.567   2.912   5.954
12231SOL    HW136717   2.553   2.919   6.053
12231SOL    HW236718   2.651   2.861   5.936
12232SOL     OW36719   2.272   2.675   6.837
12232SOL    HW136720   2.358   2.687   6.887
12232SOL    HW236721   2.230   2.588   6.864
12233SOL     OW36722   3.136   2.248   6.848
12233SOL    HW136723   3.157   2.322   6.912
12233SOL    HW236724   3.047   2.265   6.805
12234SOL     OW36725   1.926   3.426   6.917
12234SOL    HW136726   1.880   3.508   6.883
12234SOL    HW236727   2.024   3.445   6.926
12235SOL     OW36728   2.229   2.962   6.087
12235SOL    HW136729   2.222   3.045   6.031
12235SOL    HW236730   2.233   2.882   6.027
12236SOL     OW36731   2.428   2.399   6.451
12236SOL    HW136732   2.440   2.465   6.377
12236SOL    HW236733   2.474   2.433   6.534
12237SOL     OW36734   3.114   3.210   5.974
12237SOL    HW136735   3.164   3.287   6.014
12237SOL    HW236736   3.019   3.212   6.006
12238SOL     OW36737   3.134   3.307   6.728
12238SOL    HW136738   3.181   3.320   6.815
12238SOL    HW236739   3.068   3.233   6.737
12239SOL     OW36740   3.444   2.501   6.058
12239SOL    HW136741   3.413   2.562   6.131
12239SOL    HW236742   3.494   2.553   5.989
12240SOL     OW36743   2.216   3.372   6.915
12240SOL    HW136744   2.195   3.328   6.828
12240SOL    HW236745   2.313   3.398   6.918
12241SOL     OW36746   2.264   2.613   7.184
12241SOL    HW136747   2.332   2.668   7.137
12241SOL    HW236748   2.304   2.525   7.211
12242SOL     OW36749   3.449   2.641   7.256
12242SOL    HW136750   3.357   2.679   7.251
12242SOL    HW236751   3.509   2.688   7.191
12243SOL     OW36752   2.875   1.967   7.356
12243SOL    HW136753   2.881   2.052   7.304
12243SOL    HW236754   2.907   1.891   7.299
12244SOL     OW36755   2.366   1.912   7.326
12244SOL    HW136756   2.324   1.855   7.256
12244SOL    HW236757   2.300   1.981   7.358
12245SOL     OW36758   2.435   2.732   6.615
12245SOL    HW136759   2.479   2.821   6.606
12245SOL    HW236760   2.372   2.732   6.692
12246SOL     OW36761   3.222   2.724   6.631
12246SOL    HW136762   3.147   2.724   6.565
12246SOL    HW236763   3.259   2.632   6.640
12247SOL     OW36764   3.071   2.387   5.861
12247SOL    HW136765   3.084   2.303   5.915
12247SOL    HW236766   3.042   2.461   5.921
12248SOL     OW36767   2.169   2.075   6.817
12248SOL    HW136768   2.146   2.112   6.907
12248SOL    HW236769   2.139   1.980   6.811
12249SOL     OW36770   1.899   3.172   6.868
12249SOL    HW136771   1.952   3.123   6.936
12249SOL    HW236772   1.921   3.270   6.873
12250SOL     OW36773   2.594   2.496   6.650
12250SOL    HW136774   2.653   2.470   6.574
12250SOL    HW236775   2.566   2.592   6.639
12251SOL     OW36776   3.590   2.797   7.440
12251SOL    HW136777   3.544   2.790   7.351
12251SOL    HW236778   3.528   2.841   7.506
12252SOL     OW36779   2.169   1.925   6.204
12252SOL    HW136780   2.158   2.019   6.237
12252SOL    HW236781   2.164   1.862   6.281
12253SOL     OW36782   3.484   2.229   5.960
12253SOL    HW136783   3.486   2.153   6.024
12253SOL    HW236784   3.436   2.306   6.000
12254SOL     OW36785   2.885   2.628   6.552
12254SOL    HW136786   2.900   2.649   6.648
12254SOL    HW236787   2.855   2.533   6.543
12255SOL     OW36788   2.842   3.435   7.286
12255SOL    HW136789   2.822   3.479   7.198
12255SOL    HW236790   2.881   3.344   7.270
12256SOL     OW36791   3.721   3.380   7.191
12256SOL    HW136792   3.735   3.407   7.096
12256SOL    HW236793   3.804   3.402   7.244
12257SOL     OW36794   2.212   2.760   7.390
12257SOL    HW136795   2.288   2.804   7.438
12257SOL    HW236796   2.247   2.713   7.308
12258SOL     OW36797   3.402   2.136   5.711
12258SOL    HW136798   3.341   2.061   5.734
12258SOL    HW236799   3.424   2.188   5.794
12259SOL     OW36800   3.165   2.700   5.628
12259SOL    HW136801   3.199   2.607   5.643
12259SOL    HW236802   3.183   2.727   5.533
12260SOL     OW36803   2.930   3.195   6.435
12260SOL    HW136804   2.937   3.111   6.380
12260SOL    HW236805   2.992   3.264   6.399
12261SOL     OW36806   2.181   2.672   6.535
12261SOL    HW136807   2.274   2.708   6.540
12261SOL    HW236808   2.175   2.587   6.587
12262SOL     OW36809   2.201   2.371   6.592
12262SOL    HW136810   2.149   2.288   6.575
12262SOL    HW236811   2.278   2.376   6.528
12263SOL     OW36812   3.000   2.242   7.264
12263SOL    HW136813   2.955   2.305   7.328
12263SOL    HW236814   3.093   2.273   7.247
12264SOL     OW36815   3.022   2.069   7.063
12264SOL    HW136816   3.022   2.133   7.140
12264SOL    HW236817   3.050   2.117   6.980
12265SOL     OW36818   1.870   3.188   5.786
12265SOL    HW136819   1.777   3.209   5.755
12265SOL    HW236820   1.880   3.089   5.799
12266SOL     OW36821   1.950   3.663   6.513
12266SOL    HW136822   1.908   3.577   6.486
12266SOL    HW236823   2.044   3.666   6.479
12267SOL     OW36824   2.366   3.430   6.496
12267SOL    HW136825   2.432   3.504   6.505
12267SOL    HW236826   2.410   3.351   6.454
12268SOL     OW36827   2.864   2.658   6.824
12268SOL    HW136828   2.905   2.626   6.910
12268SOL    HW236829   2.768   2.631   6.821
12269SOL     OW36830   1.902   2.406   6.700
12269SOL    HW136831   1.987   2.373   6.659
12269SOL    HW236832   1.915   2.421   6.798
12270SOL     OW36833   2.051   2.382   7.308
12270SOL    HW136834   2.110   2.342   7.238
12270SOL    HW236835   1.993   2.453   7.267
12271SOL     OW36836   3.231   2.812   7.246
12271SOL    HW136837   3.270   2.901   7.266
12271SOL    HW236838   3.241   2.792   7.149
12272SOL     OW36839   2.677   2.434   5.911
12272SOL    HW136840   2.684   2.345   5.865
12272SOL    HW236841   2.583   2.468   5.903
12273SOL     OW36842   3.519   2.466   6.792
12273SOL    HW136843   3.481   2.397   6.854
12273SOL    HW236844   3.601   2.430   6.748
12274SOL     OW36845   2.114   3.426   7.330
12274SOL    HW136846   2.084   3.483   7.406
12274SOL    HW236847   2.107   3.329   7.356
12275SOL     OW36848   2.533   2.326   6.855
12275SOL    HW136849   2.499   2.237   6.825
12275SOL    HW236850   2.559   2.380   6.775
12276SOL     OW36851   2.792   3.540   7.051
12276SOL    HW136852   2.768   3.522   6.956
12276SOL    HW236853   2.822   3.634   7.061
12277SOL     OW36854   2.335   2.362   5.777
12277SOL    HW136855   2.396   2.442   5.781
12277SOL    HW236856   2.240   2.393   5.784
12278SOL     OW36857   2.021   2.999   7.052
12278SOL    HW136858   2.043   2.938   7.128
12278SOL    HW236859   2.031   2.950   6.966
12279SOL     OW36860   3.209   2.921   6.820
12279SOL    HW136861   3.233   2.858   6.746
12279SOL    HW236862   3.119   2.961   6.802
12280SOL     OW36863   3.164   2.717   5.895
12280SOL    HW136864   3.078   2.686   5.937
12280SOL    HW236865   3.160   2.703   5.796
12281SOL     OW36866   3.621   3.609   6.740
12281SOL    HW136867   3.682   3.639   6.667
12281SOL    HW236868   3.583   3.520   6.718
12282SOL     OW36869   3.114   3.593   6.714
12282SOL    HW136870   3.198   3.598   6.660
12282SOL    HW236871   3.091   3.497   6.732
12283SOL     OW36872   1.945   3.120   6.608
12283SOL    HW136873   1.940   3.119   6.708
12283SOL    HW236874   1.862   3.079   6.570
12284SOL     OW36875   2.550   3.524   7.302
12284SOL    HW136876   2.494   3.605   7.311
12284SOL    HW236877   2.602   3.528   7.216
12285SOL     OW36878   3.588   1.997   6.109
12285SOL    HW136879   3.661   1.980   6.042
12285SOL    HW236880   3.557   1.910   6.147
12286SOL     OW36881   3.250   3.435   6.063
12286SOL    HW136882   3.317   3.447   5.989
12286SOL    HW236883   3.210   3.524   6.086
12287SOL     OW36884   1.992   3.656   7.437
12287SOL    HW136885   1.951   3.582   7.490
12287SOL    HW236886   2.056   3.707   7.495
12288SOL     OW36887   3.142   2.789   6.258
12288SOL    HW136888   3.202   2.708   6.260
12288SOL    HW236889   3.182   2.858   6.198
12289SOL     OW36890   2.692   3.135   7.008
12289SOL    HW136891   2.687   3.168   7.103
12289SOL    HW236892   2.606   3.154   6.962
12290SOL     OW36893   2.534   3.478   5.740
12290SOL    HW136894   2.543   3.488   5.641
12290SOL    HW236895   2.494   3.389   5.761
12291SOL     OW36896   3.512   3.582   6.980
12291SOL    HW136897   3.565   3.592   6.896
12291SOL    HW236898   3.485   3.672   7.014
12292SOL     OW36899   3.703   2.037   6.549
12292SOL    HW136900   3.742   1.952   6.513
12292SOL    HW236901   3.605   2.039   6.530
12293SOL     OW36902   2.125   2.188   6.306
12293SOL    HW136903   2.046   2.239   6.272
12293SOL    HW236904   2.116   2.173   6.404
12294SOL     OW36905   3.056   3.474   5.617
12294SOL    HW136906   3.062   3.381   5.654
12294SOL    HW236907   2.997   3.474   5.537
12295SOL     OW36908   2.684   2.864   6.958
12295SOL    HW136909   2.724   2.863   6.866
12295SOL    HW236910   2.694   2.956   6.998
12296SOL     OW36911   2.778   2.772   5.877
12296SOL    HW136912   2.841   2.810   5.809
12296SOL    HW236913   2.818   2.689   5.916
12297SOL     OW36914   3.366   3.469   5.630
12297SOL    HW136915   3.274   3.506   5.637
12297SOL    HW236916   3.404   3.489   5.540
12298SOL     OW36917   2.234   3.150   7.076
12298SOL    HW136918   2.221   3.243   7.042
12298SOL    HW236919   2.150   3.098   7.063
12299SOL     OW36920   3.476   3.154   6.875
12299SOL    HW136921   3.536   3.157   6.955
12299SOL    HW236922   3.401   3.218   6.888
12300SOL     OW36923   2.901   2.960   6.282
12300SOL    HW136924   2.831   2.913   6.336
12300SOL    HW236925   2.960   2.892   6.239
12301SOL     OW36926   2.876   2.098   6.557
12301SOL    HW136927   2.868   2.062   6.464
12301SOL    HW236928   2.874   2.022   6.622
12302SOL     OW36929   2.452   3.349   6.077
12302SOL    HW136930   2.494   3.291   6.007
12302SOL    HW236931   2.408   3.428   6.033
12303SOL     OW36932   3.571   2.247   6.967
12303SOL    HW136933   3.644   2.316   6.971
12303SOL    HW236934   3.599   2.172   6.908
12304SOL     OW36935   2.117   3.210   5.876
12304SOL    HW136936   2.021   3.211   5.849
12304SOL    HW236937   2.129   3.263   5.960
12305SOL     OW36938   1.967   2.875   7.312
12305SOL    HW136939   1.890   2.842   7.366
12305SOL    HW236940   2.052   2.845   7.354
12306SOL     OW36941   2.534   2.065   7.075
12306SOL    HW136942   2.624   2.049   7.035
12306SOL    HW236943   2.542   2.070   7.174
12307SOL     OW36944   1.937   2.207   5.619
12307SOL    HW136945   1.845   2.179   5.590
12307SOL    HW236946   1.968   2.284   5.563
12308SOL     OW36947   3.302   2.718   6.984
12308SOL    HW136948   3.245   2.770   6.921
12308SOL    HW236949   3.398   2.730   6.960
12309SOL     OW36950   1.934   2.028   5.904
12309SOL    HW136951   1.917   2.111   5.850
12309SOL    HW236952   2.024   1.991   5.882
12310SOL     OW36953   3.045   3.197   5.705
12310SOL    HW136954   2.946   3.186   5.707
12310SOL    HW236955   3.079   3.212   5.798
12311SOL     OW36956   2.475   2.704   7.017
12311SOL    HW136957   2.531   2.785   7.000
12311SOL    HW236958   2.534   2.624   7.020
12312SOL     OW36959   3.355   3.629   6.545
12312SOL    HW136960   3.388   3.693   6.476
12312SOL    HW236961   3.421   3.623   6.620
12313SOL     OW36962   2.578   2.427   7.294
12313SOL    HW136963   2.597   2.492   7.368
12313SOL    HW236964   2.638   2.347   7.303
12314SOL     OW36965   3.312   3.082   7.219
12314SOL    HW136966   3.303   3.072   7.318
12314SOL    HW236967   3.408   3.075   7.193
12315SOL     OW36968   2.252   3.603   7.146
12315SOL    HW136969   2.161   3.644   7.144
12315SOL    HW236970   2.245   3.509   7.178
12316SOL     OW36971   3.536   2.745   6.840
12316SOL    HW136972   3.509   2.656   6.803
12316SOL    HW236973   3.537   2.813   6.767
12317SOL     OW36974   3.087   2.187   6.035
12317SOL    HW136975   3.152   2.113   6.024
12317SOL    HW236976   3.107   2.237   6.119
12318SOL     OW36977   2.456   2.607   6.238
12318SOL    HW136978   2.506   2.692   6.219
12318SOL    HW236979   2.368   2.609   6.190
12319SOL     OW36980   3.639   2.204   7.228
12319SOL    HW136981   3.622   2.235   7.134
12319SOL    HW236982   3.555   2.167   7.266
12320SOL     OW36983   3.592   2.796   7.103
12320SOL    HW136984   3.630   2.887   7.118
12320SOL    HW236985   3.584   2.779   7.004
12321SOL     OW36986   2.721   3.236   5.602
12321SOL    HW136987   2.675   3.251   5.690
12321SOL    HW236988   2.765   3.321   5.572
12322SOL     OW36989   2.523   3.652   6.539
12322SOL    HW136990   2.477   3.740   6.526
12322SOL    HW236991   2.622   3.664   6.532
12323SOL     OW36992   2.721   2.818   6.447
12323SOL    HW136993   2.775   2.749   6.495
12323SOL    HW236994   2.689   2.887   6.513
12324SOL     OW36995   2.945   2.846   5.673
12324SOL    HW136996   2.922   2.899   5.591
12324SOL    HW236997   3.026   2.790   5.654
12325SOL     OW36998   3.723   3.431   6.437
12325SOL    HW136999   3.652   3.419   6.367
12325SOL    HW237000   3.724   3.352   6.497
12326SOL     OW37001   2.083   3.176   7.430
12326SOL    HW137002   2.018   3.103   7.409
12326SOL    HW237003   2.087   3.190   7.528
12327SOL     OW37004   1.941   3.102   6.239
12327SOL    HW137005   1.940   3.055   6.327
12327SOL    HW237006   2.023   3.074   6.188
12328SOL     OW37007   2.534   3.253   7.210
12328SOL    HW137008   2.456   3.203   7.248
12328SOL    HW237009   2.531   3.348   7.241
12329SOL     OW37010   3.686   2.054   6.813
12329SOL    HW137011   3.682   1.964   6.857
12329SOL    HW237012   3.689   2.043   6.714
12330SOL     OW37013   2.290   2.286   6.106
12330SOL    HW137014   2.320   2.214   6.044
12330SOL    HW237015   2.251   2.246   6.189
12331SOL     OW37016   3.567   3.349   6.690
12331SOL    HW137017   3.474   3.324   6.663
12331SOL    HW237018   3.593   3.299   6.772
12332SOL     OW37019   2.179   2.409   6.866
12332SOL    HW137020   2.217   2.350   6.938
12332SOL    HW237021   2.219   2.383   6.778
12333SOL     OW37022   2.674   3.448   6.273
12333SOL    HW137023   2.706   3.458   6.179
12333SOL    HW237024   2.595   3.386   6.275
12334SOL     OW37025   3.286   2.076   6.698
12334SOL    HW137026   3.338   2.011   6.753
12334SOL    HW237027   3.237   2.139   6.759
12335SOL     OW37028   2.863   1.896   6.740
12335SOL    HW137029   2.800   1.824   6.709
12335SOL    HW237030   2.956   1.860   6.740
12336SOL     OW37031   2.632   3.192   5.887
12336SOL    HW137032   2.586   3.105   5.904
12336SOL    HW237033   2.723   3.189   5.928
12337SOL     OW37034   2.480   3.429   6.870
12337SOL    HW137035   2.475   3.511   6.927
12337SOL    HW237036   2.569   3.426   6.825
12338SOL     OW37037   3.214   1.914   5.754
12338SOL    HW137038   3.249   1.873   5.670
12338SOL    HW237039   3.124   1.876   5.774
12339SOL     OW37040   3.162   2.315   6.277
12339SOL    HW137041   3.103   2.395   6.281
12339SOL    HW237042   3.177   2.280   6.370
12340SOL     OW37043   3.455   2.083   6.468
12340SOL    HW137044   3.371   2.082   6.522
12340SOL    HW237045   3.457   2.166   6.412
12341SOL     OW37046   1.901   2.939   5.886
12341SOL    HW137047   2.000   2.928   5.877
12341SOL    HW237048   1.861   2.853   5.918
12342SOL     OW37049   2.737   3.508   5.923
12342SOL    HW137050   2.660   3.473   5.869
12342SOL    HW237051   2.705   3.579   5.985
12343SOL     OW37052   2.092   2.490   7.561
12343SOL    HW137053   1.999   2.488   7.598
12343SOL    HW237054   2.093   2.451   7.469
12344SOL     OW37055   2.087   2.137   8.444
12344SOL    HW137056   2.122   2.120   8.536
12344SOL    HW237057   1.999   2.092   8.432
12345SOL     OW37058   1.881   2.230   8.095
12345SOL    HW137059   1.799   2.273   8.134
12345SOL    HW237060   1.853   2.157   8.032
12346SOL     OW37061   2.431   3.137   8.613
12346SOL    HW137062   2.338   3.130   8.576
12346SOL    HW237063   2.442   3.226   8.657
12347SOL     OW37064   3.417   3.373   8.151
12347SOL    HW137065   3.360   3.357   8.232
12347SOL    HW237066   3.358   3.383   8.071
12348SOL     OW37067   2.997   2.565   8.165
12348SOL    HW137068   3.054   2.643   8.140
12348SOL    HW237069   2.937   2.591   8.241
12349SOL     OW37070   3.617   2.469   7.679
12349SOL    HW137071   3.605   2.456   7.580
12349SOL    HW237072   3.587   2.388   7.728
12350SOL     OW37073   2.630   3.006   8.471
12350SOL    HW137074   2.552   3.023   8.531
12350SOL    HW237075   2.664   3.093   8.435
12351SOL     OW37076   2.712   2.660   9.271
12351SOL    HW137077   2.708   2.736   9.336
12351SOL    HW237078   2.734   2.696   9.180
12352SOL     OW37079   2.547   2.874   8.113
12352SOL    HW137080   2.616   2.858   8.183
12352SOL    HW237081   2.474   2.931   8.151
12353SOL     OW37082   2.548   3.023   9.251
12353SOL    HW137083   2.608   3.102   9.265
12353SOL    HW237084   2.462   3.054   9.210
12354SOL     OW37085   2.197   3.297   8.509
12354SOL    HW137086   2.119   3.266   8.456
12354SOL    HW237087   2.255   3.355   8.452
12355SOL     OW37088   3.322   3.367   8.787
12355SOL    HW137089   3.346   3.461   8.813
12355SOL    HW237090   3.306   3.313   8.869
12356SOL     OW37091   2.300   2.254   8.947
12356SOL    HW137092   2.382   2.198   8.956
12356SOL    HW237093   2.219   2.196   8.951
12357SOL     OW37094   3.465   2.309   8.185
12357SOL    HW137095   3.391   2.355   8.135
12357SOL    HW237096   3.516   2.377   8.238
12358SOL     OW37097   2.093   3.575   7.931
12358SOL    HW137098   2.127   3.652   7.985
12358SOL    HW237099   2.137   3.575   7.841
12359SOL     OW37100   2.989   3.203   9.138
12359SOL    HW137101   3.036   3.203   9.226
12359SOL    HW237102   2.941   3.116   9.127
12360SOL     OW37103   2.092   3.296   7.986
12360SOL    HW137104   2.066   3.392   7.986
12360SOL    HW237105   2.021   3.242   8.031
12361SOL     OW37106   2.102   2.953   8.334
12361SOL    HW137107   2.116   2.869   8.386
12361SOL    HW237108   2.047   3.017   8.389
12362SOL     OW37109   2.482   3.648   8.887
12362SOL    HW137110   2.390   3.631   8.922
12362SOL    HW237111   2.510   3.740   8.913
12363SOL     OW37112   2.468   2.826   7.571
12363SOL    HW137113   2.475   2.910   7.517
12363SOL    HW237114   2.514   2.839   7.659
12364SOL     OW37115   3.456   1.976   8.928
12364SOL    HW137116   3.438   2.043   8.856
12364SOL    HW237117   3.453   2.022   9.017
12365SOL     OW37118   1.984   2.505   8.011
12365SOL    HW137119   1.939   2.417   8.028
12365SOL    HW237120   1.983   2.559   8.095
12366SOL     OW37121   3.704   3.629   7.807
12366SOL    HW137122   3.758   3.600   7.887
12366SOL    HW237123   3.734   3.719   7.778
12367SOL     OW37124   1.889   3.458   7.565
12367SOL    HW137125   1.870   3.362   7.586
12367SOL    HW237126   1.856   3.516   7.640
12368SOL     OW37127   3.551   2.784   8.060
12368SOL    HW137128   3.646   2.755   8.068
12368SOL    HW237129   3.543   2.849   7.985
12369SOL     OW37130   3.503   2.970   7.880
12369SOL    HW137131   3.589   2.972   7.828
12369SOL    HW237132   3.517   3.017   7.968
12370SOL     OW37133   1.975   2.599   9.045
12370SOL    HW137134   2.063   2.586   9.090
12370SOL    HW237135   1.962   2.696   9.023
12371SOL     OW37136   2.475   3.227   8.174
12371SOL    HW137137   2.426   3.140   8.183
12371SOL    HW237138   2.452   3.270   8.087
12372SOL     OW37139   3.155   3.090   8.871
12372SOL    HW137140   3.192   3.017   8.813
12372SOL    HW237141   3.207   3.095   8.956
12373SOL     OW37142   2.671   1.866   7.950
12373SOL    HW137143   2.711   1.957   7.941
12373SOL    HW237144   2.571   1.874   7.956
12374SOL     OW37145   2.059   2.838   8.712
12374SOL    HW137146   2.148   2.793   8.698
12374SOL    HW237147   1.986   2.773   8.693
12375SOL     OW37148   3.387   2.861   7.638
12375SOL    HW137149   3.324   2.785   7.651
12375SOL    HW237150   3.435   2.879   7.724
12376SOL     OW37151   3.049   3.654   9.064
12376SOL    HW137152   3.073   3.714   8.988
12376SOL    HW237153   3.056   3.559   9.034
12377SOL     OW37154   2.179   2.113   9.249
12377SOL    HW137155   2.250   2.184   9.255
12377SOL    HW237156   2.091   2.152   9.277
12378SOL     OW37157   3.328   3.279   8.401
12378SOL    HW137158   3.269   3.285   8.481
12378SOL    HW237159   3.313   3.191   8.355
12379SOL     OW37160   3.529   3.576   8.020
12379SOL    HW137161   3.488   3.553   7.932
12379SOL    HW237162   3.511   3.502   8.085
12380SOL     OW37163   2.460   2.591   7.718
12380SOL    HW137164   2.484   2.660   7.650
12380SOL    HW237165   2.382   2.624   7.772
12381SOL     OW37166   3.143   2.207   8.392
12381SOL    HW137167   3.057   2.157   8.379
12381SOL    HW237168   3.205   2.153   8.448
12382SOL     OW37169   3.438   3.524   7.755
12382SOL    HW137170   3.527   3.570   7.758
12382SOL    HW237171   3.417   3.500   7.660
12383SOL     OW37172   2.669   2.467   8.913
12383SOL    HW137173   2.622   2.464   9.002
12383SOL    HW237174   2.618   2.412   8.847
12384SOL     OW37175   3.256   2.331   9.122
12384SOL    HW137176   3.236   2.374   9.210
12384SOL    HW237177   3.334   2.269   9.131
12385SOL     OW37178   2.835   2.752   9.020
12385SOL    HW137179   2.881   2.668   8.991
12385SOL    HW237180   2.779   2.786   8.945
12386SOL     OW37181   2.853   2.272   8.690
12386SOL    HW137182   2.776   2.306   8.744
12386SOL    HW237183   2.819   2.221   8.611
12387SOL     OW37184   2.903   2.563   7.877
12387SOL    HW137185   2.929   2.559   7.973
12387SOL    HW237186   2.818   2.512   7.863
12388SOL     OW37187   1.938   2.673   8.237
12388SOL    HW137188   2.037   2.661   8.246
12388SOL    HW237189   1.914   2.768   8.258
12389SOL     OW37190   1.992   3.683   9.019
12389SOL    HW137191   1.982   3.668   9.118
12389SOL    HW237192   1.906   3.719   8.983
12390SOL     OW37193   2.727   2.210   7.643
12390SOL    HW137194   2.786   2.273   7.594
12390SOL    HW237195   2.746   2.116   7.614
12391SOL     OW37196   3.581   2.447   9.279
12391SOL    HW137197   3.555   2.536   9.243
12391SOL    HW237198   3.579   2.379   9.206
12392SOL     OW37199   3.224   3.006   7.993
12392SOL    HW137200   3.307   2.977   7.945
12392SOL    HW237201   3.175   3.073   7.937
12393SOL     OW37202   2.412   2.058   8.333
12393SOL    HW137203   2.407   2.053   8.433
12393SOL    HW237204   2.414   2.154   8.304
12394SOL     OW37205   2.870   3.318   7.925
12394SOL    HW137206   2.824   3.390   7.873
12394SOL    HW237207   2.866   3.338   8.023
12395SOL     OW37208   2.213   3.663   8.301
12395SOL    HW137209   2.263   3.577   8.307
12395SOL    HW237210   2.278   3.740   8.298
12396SOL     OW37211   3.657   2.928   8.321
12396SOL    HW137212   3.595   2.913   8.245
12396SOL    HW237213   3.605   2.939   8.406
12397SOL     OW37214   3.089   3.412   8.954
12397SOL    HW137215   3.095   3.335   9.018
12397SOL    HW237216   3.037   3.386   8.874
12398SOL     OW37217   2.183   2.805   7.690
12398SOL    HW137218   2.265   2.844   7.648
12398SOL    HW237219   2.156   2.723   7.641
12399SOL     OW37220   3.320   2.597   8.176
12399SOL    HW137221   3.315   2.532   8.251
12399SOL    HW237222   3.400   2.656   8.189
12400SOL     OW37223   2.323   3.128   9.175
12400SOL    HW137224   2.273   3.129   9.089
12400SOL    HW237225   2.260   3.110   9.251
12401SOL     OW37226   2.973   3.638   7.685
12401SOL    HW137227   2.913   3.576   7.735
12401SOL    HW237228   3.004   3.594   7.600
12402SOL     OW37229   2.064   2.147   8.946
12402SOL    HW137230   1.984   2.207   8.933
12402SOL    HW237231   2.054   2.098   9.032
12403SOL     OW37232   3.494   3.239   7.529
12403SOL    HW137233   3.462   3.333   7.519
12403SOL    HW237234   3.418   3.176   7.517
12404SOL     OW37235   2.326   3.605   7.771
12404SOL    HW137236   2.359   3.644   7.857
12404SOL    HW237237   2.402   3.598   7.706
12405SOL     OW37238   3.262   1.969   7.874
12405SOL    HW137239   3.238   1.932   7.784
12405SOL    HW237240   3.361   1.985   7.878
12406SOL     OW37241   2.111   3.647   8.689
12406SOL    HW137242   2.168   3.582   8.739
12406SOL    HW237243   2.095   3.614   8.596
12407SOL     OW37244   2.802   3.560   8.352
12407SOL    HW137245   2.882   3.503   8.373
12407SOL    HW237246   2.753   3.520   8.275
12408SOL     OW37247   2.244   2.562   7.928
12408SOL    HW137248   2.289   2.472   7.925
12408SOL    HW237249   2.150   2.551   7.961
12409SOL     OW37250   3.409   2.084   9.177
12409SOL    HW137251   3.404   2.121   9.269
12409SOL    HW237252   3.337   2.015   9.165
12410SOL     OW37253   2.476   1.984   7.565
12410SOL    HW137254   2.574   1.962   7.572
12410SOL    HW237255   2.445   1.967   7.472
12411SOL     OW37256   2.643   2.126   9.197
12411SOL    HW137257   2.710   2.065   9.240
12411SOL    HW237258   2.570   2.145   9.262
12412SOL     OW37259   2.750   3.376   8.643
12412SOL    HW137260   2.727   3.351   8.549
12412SOL    HW237261   2.811   3.307   8.682
12413SOL     OW37262   3.213   2.452   8.881
12413SOL    HW137263   3.241   2.409   8.966
12413SOL    HW237264   3.238   2.548   8.882
12414SOL     OW37265   2.665   3.264   8.372
12414SOL    HW137266   2.755   3.278   8.330
12414SOL    HW237267   2.594   3.266   8.301
12415SOL     OW37268   2.784   2.365   8.347
12415SOL    HW137269   2.759   2.356   8.251
12415SOL    HW237270   2.832   2.283   8.378
12416SOL     OW37271   2.401   1.926   7.960
12416SOL    HW137272   2.320   1.927   8.018
12416SOL    HW237273   2.404   2.009   7.905
12417SOL     OW37274   3.296   3.050   7.489
12417SOL    HW137275   3.328   2.974   7.546
12417SOL    HW237276   3.204   3.077   7.519
12418SOL     OW37277   2.159   1.897   7.619
12418SOL    HW137278   2.208   1.981   7.598
12418SOL    HW237279   2.221   1.832   7.664
12419SOL     OW37280   2.797   2.098   7.928
12419SOL    HW137281   2.749   2.139   7.850
12419SOL    HW237282   2.896   2.096   7.909
12420SOL     OW37283   2.938   2.545   8.912
12420SOL    HW137284   2.858   2.484   8.915
12420SOL    HW237285   3.019   2.492   8.888
12421SOL     OW37286   3.089   3.432   8.241
12421SOL    HW137287   3.110   3.506   8.176
12421SOL    HW237288   3.157   3.432   8.314
12422SOL     OW37289   2.321   3.014   8.189
12422SOL    HW137290   2.250   2.987   8.254
12422SOL    HW237291   2.295   2.986   8.096
12423SOL     OW37292   3.133   3.659   8.039
12423SOL    HW137293   3.177   3.723   7.975
12423SOL    HW237294   3.083   3.711   8.109
12424SOL     OW37295   2.894   2.411   7.464
12424SOL    HW137296   2.853   2.493   7.425
12424SOL    HW237297   2.958   2.437   7.537
12425SOL     OW37298   1.940   2.418   8.834
12425SOL    HW137299   2.032   2.417   8.793
12425SOL    HW237300   1.934   2.492   8.901
12426SOL     OW37301   2.423   2.084   8.595
12426SOL    HW137302   2.461   2.000   8.632
12426SOL    HW237303   2.335   2.103   8.639
12427SOL     OW37304   2.728   2.316   8.090
12427SOL    HW137305   2.696   2.388   8.028
12427SOL    HW237306   2.752   2.235   8.037
12428SOL     OW37307   2.879   1.901   8.201
12428SOL    HW137308   2.807   1.906   8.132
12428SOL    HW237309   2.855   1.832   8.270
12429SOL     OW37310   3.291   3.035   8.315
12429SOL    HW137311   3.236   2.951   8.308
12429SOL    HW237312   3.317   3.064   8.223
12430SOL     OW37313   3.328   2.452   8.440
12430SOL    HW137314   3.298   2.357   8.447
12430SOL    HW237315   3.401   2.468   8.506
12431SOL     OW37316   3.719   2.695   7.825
12431SOL    HW137317   3.761   2.631   7.889
12431SOL    HW237318   3.681   2.644   7.747
12432SOL     OW37319   2.350   3.247   7.622
12432SOL    HW137320   2.263   3.232   7.669
12432SOL    HW237321   2.333   3.273   7.527
12433SOL     OW37322   3.526   3.142   8.105
12433SOL    HW137323   3.625   3.150   8.119
12433SOL    HW237324   3.481   3.226   8.136
12434SOL     OW37325   3.252   2.437   7.526
12434SOL    HW137326   3.198   2.416   7.607
12434SOL    HW237327   3.343   2.396   7.535
12435SOL     OW37328   2.389   2.118   7.776
12435SOL    HW137329   2.416   2.059   7.701
12435SOL    HW237330   2.389   2.213   7.745
12436SOL     OW37331   3.616   3.085   9.036
12436SOL    HW137332   3.707   3.046   9.023
12436SOL    HW237333   3.624   3.181   9.060
12437SOL     OW37334   2.926   3.209   8.788
12437SOL    HW137335   2.846   3.186   8.843
12437SOL    HW237336   3.009   3.183   8.837
12438SOL     OW37337   3.454   3.491   9.073
12438SOL    HW137338   3.481   3.525   8.983
12438SOL    HW237339   3.533   3.453   9.119
12439SOL     OW37340   2.973   3.057   8.548
12439SOL    HW137341   2.933   3.101   8.629
12439SOL    HW237342   2.932   3.094   8.465
12440SOL     OW37343   3.500   2.961   8.527
12440SOL    HW137344   3.505   3.042   8.586
12440SOL    HW237345   3.414   2.963   8.476
12441SOL     OW37346   2.777   1.951   8.850
12441SOL    HW137347   2.802   1.931   8.755
12441SOL    HW237348   2.849   2.007   8.892
12442SOL     OW37349   2.842   2.978   9.167
12442SOL    HW137350   2.743   2.984   9.177
12442SOL    HW237351   2.865   2.898   9.111
12443SOL     OW37352   2.567   2.912   7.816
12443SOL    HW137353   2.553   2.919   7.915
12443SOL    HW237354   2.651   2.861   7.798
12444SOL     OW37355   2.272   2.675   8.699
12444SOL    HW137356   2.358   2.687   8.749
12444SOL    HW237357   2.230   2.588   8.726
12445SOL     OW37358   3.136   2.248   8.710
12445SOL    HW137359   3.157   2.322   8.774
12445SOL    HW237360   3.047   2.265   8.667
12446SOL     OW37361   1.926   3.426   8.779
12446SOL    HW137362   1.880   3.508   8.745
12446SOL    HW237363   2.024   3.445   8.788
12447SOL     OW37364   2.229   2.962   7.949
12447SOL    HW137365   2.222   3.045   7.893
12447SOL    HW237366   2.233   2.882   7.889
12448SOL     OW37367   2.428   2.399   8.313
12448SOL    HW137368   2.440   2.465   8.239
12448SOL    HW237369   2.474   2.433   8.396
12449SOL     OW37370   3.114   3.210   7.836
12449SOL    HW137371   3.164   3.287   7.876
12449SOL    HW237372   3.019   3.212   7.868
12450SOL     OW37373   3.134   3.307   8.590
12450SOL    HW137374   3.181   3.320   8.677
12450SOL    HW237375   3.068   3.233   8.599
12451SOL     OW37376   3.444   2.501   7.920
12451SOL    HW137377   3.413   2.562   7.993
12451SOL    HW237378   3.494   2.553   7.851
12452SOL     OW37379   2.216   3.372   8.777
12452SOL    HW137380   2.195   3.328   8.690
12452SOL    HW237381   2.313   3.398   8.780
12453SOL     OW37382   2.264   2.613   9.046
12453SOL    HW137383   2.332   2.668   8.999
12453SOL    HW237384   2.304   2.525   9.073
12454SOL     OW37385   3.449   2.641   9.118
12454SOL    HW137386   3.357   2.679   9.113
12454SOL    HW237387   3.509   2.688   9.053
12455SOL     OW37388   2.875   1.967   9.218
12455SOL    HW137389   2.881   2.052   9.166
12455SOL    HW237390   2.907   1.891   9.161
12456SOL     OW37391   2.366   1.912   9.188
12456SOL    HW137392   2.324   1.855   9.118
12456SOL    HW237393   2.300   1.981   9.220
12457SOL     OW37394   2.435   2.732   8.477
12457SOL    HW137395   2.479   2.821   8.468
12457SOL    HW237396   2.372   2.732   8.554
12458SOL     OW37397   3.222   2.724   8.493
12458SOL    HW137398   3.147   2.724   8.427
12458SOL    HW237399   3.259   2.632   8.502
12459SOL     OW37400   3.071   2.387   7.723
12459SOL    HW137401   3.084   2.303   7.777
12459SOL    HW237402   3.042   2.461   7.783
12460SOL     OW37403   2.169   2.075   8.679
12460SOL    HW137404   2.146   2.112   8.769
12460SOL    HW237405   2.139   1.980   8.673
12461SOL     OW37406   1.899   3.172   8.730
12461SOL    HW137407   1.952   3.123   8.798
12461SOL    HW237408   1.921   3.270   8.735
12462SOL     OW37409   2.594   2.496   8.512
12462SOL    HW137410   2.653   2.470   8.436
12462SOL    HW237411   2.566   2.592   8.501
12463SOL     OW37412   3.590   2.797   9.302
12463SOL    HW137413   3.544   2.790   9.213
12463SOL    HW237414   3.528   2.841   9.368
12464SOL     OW37415   2.169   1.925   8.066
12464SOL    HW137416   2.158   2.019   8.099
12464SOL    HW237417   2.164   1.862   8.143
12465SOL     OW37418   3.484   2.229   7.822
12465SOL    HW137419   3.486   2.153   7.886
12465SOL    HW237420   3.436   2.306   7.862
12466SOL     OW37421   2.885   2.628   8.414
12466SOL    HW137422   2.900   2.649   8.510
12466SOL    HW237423   2.855   2.533   8.405
12467SOL     OW37424   2.842   3.435   9.148
12467SOL    HW137425   2.822   3.479   9.060
12467SOL    HW237426   2.881   3.344   9.132
12468SOL     OW37427   3.721   3.380   9.053
12468SOL    HW137428   3.735   3.407   8.958
12468SOL    HW237429   3.804   3.402   9.106
12469SOL     OW37430   2.212   2.760   9.252
12469SOL    HW137431   2.288   2.804   9.300
12469SOL    HW237432   2.247   2.713   9.170
12470SOL     OW37433   3.402   2.136   7.573
12470SOL    HW137434   3.341   2.061   7.596
12470SOL    HW237435   3.424   2.188   7.656
12471SOL     OW37436   3.165   2.700   7.490
12471SOL    HW137437   3.199   2.607   7.505
12471SOL    HW237438   3.183   2.727   7.395
12472SOL     OW37439   2.930   3.195   8.297
12472SOL    HW137440   2.937   3.111   8.242
12472SOL    HW237441   2.992   3.264   8.261
12473SOL     OW37442   2.181   2.672   8.397
12473SOL    HW137443   2.274   2.708   8.402
12473SOL    HW237444   2.175   2.587   8.449
12474SOL     OW37445   2.201   2.371   8.454
12474SOL    HW137446   2.149   2.288   8.437
12474SOL    HW237447   2.278   2.376   8.390
12475SOL     OW37448   3.000   2.242   9.126
12475SOL    HW137449   2.955   2.305   9.190
12475SOL    HW237450   3.093   2.273   9.109
12476SOL     OW37451   3.022   2.069   8.925
12476SOL    HW137452   3.022   2.133   9.002
12476SOL    HW237453   3.050   2.117   8.842
12477SOL     OW37454   1.870   3.188   7.648
12477SOL    HW137455   1.777   3.209   7.617
12477SOL    HW237456   1.880   3.089   7.661
12478SOL     OW37457   1.950   3.663   8.375
12478SOL    HW137458   1.908   3.577   8.348
12478SOL    HW237459   2.044   3.666   8.341
12479SOL     OW37460   2.366   3.430   8.358
12479SOL    HW137461   2.432   3.504   8.367
12479SOL    HW237462   2.410   3.351   8.316
12480SOL     OW37463   2.864   2.658   8.686
12480SOL    HW137464   2.905   2.626   8.772
12480SOL    HW237465   2.768   2.631   8.683
12481SOL     OW37466   1.902   2.406   8.562
12481SOL    HW137467   1.987   2.373   8.521
12481SOL    HW237468   1.915   2.421   8.660
12482SOL     OW37469   2.051   2.382   9.170
12482SOL    HW137470   2.110   2.342   9.100
12482SOL    HW237471   1.993   2.453   9.129
12483SOL     OW37472   3.231   2.812   9.108
12483SOL    HW137473   3.270   2.901   9.128
12483SOL    HW237474   3.241   2.792   9.011
12484SOL     OW37475   2.677   2.434   7.773
12484SOL    HW137476   2.684   2.345   7.727
12484SOL    HW237477   2.583   2.468   7.765
12485SOL     OW37478   3.519   2.466   8.654
12485SOL    HW137479   3.481   2.397   8.716
12485SOL    HW237480   3.601   2.430   8.610
12486SOL     OW37481   2.114   3.426   9.192
12486SOL    HW137482   2.084   3.483   9.268
12486SOL    HW237483   2.107   3.329   9.218
12487SOL     OW37484   2.533   2.326   8.717
12487SOL    HW137485   2.499   2.237   8.687
12487SOL    HW237486   2.559   2.380   8.637
12488SOL     OW37487   2.792   3.540   8.913
12488SOL    HW137488   2.768   3.522   8.818
12488SOL    HW237489   2.822   3.634   8.923
12489SOL     OW37490   2.335   2.362   7.639
12489SOL    HW137491   2.396   2.442   7.643
12489SOL    HW237492   2.240   2.393   7.646
12490SOL     OW37493   2.021   2.999   8.914
12490SOL    HW137494   2.043   2.938   8.990
12490SOL    HW237495   2.031   2.950   8.828
12491SOL     OW37496   3.209   2.921   8.682
12491SOL    HW137497   3.233   2.858   8.608
12491SOL    HW237498   3.119   2.961   8.664
12492SOL     OW37499   3.164   2.717   7.757
12492SOL    HW137500   3.078   2.686   7.799
12492SOL    HW237501   3.160   2.703   7.658
12493SOL     OW37502   3.621   3.609   8.602
12493SOL    HW137503   3.682   3.639   8.529
12493SOL    HW237504   3.583   3.520   8.580
12494SOL     OW37505   3.114   3.593   8.576
12494SOL    HW137506   3.198   3.598   8.522
12494SOL    HW237507   3.091   3.497   8.594
12495SOL     OW37508   1.945   3.120   8.470
12495SOL    HW137509   1.940   3.119   8.570
12495SOL    HW237510   1.862   3.079   8.432
12496SOL     OW37511   2.550   3.524   9.164
12496SOL    HW137512   2.494   3.605   9.173
12496SOL    HW237513   2.602   3.528   9.078
12497SOL     OW37514   3.588   1.997   7.971
12497SOL    HW137515   3.661   1.980   7.904
12497SOL    HW237516   3.557   1.910   8.009
12498SOL     OW37517   3.250   3.435   7.925
12498SOL    HW137518   3.317   3.447   7.851
12498SOL    HW237519   3.210   3.524   7.948
12499SOL     OW37520   1.992   3.656   9.299
12499SOL    HW137521   1.951   3.582   9.352
12499SOL    HW237522   2.056   3.707   9.357
12500SOL     OW37523   3.142   2.789   8.120
12500SOL    HW137524   3.202   2.708   8.122
12500SOL    HW237525   3.182   2.858   8.060
12501SOL     OW37526   2.692   3.135   8.870
12501SOL    HW137527   2.687   3.168   8.965
12501SOL    HW237528   2.606   3.154   8.824
12502SOL     OW37529   2.534   3.478   7.602
12502SOL    HW137530   2.543   3.488   7.503
12502SOL    HW237531   2.494   3.389   7.623
12503SOL     OW37532   3.512   3.582   8.842
12503SOL    HW137533   3.565   3.592   8.758
12503SOL    HW237534   3.485   3.672   8.876
12504SOL     OW37535   3.703   2.037   8.411
12504SOL    HW137536   3.742   1.952   8.375
12504SOL    HW237537   3.605   2.039   8.392
12505SOL     OW37538   2.125   2.188   8.168
12505SOL    HW137539   2.046   2.239   8.134
12505SOL    HW237540   2.116   2.173   8.266
12506SOL     OW37541   3.056   3.474   7.479
12506SOL    HW137542   3.062   3.381   7.516
12506SOL    HW237543   2.997   3.474   7.399
12507SOL     OW37544   2.684   2.864   8.820
12507SOL    HW137545   2.724   2.863   8.728
12507SOL    HW237546   2.694   2.956   8.860
12508SOL     OW37547   2.778   2.772   7.739
12508SOL    HW137548   2.841   2.810   7.671
12508SOL    HW237549   2.818   2.689   7.778
12509SOL     OW37550   3.366   3.469   7.492
12509SOL    HW137551   3.274   3.506   7.499
12509SOL    HW237552   3.404   3.489   7.402
12510SOL     OW37553   2.234   3.150   8.938
12510SOL    HW137554   2.221   3.243   8.904
12510SOL    HW237555   2.150   3.098   8.925
12511SOL     OW37556   3.476   3.154   8.737
12511SOL    HW137557   3.536   3.157   8.817
12511SOL    HW237558   3.401   3.218   8.750
12512SOL     OW37559   2.901   2.960   8.144
12512SOL    HW137560   2.831   2.913   8.198
12512SOL    HW237561   2.960   2.892   8.101
12513SOL     OW37562   2.876   2.098   8.419
12513SOL    HW137563   2.868   2.062   8.326
12513SOL    HW237564   2.874   2.022   8.484
12514SOL     OW37565   2.452   3.349   7.939
12514SOL    HW137566   2.494   3.291   7.869
12514SOL    HW237567   2.408   3.428   7.895
12515SOL     OW37568   3.571   2.247   8.829
12515SOL    HW137569   3.644   2.316   8.833
12515SOL    HW237570   3.599   2.172   8.770
12516SOL     OW37571   2.117   3.210   7.738
12516SOL    HW137572   2.021   3.211   7.711
12516SOL    HW237573   2.129   3.263   7.822
12517SOL     OW37574   1.967   2.875   9.174
12517SOL    HW137575   1.890   2.842   9.228
12517SOL    HW237576   2.052   2.845   9.216
12518SOL     OW37577   2.534   2.065   8.937
12518SOL    HW137578   2.624   2.049   8.897
12518SOL    HW237579   2.542   2.070   9.036
12519SOL     OW37580   1.937   2.207   7.481
12519SOL    HW137581   1.845   2.179   7.452
12519SOL    HW237582   1.968   2.284   7.425
12520SOL     OW37583   3.302   2.718   8.846
12520SOL    HW137584   3.245   2.770   8.783
12520SOL    HW237585   3.398   2.730   8.822
12521SOL     OW37586   1.934   2.028   7.766
12521SOL    HW137587   1.917   2.111   7.712
12521SOL    HW237588   2.024   1.991   7.744
12522SOL     OW37589   3.045   3.197   7.567
12522SOL    HW137590   2.946   3.186   7.569
12522SOL    HW237591   3.079   3.212   7.660
12523SOL     OW37592   2.475   2.704   8.879
12523SOL    HW137593   2.531   2.785   8.862
12523SOL    HW237594   2.534   2.624   8.882
12524SOL     OW37595   3.355   3.629   8.407
12524SOL    HW137596   3.388   3.693   8.338
12524SOL    HW237597   3.421   3.623   8.482
12525SOL     OW37598   2.578   2.427   9.156
12525SOL    HW137599   2.597   2.492   9.230
12525SOL    HW237600   2.638   2.347   9.165
12526SOL     OW37601   3.312   3.082   9.081
12526SOL    HW137602   3.303   3.072   9.180
12526SOL    HW237603   3.408   3.075   9.055
12527SOL     OW37604   2.252   3.603   9.008
12527SOL    HW137605   2.161   3.644   9.006
12527SOL    HW237606   2.245   3.509   9.040
12528SOL     OW37607   3.536   2.745   8.702
12528SOL    HW137608   3.509   2.656   8.665
12528SOL    HW237609   3.537   2.813   8.629
12529SOL     OW37610   3.087   2.187   7.897
12529SOL    HW137611   3.152   2.113   7.886
12529SOL    HW237612   3.107   2.237   7.981
12530SOL     OW37613   2.456   2.607   8.100
12530SOL    HW137614   2.506   2.692   8.081
12530SOL    HW237615   2.368   2.609   8.052
12531SOL     OW37616   3.639   2.204   9.090
12531SOL    HW137617   3.622   2.235   8.996
12531SOL    HW237618   3.555   2.167   9.128
12532SOL     OW37619   3.592   2.796   8.965
12532SOL    HW137620   3.630   2.887   8.980
12532SOL    HW237621   3.584   2.779   8.866
12533SOL     OW37622   2.721   3.236   7.464
12533SOL    HW137623   2.675   3.251   7.552
12533SOL    HW237624   2.765   3.321   7.434
12534SOL     OW37625   2.523   3.652   8.401
12534SOL    HW137626   2.477   3.740   8.388
12534SOL    HW237627   2.622   3.664   8.394
12535SOL     OW37628   2.721   2.818   8.309
12535SOL    HW137629   2.775   2.749   8.357
12535SOL    HW237630   2.689   2.887   8.375
12536SOL     OW37631   2.945   2.846   7.535
12536SOL    HW137632   2.922   2.899   7.453
12536SOL    HW237633   3.026   2.790   7.516
12537SOL     OW37634   3.723   3.431   8.299
12537SOL    HW137635   3.652   3.419   8.229
12537SOL    HW237636   3.724   3.352   8.359
12538SOL     OW37637   2.083   3.176   9.292
12538SOL    HW137638   2.018   3.103   9.271
12538SOL    HW237639   2.087   3.190   9.390
12539SOL     OW37640   1.941   3.102   8.101
12539SOL    HW137641   1.940   3.055   8.189
12539SOL    HW237642   2.023   3.074   8.050
12540SOL     OW37643   2.534   3.253   9.072
12540SOL    HW137644   2.456   3.203   9.110
12540SOL    HW237645   2.531   3.348   9.103
12541SOL     OW37646   3.686   2.054   8.675
12541SOL    HW137647   3.682   1.964   8.719
12541SOL    HW237648   3.689   2.043   8.576
12542SOL     OW37649   2.290   2.286   7.968
12542SOL    HW137650   2.320   2.214   7.906
12542SOL    HW237651   2.251   2.246   8.051
12543SOL     OW37652   3.567   3.349   8.552
12543SOL    HW137653   3.474   3.324   8.525
12543SOL    HW237654   3.593   3.299   8.634
12544SOL     OW37655   2.179   2.409   8.728
12544SOL    HW137656   2.217   2.350   8.800
12544SOL    HW237657   2.219   2.383   8.640
12545SOL     OW37658   2.674   3.448   8.135
12545SOL    HW137659   2.706   3.458   8.041
12545SOL    HW237660   2.595   3.386   8.137
12546SOL     OW37661   3.286   2.076   8.560
12546SOL    HW137662   3.338   2.011   8.615
12546SOL    HW237663   3.237   2.139   8.621
12547SOL     OW37664   2.863   1.896   8.602
12547SOL    HW137665   2.800   1.824   8.571
12547SOL    HW237666   2.956   1.860   8.602
12548SOL     OW37667   2.632   3.192   7.749
12548SOL    HW137668   2.586   3.105   7.766
12548SOL    HW237669   2.723   3.189   7.790
12549SOL     OW37670   2.480   3.429   8.732
12549SOL    HW137671   2.475   3.511   8.789
12549SOL    HW237672   2.569   3.426   8.687
12550SOL     OW37673   3.214   1.914   7.616
12550SOL    HW137674   3.249   1.873   7.532
12550SOL    HW237675   3.124   1.876   7.636
12551SOL     OW37676   3.162   2.315   8.139
12551SOL    HW137677   3.103   2.395   8.143
12551SOL    HW237678   3.177   2.280   8.232
12552SOL     OW37679   3.455   2.083   8.330
12552SOL    HW137680   3.371   2.082   8.384
12552SOL    HW237681   3.457   2.166   8.274
12553SOL     OW37682   1.901   2.939   7.748
12553SOL    HW137683   2.000   2.928   7.739
12553SOL    HW237684   1.861   2.853   7.780
12554SOL     OW37685   2.737   3.508   7.785
12554SOL    HW137686   2.660   3.473   7.731
12554SOL    HW237687   2.705   3.579   7.847
12555SOL     OW37688   2.092   2.490   9.423
12555SOL    HW137689   1.999   2.488   9.460
12555SOL    HW237690   2.093   2.451   9.331
12556SOL     OW37691   2.087   2.137  10.306
12556SOL    HW137692   2.122   2.120  10.398
12556SOL    HW237693   1.999   2.092  10.294
12557SOL     OW37694   1.881   2.230   9.957
12557SOL    HW137695   1.799   2.273   9.996
12557SOL    HW237696   1.853   2.157   9.894
12558SOL     OW37697   2.431   3.137  10.475
12558SOL    HW137698   2.338   3.130  10.438
12558SOL    HW237699   2.442   3.226  10.519
12559SOL     OW37700   3.417   3.373  10.013
12559SOL    HW137701   3.360   3.357  10.094
12559SOL    HW237702   3.358   3.383   9.933
12560SOL     OW37703   2.997   2.565  10.027
12560SOL    HW137704   3.054   2.643  10.002
12560SOL    HW237705   2.937   2.591  10.103
12561SOL     OW37706   3.617   2.469   9.541
12561SOL    HW137707   3.605   2.456   9.442
12561SOL    HW237708   3.587   2.388   9.590
12562SOL     OW37709   2.630   3.006  10.333
12562SOL    HW137710   2.552   3.023  10.393
12562SOL    HW237711   2.664   3.093  10.297
12563SOL     OW37712   2.712   2.660  11.133
12563SOL    HW137713   2.708   2.736  11.198
12563SOL    HW237714   2.734   2.696  11.042
12564SOL     OW37715   2.547   2.874   9.975
12564SOL    HW137716   2.616   2.858  10.045
12564SOL    HW237717   2.474   2.931  10.013
12565SOL     OW37718   2.548   3.023  11.113
12565SOL    HW137719   2.608   3.102  11.127
12565SOL    HW237720   2.462   3.054  11.072
12566SOL     OW37721   2.197   3.297  10.371
12566SOL    HW137722   2.119   3.266  10.318
12566SOL    HW237723   2.255   3.355  10.314
12567SOL     OW37724   3.322   3.367  10.649
12567SOL    HW137725   3.346   3.461  10.675
12567SOL    HW237726   3.306   3.313  10.731
12568SOL     OW37727   2.300   2.254  10.809
12568SOL    HW137728   2.382   2.198  10.818
12568SOL    HW237729   2.219   2.196  10.813
12569SOL     OW37730   3.465   2.309  10.047
12569SOL    HW137731   3.391   2.355   9.997
12569SOL    HW237732   3.516   2.377  10.100
12570SOL     OW37733   2.093   3.575   9.793
12570SOL    HW137734   2.127   3.652   9.847
12570SOL    HW237735   2.137   3.575   9.703
12571SOL     OW37736   2.989   3.203  11.000
12571SOL    HW137737   3.036   3.203  11.088
12571SOL    HW237738   2.941   3.116  10.989
12572SOL     OW37739   2.092   3.296   9.848
12572SOL    HW137740   2.066   3.392   9.848
12572SOL    HW237741   2.021   3.242   9.893
12573SOL     OW37742   2.102   2.953  10.196
12573SOL    HW137743   2.116   2.869  10.248
12573SOL    HW237744   2.047   3.017  10.251
12574SOL     OW37745   2.482   3.648  10.749
12574SOL    HW137746   2.390   3.631  10.784
12574SOL    HW237747   2.510   3.740  10.775
12575SOL     OW37748   2.468   2.826   9.433
12575SOL    HW137749   2.475   2.910   9.379
12575SOL    HW237750   2.514   2.839   9.521
12576SOL     OW37751   3.456   1.976  10.790
12576SOL    HW137752   3.438   2.043  10.718
12576SOL    HW237753   3.453   2.022  10.879
12577SOL     OW37754   1.984   2.505   9.873
12577SOL    HW137755   1.939   2.417   9.890
12577SOL    HW237756   1.983   2.559   9.957
12578SOL     OW37757   3.704   3.629   9.669
12578SOL    HW137758   3.758   3.600   9.749
12578SOL    HW237759   3.734   3.719   9.640
12579SOL     OW37760   1.889   3.458   9.427
12579SOL    HW137761   1.870   3.362   9.448
12579SOL    HW237762   1.856   3.516   9.502
12580SOL     OW37763   3.551   2.784   9.922
12580SOL    HW137764   3.646   2.755   9.930
12580SOL    HW237765   3.543   2.849   9.847
12581SOL     OW37766   3.503   2.970   9.742
12581SOL    HW137767   3.589   2.972   9.690
12581SOL    HW237768   3.517   3.017   9.830
12582SOL     OW37769   1.975   2.599  10.907
12582SOL    HW137770   2.063   2.586  10.952
12582SOL    HW237771   1.962   2.696  10.885
12583SOL     OW37772   2.475   3.227  10.036
12583SOL    HW137773   2.426   3.140  10.045
12583SOL    HW237774   2.452   3.270   9.949
12584SOL     OW37775   3.155   3.090  10.733
12584SOL    HW137776   3.192   3.017  10.675
12584SOL    HW237777   3.207   3.095  10.818
12585SOL     OW37778   2.671   1.866   9.812
12585SOL    HW137779   2.711   1.957   9.803
12585SOL    HW237780   2.571   1.874   9.818
12586SOL     OW37781   2.059   2.838  10.574
12586SOL    HW137782   2.148   2.793  10.560
12586SOL    HW237783   1.986   2.773  10.555
12587SOL     OW37784   3.387   2.861   9.500
12587SOL    HW137785   3.324   2.785   9.513
12587SOL    HW237786   3.435   2.879   9.586
12588SOL     OW37787   3.049   3.654  10.926
12588SOL    HW137788   3.073   3.714  10.850
12588SOL    HW237789   3.056   3.559  10.896
12589SOL     OW37790   2.179   2.113  11.111
12589SOL    HW137791   2.250   2.184  11.117
12589SOL    HW237792   2.091   2.152  11.139
12590SOL     OW37793   3.328   3.279  10.263
12590SOL    HW137794   3.269   3.285  10.343
12590SOL    HW237795   3.313   3.191  10.217
12591SOL     OW37796   3.529   3.576   9.882
12591SOL    HW137797   3.488   3.553   9.794
12591SOL    HW237798   3.511   3.502   9.947
12592SOL     OW37799   2.460   2.591   9.580
12592SOL    HW137800   2.484   2.660   9.512
12592SOL    HW237801   2.382   2.624   9.634
12593SOL     OW37802   3.143   2.207  10.254
12593SOL    HW137803   3.057   2.157  10.241
12593SOL    HW237804   3.205   2.153  10.310
12594SOL     OW37805   3.438   3.524   9.617
12594SOL    HW137806   3.527   3.570   9.620
12594SOL    HW237807   3.417   3.500   9.522
12595SOL     OW37808   2.669   2.467  10.775
12595SOL    HW137809   2.622   2.464  10.864
12595SOL    HW237810   2.618   2.412  10.709
12596SOL     OW37811   3.256   2.331  10.984
12596SOL    HW137812   3.236   2.374  11.072
12596SOL    HW237813   3.334   2.269  10.993
12597SOL     OW37814   2.835   2.752  10.882
12597SOL    HW137815   2.881   2.668  10.853
12597SOL    HW237816   2.779   2.786  10.807
12598SOL     OW37817   2.853   2.272  10.552
12598SOL    HW137818   2.776   2.306  10.606
12598SOL    HW237819   2.819   2.221  10.473
12599SOL     OW37820   2.903   2.563   9.739
12599SOL    HW137821   2.929   2.559   9.835
12599SOL    HW237822   2.818   2.512   9.725
12600SOL     OW37823   1.938   2.673  10.099
12600SOL    HW137824   2.037   2.661  10.108
12600SOL    HW237825   1.914   2.768  10.120
12601SOL     OW37826   1.992   3.683  10.881
12601SOL    HW137827   1.982   3.668  10.980
12601SOL    HW237828   1.906   3.719  10.845
12602SOL     OW37829   2.727   2.210   9.505
12602SOL    HW137830   2.786   2.273   9.456
12602SOL    HW237831   2.746   2.116   9.476
12603SOL     OW37832   3.581   2.447  11.141
12603SOL    HW137833   3.555   2.536  11.105
12603SOL    HW237834   3.579   2.379  11.068
12604SOL     OW37835   3.224   3.006   9.855
12604SOL    HW137836   3.307   2.977   9.807
12604SOL    HW237837   3.175   3.073   9.799
12605SOL     OW37838   2.412   2.058  10.195
12605SOL    HW137839   2.407   2.053  10.295
12605SOL    HW237840   2.414   2.154  10.166
12606SOL     OW37841   2.870   3.318   9.787
12606SOL    HW137842   2.824   3.390   9.735
12606SOL    HW237843   2.866   3.338   9.885
12607SOL     OW37844   2.213   3.663  10.163
12607SOL    HW137845   2.263   3.577  10.169
12607SOL    HW237846   2.278   3.740  10.160
12608SOL     OW37847   3.657   2.928  10.183
12608SOL    HW137848   3.595   2.913  10.107
12608SOL    HW237849   3.605   2.939  10.268
12609SOL     OW37850   3.089   3.412  10.816
12609SOL    HW137851   3.095   3.335  10.880
12609SOL    HW237852   3.037   3.386  10.736
12610SOL     OW37853   2.183   2.805   9.552
12610SOL    HW137854   2.265   2.844   9.510
12610SOL    HW237855   2.156   2.723   9.503
12611SOL     OW37856   3.320   2.597  10.038
12611SOL    HW137857   3.315   2.532  10.113
12611SOL    HW237858   3.400   2.656  10.051
12612SOL     OW37859   2.323   3.128  11.037
12612SOL    HW137860   2.273   3.129  10.951
12612SOL    HW237861   2.260   3.110  11.113
12613SOL     OW37862   2.973   3.638   9.547
12613SOL    HW137863   2.913   3.576   9.597
12613SOL    HW237864   3.004   3.594   9.462
12614SOL     OW37865   2.064   2.147  10.808
12614SOL    HW137866   1.984   2.207  10.795
12614SOL    HW237867   2.054   2.098  10.894
12615SOL     OW37868   3.494   3.239   9.391
12615SOL    HW137869   3.462   3.333   9.381
12615SOL    HW237870   3.418   3.176   9.379
12616SOL     OW37871   2.326   3.605   9.633
12616SOL    HW137872   2.359   3.644   9.719
12616SOL    HW237873   2.402   3.598   9.568
12617SOL     OW37874   3.262   1.969   9.736
12617SOL    HW137875   3.238   1.932   9.646
12617SOL    HW237876   3.361   1.985   9.740
12618SOL     OW37877   2.111   3.647  10.551
12618SOL    HW137878   2.168   3.582  10.601
12618SOL    HW237879   2.095   3.614  10.458
12619SOL     OW37880   2.802   3.560  10.214
12619SOL    HW137881   2.882   3.503  10.235
12619SOL    HW237882   2.753   3.520  10.137
12620SOL     OW37883   2.244   2.562   9.790
12620SOL    HW137884   2.289   2.472   9.787
12620SOL    HW237885   2.150   2.551   9.823
12621SOL     OW37886   3.409   2.084  11.039
12621SOL    HW137887   3.404   2.121  11.131
12621SOL    HW237888   3.337   2.015  11.027
12622SOL     OW37889   2.476   1.984   9.427
12622SOL    HW137890   2.574   1.962   9.434
12622SOL    HW237891   2.445   1.967   9.334
12623SOL     OW37892   2.643   2.126  11.059
12623SOL    HW137893   2.710   2.065  11.102
12623SOL    HW237894   2.570   2.145  11.124
12624SOL     OW37895   2.750   3.376  10.505
12624SOL    HW137896   2.727   3.351  10.411
12624SOL    HW237897   2.811   3.307  10.544
12625SOL     OW37898   3.213   2.452  10.743
12625SOL    HW137899   3.241   2.409  10.828
12625SOL    HW237900   3.238   2.548  10.744
12626SOL     OW37901   2.665   3.264  10.234
12626SOL    HW137902   2.755   3.278  10.192
12626SOL    HW237903   2.594   3.266  10.163
12627SOL     OW37904   2.784   2.365  10.209
12627SOL    HW137905   2.759   2.356  10.113
12627SOL    HW237906   2.832   2.283  10.240
12628SOL     OW37907   2.401   1.926   9.822
12628SOL    HW137908   2.320   1.927   9.880
12628SOL    HW237909   2.404   2.009   9.767
12629SOL     OW37910   3.296   3.050   9.351
12629SOL    HW137911   3.328   2.974   9.408
12629SOL    HW237912   3.204   3.077   9.381
12630SOL     OW37913   2.159   1.897   9.481
12630SOL    HW137914   2.208   1.981   9.460
12630SOL    HW237915   2.221   1.832   9.526
12631SOL     OW37916   2.797   2.098   9.790
12631SOL    HW137917   2.749   2.139   9.712
12631SOL    HW237918   2.896   2.096   9.771
12632SOL     OW37919   2.938   2.545  10.774
12632SOL    HW137920   2.858   2.484  10.777
12632SOL    HW237921   3.019   2.492  10.750
12633SOL     OW37922   3.089   3.432  10.103
12633SOL    HW137923   3.110   3.506  10.038
12633SOL    HW237924   3.157   3.432  10.176
12634SOL     OW37925   2.321   3.014  10.051
12634SOL    HW137926   2.250   2.987  10.116
12634SOL    HW237927   2.295   2.986   9.958
12635SOL     OW37928   3.133   3.659   9.901
12635SOL    HW137929   3.177   3.723   9.837
12635SOL    HW237930   3.083   3.711   9.971
12636SOL     OW37931   2.894   2.411   9.326
12636SOL    HW137932   2.853   2.493   9.287
12636SOL    HW237933   2.958   2.437   9.399
12637SOL     OW37934   1.940   2.418  10.696
12637SOL    HW137935   2.032   2.417  10.655
12637SOL    HW237936   1.934   2.492  10.763
12638SOL     OW37937   2.423   2.084  10.457
12638SOL    HW137938   2.461   2.000  10.494
12638SOL    HW237939   2.335   2.103  10.501
12639SOL     OW37940   2.728   2.316   9.952
12639SOL    HW137941   2.696   2.388   9.890
12639SOL    HW237942   2.752   2.235   9.899
12640SOL     OW37943   2.879   1.901  10.063
12640SOL    HW137944   2.807   1.906   9.994
12640SOL    HW237945   2.855   1.832  10.132
12641SOL     OW37946   3.291   3.035  10.177
12641SOL    HW137947   3.236   2.951  10.170
12641SOL    HW237948   3.317   3.064  10.085
12642SOL     OW37949   3.328   2.452  10.302
12642SOL    HW137950   3.298   2.357  10.309
12642SOL    HW237951   3.401   2.468  10.368
12643SOL     OW37952   3.719   2.695   9.687
12643SOL    HW137953   3.761   2.631   9.751
12643SOL    HW237954   3.681   2.644   9.609
12644SOL     OW37955   2.350   3.247   9.484
12644SOL    HW137956   2.263   3.232   9.531
12644SOL    HW237957   2.333   3.273   9.389
12645SOL     OW37958   3.526   3.142   9.967
12645SOL    HW137959   3.625   3.150   9.981
12645SOL    HW237960   3.481   3.226   9.998
12646SOL     OW37961   3.252   2.437   9.388
12646SOL    HW137962   3.198   2.416   9.469
12646SOL    HW237963   3.343   2.396   9.397
12647SOL     OW37964   2.389   2.118   9.638
12647SOL    HW137965   2.416   2.059   9.563
12647SOL    HW237966   2.389   2.213   9.607
12648SOL     OW37967   3.616   3.085  10.898
12648SOL    HW137968   3.707   3.046  10.885
12648SOL    HW237969   3.624   3.181  10.922
12649SOL     OW37970   2.926   3.209  10.650
12649SOL    HW137971   2.846   3.186  10.705
12649SOL    HW237972   3.009   3.183  10.699
12650SOL     OW37973   3.454   3.491  10.935
12650SOL    HW137974   3.481   3.525  10.845
12650SOL    HW237975   3.533   3.453  10.981
12651SOL     OW37976   2.973   3.057  10.410
12651SOL    HW137977   2.933   3.101  10.491
12651SOL    HW237978   2.932   3.094  10.327
12652SOL     OW37979   3.500   2.961  10.389
12652SOL    HW137980   3.505   3.042  10.448
12652SOL    HW237981   3.414   2.963  10.338
12653SOL     OW37982   2.777   1.951  10.712
12653SOL    HW137983   2.802   1.931  10.617
12653SOL    HW237984   2.849   2.007  10.754
12654SOL     OW37985   2.842   2.978  11.029
12654SOL    HW137986   2.743   2.984  11.039
12654SOL    HW237987   2.865   2.898  10.973
12655SOL     OW37988   2.567   2.912   9.678
12655SOL    HW137989   2.553   2.919   9.777
12655SOL    HW237990   2.651   2.861   9.660
12656SOL     OW37991   2.272   2.675  10.561
12656SOL    HW137992   2.358   2.687  10.611
12656SOL    HW237993   2.230   2.588  10.588
12657SOL     OW37994   3.136   2.248  10.572
12657SOL    HW137995   3.157   2.322  10.636
12657SOL    HW237996   3.047   2.265  10.529
12658SOL     OW37997   1.926   3.426  10.641
12658SOL    HW137998   1.880   3.508  10.607
12658SOL    HW237999   2.024   3.445  10.650
12659SOL     OW38000   2.229   2.962   9.811
12659SOL    HW138001   2.222   3.045   9.755
12659SOL    HW238002   2.233   2.882   9.751
12660SOL     OW38003   2.428   2.399  10.175
12660SOL    HW138004   2.440   2.465  10.101
12660SOL    HW238005   2.474   2.433  10.258
12661SOL     OW38006   3.114   3.210   9.698
12661SOL    HW138007   3.164   3.287   9.738
12661SOL    HW238008   3.019   3.212   9.730
12662SOL     OW38009   3.134   3.307  10.452
12662SOL    HW138010   3.181   3.320  10.539
12662SOL    HW238011   3.068   3.233  10.461
12663SOL     OW38012   3.444   2.501   9.782
12663SOL    HW138013   3.413   2.562   9.855
12663SOL    HW238014   3.494   2.553   9.713
12664SOL     OW38015   2.216   3.372  10.639
12664SOL    HW138016   2.195   3.328  10.552
12664SOL    HW238017   2.313   3.398  10.642
12665SOL     OW38018   2.264   2.613  10.908
12665SOL    HW138019   2.332   2.668  10.861
12665SOL    HW238020   2.304   2.525  10.935
12666SOL     OW38021   3.449   2.641  10.980
12666SOL    HW138022   3.357   2.679  10.975
12666SOL    HW238023   3.509   2.688  10.915
12667SOL     OW38024   2.875   1.967  11.080
12667SOL    HW138025   2.881   2.052  11.028
12667SOL    HW238026   2.907   1.891  11.023
12668SOL     OW38027   2.366   1.912  11.050
12668SOL    HW138028   2.324   1.855  10.980
12668SOL    HW238029   2.300   1.981  11.082
12669SOL     OW38030   2.435   2.732  10.339
12669SOL    HW138031   2.479   2.821  10.330
12669SOL    HW238032   2.372   2.732  10.416
12670SOL     OW38033   3.222   2.724  10.355
12670SOL    HW138034   3.147   2.724  10.289
12670SOL    HW238035   3.259   2.632  10.364
12671SOL     OW38036   3.071   2.387   9.585
12671SOL    HW138037   3.084   2.303   9.639
12671SOL    HW238038   3.042   2.461   9.645
12672SOL     OW38039   2.169   2.075  10.541
12672SOL    HW138040   2.146   2.112  10.631
12672SOL    HW238041   2.139   1.980  10.535
12673SOL     OW38042   1.899   3.172  10.592
12673SOL    HW138043   1.952   3.123  10.660
12673SOL    HW238044   1.921   3.270  10.597
12674SOL     OW38045   2.594   2.496  10.374
12674SOL    HW138046   2.653   2.470  10.298
12674SOL    HW238047   2.566   2.592  10.363
12675SOL     OW38048   3.590   2.797  11.164
12675SOL    HW138049   3.544   2.790  11.075
12675SOL    HW238050   3.528   2.841  11.230
12676SOL     OW38051   2.169   1.925   9.928
12676SOL    HW138052   2.158   2.019   9.961
12676SOL    HW238053   2.164   1.862  10.005
12677SOL     OW38054   3.484   2.229   9.684
12677SOL    HW138055   3.486   2.153   9.748
12677SOL    HW238056   3.436   2.306   9.724
12678SOL     OW38057   2.885   2.628  10.276
12678SOL    HW138058   2.900   2.649  10.372
12678SOL    HW238059   2.855   2.533  10.267
12679SOL     OW38060   2.842   3.435  11.010
12679SOL    HW138061   2.822   3.479  10.922
12679SOL    HW238062   2.881   3.344  10.994
12680SOL     OW38063   3.721   3.380  10.915
12680SOL    HW138064   3.735   3.407  10.820
12680SOL    HW238065   3.804   3.402  10.968
12681SOL     OW38066   2.212   2.760  11.114
12681SOL    HW138067   2.288   2.804  11.162
12681SOL    HW238068   2.247   2.713  11.032
12682SOL     OW38069   3.402   2.136   9.435
12682SOL    HW138070   3.341   2.061   9.458
12682SOL    HW238071   3.424   2.188   9.518
12683SOL     OW38072   3.165   2.700   9.352
12683SOL    HW138073   3.199   2.607   9.367
12683SOL    HW238074   3.183   2.727   9.257
12684SOL     OW38075   2.930   3.195  10.159
12684SOL    HW138076   2.937   3.111  10.104
12684SOL    HW238077   2.992   3.264  10.123
12685SOL     OW38078   2.181   2.672  10.259
12685SOL    HW138079   2.274   2.708  10.264
12685SOL    HW238080   2.175   2.587  10.311
12686SOL     OW38081   2.201   2.371  10.316
12686SOL    HW138082   2.149   2.288  10.299
12686SOL    HW238083   2.278   2.376  10.252
12687SOL     OW38084   3.000   2.242  10.988
12687SOL    HW138085   2.955   2.305  11.052
12687SOL    HW238086   3.093   2.273  10.971
12688SOL     OW38087   3.022   2.069  10.787
12688SOL    HW138088   3.022   2.133  10.864
12688SOL    HW238089   3.050   2.117  10.704
12689SOL     OW38090   1.870   3.188   9.510
12689SOL    HW138091   1.777   3.209   9.479
12689SOL    HW238092   1.880   3.089   9.523
12690SOL     OW38093   1.950   3.663  10.237
12690SOL    HW138094   1.908   3.577  10.210
12690SOL    HW238095   2.044   3.666  10.203
12691SOL     OW38096   2.366   3.430  10.220
12691SOL    HW138097   2.432   3.504  10.229
12691SOL    HW238098   2.410   3.351  10.178
12692SOL     OW38099   2.864   2.658  10.548
12692SOL    HW138100   2.905   2.626  10.634
12692SOL    HW238101   2.768   2.631  10.545
12693SOL     OW38102   1.902   2.406  10.424
12693SOL    HW138103   1.987   2.373  10.383
12693SOL    HW238104   1.915   2.421  10.522
12694SOL     OW38105   2.051   2.382  11.032
12694SOL    HW138106   2.110   2.342  10.962
12694SOL    HW238107   1.993   2.453  10.991
12695SOL     OW38108   3.231   2.812  10.970
12695SOL    HW138109   3.270   2.901  10.990
12695SOL    HW238110   3.241   2.792  10.873
12696SOL     OW38111   2.677   2.434   9.635
12696SOL    HW138112   2.684   2.345   9.589
12696SOL    HW238113   2.583   2.468   9.627
12697SOL     OW38114   3.519   2.466  10.516
12697SOL    HW138115   3.481   2.397  10.578
12697SOL    HW238116   3.601   2.430  10.472
12698SOL     OW38117   2.114   3.426  11.054
12698SOL    HW138118   2.084   3.483  11.130
12698SOL    HW238119   2.107   3.329  11.080
12699SOL     OW38120   2.533   2.326  10.579
12699SOL    HW138121   2.499   2.237  10.549
12699SOL    HW238122   2.559   2.380  10.499
12700SOL     OW38123   2.792   3.540  10.775
12700SOL    HW138124   2.768   3.522  10.680
12700SOL    HW238125   2.822   3.634  10.785
12701SOL     OW38126   2.335   2.362   9.501
12701SOL    HW138127   2.396   2.442   9.505
12701SOL    HW238128   2.240   2.393   9.508
12702SOL     OW38129   2.021   2.999  10.776
12702SOL    HW138130   2.043   2.938  10.852
12702SOL    HW238131   2.031   2.950  10.690
12703SOL     OW38132   3.209   2.921  10.544
12703SOL    HW138133   3.233   2.858  10.470
12703SOL    HW238134   3.119   2.961  10.526
12704SOL     OW38135   3.164   2.717   9.619
12704SOL    HW138136   3.078   2.686   9.661
12704SOL    HW238137   3.160   2.703   9.520
12705SOL     OW38138   3.621   3.609  10.464
12705SOL    HW138139   3.682   3.639  10.391
12705SOL    HW238140   3.583   3.520  10.442
12706SOL     OW38141   3.114   3.593  10.438
12706SOL    HW138142   3.198   3.598  10.384
12706SOL    HW238143   3.091   3.497  10.456
12707SOL     OW38144   1.945   3.120  10.332
12707SOL    HW138145   1.940   3.119  10.432
12707SOL    HW238146   1.862   3.079  10.294
12708SOL     OW38147   2.550   3.524  11.026
12708SOL    HW138148   2.494   3.605  11.035
12708SOL    HW238149   2.602   3.528  10.940
12709SOL     OW38150   3.588   1.997   9.833
12709SOL    HW138151   3.661   1.980   9.766
12709SOL    HW238152   3.557   1.910   9.871
12710SOL     OW38153   3.250   3.435   9.787
12710SOL    HW138154   3.317   3.447   9.713
12710SOL    HW238155   3.210   3.524   9.810
12711SOL     OW38156   1.992   3.656  11.161
12711SOL    HW138157   1.951   3.582  11.214
12711SOL    HW238158   2.056   3.707  11.219
12712SOL     OW38159   3.142   2.789   9.982
12712SOL    HW138160   3.202   2.708   9.984
12712SOL    HW238161   3.182   2.858   9.922
12713SOL     OW38162   2.692   3.135  10.732
12713SOL    HW138163   2.687   3.168  10.827
12713SOL    HW238164   2.606   3.154  10.686
12714SOL     OW38165   2.534   3.478   9.464
12714SOL    HW138166   2.543   3.488   9.365
12714SOL    HW238167   2.494   3.389   9.485
12715SOL     OW38168   3.512   3.582  10.704
12715SOL    HW138169   3.565   3.592  10.620
12715SOL    HW238170   3.485   3.672  10.738
12716SOL     OW38171   3.703   2.037  10.273
12716SOL    HW138172   3.742   1.952  10.237
12716SOL    HW238173   3.605   2.039  10.254
12717SOL     OW38174   2.125   2.188  10.030
12717SOL    HW138175   2.046   2.239   9.996
12717SOL    HW238176   2.116   2.173  10.128
12718SOL     OW38177   3.056   3.474   9.341
12718SOL    HW138178   3.062   3.381   9.378
12718SOL    HW238179   2.997   3.474   9.261
12719SOL     OW38180   2.684   2.864  10.682
12719SOL    HW138181   2.724   2.863  10.590
12719SOL    HW238182   2.694   2.956  10.722
12720SOL     OW38183   2.778   2.772   9.601
12720SOL    HW138184   2.841   2.810   9.533
12720SOL    HW238185   2.818   2.689   9.640
12721SOL     OW38186   3.366   3.469   9.354
12721SOL    HW138187   3.274   3.506   9.361
12721SOL    HW238188   3.404   3.489   9.264
12722SOL     OW38189   2.234   3.150  10.800
12722SOL    HW138190   2.221   3.243  10.766
12722SOL    HW238191   2.150   3.098  10.787
12723SOL     OW38192   3.476   3.154  10.599
12723SOL    HW138193   3.536   3.157  10.679
12723SOL    HW238194   3.401   3.218  10.612
12724SOL     OW38195   2.901   2.960  10.006
12724SOL    HW138196   2.831   2.913  10.060
12724SOL    HW238197   2.960   2.892   9.963
12725SOL     OW38198   2.876   2.098  10.281
12725SOL    HW138199   2.868   2.062  10.188
12725SOL    HW238200   2.874   2.022  10.346
12726SOL     OW38201   2.452   3.349   9.801
12726SOL    HW138202   2.494   3.291   9.731
12726SOL    HW238203   2.408   3.428   9.757
12727SOL     OW38204   3.571   2.247  10.691
12727SOL    HW138205   3.644   2.316  10.695
12727SOL    HW238206   3.599   2.172  10.632
12728SOL     OW38207   2.117   3.210   9.600
12728SOL    HW138208   2.021   3.211   9.573
12728SOL    HW238209   2.129   3.263   9.684
12729SOL     OW38210   1.967   2.875  11.036
12729SOL    HW138211   1.890   2.842  11.090
12729SOL    HW238212   2.052   2.845  11.078
12730SOL     OW38213   2.534   2.065  10.799
12730SOL    HW138214   2.624   2.049  10.759
12730SOL    HW238215   2.542   2.070  10.898
12731SOL     OW38216   1.937   2.207   9.343
12731SOL    HW138217   1.845   2.179   9.314
12731SOL    HW238218   1.968   2.284   9.287
12732SOL     OW38219   3.302   2.718  10.708
12732SOL    HW138220   3.245   2.770  10.645
12732SOL    HW238221   3.398   2.730  10.684
12733SOL     OW38222   1.934   2.028   9.628
12733SOL    HW138223   1.917   2.111   9.574
12733SOL    HW238224   2.024   1.991   9.606
12734SOL     OW38225   3.045   3.197   9.429
12734SOL    HW138226   2.946   3.186   9.431
12734SOL    HW238227   3.079   3.212   9.522
12735SOL     OW38228   2.475   2.704  10.741
12735SOL    HW138229   2.531   2.785  10.724
12735SOL    HW238230   2.534   2.624  10.744
12736SOL     OW38231   3.355   3.629  10.269
12736SOL    HW138232   3.388   3.693  10.200
12736SOL    HW238233   3.421   3.623  10.344
12737SOL     OW38234   2.578   2.427  11.018
12737SOL    HW138235   2.597   2.492  11.092
12737SOL    HW238236   2.638   2.347  11.027
12738SOL     OW38237   3.312   3.082  10.943
12738SOL    HW138238   3.303   3.072  11.042
12738SOL    HW238239   3.408   3.075  10.917
12739SOL     OW38240   2.252   3.603  10.870
12739SOL    HW138241   2.161   3.644  10.868
12739SOL    HW238242   2.245   3.509  10.902
12740SOL     OW38243   3.536   2.745  10.564
12740SOL    HW138244   3.509   2.656  10.527
12740SOL    HW238245   3.537   2.813  10.491
12741SOL     OW38246   3.087   2.187   9.759
12741SOL    HW138247   3.152   2.113   9.748
12741SOL    HW238248   3.107   2.237   9.843
12742SOL     OW38249   2.456   2.607   9.962
12742SOL    HW138250   2.506   2.692   9.943
12742SOL    HW238251   2.368   2.609   9.914
12743SOL     OW38252   3.639   2.204  10.952
12743SOL    HW138253   3.622   2.235  10.858
12743SOL    HW238254   3.555   2.167  10.990
12744SOL     OW38255   3.592   2.796  10.827
12744SOL    HW138256   3.630   2.887  10.842
12744SOL    HW238257   3.584   2.779  10.728
12745SOL     OW38258   2.721   3.236   9.326
12745SOL    HW138259   2.675   3.251   9.414
12745SOL    HW238260   2.765   3.321   9.296
12746SOL     OW38261   2.523   3.652  10.263
12746SOL    HW138262   2.477   3.740  10.250
12746SOL    HW238263   2.622   3.664  10.256
12747SOL     OW38264   2.721   2.818  10.171
12747SOL    HW138265   2.775   2.749  10.219
12747SOL    HW238266   2.689   2.887  10.237
12748SOL     OW38267   2.945   2.846   9.397
12748SOL    HW138268   2.922   2.899   9.315
12748SOL    HW238269   3.026   2.790   9.378
12749SOL     OW38270   3.723   3.431  10.161
12749SOL    HW138271   3.652   3.419  10.091
12749SOL    HW238272   3.724   3.352  10.221
12750SOL     OW38273   2.083   3.176  11.154
12750SOL    HW138274   2.018   3.103  11.133
12750SOL    HW238275   2.087   3.190  11.252
12751SOL     OW38276   1.941   3.102   9.963
12751SOL    HW138277   1.940   3.055  10.051
12751SOL    HW238278   2.023   3.074   9.912
12752SOL     OW38279   2.534   3.253  10.934
12752SOL    HW138280   2.456   3.203  10.972
12752SOL    HW238281   2.531   3.348  10.965
12753SOL     OW38282   3.686   2.054  10.537
12753SOL    HW138283   3.682   1.964  10.581
12753SOL    HW238284   3.689   2.043  10.438
12754SOL     OW38285   2.290   2.286   9.830
12754SOL    HW138286   2.320   2.214   9.768
12754SOL    HW238287   2.251   2.246   9.913
12755SOL     OW38288   3.567   3.349  10.414
12755SOL    HW138289   3.474   3.324  10.387
12755SOL    HW238290   3.593   3.299  10.496
12756SOL     OW38291   2.179   2.409  10.590
12756SOL    HW138292   2.217   2.350  10.662
12756SOL    HW238293   2.219   2.383  10.502
12757SOL     OW38294   2.674   3.448   9.997
12757SOL    HW138295   2.706   3.458   9.903
12757SOL    HW238296   2.595   3.386   9.999
12758SOL     OW38297   3.286   2.076  10.422
12758SOL    HW138298   3.338   2.011  10.477
12758SOL    HW238299   3.237   2.139  10.483
12759SOL     OW38300   2.863   1.896  10.464
12759SOL    HW138301   2.800   1.824  10.433
12759SOL    HW238302   2.956   1.860  10.464
12760SOL     OW38303   2.632   3.192   9.611
12760SOL    HW138304   2.586   3.105   9.628
12760SOL    HW238305   2.723   3.189   9.652
12761SOL     OW38306   2.480   3.429  10.594
12761SOL    HW138307   2.475   3.511  10.651
12761SOL    HW238308   2.569   3.426  10.549
12762SOL     OW38309   3.214   1.914   9.478
12762SOL    HW138310   3.249   1.873   9.394
12762SOL    HW238311   3.124   1.876   9.498
12763SOL     OW38312   3.162   2.315  10.001
12763SOL    HW138313   3.103   2.395  10.005
12763SOL    HW238314   3.177   2.280  10.094
12764SOL     OW38315   3.455   2.083  10.192
12764SOL    HW138316   3.371   2.082  10.246
12764SOL    HW238317   3.457   2.166  10.136
12765SOL     OW38318   1.901   2.939   9.610
12765SOL    HW138319   2.000   2.928   9.601
12765SOL    HW238320   1.861   2.853   9.642
12766SOL     OW38321   2.737   3.508   9.647
12766SOL    HW138322   2.660   3.473   9.593
12766SOL    HW238323   2.705   3.579   9.709
12767SOL     OW38324   2.092   2.490  11.285
12767SOL    HW138325   1.999   2.488  11.322
12767SOL    HW238326   2.093   2.451  11.193
12768SOL     OW38327   2.087   2.137  12.168
12768SOL    HW138328   2.122   2.120  12.260
12768SOL    HW238329   1.999   2.092  12.156
12769SOL     OW38330   1.881   2.230  11.819
12769SOL    HW138331   1.799   2.273  11.858
12769SOL    HW238332   1.853   2.157  11.756
12770SOL     OW38333   2.431   3.137  12.337
12770SOL    HW138334   2.338   3.130  12.300
12770SOL    HW238335   2.442   3.226  12.381
12771SOL     OW38336   3.417   3.373  11.875
12771SOL    HW138337   3.360   3.357  11.956
12771SOL    HW238338   3.358   3.383  11.795
12772SOL     OW38339   2.997   2.565  11.889
12772SOL    HW138340   3.054   2.643  11.864
12772SOL    HW238341   2.937   2.591  11.965
12773SOL     OW38342   3.617   2.469  11.403
12773SOL    HW138343   3.605   2.456  11.304
12773SOL    HW238344   3.587   2.388  11.452
12774SOL     OW38345   2.630   3.006  12.195
12774SOL    HW138346   2.552   3.023  12.255
12774SOL    HW238347   2.664   3.093  12.159
12775SOL     OW38348   2.547   2.874  11.837
12775SOL    HW138349   2.616   2.858  11.907
12775SOL    HW238350   2.474   2.931  11.875
12776SOL     OW38351   2.197   3.297  12.233
12776SOL    HW138352   2.119   3.266  12.180
12776SOL    HW238353   2.255   3.355  12.176
12777SOL     OW38354   3.322   3.367  12.511
12777SOL    HW138355   3.346   3.461  12.537
12777SOL    HW238356   3.306   3.313  12.593
12778SOL     OW38357   2.300   2.254  12.671
12778SOL    HW138358   2.382   2.198  12.680
12778SOL    HW238359   2.219   2.196  12.675
12779SOL     OW38360   3.465   2.309  11.909
12779SOL    HW138361   3.391   2.355  11.859
12779SOL    HW238362   3.516   2.377  11.962
12780SOL     OW38363   2.093   3.575  11.655
12780SOL    HW138364   2.127   3.652  11.709
12780SOL    HW238365   2.137   3.575  11.565
12781SOL     OW38366   2.092   3.296  11.710
12781SOL    HW138367   2.066   3.392  11.710
12781SOL    HW238368   2.021   3.242  11.755
12782SOL     OW38369   2.102   2.953  12.058
12782SOL    HW138370   2.116   2.869  12.110
12782SOL    HW238371   2.047   3.017  12.113
12783SOL     OW38372   2.482   3.648  12.611
12783SOL    HW138373   2.390   3.631  12.646
12783SOL    HW238374   2.510   3.740  12.637
12784SOL     OW38375   2.468   2.826  11.295
12784SOL    HW138376   2.475   2.910  11.241
12784SOL    HW238377   2.514   2.839  11.383
12785SOL     OW38378   3.456   1.976  12.652
12785SOL    HW138379   3.438   2.043  12.580
12785SOL    HW238380   3.453   2.022  12.741
12786SOL     OW38381   1.984   2.505  11.735
12786SOL    HW138382   1.939   2.417  11.752
12786SOL    HW238383   1.983   2.559  11.819
12787SOL     OW38384   3.704   3.629  11.531
12787SOL    HW138385   3.758   3.600  11.611
12787SOL    HW238386   3.734   3.719  11.502
12788SOL     OW38387   1.889   3.458  11.289
12788SOL    HW138388   1.870   3.362  11.310
12788SOL    HW238389   1.856   3.516  11.364
12789SOL     OW38390   3.551   2.784  11.784
12789SOL    HW138391   3.646   2.755  11.792
12789SOL    HW238392   3.543   2.849  11.709
12790SOL     OW38393   3.503   2.970  11.604
12790SOL    HW138394   3.589   2.972  11.552
12790SOL    HW238395   3.517   3.017  11.692
12791SOL     OW38396   1.975   2.599  12.769
12791SOL    HW138397   2.063   2.586  12.814
12791SOL    HW238398   1.962   2.696  12.747
12792SOL     OW38399   2.475   3.227  11.898
12792SOL    HW138400   2.426   3.140  11.907
12792SOL    HW238401   2.452   3.270  11.811
12793SOL     OW38402   3.155   3.090  12.595
12793SOL    HW138403   3.192   3.017  12.537
12793SOL    HW238404   3.207   3.095  12.680
12794SOL     OW38405   2.671   1.866  11.674
12794SOL    HW138406   2.711   1.957  11.665
12794SOL    HW238407   2.571   1.874  11.680
12795SOL     OW38408   2.059   2.838  12.436
12795SOL    HW138409   2.148   2.793  12.422
12795SOL    HW238410   1.986   2.773  12.417
12796SOL     OW38411   3.387   2.861  11.362
12796SOL    HW138412   3.324   2.785  11.375
12796SOL    HW238413   3.435   2.879  11.448
12797SOL     OW38414   3.328   3.279  12.125
12797SOL    HW138415   3.269   3.285  12.205
12797SOL    HW238416   3.313   3.191  12.079
12798SOL     OW38417   3.529   3.576  11.744
12798SOL    HW138418   3.488   3.553  11.656
12798SOL    HW238419   3.511   3.502  11.809
12799SOL     OW38420   2.460   2.591  11.442
12799SOL    HW138421   2.484   2.660  11.374
12799SOL    HW238422   2.382   2.624  11.496
12800SOL     OW38423   3.143   2.207  12.116
12800SOL    HW138424   3.057   2.157  12.103
12800SOL    HW238425   3.205   2.153  12.172
12801SOL     OW38426   3.438   3.524  11.479
12801SOL    HW138427   3.527   3.570  11.482
12801SOL    HW238428   3.417   3.500  11.384
12802SOL     OW38429   2.669   2.467  12.637
12802SOL    HW138430   2.622   2.464  12.726
12802SOL    HW238431   2.618   2.412  12.571
12803SOL     OW38432   2.835   2.752  12.744
12803SOL    HW138433   2.881   2.668  12.715
12803SOL    HW238434   2.779   2.786  12.669
12804SOL     OW38435   2.853   2.272  12.414
12804SOL    HW138436   2.776   2.306  12.468
12804SOL    HW238437   2.819   2.221  12.335
12805SOL     OW38438   2.903   2.563  11.601
12805SOL    HW138439   2.929   2.559  11.697
12805SOL    HW238440   2.818   2.512  11.587
12806SOL     OW38441   1.938   2.673  11.961
12806SOL    HW138442   2.037   2.661  11.970
12806SOL    HW238443   1.914   2.768  11.982
12807SOL     OW38444   1.992   3.683  12.743
12807SOL    HW138445   1.982   3.668  12.842
12807SOL    HW238446   1.906   3.719  12.707
12808SOL     OW38447   2.727   2.210  11.367
12808SOL    HW138448   2.786   2.273  11.318
12808SOL    HW238449   2.746   2.116  11.338
12809SOL     OW38450   3.224   3.006  11.717
12809SOL    HW138451   3.307   2.977  11.669
12809SOL    HW238452   3.175   3.073  11.661
12810SOL     OW38453   2.412   2.058  12.057
12810SOL    HW138454   2.407   2.053  12.157
12810SOL    HW238455   2.414   2.154  12.028
12811SOL     OW38456   2.870   3.318  11.649
12811SOL    HW138457   2.824   3.390  11.597
12811SOL    HW238458   2.866   3.338  11.747
12812SOL     OW38459   2.213   3.663  12.025
12812SOL    HW138460   2.263   3.577  12.031
12812SOL    HW238461   2.278   3.740  12.022
12813SOL     OW38462   3.657   2.928  12.045
12813SOL    HW138463   3.595   2.913  11.969
12813SOL    HW238464   3.605   2.939  12.130
12814SOL     OW38465   3.089   3.412  12.678
12814SOL    HW138466   3.095   3.335  12.742
12814SOL    HW238467   3.037   3.386  12.598
12815SOL     OW38468   2.183   2.805  11.414
12815SOL    HW138469   2.265   2.844  11.372
12815SOL    HW238470   2.156   2.723  11.365
12816SOL     OW38471   3.320   2.597  11.900
12816SOL    HW138472   3.315   2.532  11.975
12816SOL    HW238473   3.400   2.656  11.913
12817SOL     OW38474   2.973   3.638  11.409
12817SOL    HW138475   2.913   3.576  11.459
12817SOL    HW238476   3.004   3.594  11.324
12818SOL     OW38477   2.064   2.147  12.670
12818SOL    HW138478   1.984   2.207  12.657
12818SOL    HW238479   2.054   2.098  12.756
12819SOL     OW38480   3.494   3.239  11.253
12819SOL    HW138481   3.462   3.333  11.243
12819SOL    HW238482   3.418   3.176  11.241
12820SOL     OW38483   2.326   3.605  11.495
12820SOL    HW138484   2.359   3.644  11.581
12820SOL    HW238485   2.402   3.598  11.430
12821SOL     OW38486   3.262   1.969  11.598
12821SOL    HW138487   3.238   1.932  11.508
12821SOL    HW238488   3.361   1.985  11.602
12822SOL     OW38489   2.111   3.647  12.413
12822SOL    HW138490   2.168   3.582  12.463
12822SOL    HW238491   2.095   3.614  12.320
12823SOL     OW38492   2.802   3.560  12.076
12823SOL    HW138493   2.882   3.503  12.097
12823SOL    HW238494   2.753   3.520  11.999
12824SOL     OW38495   2.244   2.562  11.652
12824SOL    HW138496   2.289   2.472  11.649
12824SOL    HW238497   2.150   2.551  11.685
12825SOL     OW38498   2.476   1.984  11.289
12825SOL    HW138499   2.574   1.962  11.296
12825SOL    HW238500   2.445   1.967  11.196
12826SOL     OW38501   2.750   3.376  12.367
12826SOL    HW138502   2.727   3.351  12.273
12826SOL    HW238503   2.811   3.307  12.406
12827SOL     OW38504   3.213   2.452  12.605
12827SOL    HW138505   3.241   2.409  12.690
12827SOL    HW238506   3.238   2.548  12.606
12828SOL     OW38507   2.665   3.264  12.096
12828SOL    HW138508   2.755   3.278  12.054
12828SOL    HW238509   2.594   3.266  12.025
12829SOL     OW38510   2.784   2.365  12.071
12829SOL    HW138511   2.759   2.356  11.975
12829SOL    HW238512   2.832   2.283  12.102
12830SOL     OW38513   2.401   1.926  11.684
12830SOL    HW138514   2.320   1.927  11.742
12830SOL    HW238515   2.404   2.009  11.629
12831SOL     OW38516   3.296   3.050  11.213
12831SOL    HW138517   3.328   2.974  11.270
12831SOL    HW238518   3.204   3.077  11.243
12832SOL     OW38519   2.159   1.897  11.343
12832SOL    HW138520   2.208   1.981  11.322
12832SOL    HW238521   2.221   1.832  11.388
12833SOL     OW38522   2.797   2.098  11.652
12833SOL    HW138523   2.749   2.139  11.574
12833SOL    HW238524   2.896   2.096  11.633
12834SOL     OW38525   2.938   2.545  12.636
12834SOL    HW138526   2.858   2.484  12.639
12834SOL    HW238527   3.019   2.492  12.612
12835SOL     OW38528   3.089   3.432  11.965
12835SOL    HW138529   3.110   3.506  11.900
12835SOL    HW238530   3.157   3.432  12.038
12836SOL     OW38531   2.321   3.014  11.913
12836SOL    HW138532   2.250   2.987  11.978
12836SOL    HW238533   2.295   2.986  11.820
12837SOL     OW38534   3.133   3.659  11.763
12837SOL    HW138535   3.177   3.723  11.699
12837SOL    HW238536   3.083   3.711  11.833
12838SOL     OW38537   2.894   2.411  11.188
12838SOL    HW138538   2.853   2.493  11.149
12838SOL    HW238539   2.958   2.437  11.261
12839SOL     OW38540   1.940   2.418  12.558
12839SOL    HW138541   2.032   2.417  12.517
12839SOL    HW238542   1.934   2.492  12.625
12840SOL     OW38543   2.423   2.084  12.319
12840SOL    HW138544   2.461   2.000  12.356
12840SOL    HW238545   2.335   2.103  12.363
12841SOL     OW38546   2.728   2.316  11.814
12841SOL    HW138547   2.696   2.388  11.752
12841SOL    HW238548   2.752   2.235  11.761
12842SOL     OW38549   2.879   1.901  11.925
12842SOL    HW138550   2.807   1.906  11.856
12842SOL    HW238551   2.855   1.832  11.994
12843SOL     OW38552   3.291   3.035  12.039
12843SOL    HW138553   3.236   2.951  12.032
12843SOL    HW238554   3.317   3.064  11.947
12844SOL     OW38555   3.328   2.452  12.164
12844SOL    HW138556   3.298   2.357  12.171
12844SOL    HW238557   3.401   2.468  12.230
12845SOL     OW38558   3.719   2.695  11.549
12845SOL    HW138559   3.761   2.631  11.613
12845SOL    HW238560   3.681   2.644  11.471
12846SOL     OW38561   2.350   3.247  11.346
12846SOL    HW138562   2.263   3.232  11.393
12846SOL    HW238563   2.333   3.273  11.251
12847SOL     OW38564   3.526   3.142  11.829
12847SOL    HW138565   3.625   3.150  11.843
12847SOL    HW238566   3.481   3.226  11.860
12848SOL     OW38567   3.252   2.437  11.250
12848SOL    HW138568   3.198   2.416  11.331
12848SOL    HW238569   3.343   2.396  11.259
12849SOL     OW38570   2.389   2.118  11.500
12849SOL    HW138571   2.416   2.059  11.425
12849SOL    HW238572   2.389   2.213  11.469
12850SOL     OW38573   3.616   3.085  12.760
12850SOL    HW138574   3.707   3.046  12.747
12850SOL    HW238575   3.624   3.181  12.784
12851SOL     OW38576   2.926   3.209  12.512
12851SOL    HW138577   2.846   3.186  12.567
12851SOL    HW238578   3.009   3.183  12.561
12852SOL     OW38579   2.973   3.057  12.272
12852SOL    HW138580   2.933   3.101  12.353
12852SOL    HW238581   2.932   3.094  12.189
12853SOL     OW38582   3.500   2.961  12.251
12853SOL    HW138583   3.505   3.042  12.310
12853SOL    HW238584   3.414   2.963  12.200
12854SOL     OW38585   2.777   1.951  12.574
12854SOL    HW138586   2.802   1.931  12.479
12854SOL    HW238587   2.849   2.007  12.616
12855SOL     OW38588   2.567   2.912  11.540
12855SOL    HW138589   2.553   2.919  11.639
12855SOL    HW238590   2.651   2.861  11.522
12856SOL     OW38591   2.272   2.675  12.423
12856SOL    HW138592   2.358   2.687  12.473
12856SOL    HW238593   2.230   2.588  12.450
12857SOL     OW38594   3.136   2.248  12.434
12857SOL    HW138595   3.157   2.322  12.498
12857SOL    HW238596   3.047   2.265  12.391
12858SOL     OW38597   1.926   3.426  12.503
12858SOL    HW138598   1.880   3.508  12.469
12858SOL    HW238599   2.024   3.445  12.512
12859SOL     OW38600   2.229   2.962  11.673
12859SOL    HW138601   2.222   3.045  11.617
12859SOL    HW238602   2.233   2.882  11.613
12860SOL     OW38603   2.428   2.399  12.037
12860SOL    HW138604   2.440   2.465  11.963
12860SOL    HW238605   2.474   2.433  12.120
12861SOL     OW38606   3.114   3.210  11.560
12861SOL    HW138607   3.164   3.287  11.600
12861SOL    HW238608   3.019   3.212  11.592
12862SOL     OW38609   3.134   3.307  12.314
12862SOL    HW138610   3.181   3.320  12.401
12862SOL    HW238611   3.068   3.233  12.323
12863SOL     OW38612   3.444   2.501  11.644
12863SOL    HW138613   3.413   2.562  11.717
12863SOL    HW238614   3.494   2.553  11.575
12864SOL     OW38615   2.216   3.372  12.501
12864SOL    HW138616   2.195   3.328  12.414
12864SOL    HW238617   2.313   3.398  12.504
12865SOL     OW38618   2.264   2.613  12.770
12865SOL    HW138619   2.332   2.668  12.723
12865SOL    HW238620   2.304   2.525  12.797
12866SOL     OW38621   3.449   2.641  12.842
12866SOL    HW138622   3.357   2.679  12.837
12866SOL    HW238623   3.509   2.688  12.777
12867SOL     OW38624   2.435   2.732  12.201
12867SOL    HW138625   2.479   2.821  12.192
12867SOL    HW238626   2.372   2.732  12.278
12868SOL     OW38627   3.222   2.724  12.217
12868SOL    HW138628   3.147   2.724  12.151
12868SOL    HW238629   3.259   2.632  12.226
12869SOL     OW38630   3.071   2.387  11.447
12869SOL    HW138631   3.084   2.303  11.501
12869SOL    HW238632   3.042   2.461  11.507
12870SOL     OW38633   2.169   2.075  12.403
12870SOL    HW138634   2.146   2.112  12.493
12870SOL    HW238635   2.139   1.980  12.397
12871SOL     OW38636   1.899   3.172  12.454
12871SOL    HW138637   1.952   3.123  12.522
12871SOL    HW238638   1.921   3.270  12.459
12872SOL     OW38639   2.594   2.496  12.236
12872SOL    HW138640   2.653   2.470  12.160
12872SOL    HW238641   2.566   2.592  12.225
12873SOL     OW38642   2.169   1.925  11.790
12873SOL    HW138643   2.158   2.019  11.823
12873SOL    HW238644   2.164   1.862  11.867
12874SOL     OW38645   3.484   2.229  11.546
12874SOL    HW138646   3.486   2.153  11.610
12874SOL    HW238647   3.436   2.306  11.586
12875SOL     OW38648   2.885   2.628  12.138
12875SOL    HW138649   2.900   2.649  12.234
12875SOL    HW238650   2.855   2.533  12.129
12876SOL     OW38651   3.402   2.136  11.297
12876SOL    HW138652   3.341   2.061  11.320
12876SOL    HW238653   3.424   2.188  11.380
12877SOL     OW38654   3.165   2.700  11.214
12877SOL    HW138655   3.199   2.607  11.229
12877SOL    HW238656   3.183   2.727  11.119
12878SOL     OW38657   2.930   3.195  12.021
12878SOL    HW138658   2.937   3.111  11.966
12878SOL    HW238659   2.992   3.264  11.985
12879SOL     OW38660   2.181   2.672  12.121
12879SOL    HW138661   2.274   2.708  12.126
12879SOL    HW238662   2.175   2.587  12.173
12880SOL     OW38663   2.201   2.371  12.178
12880SOL    HW138664   2.149   2.288  12.161
12880SOL    HW238665   2.278   2.376  12.114
12881SOL     OW38666   3.022   2.069  12.649
12881SOL    HW138667   3.022   2.133  12.726
12881SOL    HW238668   3.050   2.117  12.566
12882SOL     OW38669   1.870   3.188  11.372
12882SOL    HW138670   1.777   3.209  11.341
12882SOL    HW238671   1.880   3.089  11.385
12883SOL     OW38672   1.950   3.663  12.099
12883SOL    HW138673   1.908   3.577  12.072
12883SOL    HW238674   2.044   3.666  12.065
12884SOL     OW38675   2.366   3.430  12.082
12884SOL    HW138676   2.432   3.504  12.091
12884SOL    HW238677   2.410   3.351  12.040
12885SOL     OW38678   2.864   2.658  12.410
12885SOL    HW138679   2.905   2.626  12.496
12885SOL    HW238680   2.768   2.631  12.407
12886SOL     OW38681   1.902   2.406  12.286
12886SOL    HW138682   1.987   2.373  12.245
12886SOL    HW238683   1.915   2.421  12.384
12887SOL     OW38684   2.677   2.434  11.497
12887SOL    HW138685   2.684   2.345  11.451
12887SOL    HW238686   2.583   2.468  11.489
12888SOL     OW38687   3.519   2.466  12.378
12888SOL    HW138688   3.481   2.397  12.440
12888SOL    HW238689   3.601   2.430  12.334
12889SOL     OW38690   2.114   3.426  12.916
12889SOL    HW138691   2.084   3.483  12.992
12889SOL    HW238692   2.107   3.329  12.942
12890SOL     OW38693   2.533   2.326  12.441
12890SOL    HW138694   2.499   2.237  12.411
12890SOL    HW238695   2.559   2.380  12.361
12891SOL     OW38696   2.792   3.540  12.637
12891SOL    HW138697   2.768   3.522  12.542
12891SOL    HW238698   2.822   3.634  12.647
12892SOL     OW38699   2.335   2.362  11.363
12892SOL    HW138700   2.396   2.442  11.367
12892SOL    HW238701   2.240   2.393  11.370
12893SOL     OW38702   2.021   2.999  12.638
12893SOL    HW138703   2.043   2.938  12.714
12893SOL    HW238704   2.031   2.950  12.552
12894SOL     OW38705   3.209   2.921  12.406
12894SOL    HW138706   3.233   2.858  12.332
12894SOL    HW238707   3.119   2.961  12.388
12895SOL     OW38708   3.164   2.717  11.481
12895SOL    HW138709   3.078   2.686  11.523
12895SOL    HW238710   3.160   2.703  11.382
12896SOL     OW38711   3.621   3.609  12.326
12896SOL    HW138712   3.682   3.639  12.253
12896SOL    HW238713   3.583   3.520  12.304
12897SOL     OW38714   3.114   3.593  12.300
12897SOL    HW138715   3.198   3.598  12.246
12897SOL    HW238716   3.091   3.497  12.318
12898SOL     OW38717   1.945   3.120  12.194
12898SOL    HW138718   1.940   3.119  12.294
12898SOL    HW238719   1.862   3.079  12.156
12899SOL     OW38720   3.588   1.997  11.695
12899SOL    HW138721   3.661   1.980  11.628
12899SOL    HW238722   3.557   1.910  11.733
12900SOL     OW38723   3.250   3.435  11.649
12900SOL    HW138724   3.317   3.447  11.575
12900SOL    HW238725   3.210   3.524  11.672
12901SOL     OW38726   3.142   2.789  11.844
12901SOL    HW138727   3.202   2.708  11.846
12901SOL    HW238728   3.182   2.858  11.784
12902SOL     OW38729   2.692   3.135  12.594
12902SOL    HW138730   2.687   3.168  12.689
12902SOL    HW238731   2.606   3.154  12.548
12903SOL     OW38732   2.534   3.478  11.326
12903SOL    HW138733   2.543   3.488  11.227
12903SOL    HW238734   2.494   3.389  11.347
12904SOL     OW38735   3.512   3.582  12.566
12904SOL    HW138736   3.565   3.592  12.482
12904SOL    HW238737   3.485   3.672  12.600
12905SOL     OW38738   3.703   2.037  12.135
12905SOL    HW138739   3.742   1.952  12.099
12905SOL    HW238740   3.605   2.039  12.116
12906SOL     OW38741   2.125   2.188  11.892
12906SOL    HW138742   2.046   2.239  11.858
12906SOL    HW238743   2.116   2.173  11.990
12907SOL     OW38744   3.056   3.474  11.203
12907SOL    HW138745   3.062   3.381  11.240
12907SOL    HW238746   2.997   3.474  11.123
12908SOL     OW38747   2.684   2.864  12.544
12908SOL    HW138748   2.724   2.863  12.452
12908SOL    HW238749   2.694   2.956  12.584
12909SOL     OW38750   2.778   2.772  11.463
12909SOL    HW138751   2.841   2.810  11.395
12909SOL    HW238752   2.818   2.689  11.502
12910SOL     OW38753   3.366   3.469  11.216
12910SOL    HW138754   3.274   3.506  11.223
12910SOL    HW238755   3.404   3.489  11.126
12911SOL     OW38756   2.234   3.150  12.662
12911SOL    HW138757   2.221   3.243  12.628
12911SOL    HW238758   2.150   3.098  12.649
12912SOL     OW38759   3.476   3.154  12.461
12912SOL    HW138760   3.536   3.157  12.541
12912SOL    HW238761   3.401   3.218  12.474
12913SOL     OW38762   2.901   2.960  11.868
12913SOL    HW138763   2.831   2.913  11.922
12913SOL    HW238764   2.960   2.892  11.825
12914SOL     OW38765   2.876   2.098  12.143
12914SOL    HW138766   2.868   2.062  12.050
12914SOL    HW238767   2.874   2.022  12.208
12915SOL     OW38768   2.452   3.349  11.663
12915SOL    HW138769   2.494   3.291  11.593
12915SOL    HW238770   2.408   3.428  11.619
12916SOL     OW38771   3.571   2.247  12.553
12916SOL    HW138772   3.644   2.316  12.557
12916SOL    HW238773   3.599   2.172  12.494
12917SOL     OW38774   2.117   3.210  11.462
12917SOL    HW138775   2.021   3.211  11.435
12917SOL    HW238776   2.129   3.263  11.546
12918SOL     OW38777   1.967   2.875  12.898
12918SOL    HW138778   1.890   2.842  12.952
12918SOL    HW238779   2.052   2.845  12.940
12919SOL     OW38780   2.534   2.065  12.661
12919SOL    HW138781   2.624   2.049  12.621
12919SOL    HW238782   2.542   2.070  12.760
12920SOL     OW38783   1.937   2.207  11.205
12920SOL    HW138784   1.845   2.179  11.176
12920SOL    HW238785   1.968   2.284  11.149
12921SOL     OW38786   3.302   2.718  12.570
12921SOL    HW138787   3.245   2.770  12.507
12921SOL    HW238788   3.398   2.730  12.546
12922SOL     OW38789   1.934   2.028  11.490
12922SOL    HW138790   1.917   2.111  11.436
12922SOL    HW238791   2.024   1.991  11.468
12923SOL     OW38792   3.045   3.197  11.291
12923SOL    HW138793   2.946   3.186  11.293
12923SOL    HW238794   3.079   3.212  11.384
12924SOL     OW38795   2.475   2.704  12.603
12924SOL    HW138796   2.531   2.785  12.586
12924SOL    HW238797   2.534   2.624  12.606
12925SOL     OW38798   3.355   3.629  12.131
12925SOL    HW138799   3.388   3.693  12.062
12925SOL    HW238800   3.421   3.623  12.206
12926SOL     OW38801   2.578   2.427  12.880
12926SOL    HW138802   2.597   2.492  12.954
12926SOL    HW238803   2.638   2.347  12.889
12927SOL     OW38804   2.252   3.603  12.732
12927SOL    HW138805   2.161   3.644  12.730
12927SOL    HW238806   2.245   3.509  12.764
12928SOL     OW38807   3.536   2.745  12.426
12928SOL    HW138808   3.509   2.656  12.389
12928SOL    HW238809   3.537   2.813  12.353
12929SOL     OW38810   3.087   2.187  11.621
12929SOL    HW138811   3.152   2.113  11.610
12929SOL    HW238812   3.107   2.237  11.705
12930SOL     OW38813   2.456   2.607  11.824
12930SOL    HW138814   2.506   2.692  11.805
12930SOL    HW238815   2.368   2.609  11.776
12931SOL     OW38816   3.639   2.204  12.814
12931SOL    HW138817   3.622   2.235  12.720
12931SOL    HW238818   3.555   2.167  12.852
12932SOL     OW38819   3.592   2.796  12.689
12932SOL    HW138820   3.630   2.887  12.704
12932SOL    HW238821   3.584   2.779  12.590
12933SOL     OW38822   2.721   3.236  11.188
12933SOL    HW138823   2.675   3.251  11.276
12933SOL    HW238824   2.765   3.321  11.158
12934SOL     OW38825   2.523   3.652  12.125
12934SOL    HW138826   2.477   3.740  12.112
12934SOL    HW238827   2.622   3.664  12.118
12935SOL     OW38828   2.721   2.818  12.033
12935SOL    HW138829   2.775   2.749  12.081
12935SOL    HW238830   2.689   2.887  12.099
12936SOL     OW38831   2.945   2.846  11.259
12936SOL    HW138832   2.922   2.899  11.177
12936SOL    HW238833   3.026   2.790  11.240
12937SOL     OW38834   3.723   3.431  12.023
12937SOL    HW138835   3.652   3.419  11.953
12937SOL    HW238836   3.724   3.352  12.083
12938SOL     OW38837   1.941   3.102  11.825
12938SOL    HW138838   1.940   3.055  11.913
12938SOL    HW238839   2.023   3.074  11.774
12939SOL     OW38840   2.534   3.253  12.796
12939SOL    HW138841   2.456   3.203  12.834
12939SOL    HW238842   2.531   3.348  12.827
12940SOL     OW38843   3.686   2.054  12.399
12940SOL    HW138844   3.682   1.964  12.443
12940SOL    HW238845   3.689   2.043  12.300
12941SOL     OW38846   2.290   2.286  11.692
12941SOL    HW138847   2.320   2.214  11.630
12941SOL    HW238848   2.251   2.246  11.775
12942SOL     OW38849   3.567   3.349  12.276
12942SOL    HW138850   3.474   3.324  12.249
12942SOL    HW238851   3.593   3.299  12.358
12943SOL     OW38852   2.179   2.409  12.452
12943SOL    HW138853   2.217   2.350  12.524
12943SOL    HW238854   2.219   2.383  12.364
12944SOL     OW38855   2.674   3.448  11.859
12944SOL    HW138856   2.706   3.458  11.765
12944SOL    HW238857   2.595   3.386  11.861
12945SOL     OW38858   3.286   2.076  12.284
12945SOL    HW138859   3.338   2.011  12.339
12945SOL    HW238860   3.237   2.139  12.345
12946SOL     OW38861   2.863   1.896  12.326
12946SOL    HW138862   2.800   1.824  12.295
12946SOL    HW238863   2.956   1.860  12.326
12947SOL     OW38864   2.632   3.192  11.473
12947SOL    HW138865   2.586   3.105  11.490
12947SOL    HW238866   2.723   3.189  11.514
12948SOL     OW38867   2.480   3.429  12.456
12948SOL    HW138868   2.475   3.511  12.513
12948SOL    HW238869   2.569   3.426  12.411
12949SOL     OW38870   3.214   1.914  11.340
12949SOL    HW138871   3.249   1.873  11.256
12949SOL    HW238872   3.124   1.876  11.360
12950SOL     OW38873   3.162   2.315  11.863
12950SOL    HW138874   3.103   2.395  11.867
12950SOL    HW238875   3.177   2.280  11.956
12951SOL     OW38876   3.455   2.083  12.054
12951SOL    HW138877   3.371   2.082  12.108
12951SOL    HW238878   3.457   2.166  11.998
12952SOL     OW38879   1.901   2.939  11.472
12952SOL    HW138880   2.000   2.928  11.463
12952SOL    HW238881   1.861   2.853  11.504
12953SOL     OW38882   2.737   3.508  11.509
12953SOL    HW138883   2.660   3.473  11.455
12953SOL    HW238884   2.705   3.579  11.571
12954SOL     OW38885   2.092   4.352   0.113
12954SOL    HW138886   1.999   4.350   0.150
12954SOL    HW238887   2.093   4.313   0.021
12955SOL     OW38888   2.087   3.999   0.996
12955SOL    HW138889   2.122   3.982   1.088
12955SOL    HW238890   1.999   3.954   0.984
12956SOL     OW38891   1.881   4.092   0.647
12956SOL    HW138892   1.799   4.135   0.686
12956SOL    HW238893   1.853   4.019   0.584
12957SOL     OW38894   2.431   4.999   1.165
12957SOL    HW138895   2.338   4.992   1.128
12957SOL    HW238896   2.442   5.088   1.209
12958SOL     OW38897   3.417   5.235   0.703
12958SOL    HW138898   3.360   5.219   0.784
12958SOL    HW238899   3.358   5.245   0.623
12959SOL     OW38900   2.997   4.427   0.717
12959SOL    HW138901   3.054   4.505   0.692
12959SOL    HW238902   2.937   4.453   0.793
12960SOL     OW38903   3.617   4.331   0.231
12960SOL    HW138904   3.605   4.318   0.132
12960SOL    HW238905   3.587   4.250   0.280
12961SOL     OW38906   2.630   4.868   1.023
12961SOL    HW138907   2.552   4.885   1.083
12961SOL    HW238908   2.664   4.955   0.987
12962SOL     OW38909   2.712   4.522   1.823
12962SOL    HW138910   2.708   4.598   1.888
12962SOL    HW238911   2.734   4.558   1.732
12963SOL     OW38912   2.547   4.736   0.665
12963SOL    HW138913   2.616   4.720   0.735
12963SOL    HW238914   2.474   4.793   0.703
12964SOL     OW38915   2.548   4.885   1.803
12964SOL    HW138916   2.608   4.964   1.817
12964SOL    HW238917   2.462   4.916   1.762
12965SOL     OW38918   2.197   5.159   1.061
12965SOL    HW138919   2.119   5.128   1.008
12965SOL    HW238920   2.255   5.217   1.004
12966SOL     OW38921   3.322   5.229   1.339
12966SOL    HW138922   3.346   5.323   1.365
12966SOL    HW238923   3.306   5.175   1.421
12967SOL     OW38924   2.300   4.116   1.499
12967SOL    HW138925   2.382   4.060   1.508
12967SOL    HW238926   2.219   4.058   1.503
12968SOL     OW38927   3.465   4.171   0.737
12968SOL    HW138928   3.391   4.217   0.687
12968SOL    HW238929   3.516   4.239   0.790
12969SOL     OW38930   2.093   5.437   0.483
12969SOL    HW138931   2.127   5.514   0.537
12969SOL    HW238932   2.137   5.437   0.393
12970SOL     OW38933   2.989   5.065   1.690
12970SOL    HW138934   3.036   5.065   1.778
12970SOL    HW238935   2.941   4.978   1.679
12971SOL     OW38936   2.092   5.158   0.538
12971SOL    HW138937   2.066   5.254   0.538
12971SOL    HW238938   2.021   5.104   0.583
12972SOL     OW38939   2.102   4.815   0.886
12972SOL    HW138940   2.116   4.731   0.938
12972SOL    HW238941   2.047   4.879   0.941
12973SOL     OW38942   2.482   5.510   1.439
12973SOL    HW138943   2.390   5.493   1.474
12973SOL    HW238944   2.510   5.602   1.465
12974SOL     OW38945   2.468   4.688   0.123
12974SOL    HW138946   2.475   4.772   0.069
12974SOL    HW238947   2.514   4.701   0.211
12975SOL     OW38948   3.456   3.838   1.480
12975SOL    HW138949   3.438   3.905   1.408
12975SOL    HW238950   3.453   3.884   1.569
12976SOL     OW38951   1.984   4.367   0.563
12976SOL    HW138952   1.939   4.279   0.580
12976SOL    HW238953   1.983   4.421   0.647
12977SOL     OW38954   3.704   5.491   0.359
12977SOL    HW138955   3.758   5.462   0.439
12977SOL    HW238956   3.734   5.581   0.330
12978SOL     OW38957   1.889   5.320   0.117
12978SOL    HW138958   1.870   5.224   0.138
12978SOL    HW238959   1.856   5.378   0.192
12979SOL     OW38960   3.551   4.646   0.612
12979SOL    HW138961   3.646   4.617   0.620
12979SOL    HW238962   3.543   4.711   0.537
12980SOL     OW38963   3.503   4.832   0.432
12980SOL    HW138964   3.589   4.834   0.380
12980SOL    HW238965   3.517   4.879   0.520
12981SOL     OW38966   1.975   4.461   1.597
12981SOL    HW138967   2.063   4.448   1.642
12981SOL    HW238968   1.962   4.558   1.575
12982SOL     OW38969   2.475   5.089   0.726
12982SOL    HW138970   2.426   5.002   0.735
12982SOL    HW238971   2.452   5.132   0.639
12983SOL     OW38972   3.155   4.952   1.423
12983SOL    HW138973   3.192   4.879   1.365
12983SOL    HW238974   3.207   4.957   1.508
12984SOL     OW38975   2.671   3.728   0.502
12984SOL    HW138976   2.711   3.819   0.493
12984SOL    HW238977   2.571   3.736   0.508
12985SOL     OW38978   2.059   4.700   1.264
12985SOL    HW138979   2.148   4.655   1.250
12985SOL    HW238980   1.986   4.635   1.245
12986SOL     OW38981   3.387   4.723   0.190
12986SOL    HW138982   3.324   4.647   0.203
12986SOL    HW238983   3.435   4.741   0.276
12987SOL     OW38984   3.049   5.516   1.616
12987SOL    HW138985   3.073   5.576   1.540
12987SOL    HW238986   3.056   5.421   1.586
12988SOL     OW38987   2.179   3.975   1.801
12988SOL    HW138988   2.250   4.046   1.807
12988SOL    HW238989   2.091   4.014   1.829
12989SOL     OW38990   3.328   5.141   0.953
12989SOL    HW138991   3.269   5.147   1.033
12989SOL    HW238992   3.313   5.053   0.907
12990SOL     OW38993   3.529   5.438   0.572
12990SOL    HW138994   3.488   5.415   0.484
12990SOL    HW238995   3.511   5.364   0.637
12991SOL     OW38996   2.460   4.453   0.270
12991SOL    HW138997   2.484   4.522   0.202
12991SOL    HW238998   2.382   4.486   0.324
12992SOL     OW38999   3.143   4.069   0.944
12992SOL    HW139000   3.057   4.019   0.931
12992SOL    HW239001   3.205   4.015   1.000
12993SOL     OW39002   3.438   5.386   0.307
12993SOL    HW139003   3.527   5.432   0.310
12993SOL    HW239004   3.417   5.362   0.212
12994SOL     OW39005   2.669   4.329   1.465
12994SOL    HW139006   2.622   4.326   1.554
12994SOL    HW239007   2.618   4.274   1.399
12995SOL     OW39008   3.256   4.193   1.674
12995SOL    HW139009   3.236   4.236   1.762
12995SOL    HW239010   3.334   4.131   1.683
12996SOL     OW39011   2.835   4.614   1.572
12996SOL    HW139012   2.881   4.530   1.543
12996SOL    HW239013   2.779   4.648   1.497
12997SOL     OW39014   2.853   4.134   1.242
12997SOL    HW139015   2.776   4.168   1.296
12997SOL    HW239016   2.819   4.083   1.163
12998SOL     OW39017   2.903   4.425   0.429
12998SOL    HW139018   2.929   4.421   0.525
12998SOL    HW239019   2.818   4.374   0.415
12999SOL     OW39020   1.938   4.535   0.789
12999SOL    HW139021   2.037   4.523   0.798
12999SOL    HW239022   1.914   4.630   0.810
13000SOL     OW39023   1.992   5.545   1.571
13000SOL    HW139024   1.982   5.530   1.670
13000SOL    HW239025   1.906   5.581   1.535
13001SOL     OW39026   2.727   4.072   0.195
13001SOL    HW139027   2.786   4.135   0.146
13001SOL    HW239028   2.746   3.978   0.166
13002SOL     OW39029   3.581   4.309   1.831
13002SOL    HW139030   3.555   4.398   1.795
13002SOL    HW239031   3.579   4.241   1.758
13003SOL     OW39032   3.224   4.868   0.545
13003SOL    HW139033   3.307   4.839   0.497
13003SOL    HW239034   3.175   4.935   0.489
13004SOL     OW39035   2.412   3.920   0.885
13004SOL    HW139036   2.407   3.915   0.985
13004SOL    HW239037   2.414   4.016   0.856
13005SOL     OW39038   2.870   5.180   0.477
13005SOL    HW139039   2.824   5.252   0.425
13005SOL    HW239040   2.866   5.200   0.575
13006SOL     OW39041   2.213   5.525   0.853
13006SOL    HW139042   2.263   5.439   0.859
13006SOL    HW239043   2.278   5.602   0.850
13007SOL     OW39044   3.657   4.790   0.873
13007SOL    HW139045   3.595   4.775   0.797
13007SOL    HW239046   3.605   4.801   0.958
13008SOL     OW39047   3.089   5.274   1.506
13008SOL    HW139048   3.095   5.197   1.570
13008SOL    HW239049   3.037   5.248   1.426
13009SOL     OW39050   2.183   4.667   0.242
13009SOL    HW139051   2.265   4.706   0.200
13009SOL    HW239052   2.156   4.585   0.193
13010SOL     OW39053   3.320   4.459   0.728
13010SOL    HW139054   3.315   4.394   0.803
13010SOL    HW239055   3.400   4.518   0.741
13011SOL     OW39056   2.323   4.990   1.727
13011SOL    HW139057   2.273   4.991   1.641
13011SOL    HW239058   2.260   4.972   1.803
13012SOL     OW39059   2.973   5.500   0.237
13012SOL    HW139060   2.913   5.438   0.287
13012SOL    HW239061   3.004   5.456   0.152
13013SOL     OW39062   2.064   4.009   1.498
13013SOL    HW139063   1.984   4.069   1.485
13013SOL    HW239064   2.054   3.960   1.584
13014SOL     OW39065   3.494   5.101   0.081
13014SOL    HW139066   3.462   5.195   0.071
13014SOL    HW239067   3.418   5.038   0.069
13015SOL     OW39068   2.326   5.467   0.323
13015SOL    HW139069   2.359   5.506   0.409
13015SOL    HW239070   2.402   5.460   0.258
13016SOL     OW39071   3.262   3.831   0.426
13016SOL    HW139072   3.238   3.794   0.336
13016SOL    HW239073   3.361   3.847   0.430
13017SOL     OW39074   2.111   5.509   1.241
13017SOL    HW139075   2.168   5.444   1.291
13017SOL    HW239076   2.095   5.476   1.148
13018SOL     OW39077   2.802   5.422   0.904
13018SOL    HW139078   2.882   5.365   0.925
13018SOL    HW239079   2.753   5.382   0.827
13019SOL     OW39080   2.244   4.424   0.480
13019SOL    HW139081   2.289   4.334   0.477
13019SOL    HW239082   2.150   4.413   0.513
13020SOL     OW39083   3.409   3.946   1.729
13020SOL    HW139084   3.404   3.983   1.821
13020SOL    HW239085   3.337   3.877   1.717
13021SOL     OW39086   2.476   3.846   0.117
13021SOL    HW139087   2.574   3.824   0.124
13021SOL    HW239088   2.445   3.829   0.024
13022SOL     OW39089   2.643   3.988   1.749
13022SOL    HW139090   2.710   3.927   1.792
13022SOL    HW239091   2.570   4.007   1.814
13023SOL     OW39092   2.750   5.238   1.195
13023SOL    HW139093   2.727   5.213   1.101
13023SOL    HW239094   2.811   5.169   1.234
13024SOL     OW39095   3.213   4.314   1.433
13024SOL    HW139096   3.241   4.271   1.518
13024SOL    HW239097   3.238   4.410   1.434
13025SOL     OW39098   2.665   5.126   0.924
13025SOL    HW139099   2.755   5.140   0.882
13025SOL    HW239100   2.594   5.128   0.853
13026SOL     OW39101   2.784   4.227   0.899
13026SOL    HW139102   2.759   4.218   0.803
13026SOL    HW239103   2.832   4.145   0.930
13027SOL     OW39104   2.401   3.788   0.512
13027SOL    HW139105   2.320   3.789   0.570
13027SOL    HW239106   2.404   3.871   0.457
13028SOL     OW39107   3.296   4.912   0.041
13028SOL    HW139108   3.328   4.836   0.098
13028SOL    HW239109   3.204   4.939   0.071
13029SOL     OW39110   2.159   3.759   0.171
13029SOL    HW139111   2.208   3.843   0.150
13029SOL    HW239112   2.221   3.694   0.216
13030SOL     OW39113   2.797   3.960   0.480
13030SOL    HW139114   2.749   4.001   0.402
13030SOL    HW239115   2.896   3.958   0.461
13031SOL     OW39116   2.938   4.407   1.464
13031SOL    HW139117   2.858   4.346   1.467
13031SOL    HW239118   3.019   4.354   1.440
13032SOL     OW39119   3.089   5.294   0.793
13032SOL    HW139120   3.110   5.368   0.728
13032SOL    HW239121   3.157   5.294   0.866
13033SOL     OW39122   2.321   4.876   0.741
13033SOL    HW139123   2.250   4.849   0.806
13033SOL    HW239124   2.295   4.848   0.648
13034SOL     OW39125   3.133   5.521   0.591
13034SOL    HW139126   3.177   5.585   0.527
13034SOL    HW239127   3.083   5.573   0.661
13035SOL     OW39128   2.894   4.273   0.016
13035SOL    HW139129   2.853   4.355  -0.023
13035SOL    HW239130   2.958   4.299   0.089
13036SOL     OW39131   1.940   4.280   1.386
13036SOL    HW139132   2.032   4.279   1.345
13036SOL    HW239133   1.934   4.354   1.453
13037SOL     OW39134   2.423   3.946   1.147
13037SOL    HW139135   2.461   3.862   1.184
13037SOL    HW239136   2.335   3.965   1.191
13038SOL     OW39137   2.728   4.178   0.642
13038SOL    HW139138   2.696   4.250   0.580
13038SOL    HW239139   2.752   4.097   0.589
13039SOL     OW39140   2.879   3.763   0.753
13039SOL    HW139141   2.807   3.768   0.684
13039SOL    HW239142   2.855   3.694   0.822
13040SOL     OW39143   3.291   4.897   0.867
13040SOL    HW139144   3.236   4.813   0.860
13040SOL    HW239145   3.317   4.926   0.775
13041SOL     OW39146   3.328   4.314   0.992
13041SOL    HW139147   3.298   4.219   0.999
13041SOL    HW239148   3.401   4.330   1.058
13042SOL     OW39149   3.719   4.557   0.377
13042SOL    HW139150   3.761   4.493   0.441
13042SOL    HW239151   3.681   4.506   0.299
13043SOL     OW39152   2.350   5.109   0.174
13043SOL    HW139153   2.263   5.094   0.221
13043SOL    HW239154   2.333   5.135   0.079
13044SOL     OW39155   3.526   5.004   0.657
13044SOL    HW139156   3.625   5.012   0.671
13044SOL    HW239157   3.481   5.088   0.688
13045SOL     OW39158   3.252   4.299   0.078
13045SOL    HW139159   3.198   4.278   0.159
13045SOL    HW239160   3.343   4.258   0.087
13046SOL     OW39161   2.389   3.980   0.328
13046SOL    HW139162   2.416   3.921   0.253
13046SOL    HW239163   2.389   4.075   0.297
13047SOL     OW39164   3.616   4.947   1.588
13047SOL    HW139165   3.707   4.908   1.575
13047SOL    HW239166   3.624   5.043   1.612
13048SOL     OW39167   2.926   5.071   1.340
13048SOL    HW139168   2.846   5.048   1.395
13048SOL    HW239169   3.009   5.045   1.389
13049SOL     OW39170   3.454   5.353   1.625
13049SOL    HW139171   3.481   5.387   1.535
13049SOL    HW239172   3.533   5.315   1.671
13050SOL     OW39173   2.973   4.919   1.100
13050SOL    HW139174   2.933   4.963   1.181
13050SOL    HW239175   2.932   4.956   1.017
13051SOL     OW39176   3.500   4.823   1.079
13051SOL    HW139177   3.505   4.904   1.138
13051SOL    HW239178   3.414   4.825   1.028
13052SOL     OW39179   2.777   3.813   1.402
13052SOL    HW139180   2.802   3.793   1.307
13052SOL    HW239181   2.849   3.869   1.444
13053SOL     OW39182   2.842   4.840   1.719
13053SOL    HW139183   2.743   4.846   1.729
13053SOL    HW239184   2.865   4.760   1.663
13054SOL     OW39185   2.567   4.774   0.368
13054SOL    HW139186   2.553   4.781   0.467
13054SOL    HW239187   2.651   4.723   0.350
13055SOL     OW39188   2.272   4.537   1.251
13055SOL    HW139189   2.358   4.549   1.301
13055SOL    HW239190   2.230   4.450   1.278
13056SOL     OW39191   3.136   4.110   1.262
13056SOL    HW139192   3.157   4.184   1.326
13056SOL    HW239193   3.047   4.127   1.219
13057SOL     OW39194   1.926   5.288   1.331
13057SOL    HW139195   1.880   5.370   1.297
13057SOL    HW239196   2.024   5.307   1.340
13058SOL     OW39197   2.229   4.824   0.501
13058SOL    HW139198   2.222   4.907   0.445
13058SOL    HW239199   2.233   4.744   0.441
13059SOL     OW39200   2.428   4.261   0.865
13059SOL    HW139201   2.440   4.327   0.791
13059SOL    HW239202   2.474   4.295   0.948
13060SOL     OW39203   3.114   5.072   0.388
13060SOL    HW139204   3.164   5.149   0.428
13060SOL    HW239205   3.019   5.074   0.420
13061SOL     OW39206   3.134   5.169   1.142
13061SOL    HW139207   3.181   5.182   1.229
13061SOL    HW239208   3.068   5.095   1.151
13062SOL     OW39209   3.444   4.363   0.472
13062SOL    HW139210   3.413   4.424   0.545
13062SOL    HW239211   3.494   4.415   0.403
13063SOL     OW39212   2.216   5.234   1.329
13063SOL    HW139213   2.195   5.190   1.242
13063SOL    HW239214   2.313   5.260   1.332
13064SOL     OW39215   2.264   4.475   1.598
13064SOL    HW139216   2.332   4.530   1.551
13064SOL    HW239217   2.304   4.387   1.625
13065SOL     OW39218   3.449   4.503   1.670
13065SOL    HW139219   3.357   4.541   1.665
13065SOL    HW239220   3.509   4.550   1.605
13066SOL     OW39221   2.875   3.829   1.770
13066SOL    HW139222   2.881   3.914   1.718
13066SOL    HW239223   2.907   3.753   1.713
13067SOL     OW39224   2.366   3.774   1.740
13067SOL    HW139225   2.324   3.717   1.670
13067SOL    HW239226   2.300   3.843   1.772
13068SOL     OW39227   2.435   4.594   1.029
13068SOL    HW139228   2.479   4.683   1.020
13068SOL    HW239229   2.372   4.594   1.106
13069SOL     OW39230   3.222   4.586   1.045
13069SOL    HW139231   3.147   4.586   0.979
13069SOL    HW239232   3.259   4.494   1.054
13070SOL     OW39233   3.071   4.249   0.275
13070SOL    HW139234   3.084   4.165   0.329
13070SOL    HW239235   3.042   4.323   0.335
13071SOL     OW39236   2.169   3.937   1.231
13071SOL    HW139237   2.146   3.974   1.321
13071SOL    HW239238   2.139   3.842   1.225
13072SOL     OW39239   1.899   5.034   1.282
13072SOL    HW139240   1.952   4.985   1.350
13072SOL    HW239241   1.921   5.132   1.287
13073SOL     OW39242   2.594   4.358   1.064
13073SOL    HW139243   2.653   4.332   0.988
13073SOL    HW239244   2.566   4.454   1.053
13074SOL     OW39245   3.590   4.659   1.854
13074SOL    HW139246   3.544   4.652   1.765
13074SOL    HW239247   3.528   4.703   1.920
13075SOL     OW39248   2.169   3.787   0.618
13075SOL    HW139249   2.158   3.881   0.651
13075SOL    HW239250   2.164   3.724   0.695
13076SOL     OW39251   3.484   4.091   0.374
13076SOL    HW139252   3.486   4.015   0.438
13076SOL    HW239253   3.436   4.168   0.414
13077SOL     OW39254   2.885   4.490   0.966
13077SOL    HW139255   2.900   4.511   1.062
13077SOL    HW239256   2.855   4.395   0.957
13078SOL     OW39257   2.842   5.297   1.700
13078SOL    HW139258   2.822   5.341   1.612
13078SOL    HW239259   2.881   5.206   1.684
13079SOL     OW39260   3.721   5.242   1.605
13079SOL    HW139261   3.735   5.269   1.510
13079SOL    HW239262   3.804   5.264   1.658
13080SOL     OW39263   2.212   4.622   1.804
13080SOL    HW139264   2.288   4.666   1.852
13080SOL    HW239265   2.247   4.575   1.722
13081SOL     OW39266   3.402   3.998   0.125
13081SOL    HW139267   3.341   3.923   0.148
13081SOL    HW239268   3.424   4.050   0.208
13082SOL     OW39269   3.165   4.562   0.042
13082SOL    HW139270   3.199   4.469   0.057
13082SOL    HW239271   3.183   4.589  -0.053
13083SOL     OW39272   2.930   5.057   0.849
13083SOL    HW139273   2.937   4.973   0.794
13083SOL    HW239274   2.992   5.126   0.813
13084SOL     OW39275   2.181   4.534   0.949
13084SOL    HW139276   2.274   4.570   0.954
13084SOL    HW239277   2.175   4.449   1.001
13085SOL     OW39278   2.201   4.233   1.006
13085SOL    HW139279   2.149   4.150   0.989
13085SOL    HW239280   2.278   4.238   0.942
13086SOL     OW39281   3.000   4.104   1.678
13086SOL    HW139282   2.955   4.167   1.742
13086SOL    HW239283   3.093   4.135   1.661
13087SOL     OW39284   3.022   3.931   1.477
13087SOL    HW139285   3.022   3.995   1.554
13087SOL    HW239286   3.050   3.979   1.394
13088SOL     OW39287   1.870   5.050   0.200
13088SOL    HW139288   1.777   5.071   0.169
13088SOL    HW239289   1.880   4.951   0.213
13089SOL     OW39290   1.950   5.525   0.927
13089SOL    HW139291   1.908   5.439   0.900
13089SOL    HW239292   2.044   5.528   0.893
13090SOL     OW39293   2.366   5.292   0.910
13090SOL    HW139294   2.432   5.366   0.919
13090SOL    HW239295   2.410   5.213   0.868
13091SOL     OW39296   2.864   4.520   1.238
13091SOL    HW139297   2.905   4.488   1.324
13091SOL    HW239298   2.768   4.493   1.235
13092SOL     OW39299   1.902   4.268   1.114
13092SOL    HW139300   1.987   4.235   1.073
13092SOL    HW239301   1.915   4.283   1.212
13093SOL     OW39302   2.051   4.244   1.722
13093SOL    HW139303   2.110   4.204   1.652
13093SOL    HW239304   1.993   4.315   1.681
13094SOL     OW39305   3.231   4.674   1.660
13094SOL    HW139306   3.270   4.763   1.680
13094SOL    HW239307   3.241   4.654   1.563
13095SOL     OW39308   2.677   4.296   0.325
13095SOL    HW139309   2.684   4.207   0.279
13095SOL    HW239310   2.583   4.330   0.317
13096SOL     OW39311   3.519   4.328   1.206
13096SOL    HW139312   3.481   4.259   1.268
13096SOL    HW239313   3.601   4.292   1.162
13097SOL     OW39314   2.114   5.288   1.744
13097SOL    HW139315   2.084   5.345   1.820
13097SOL    HW239316   2.107   5.191   1.770
13098SOL     OW39317   2.533   4.188   1.269
13098SOL    HW139318   2.499   4.099   1.239
13098SOL    HW239319   2.559   4.242   1.189
13099SOL     OW39320   2.792   5.402   1.465
13099SOL    HW139321   2.768   5.384   1.370
13099SOL    HW239322   2.822   5.496   1.475
13100SOL     OW39323   2.335   4.224   0.191
13100SOL    HW139324   2.396   4.304   0.195
13100SOL    HW239325   2.240   4.255   0.198
13101SOL     OW39326   2.021   4.861   1.466
13101SOL    HW139327   2.043   4.800   1.542
13101SOL    HW239328   2.031   4.812   1.380
13102SOL     OW39329   3.209   4.783   1.234
13102SOL    HW139330   3.233   4.720   1.160
13102SOL    HW239331   3.119   4.823   1.216
13103SOL     OW39332   3.164   4.579   0.309
13103SOL    HW139333   3.078   4.548   0.351
13103SOL    HW239334   3.160   4.565   0.210
13104SOL     OW39335   3.621   5.471   1.154
13104SOL    HW139336   3.682   5.501   1.081
13104SOL    HW239337   3.583   5.382   1.132
13105SOL     OW39338   3.114   5.455   1.128
13105SOL    HW139339   3.198   5.460   1.074
13105SOL    HW239340   3.091   5.359   1.146
13106SOL     OW39341   1.945   4.982   1.022
13106SOL    HW139342   1.940   4.981   1.122
13106SOL    HW239343   1.862   4.941   0.984
13107SOL     OW39344   2.550   5.386   1.716
13107SOL    HW139345   2.494   5.467   1.725
13107SOL    HW239346   2.602   5.390   1.630
13108SOL     OW39347   2.765   3.810   0.133
13108SOL    HW139348   2.816   3.811   0.047
13108SOL    HW239349   2.821   3.768   0.204
13109SOL     OW39350   3.588   3.859   0.523
13109SOL    HW139351   3.661   3.842   0.456
13109SOL    HW239352   3.557   3.772   0.561
13110SOL     OW39353   3.250   5.297   0.477
13110SOL    HW139354   3.317   5.309   0.403
13110SOL    HW239355   3.210   5.386   0.500
13111SOL     OW39356   1.992   5.518   1.851
13111SOL    HW139357   1.951   5.444   1.904
13111SOL    HW239358   2.056   5.569   1.909
13112SOL     OW39359   3.142   4.651   0.672
13112SOL    HW139360   3.202   4.570   0.674
13112SOL    HW239361   3.182   4.720   0.612
13113SOL     OW39362   2.692   4.997   1.422
13113SOL    HW139363   2.687   5.030   1.517
13113SOL    HW239364   2.606   5.016   1.376
13114SOL     OW39365   2.534   5.340   0.154
13114SOL    HW139366   2.543   5.350   0.055
13114SOL    HW239367   2.494   5.251   0.175
13115SOL     OW39368   3.512   5.444   1.394
13115SOL    HW139369   3.565   5.454   1.310
13115SOL    HW239370   3.485   5.534   1.428
13116SOL     OW39371   3.703   3.899   0.963
13116SOL    HW139372   3.742   3.814   0.927
13116SOL    HW239373   3.605   3.901   0.944
13117SOL     OW39374   2.125   4.050   0.720
13117SOL    HW139375   2.046   4.101   0.686
13117SOL    HW239376   2.116   4.035   0.818
13118SOL     OW39377   3.056   5.336   0.031
13118SOL    HW139378   3.062   5.243   0.068
13118SOL    HW239379   2.997   5.336  -0.049
13119SOL     OW39380   2.684   4.726   1.372
13119SOL    HW139381   2.724   4.725   1.280
13119SOL    HW239382   2.694   4.818   1.412
13120SOL     OW39383   2.778   4.634   0.291
13120SOL    HW139384   2.841   4.672   0.223
13120SOL    HW239385   2.818   4.551   0.330
13121SOL     OW39386   3.366   5.331   0.044
13121SOL    HW139387   3.274   5.368   0.051
13121SOL    HW239388   3.404   5.351  -0.046
13122SOL     OW39389   2.234   5.012   1.490
13122SOL    HW139390   2.221   5.105   1.456
13122SOL    HW239391   2.150   4.960   1.477
13123SOL     OW39392   3.476   5.016   1.289
13123SOL    HW139393   3.536   5.019   1.369
13123SOL    HW239394   3.401   5.080   1.302
13124SOL     OW39395   2.901   4.822   0.696
13124SOL    HW139396   2.831   4.775   0.750
13124SOL    HW239397   2.960   4.754   0.653
13125SOL     OW39398   2.876   3.960   0.971
13125SOL    HW139399   2.868   3.924   0.878
13125SOL    HW239400   2.874   3.884   1.036
13126SOL     OW39401   2.452   5.211   0.491
13126SOL    HW139402   2.494   5.153   0.421
13126SOL    HW239403   2.408   5.290   0.447
13127SOL     OW39404   3.571   4.109   1.381
13127SOL    HW139405   3.644   4.178   1.385
13127SOL    HW239406   3.599   4.034   1.322
13128SOL     OW39407   2.117   5.072   0.290
13128SOL    HW139408   2.021   5.073   0.263
13128SOL    HW239409   2.129   5.125   0.374
13129SOL     OW39410   1.967   4.737   1.726
13129SOL    HW139411   1.890   4.704   1.780
13129SOL    HW239412   2.052   4.707   1.768
13130SOL     OW39413   2.534   3.927   1.489
13130SOL    HW139414   2.624   3.911   1.449
13130SOL    HW239415   2.542   3.932   1.588
13131SOL     OW39416   3.302   4.580   1.398
13131SOL    HW139417   3.245   4.632   1.335
13131SOL    HW239418   3.398   4.592   1.374
13132SOL     OW39419   1.934   3.890   0.318
13132SOL    HW139420   1.917   3.973   0.264
13132SOL    HW239421   2.024   3.853   0.296
13133SOL     OW39422   3.045   5.059   0.119
13133SOL    HW139423   2.946   5.048   0.121
13133SOL    HW239424   3.079   5.074   0.212
13134SOL     OW39425   2.475   4.566   1.431
13134SOL    HW139426   2.531   4.647   1.414
13134SOL    HW239427   2.534   4.486   1.434
13135SOL     OW39428   3.355   5.491   0.959
13135SOL    HW139429   3.388   5.555   0.890
13135SOL    HW239430   3.421   5.485   1.034
13136SOL     OW39431   2.578   4.289   1.708
13136SOL    HW139432   2.597   4.354   1.782
13136SOL    HW239433   2.638   4.209   1.717
13137SOL     OW39434   3.312   4.944   1.633
13137SOL    HW139435   3.303   4.934   1.732
13137SOL    HW239436   3.408   4.937   1.607
13138SOL     OW39437   2.252   5.465   1.560
13138SOL    HW139438   2.161   5.506   1.558
13138SOL    HW239439   2.245   5.371   1.592
13139SOL     OW39440   3.536   4.607   1.254
13139SOL    HW139441   3.509   4.518   1.217
13139SOL    HW239442   3.537   4.675   1.181
13140SOL     OW39443   3.087   4.049   0.449
13140SOL    HW139444   3.152   3.975   0.438
13140SOL    HW239445   3.107   4.099   0.533
13141SOL     OW39446   2.456   4.469   0.652
13141SOL    HW139447   2.506   4.554   0.633
13141SOL    HW239448   2.368   4.471   0.604
13142SOL     OW39449   3.639   4.066   1.642
13142SOL    HW139450   3.622   4.097   1.548
13142SOL    HW239451   3.555   4.029   1.680
13143SOL     OW39452   3.592   4.658   1.517
13143SOL    HW139453   3.630   4.749   1.532
13143SOL    HW239454   3.584   4.641   1.418
13144SOL     OW39455   2.721   5.098   0.016
13144SOL    HW139456   2.675   5.113   0.104
13144SOL    HW239457   2.765   5.183  -0.014
13145SOL     OW39458   2.523   5.514   0.953
13145SOL    HW139459   2.477   5.602   0.940
13145SOL    HW239460   2.622   5.526   0.946
13146SOL     OW39461   2.721   4.680   0.861
13146SOL    HW139462   2.775   4.611   0.909
13146SOL    HW239463   2.689   4.749   0.927
13147SOL     OW39464   2.945   4.708   0.087
13147SOL    HW139465   2.922   4.761   0.005
13147SOL    HW239466   3.026   4.652   0.068
13148SOL     OW39467   3.723   5.293   0.851
13148SOL    HW139468   3.652   5.281   0.781
13148SOL    HW239469   3.724   5.214   0.911
13149SOL     OW39470   2.083   5.038   1.844
13149SOL    HW139471   2.018   4.965   1.823
13149SOL    HW239472   2.087   5.052   1.942
13150SOL     OW39473   1.941   4.964   0.653
13150SOL    HW139474   1.940   4.917   0.741
13150SOL    HW239475   2.023   4.936   0.602
13151SOL     OW39476   2.534   5.115   1.624
13151SOL    HW139477   2.456   5.065   1.662
13151SOL    HW239478   2.531   5.210   1.655
13152SOL     OW39479   3.686   3.916   1.227
13152SOL    HW139480   3.682   3.826   1.271
13152SOL    HW239481   3.689   3.905   1.128
13153SOL     OW39482   2.290   4.148   0.520
13153SOL    HW139483   2.320   4.076   0.458
13153SOL    HW239484   2.251   4.108   0.603
13154SOL     OW39485   3.567   5.211   1.104
13154SOL    HW139486   3.474   5.186   1.077
13154SOL    HW239487   3.593   5.161   1.186
13155SOL     OW39488   2.179   4.271   1.280
13155SOL    HW139489   2.217   4.212   1.352
13155SOL    HW239490   2.219   4.245   1.192
13156SOL     OW39491   2.674   5.310   0.687
13156SOL    HW139492   2.706   5.320   0.593
13156SOL    HW239493   2.595   5.248   0.689
13157SOL     OW39494   3.286   3.938   1.112
13157SOL    HW139495   3.338   3.873   1.167
13157SOL    HW239496   3.237   4.001   1.173
13158SOL     OW39497   2.863   3.758   1.154
13158SOL    HW139498   2.800   3.686   1.123
13158SOL    HW239499   2.956   3.722   1.154
13159SOL     OW39500   2.632   5.054   0.301
13159SOL    HW139501   2.586   4.967   0.318
13159SOL    HW239502   2.723   5.051   0.342
13160SOL     OW39503   2.480   5.291   1.284
13160SOL    HW139504   2.475   5.373   1.341
13160SOL    HW239505   2.569   5.288   1.239
13161SOL     OW39506   3.214   3.776   0.168
13161SOL    HW139507   3.249   3.735   0.084
13161SOL    HW239508   3.124   3.738   0.188
13162SOL     OW39509   3.162   4.177   0.691
13162SOL    HW139510   3.103   4.257   0.695
13162SOL    HW239511   3.177   4.142   0.784
13163SOL     OW39512   3.455   3.945   0.882
13163SOL    HW139513   3.371   3.944   0.936
13163SOL    HW239514   3.457   4.028   0.826
13164SOL     OW39515   1.901   4.801   0.300
13164SOL    HW139516   2.000   4.790   0.291
13164SOL    HW239517   1.861   4.715   0.332
13165SOL     OW39518   2.737   5.370   0.337
13165SOL    HW139519   2.660   5.335   0.283
13165SOL    HW239520   2.705   5.441   0.399
13166SOL     OW39521   2.092   4.352   1.975
13166SOL    HW139522   1.999   4.350   2.012
13166SOL    HW239523   2.093   4.313   1.883
13167SOL     OW39524   2.087   3.999   2.858
13167SOL    HW139525   2.122   3.982   2.950
13167SOL    HW239526   1.999   3.954   2.846
13168SOL     OW39527   1.881   4.092   2.509
13168SOL    HW139528   1.799   4.135   2.548
13168SOL    HW239529   1.853   4.019   2.446
13169SOL     OW39530   2.431   4.999   3.027
13169SOL    HW139531   2.338   4.992   2.990
13169SOL    HW239532   2.442   5.088   3.071
13170SOL     OW39533   3.417   5.235   2.565
13170SOL    HW139534   3.360   5.219   2.646
13170SOL    HW239535   3.358   5.245   2.485
13171SOL     OW39536   2.997   4.427   2.579
13171SOL    HW139537   3.054   4.505   2.554
13171SOL    HW239538   2.937   4.453   2.655
13172SOL     OW39539   3.617   4.331   2.093
13172SOL    HW139540   3.605   4.318   1.994
13172SOL    HW239541   3.587   4.250   2.142
13173SOL     OW39542   2.630   4.868   2.885
13173SOL    HW139543   2.552   4.885   2.945
13173SOL    HW239544   2.664   4.955   2.849
13174SOL     OW39545   2.712   4.522   3.685
13174SOL    HW139546   2.708   4.598   3.750
13174SOL    HW239547   2.734   4.558   3.594
13175SOL     OW39548   2.547   4.736   2.527
13175SOL    HW139549   2.616   4.720   2.597
13175SOL    HW239550   2.474   4.793   2.565
13176SOL     OW39551   2.548   4.885   3.665
13176SOL    HW139552   2.608   4.964   3.679
13176SOL    HW239553   2.462   4.916   3.624
13177SOL     OW39554   2.197   5.159   2.923
13177SOL    HW139555   2.119   5.128   2.870
13177SOL    HW239556   2.255   5.217   2.866
13178SOL     OW39557   3.322   5.229   3.201
13178SOL    HW139558   3.346   5.323   3.227
13178SOL    HW239559   3.306   5.175   3.283
13179SOL     OW39560   2.300   4.116   3.361
13179SOL    HW139561   2.382   4.060   3.370
13179SOL    HW239562   2.219   4.058   3.365
13180SOL     OW39563   3.465   4.171   2.599
13180SOL    HW139564   3.391   4.217   2.549
13180SOL    HW239565   3.516   4.239   2.652
13181SOL     OW39566   2.093   5.437   2.345
13181SOL    HW139567   2.127   5.514   2.399
13181SOL    HW239568   2.137   5.437   2.255
13182SOL     OW39569   2.989   5.065   3.552
13182SOL    HW139570   3.036   5.065   3.640
13182SOL    HW239571   2.941   4.978   3.541
13183SOL     OW39572   2.092   5.158   2.400
13183SOL    HW139573   2.066   5.254   2.400
13183SOL    HW239574   2.021   5.104   2.445
13184SOL     OW39575   2.102   4.815   2.748
13184SOL    HW139576   2.116   4.731   2.800
13184SOL    HW239577   2.047   4.879   2.803
13185SOL     OW39578   2.482   5.510   3.301
13185SOL    HW139579   2.390   5.493   3.336
13185SOL    HW239580   2.510   5.602   3.327
13186SOL     OW39581   2.468   4.688   1.985
13186SOL    HW139582   2.475   4.772   1.931
13186SOL    HW239583   2.514   4.701   2.073
13187SOL     OW39584   3.456   3.838   3.342
13187SOL    HW139585   3.438   3.905   3.270
13187SOL    HW239586   3.453   3.884   3.431
13188SOL     OW39587   1.984   4.367   2.425
13188SOL    HW139588   1.939   4.279   2.442
13188SOL    HW239589   1.983   4.421   2.509
13189SOL     OW39590   3.704   5.491   2.221
13189SOL    HW139591   3.758   5.462   2.301
13189SOL    HW239592   3.734   5.581   2.192
13190SOL     OW39593   1.889   5.320   1.979
13190SOL    HW139594   1.870   5.224   2.000
13190SOL    HW239595   1.856   5.378   2.054
13191SOL     OW39596   3.551   4.646   2.474
13191SOL    HW139597   3.646   4.617   2.482
13191SOL    HW239598   3.543   4.711   2.399
13192SOL     OW39599   3.503   4.832   2.294
13192SOL    HW139600   3.589   4.834   2.242
13192SOL    HW239601   3.517   4.879   2.382
13193SOL     OW39602   1.975   4.461   3.459
13193SOL    HW139603   2.063   4.448   3.504
13193SOL    HW239604   1.962   4.558   3.437
13194SOL     OW39605   2.475   5.089   2.588
13194SOL    HW139606   2.426   5.002   2.597
13194SOL    HW239607   2.452   5.132   2.501
13195SOL     OW39608   3.155   4.952   3.285
13195SOL    HW139609   3.192   4.879   3.227
13195SOL    HW239610   3.207   4.957   3.370
13196SOL     OW39611   2.671   3.728   2.364
13196SOL    HW139612   2.711   3.819   2.355
13196SOL    HW239613   2.571   3.736   2.370
13197SOL     OW39614   2.059   4.700   3.126
13197SOL    HW139615   2.148   4.655   3.112
13197SOL    HW239616   1.986   4.635   3.107
13198SOL     OW39617   3.387   4.723   2.052
13198SOL    HW139618   3.324   4.647   2.065
13198SOL    HW239619   3.435   4.741   2.138
13199SOL     OW39620   3.049   5.516   3.478
13199SOL    HW139621   3.073   5.576   3.402
13199SOL    HW239622   3.056   5.421   3.448
13200SOL     OW39623   2.179   3.975   3.663
13200SOL    HW139624   2.250   4.046   3.669
13200SOL    HW239625   2.091   4.014   3.691
13201SOL     OW39626   3.328   5.141   2.815
13201SOL    HW139627   3.269   5.147   2.895
13201SOL    HW239628   3.313   5.053   2.769
13202SOL     OW39629   3.529   5.438   2.434
13202SOL    HW139630   3.488   5.415   2.346
13202SOL    HW239631   3.511   5.364   2.499
13203SOL     OW39632   2.460   4.453   2.132
13203SOL    HW139633   2.484   4.522   2.064
13203SOL    HW239634   2.382   4.486   2.186
13204SOL     OW39635   3.143   4.069   2.806
13204SOL    HW139636   3.057   4.019   2.793
13204SOL    HW239637   3.205   4.015   2.862
13205SOL     OW39638   3.438   5.386   2.169
13205SOL    HW139639   3.527   5.432   2.172
13205SOL    HW239640   3.417   5.362   2.074
13206SOL     OW39641   2.669   4.329   3.327
13206SOL    HW139642   2.622   4.326   3.416
13206SOL    HW239643   2.618   4.274   3.261
13207SOL     OW39644   3.256   4.193   3.536
13207SOL    HW139645   3.236   4.236   3.624
13207SOL    HW239646   3.334   4.131   3.545
13208SOL     OW39647   2.835   4.614   3.434
13208SOL    HW139648   2.881   4.530   3.405
13208SOL    HW239649   2.779   4.648   3.359
13209SOL     OW39650   2.853   4.134   3.104
13209SOL    HW139651   2.776   4.168   3.158
13209SOL    HW239652   2.819   4.083   3.025
13210SOL     OW39653   2.903   4.425   2.291
13210SOL    HW139654   2.929   4.421   2.387
13210SOL    HW239655   2.818   4.374   2.277
13211SOL     OW39656   1.938   4.535   2.651
13211SOL    HW139657   2.037   4.523   2.660
13211SOL    HW239658   1.914   4.630   2.672
13212SOL     OW39659   1.992   5.545   3.433
13212SOL    HW139660   1.982   5.530   3.532
13212SOL    HW239661   1.906   5.581   3.397
13213SOL     OW39662   2.727   4.072   2.057
13213SOL    HW139663   2.786   4.135   2.008
13213SOL    HW239664   2.746   3.978   2.028
13214SOL     OW39665   3.581   4.309   3.693
13214SOL    HW139666   3.555   4.398   3.657
13214SOL    HW239667   3.579   4.241   3.620
13215SOL     OW39668   3.224   4.868   2.407
13215SOL    HW139669   3.307   4.839   2.359
13215SOL    HW239670   3.175   4.935   2.351
13216SOL     OW39671   2.412   3.920   2.747
13216SOL    HW139672   2.407   3.915   2.847
13216SOL    HW239673   2.414   4.016   2.718
13217SOL     OW39674   2.870   5.180   2.339
13217SOL    HW139675   2.824   5.252   2.287
13217SOL    HW239676   2.866   5.200   2.437
13218SOL     OW39677   2.213   5.525   2.715
13218SOL    HW139678   2.263   5.439   2.721
13218SOL    HW239679   2.278   5.602   2.712
13219SOL     OW39680   3.657   4.790   2.735
13219SOL    HW139681   3.595   4.775   2.659
13219SOL    HW239682   3.605   4.801   2.820
13220SOL     OW39683   3.089   5.274   3.368
13220SOL    HW139684   3.095   5.197   3.432
13220SOL    HW239685   3.037   5.248   3.288
13221SOL     OW39686   2.183   4.667   2.104
13221SOL    HW139687   2.265   4.706   2.062
13221SOL    HW239688   2.156   4.585   2.055
13222SOL     OW39689   3.320   4.459   2.590
13222SOL    HW139690   3.315   4.394   2.665
13222SOL    HW239691   3.400   4.518   2.603
13223SOL     OW39692   2.323   4.990   3.589
13223SOL    HW139693   2.273   4.991   3.503
13223SOL    HW239694   2.260   4.972   3.665
13224SOL     OW39695   2.973   5.500   2.099
13224SOL    HW139696   2.913   5.438   2.149
13224SOL    HW239697   3.004   5.456   2.014
13225SOL     OW39698   2.064   4.009   3.360
13225SOL    HW139699   1.984   4.069   3.347
13225SOL    HW239700   2.054   3.960   3.446
13226SOL     OW39701   3.494   5.101   1.943
13226SOL    HW139702   3.462   5.195   1.933
13226SOL    HW239703   3.418   5.038   1.931
13227SOL     OW39704   2.326   5.467   2.185
13227SOL    HW139705   2.359   5.506   2.271
13227SOL    HW239706   2.402   5.460   2.120
13228SOL     OW39707   3.262   3.831   2.288
13228SOL    HW139708   3.238   3.794   2.198
13228SOL    HW239709   3.361   3.847   2.292
13229SOL     OW39710   2.111   5.509   3.103
13229SOL    HW139711   2.168   5.444   3.153
13229SOL    HW239712   2.095   5.476   3.010
13230SOL     OW39713   2.802   5.422   2.766
13230SOL    HW139714   2.882   5.365   2.787
13230SOL    HW239715   2.753   5.382   2.689
13231SOL     OW39716   2.244   4.424   2.342
13231SOL    HW139717   2.289   4.334   2.339
13231SOL    HW239718   2.150   4.413   2.375
13232SOL     OW39719   3.409   3.946   3.591
13232SOL    HW139720   3.404   3.983   3.683
13232SOL    HW239721   3.337   3.877   3.579
13233SOL     OW39722   2.476   3.846   1.979
13233SOL    HW139723   2.574   3.824   1.986
13233SOL    HW239724   2.445   3.829   1.886
13234SOL     OW39725   2.643   3.988   3.611
13234SOL    HW139726   2.710   3.927   3.654
13234SOL    HW239727   2.570   4.007   3.676
13235SOL     OW39728   2.750   5.238   3.057
13235SOL    HW139729   2.727   5.213   2.963
13235SOL    HW239730   2.811   5.169   3.096
13236SOL     OW39731   3.213   4.314   3.295
13236SOL    HW139732   3.241   4.271   3.380
13236SOL    HW239733   3.238   4.410   3.296
13237SOL     OW39734   2.665   5.126   2.786
13237SOL    HW139735   2.755   5.140   2.744
13237SOL    HW239736   2.594   5.128   2.715
13238SOL     OW39737   2.784   4.227   2.761
13238SOL    HW139738   2.759   4.218   2.665
13238SOL    HW239739   2.832   4.145   2.792
13239SOL     OW39740   2.401   3.788   2.374
13239SOL    HW139741   2.320   3.789   2.432
13239SOL    HW239742   2.404   3.871   2.319
13240SOL     OW39743   3.296   4.912   1.903
13240SOL    HW139744   3.328   4.836   1.960
13240SOL    HW239745   3.204   4.939   1.933
13241SOL     OW39746   2.159   3.759   2.033
13241SOL    HW139747   2.208   3.843   2.012
13241SOL    HW239748   2.221   3.694   2.078
13242SOL     OW39749   2.797   3.960   2.342
13242SOL    HW139750   2.749   4.001   2.264
13242SOL    HW239751   2.896   3.958   2.323
13243SOL     OW39752   2.938   4.407   3.326
13243SOL    HW139753   2.858   4.346   3.329
13243SOL    HW239754   3.019   4.354   3.302
13244SOL     OW39755   3.089   5.294   2.655
13244SOL    HW139756   3.110   5.368   2.590
13244SOL    HW239757   3.157   5.294   2.728
13245SOL     OW39758   2.321   4.876   2.603
13245SOL    HW139759   2.250   4.849   2.668
13245SOL    HW239760   2.295   4.848   2.510
13246SOL     OW39761   3.133   5.521   2.453
13246SOL    HW139762   3.177   5.585   2.389
13246SOL    HW239763   3.083   5.573   2.523
13247SOL     OW39764   2.894   4.273   1.878
13247SOL    HW139765   2.853   4.355   1.839
13247SOL    HW239766   2.958   4.299   1.951
13248SOL     OW39767   1.940   4.280   3.248
13248SOL    HW139768   2.032   4.279   3.207
13248SOL    HW239769   1.934   4.354   3.315
13249SOL     OW39770   2.423   3.946   3.009
13249SOL    HW139771   2.461   3.862   3.046
13249SOL    HW239772   2.335   3.965   3.053
13250SOL     OW39773   2.728   4.178   2.504
13250SOL    HW139774   2.696   4.250   2.442
13250SOL    HW239775   2.752   4.097   2.451
13251SOL     OW39776   2.879   3.763   2.615
13251SOL    HW139777   2.807   3.768   2.546
13251SOL    HW239778   2.855   3.694   2.684
13252SOL     OW39779   3.291   4.897   2.729
13252SOL    HW139780   3.236   4.813   2.722
13252SOL    HW239781   3.317   4.926   2.637
13253SOL     OW39782   3.328   4.314   2.854
13253SOL    HW139783   3.298   4.219   2.861
13253SOL    HW239784   3.401   4.330   2.920
13254SOL     OW39785   3.719   4.557   2.239
13254SOL    HW139786   3.761   4.493   2.303
13254SOL    HW239787   3.681   4.506   2.161
13255SOL     OW39788   2.350   5.109   2.036
13255SOL    HW139789   2.263   5.094   2.083
13255SOL    HW239790   2.333   5.135   1.941
13256SOL     OW39791   3.526   5.004   2.519
13256SOL    HW139792   3.625   5.012   2.533
13256SOL    HW239793   3.481   5.088   2.550
13257SOL     OW39794   3.252   4.299   1.940
13257SOL    HW139795   3.198   4.278   2.021
13257SOL    HW239796   3.343   4.258   1.949
13258SOL     OW39797   2.389   3.980   2.190
13258SOL    HW139798   2.416   3.921   2.115
13258SOL    HW239799   2.389   4.075   2.159
13259SOL     OW39800   3.616   4.947   3.450
13259SOL    HW139801   3.707   4.908   3.437
13259SOL    HW239802   3.624   5.043   3.474
13260SOL     OW39803   2.926   5.071   3.202
13260SOL    HW139804   2.846   5.048   3.257
13260SOL    HW239805   3.009   5.045   3.251
13261SOL     OW39806   3.454   5.353   3.487
13261SOL    HW139807   3.481   5.387   3.397
13261SOL    HW239808   3.533   5.315   3.533
13262SOL     OW39809   2.973   4.919   2.962
13262SOL    HW139810   2.933   4.963   3.043
13262SOL    HW239811   2.932   4.956   2.879
13263SOL     OW39812   3.500   4.823   2.941
13263SOL    HW139813   3.505   4.904   3.000
13263SOL    HW239814   3.414   4.825   2.890
13264SOL     OW39815   2.777   3.813   3.264
13264SOL    HW139816   2.802   3.793   3.169
13264SOL    HW239817   2.849   3.869   3.306
13265SOL     OW39818   2.842   4.840   3.581
13265SOL    HW139819   2.743   4.846   3.591
13265SOL    HW239820   2.865   4.760   3.525
13266SOL     OW39821   2.567   4.774   2.230
13266SOL    HW139822   2.553   4.781   2.329
13266SOL    HW239823   2.651   4.723   2.212
13267SOL     OW39824   2.272   4.537   3.113
13267SOL    HW139825   2.358   4.549   3.163
13267SOL    HW239826   2.230   4.450   3.140
13268SOL     OW39827   3.136   4.110   3.124
13268SOL    HW139828   3.157   4.184   3.188
13268SOL    HW239829   3.047   4.127   3.081
13269SOL     OW39830   1.926   5.288   3.193
13269SOL    HW139831   1.880   5.370   3.159
13269SOL    HW239832   2.024   5.307   3.202
13270SOL     OW39833   2.229   4.824   2.363
13270SOL    HW139834   2.222   4.907   2.307
13270SOL    HW239835   2.233   4.744   2.303
13271SOL     OW39836   2.428   4.261   2.727
13271SOL    HW139837   2.440   4.327   2.653
13271SOL    HW239838   2.474   4.295   2.810
13272SOL     OW39839   3.114   5.072   2.250
13272SOL    HW139840   3.164   5.149   2.290
13272SOL    HW239841   3.019   5.074   2.282
13273SOL     OW39842   3.134   5.169   3.004
13273SOL    HW139843   3.181   5.182   3.091
13273SOL    HW239844   3.068   5.095   3.013
13274SOL     OW39845   3.444   4.363   2.334
13274SOL    HW139846   3.413   4.424   2.407
13274SOL    HW239847   3.494   4.415   2.265
13275SOL     OW39848   2.216   5.234   3.191
13275SOL    HW139849   2.195   5.190   3.104
13275SOL    HW239850   2.313   5.260   3.194
13276SOL     OW39851   2.264   4.475   3.460
13276SOL    HW139852   2.332   4.530   3.413
13276SOL    HW239853   2.304   4.387   3.487
13277SOL     OW39854   3.449   4.503   3.532
13277SOL    HW139855   3.357   4.541   3.527
13277SOL    HW239856   3.509   4.550   3.467
13278SOL     OW39857   2.875   3.829   3.632
13278SOL    HW139858   2.881   3.914   3.580
13278SOL    HW239859   2.907   3.753   3.575
13279SOL     OW39860   2.366   3.774   3.602
13279SOL    HW139861   2.324   3.717   3.532
13279SOL    HW239862   2.300   3.843   3.634
13280SOL     OW39863   2.435   4.594   2.891
13280SOL    HW139864   2.479   4.683   2.882
13280SOL    HW239865   2.372   4.594   2.968
13281SOL     OW39866   3.222   4.586   2.907
13281SOL    HW139867   3.147   4.586   2.841
13281SOL    HW239868   3.259   4.494   2.916
13282SOL     OW39869   3.071   4.249   2.137
13282SOL    HW139870   3.084   4.165   2.191
13282SOL    HW239871   3.042   4.323   2.197
13283SOL     OW39872   2.169   3.937   3.093
13283SOL    HW139873   2.146   3.974   3.183
13283SOL    HW239874   2.139   3.842   3.087
13284SOL     OW39875   1.899   5.034   3.144
13284SOL    HW139876   1.952   4.985   3.212
13284SOL    HW239877   1.921   5.132   3.149
13285SOL     OW39878   2.594   4.358   2.926
13285SOL    HW139879   2.653   4.332   2.850
13285SOL    HW239880   2.566   4.454   2.915
13286SOL     OW39881   3.590   4.659   3.716
13286SOL    HW139882   3.544   4.652   3.627
13286SOL    HW239883   3.528   4.703   3.782
13287SOL     OW39884   2.169   3.787   2.480
13287SOL    HW139885   2.158   3.881   2.513
13287SOL    HW239886   2.164   3.724   2.557
13288SOL     OW39887   3.484   4.091   2.236
13288SOL    HW139888   3.486   4.015   2.300
13288SOL    HW239889   3.436   4.168   2.276
13289SOL     OW39890   2.885   4.490   2.828
13289SOL    HW139891   2.900   4.511   2.924
13289SOL    HW239892   2.855   4.395   2.819
13290SOL     OW39893   2.842   5.297   3.562
13290SOL    HW139894   2.822   5.341   3.474
13290SOL    HW239895   2.881   5.206   3.546
13291SOL     OW39896   3.721   5.242   3.467
13291SOL    HW139897   3.735   5.269   3.372
13291SOL    HW239898   3.804   5.264   3.520
13292SOL     OW39899   2.212   4.622   3.666
13292SOL    HW139900   2.288   4.666   3.714
13292SOL    HW239901   2.247   4.575   3.584
13293SOL     OW39902   3.402   3.998   1.987
13293SOL    HW139903   3.341   3.923   2.010
13293SOL    HW239904   3.424   4.050   2.070
13294SOL     OW39905   3.165   4.562   1.904
13294SOL    HW139906   3.199   4.469   1.919
13294SOL    HW239907   3.183   4.589   1.809
13295SOL     OW39908   2.930   5.057   2.711
13295SOL    HW139909   2.937   4.973   2.656
13295SOL    HW239910   2.992   5.126   2.675
13296SOL     OW39911   2.181   4.534   2.811
13296SOL    HW139912   2.274   4.570   2.816
13296SOL    HW239913   2.175   4.449   2.863
13297SOL     OW39914   2.201   4.233   2.868
13297SOL    HW139915   2.149   4.150   2.851
13297SOL    HW239916   2.278   4.238   2.804
13298SOL     OW39917   3.000   4.104   3.540
13298SOL    HW139918   2.955   4.167   3.604
13298SOL    HW239919   3.093   4.135   3.523
13299SOL     OW39920   3.022   3.931   3.339
13299SOL    HW139921   3.022   3.995   3.416
13299SOL    HW239922   3.050   3.979   3.256
13300SOL     OW39923   1.870   5.050   2.062
13300SOL    HW139924   1.777   5.071   2.031
13300SOL    HW239925   1.880   4.951   2.075
13301SOL     OW39926   1.950   5.525   2.789
13301SOL    HW139927   1.908   5.439   2.762
13301SOL    HW239928   2.044   5.528   2.755
13302SOL     OW39929   2.366   5.292   2.772
13302SOL    HW139930   2.432   5.366   2.781
13302SOL    HW239931   2.410   5.213   2.730
13303SOL     OW39932   2.864   4.520   3.100
13303SOL    HW139933   2.905   4.488   3.186
13303SOL    HW239934   2.768   4.493   3.097
13304SOL     OW39935   1.902   4.268   2.976
13304SOL    HW139936   1.987   4.235   2.935
13304SOL    HW239937   1.915   4.283   3.074
13305SOL     OW39938   2.051   4.244   3.584
13305SOL    HW139939   2.110   4.204   3.514
13305SOL    HW239940   1.993   4.315   3.543
13306SOL     OW39941   3.231   4.674   3.522
13306SOL    HW139942   3.270   4.763   3.542
13306SOL    HW239943   3.241   4.654   3.425
13307SOL     OW39944   2.677   4.296   2.187
13307SOL    HW139945   2.684   4.207   2.141
13307SOL    HW239946   2.583   4.330   2.179
13308SOL     OW39947   3.519   4.328   3.068
13308SOL    HW139948   3.481   4.259   3.130
13308SOL    HW239949   3.601   4.292   3.024
13309SOL     OW39950   2.114   5.288   3.606
13309SOL    HW139951   2.084   5.345   3.682
13309SOL    HW239952   2.107   5.191   3.632
13310SOL     OW39953   2.533   4.188   3.131
13310SOL    HW139954   2.499   4.099   3.101
13310SOL    HW239955   2.559   4.242   3.051
13311SOL     OW39956   2.792   5.402   3.327
13311SOL    HW139957   2.768   5.384   3.232
13311SOL    HW239958   2.822   5.496   3.337
13312SOL     OW39959   2.335   4.224   2.053
13312SOL    HW139960   2.396   4.304   2.057
13312SOL    HW239961   2.240   4.255   2.060
13313SOL     OW39962   2.021   4.861   3.328
13313SOL    HW139963   2.043   4.800   3.404
13313SOL    HW239964   2.031   4.812   3.242
13314SOL     OW39965   3.209   4.783   3.096
13314SOL    HW139966   3.233   4.720   3.022
13314SOL    HW239967   3.119   4.823   3.078
13315SOL     OW39968   3.164   4.579   2.171
13315SOL    HW139969   3.078   4.548   2.213
13315SOL    HW239970   3.160   4.565   2.072
13316SOL     OW39971   3.621   5.471   3.016
13316SOL    HW139972   3.682   5.501   2.943
13316SOL    HW239973   3.583   5.382   2.994
13317SOL     OW39974   3.114   5.455   2.990
13317SOL    HW139975   3.198   5.460   2.936
13317SOL    HW239976   3.091   5.359   3.008
13318SOL     OW39977   1.945   4.982   2.884
13318SOL    HW139978   1.940   4.981   2.984
13318SOL    HW239979   1.862   4.941   2.846
13319SOL     OW39980   2.550   5.386   3.578
13319SOL    HW139981   2.494   5.467   3.587
13319SOL    HW239982   2.602   5.390   3.492
13320SOL     OW39983   3.588   3.859   2.385
13320SOL    HW139984   3.661   3.842   2.318
13320SOL    HW239985   3.557   3.772   2.423
13321SOL     OW39986   3.250   5.297   2.339
13321SOL    HW139987   3.317   5.309   2.265
13321SOL    HW239988   3.210   5.386   2.362
13322SOL     OW39989   1.992   5.518   3.713
13322SOL    HW139990   1.951   5.444   3.766
13322SOL    HW239991   2.056   5.569   3.771
13323SOL     OW39992   3.142   4.651   2.534
13323SOL    HW139993   3.202   4.570   2.536
13323SOL    HW239994   3.182   4.720   2.474
13324SOL     OW39995   2.692   4.997   3.284
13324SOL    HW139996   2.687   5.030   3.379
13324SOL    HW239997   2.606   5.016   3.238
13325SOL     OW39998   2.534   5.340   2.016
13325SOL    HW139999   2.543   5.350   1.917
13325SOL    HW240000   2.494   5.251   2.037
13326SOL     OW40001   3.512   5.444   3.256
13326SOL    HW140002   3.565   5.454   3.172
13326SOL    HW240003   3.485   5.534   3.290
13327SOL     OW40004   3.703   3.899   2.825
13327SOL    HW140005   3.742   3.814   2.789
13327SOL    HW240006   3.605   3.901   2.806
13328SOL     OW40007   2.125   4.050   2.582
13328SOL    HW140008   2.046   4.101   2.548
13328SOL    HW240009   2.116   4.035   2.680
13329SOL     OW40010   3.056   5.336   1.893
13329SOL    HW140011   3.062   5.243   1.930
13329SOL    HW240012   2.997   5.336   1.813
13330SOL     OW40013   2.684   4.726   3.234
13330SOL    HW140014   2.724   4.725   3.142
13330SOL    HW240015   2.694   4.818   3.274
13331SOL     OW40016   2.778   4.634   2.153
13331SOL    HW140017   2.841   4.672   2.085
13331SOL    HW240018   2.818   4.551   2.192
13332SOL     OW40019   3.366   5.331   1.906
13332SOL    HW140020   3.274   5.368   1.913
13332SOL    HW240021   3.404   5.351   1.816
13333SOL     OW40022   2.234   5.012   3.352
13333SOL    HW140023   2.221   5.105   3.318
13333SOL    HW240024   2.150   4.960   3.339
13334SOL     OW40025   3.476   5.016   3.151
13334SOL    HW140026   3.536   5.019   3.231
13334SOL    HW240027   3.401   5.080   3.164
13335SOL     OW40028   2.901   4.822   2.558
13335SOL    HW140029   2.831   4.775   2.612
13335SOL    HW240030   2.960   4.754   2.515
13336SOL     OW40031   2.876   3.960   2.833
13336SOL    HW140032   2.868   3.924   2.740
13336SOL    HW240033   2.874   3.884   2.898
13337SOL     OW40034   2.452   5.211   2.353
13337SOL    HW140035   2.494   5.153   2.283
13337SOL    HW240036   2.408   5.290   2.309
13338SOL     OW40037   3.571   4.109   3.243
13338SOL    HW140038   3.644   4.178   3.247
13338SOL    HW240039   3.599   4.034   3.184
13339SOL     OW40040   2.117   5.072   2.152
13339SOL    HW140041   2.021   5.073   2.125
13339SOL    HW240042   2.129   5.125   2.236
13340SOL     OW40043   1.967   4.737   3.588
13340SOL    HW140044   1.890   4.704   3.642
13340SOL    HW240045   2.052   4.707   3.630
13341SOL     OW40046   2.534   3.927   3.351
13341SOL    HW140047   2.624   3.911   3.311
13341SOL    HW240048   2.542   3.932   3.450
13342SOL     OW40049   1.937   4.069   1.895
13342SOL    HW140050   1.845   4.041   1.866
13342SOL    HW240051   1.968   4.146   1.839
13343SOL     OW40052   3.302   4.580   3.260
13343SOL    HW140053   3.245   4.632   3.197
13343SOL    HW240054   3.398   4.592   3.236
13344SOL     OW40055   1.934   3.890   2.180
13344SOL    HW140056   1.917   3.973   2.126
13344SOL    HW240057   2.024   3.853   2.158
13345SOL     OW40058   3.045   5.059   1.981
13345SOL    HW140059   2.946   5.048   1.983
13345SOL    HW240060   3.079   5.074   2.074
13346SOL     OW40061   2.475   4.566   3.293
13346SOL    HW140062   2.531   4.647   3.276
13346SOL    HW240063   2.534   4.486   3.296
13347SOL     OW40064   3.355   5.491   2.821
13347SOL    HW140065   3.388   5.555   2.752
13347SOL    HW240066   3.421   5.485   2.896
13348SOL     OW40067   2.578   4.289   3.570
13348SOL    HW140068   2.597   4.354   3.644
13348SOL    HW240069   2.638   4.209   3.579
13349SOL     OW40070   3.312   4.944   3.495
13349SOL    HW140071   3.303   4.934   3.594
13349SOL    HW240072   3.408   4.937   3.469
13350SOL     OW40073   2.252   5.465   3.422
13350SOL    HW140074   2.161   5.506   3.420
13350SOL    HW240075   2.245   5.371   3.454
13351SOL     OW40076   3.536   4.607   3.116
13351SOL    HW140077   3.509   4.518   3.079
13351SOL    HW240078   3.537   4.675   3.043
13352SOL     OW40079   3.087   4.049   2.311
13352SOL    HW140080   3.152   3.975   2.300
13352SOL    HW240081   3.107   4.099   2.395
13353SOL     OW40082   2.456   4.469   2.514
13353SOL    HW140083   2.506   4.554   2.495
13353SOL    HW240084   2.368   4.471   2.466
13354SOL     OW40085   3.639   4.066   3.504
13354SOL    HW140086   3.622   4.097   3.410
13354SOL    HW240087   3.555   4.029   3.542
13355SOL     OW40088   3.592   4.658   3.379
13355SOL    HW140089   3.630   4.749   3.394
13355SOL    HW240090   3.584   4.641   3.280
13356SOL     OW40091   2.721   5.098   1.878
13356SOL    HW140092   2.675   5.113   1.966
13356SOL    HW240093   2.765   5.183   1.848
13357SOL     OW40094   2.523   5.514   2.815
13357SOL    HW140095   2.477   5.602   2.802
13357SOL    HW240096   2.622   5.526   2.808
13358SOL     OW40097   2.721   4.680   2.723
13358SOL    HW140098   2.775   4.611   2.771
13358SOL    HW240099   2.689   4.749   2.789
13359SOL     OW40100   2.945   4.708   1.949
13359SOL    HW140101   2.922   4.761   1.867
13359SOL    HW240102   3.026   4.652   1.930
13360SOL     OW40103   3.723   5.293   2.713
13360SOL    HW140104   3.652   5.281   2.643
13360SOL    HW240105   3.724   5.214   2.773
13361SOL     OW40106   2.083   5.038   3.706
13361SOL    HW140107   2.018   4.965   3.685
13361SOL    HW240108   2.087   5.052   3.804
13362SOL     OW40109   1.941   4.964   2.515
13362SOL    HW140110   1.940   4.917   2.603
13362SOL    HW240111   2.023   4.936   2.464
13363SOL     OW40112   2.534   5.115   3.486
13363SOL    HW140113   2.456   5.065   3.524
13363SOL    HW240114   2.531   5.210   3.517
13364SOL     OW40115   3.686   3.916   3.089
13364SOL    HW140116   3.682   3.826   3.133
13364SOL    HW240117   3.689   3.905   2.990
13365SOL     OW40118   2.290   4.148   2.382
13365SOL    HW140119   2.320   4.076   2.320
13365SOL    HW240120   2.251   4.108   2.465
13366SOL     OW40121   3.567   5.211   2.966
13366SOL    HW140122   3.474   5.186   2.939
13366SOL    HW240123   3.593   5.161   3.048
13367SOL     OW40124   2.179   4.271   3.142
13367SOL    HW140125   2.217   4.212   3.214
13367SOL    HW240126   2.219   4.245   3.054
13368SOL     OW40127   2.674   5.310   2.549
13368SOL    HW140128   2.706   5.320   2.455
13368SOL    HW240129   2.595   5.248   2.551
13369SOL     OW40130   3.286   3.938   2.974
13369SOL    HW140131   3.338   3.873   3.029
13369SOL    HW240132   3.237   4.001   3.035
13370SOL     OW40133   2.863   3.758   3.016
13370SOL    HW140134   2.800   3.686   2.985
13370SOL    HW240135   2.956   3.722   3.016
13371SOL     OW40136   2.632   5.054   2.163
13371SOL    HW140137   2.586   4.967   2.180
13371SOL    HW240138   2.723   5.051   2.204
13372SOL     OW40139   2.480   5.291   3.146
13372SOL    HW140140   2.475   5.373   3.203
13372SOL    HW240141   2.569   5.288   3.101
13373SOL     OW40142   3.214   3.776   2.030
13373SOL    HW140143   3.249   3.735   1.946
13373SOL    HW240144   3.124   3.738   2.050
13374SOL     OW40145   3.162   4.177   2.553
13374SOL    HW140146   3.103   4.257   2.557
13374SOL    HW240147   3.177   4.142   2.646
13375SOL     OW40148   3.455   3.945   2.744
13375SOL    HW140149   3.371   3.944   2.798
13375SOL    HW240150   3.457   4.028   2.688
13376SOL     OW40151   1.901   4.801   2.162
13376SOL    HW140152   2.000   4.790   2.153
13376SOL    HW240153   1.861   4.715   2.194
13377SOL     OW40154   2.737   5.370   2.199
13377SOL    HW140155   2.660   5.335   2.145
13377SOL    HW240156   2.705   5.441   2.261
13378SOL     OW40157   2.092   4.352   3.837
13378SOL    HW140158   1.999   4.350   3.874
13378SOL    HW240159   2.093   4.313   3.745
13379SOL     OW40160   2.087   3.999   4.720
13379SOL    HW140161   2.122   3.982   4.812
13379SOL    HW240162   1.999   3.954   4.708
13380SOL     OW40163   1.881   4.092   4.371
13380SOL    HW140164   1.799   4.135   4.410
13380SOL    HW240165   1.853   4.019   4.308
13381SOL     OW40166   2.431   4.999   4.889
13381SOL    HW140167   2.338   4.992   4.852
13381SOL    HW240168   2.442   5.088   4.933
13382SOL     OW40169   3.417   5.235   4.427
13382SOL    HW140170   3.360   5.219   4.508
13382SOL    HW240171   3.358   5.245   4.347
13383SOL     OW40172   2.997   4.427   4.441
13383SOL    HW140173   3.054   4.505   4.416
13383SOL    HW240174   2.937   4.453   4.517
13384SOL     OW40175   3.617   4.331   3.955
13384SOL    HW140176   3.605   4.318   3.856
13384SOL    HW240177   3.587   4.250   4.004
13385SOL     OW40178   2.630   4.868   4.747
13385SOL    HW140179   2.552   4.885   4.807
13385SOL    HW240180   2.664   4.955   4.711
13386SOL     OW40181   2.712   4.522   5.547
13386SOL    HW140182   2.708   4.598   5.612
13386SOL    HW240183   2.734   4.558   5.456
13387SOL     OW40184   2.547   4.736   4.389
13387SOL    HW140185   2.616   4.720   4.459
13387SOL    HW240186   2.474   4.793   4.427
13388SOL     OW40187   2.548   4.885   5.527
13388SOL    HW140188   2.608   4.964   5.541
13388SOL    HW240189   2.462   4.916   5.486
13389SOL     OW40190   2.197   5.159   4.785
13389SOL    HW140191   2.119   5.128   4.732
13389SOL    HW240192   2.255   5.217   4.728
13390SOL     OW40193   3.322   5.229   5.063
13390SOL    HW140194   3.346   5.323   5.089
13390SOL    HW240195   3.306   5.175   5.145
13391SOL     OW40196   2.300   4.116   5.223
13391SOL    HW140197   2.382   4.060   5.232
13391SOL    HW240198   2.219   4.058   5.227
13392SOL     OW40199   3.465   4.171   4.461
13392SOL    HW140200   3.391   4.217   4.411
13392SOL    HW240201   3.516   4.239   4.514
13393SOL     OW40202   2.093   5.437   4.207
13393SOL    HW140203   2.127   5.514   4.261
13393SOL    HW240204   2.137   5.437   4.117
13394SOL     OW40205   2.989   5.065   5.414
13394SOL    HW140206   3.036   5.065   5.502
13394SOL    HW240207   2.941   4.978   5.403
13395SOL     OW40208   2.092   5.158   4.262
13395SOL    HW140209   2.066   5.254   4.262
13395SOL    HW240210   2.021   5.104   4.307
13396SOL     OW40211   2.102   4.815   4.610
13396SOL    HW140212   2.116   4.731   4.662
13396SOL    HW240213   2.047   4.879   4.665
13397SOL     OW40214   2.482   5.510   5.163
13397SOL    HW140215   2.390   5.493   5.198
13397SOL    HW240216   2.510   5.602   5.189
13398SOL     OW40217   2.468   4.688   3.847
13398SOL    HW140218   2.475   4.772   3.793
13398SOL    HW240219   2.514   4.701   3.935
13399SOL     OW40220   3.456   3.838   5.204
13399SOL    HW140221   3.438   3.905   5.132
13399SOL    HW240222   3.453   3.884   5.293
13400SOL     OW40223   1.984   4.367   4.287
13400SOL    HW140224   1.939   4.279   4.304
13400SOL    HW240225   1.983   4.421   4.371
13401SOL     OW40226   3.704   5.491   4.083
13401SOL    HW140227   3.758   5.462   4.163
13401SOL    HW240228   3.734   5.581   4.054
13402SOL     OW40229   1.889   5.320   3.841
13402SOL    HW140230   1.870   5.224   3.862
13402SOL    HW240231   1.856   5.378   3.916
13403SOL     OW40232   3.551   4.646   4.336
13403SOL    HW140233   3.646   4.617   4.344
13403SOL    HW240234   3.543   4.711   4.261
13404SOL     OW40235   3.503   4.832   4.156
13404SOL    HW140236   3.589   4.834   4.104
13404SOL    HW240237   3.517   4.879   4.244
13405SOL     OW40238   1.975   4.461   5.321
13405SOL    HW140239   2.063   4.448   5.366
13405SOL    HW240240   1.962   4.558   5.299
13406SOL     OW40241   2.475   5.089   4.450
13406SOL    HW140242   2.426   5.002   4.459
13406SOL    HW240243   2.452   5.132   4.363
13407SOL     OW40244   3.155   4.952   5.147
13407SOL    HW140245   3.192   4.879   5.089
13407SOL    HW240246   3.207   4.957   5.232
13408SOL     OW40247   2.671   3.728   4.226
13408SOL    HW140248   2.711   3.819   4.217
13408SOL    HW240249   2.571   3.736   4.232
13409SOL     OW40250   2.059   4.700   4.988
13409SOL    HW140251   2.148   4.655   4.974
13409SOL    HW240252   1.986   4.635   4.969
13410SOL     OW40253   3.387   4.723   3.914
13410SOL    HW140254   3.324   4.647   3.927
13410SOL    HW240255   3.435   4.741   4.000
13411SOL     OW40256   3.049   5.516   5.340
13411SOL    HW140257   3.073   5.576   5.264
13411SOL    HW240258   3.056   5.421   5.310
13412SOL     OW40259   2.179   3.975   5.525
13412SOL    HW140260   2.250   4.046   5.531
13412SOL    HW240261   2.091   4.014   5.553
13413SOL     OW40262   3.328   5.141   4.677
13413SOL    HW140263   3.269   5.147   4.757
13413SOL    HW240264   3.313   5.053   4.631
13414SOL     OW40265   3.529   5.438   4.296
13414SOL    HW140266   3.488   5.415   4.208
13414SOL    HW240267   3.511   5.364   4.361
13415SOL     OW40268   2.460   4.453   3.994
13415SOL    HW140269   2.484   4.522   3.926
13415SOL    HW240270   2.382   4.486   4.048
13416SOL     OW40271   3.143   4.069   4.668
13416SOL    HW140272   3.057   4.019   4.655
13416SOL    HW240273   3.205   4.015   4.724
13417SOL     OW40274   3.438   5.386   4.031
13417SOL    HW140275   3.527   5.432   4.034
13417SOL    HW240276   3.417   5.362   3.936
13418SOL     OW40277   2.669   4.329   5.189
13418SOL    HW140278   2.622   4.326   5.278
13418SOL    HW240279   2.618   4.274   5.123
13419SOL     OW40280   3.256   4.193   5.398
13419SOL    HW140281   3.236   4.236   5.486
13419SOL    HW240282   3.334   4.131   5.407
13420SOL     OW40283   2.835   4.614   5.296
13420SOL    HW140284   2.881   4.530   5.267
13420SOL    HW240285   2.779   4.648   5.221
13421SOL     OW40286   2.853   4.134   4.966
13421SOL    HW140287   2.776   4.168   5.020
13421SOL    HW240288   2.819   4.083   4.887
13422SOL     OW40289   2.903   4.425   4.153
13422SOL    HW140290   2.929   4.421   4.249
13422SOL    HW240291   2.818   4.374   4.139
13423SOL     OW40292   1.938   4.535   4.513
13423SOL    HW140293   2.037   4.523   4.522
13423SOL    HW240294   1.914   4.630   4.534
13424SOL     OW40295   1.992   5.545   5.295
13424SOL    HW140296   1.982   5.530   5.394
13424SOL    HW240297   1.906   5.581   5.259
13425SOL     OW40298   2.727   4.072   3.919
13425SOL    HW140299   2.786   4.135   3.870
13425SOL    HW240300   2.746   3.978   3.890
13426SOL     OW40301   3.581   4.309   5.555
13426SOL    HW140302   3.555   4.398   5.519
13426SOL    HW240303   3.579   4.241   5.482
13427SOL     OW40304   3.224   4.868   4.269
13427SOL    HW140305   3.307   4.839   4.221
13427SOL    HW240306   3.175   4.935   4.213
13428SOL     OW40307   2.412   3.920   4.609
13428SOL    HW140308   2.407   3.915   4.709
13428SOL    HW240309   2.414   4.016   4.580
13429SOL     OW40310   2.870   5.180   4.201
13429SOL    HW140311   2.824   5.252   4.149
13429SOL    HW240312   2.866   5.200   4.299
13430SOL     OW40313   2.213   5.525   4.577
13430SOL    HW140314   2.263   5.439   4.583
13430SOL    HW240315   2.278   5.602   4.574
13431SOL     OW40316   3.657   4.790   4.597
13431SOL    HW140317   3.595   4.775   4.521
13431SOL    HW240318   3.605   4.801   4.682
13432SOL     OW40319   3.089   5.274   5.230
13432SOL    HW140320   3.095   5.197   5.294
13432SOL    HW240321   3.037   5.248   5.150
13433SOL     OW40322   2.183   4.667   3.966
13433SOL    HW140323   2.265   4.706   3.924
13433SOL    HW240324   2.156   4.585   3.917
13434SOL     OW40325   3.320   4.459   4.452
13434SOL    HW140326   3.315   4.394   4.527
13434SOL    HW240327   3.400   4.518   4.465
13435SOL     OW40328   2.323   4.990   5.451
13435SOL    HW140329   2.273   4.991   5.365
13435SOL    HW240330   2.260   4.972   5.527
13436SOL     OW40331   2.973   5.500   3.961
13436SOL    HW140332   2.913   5.438   4.011
13436SOL    HW240333   3.004   5.456   3.876
13437SOL     OW40334   2.064   4.009   5.222
13437SOL    HW140335   1.984   4.069   5.209
13437SOL    HW240336   2.054   3.960   5.308
13438SOL     OW40337   3.494   5.101   3.805
13438SOL    HW140338   3.462   5.195   3.795
13438SOL    HW240339   3.418   5.038   3.793
13439SOL     OW40340   2.326   5.467   4.047
13439SOL    HW140341   2.359   5.506   4.133
13439SOL    HW240342   2.402   5.460   3.982
13440SOL     OW40343   3.262   3.831   4.150
13440SOL    HW140344   3.238   3.794   4.060
13440SOL    HW240345   3.361   3.847   4.154
13441SOL     OW40346   2.111   5.509   4.965
13441SOL    HW140347   2.168   5.444   5.015
13441SOL    HW240348   2.095   5.476   4.872
13442SOL     OW40349   2.802   5.422   4.628
13442SOL    HW140350   2.882   5.365   4.649
13442SOL    HW240351   2.753   5.382   4.551
13443SOL     OW40352   2.244   4.424   4.204
13443SOL    HW140353   2.289   4.334   4.201
13443SOL    HW240354   2.150   4.413   4.237
13444SOL     OW40355   3.409   3.946   5.453
13444SOL    HW140356   3.404   3.983   5.545
13444SOL    HW240357   3.337   3.877   5.441
13445SOL     OW40358   2.476   3.846   3.841
13445SOL    HW140359   2.574   3.824   3.848
13445SOL    HW240360   2.445   3.829   3.748
13446SOL     OW40361   2.643   3.988   5.473
13446SOL    HW140362   2.710   3.927   5.516
13446SOL    HW240363   2.570   4.007   5.538
13447SOL     OW40364   2.750   5.238   4.919
13447SOL    HW140365   2.727   5.213   4.825
13447SOL    HW240366   2.811   5.169   4.958
13448SOL     OW40367   3.213   4.314   5.157
13448SOL    HW140368   3.241   4.271   5.242
13448SOL    HW240369   3.238   4.410   5.158
13449SOL     OW40370   2.665   5.126   4.648
13449SOL    HW140371   2.755   5.140   4.606
13449SOL    HW240372   2.594   5.128   4.577
13450SOL     OW40373   2.784   4.227   4.623
13450SOL    HW140374   2.759   4.218   4.527
13450SOL    HW240375   2.832   4.145   4.654
13451SOL     OW40376   2.401   3.788   4.236
13451SOL    HW140377   2.320   3.789   4.294
13451SOL    HW240378   2.404   3.871   4.181
13452SOL     OW40379   3.296   4.912   3.765
13452SOL    HW140380   3.328   4.836   3.822
13452SOL    HW240381   3.204   4.939   3.795
13453SOL     OW40382   2.159   3.759   3.895
13453SOL    HW140383   2.208   3.843   3.874
13453SOL    HW240384   2.221   3.694   3.940
13454SOL     OW40385   2.797   3.960   4.204
13454SOL    HW140386   2.749   4.001   4.126
13454SOL    HW240387   2.896   3.958   4.185
13455SOL     OW40388   2.938   4.407   5.188
13455SOL    HW140389   2.858   4.346   5.191
13455SOL    HW240390   3.019   4.354   5.164
13456SOL     OW40391   3.089   5.294   4.517
13456SOL    HW140392   3.110   5.368   4.452
13456SOL    HW240393   3.157   5.294   4.590
13457SOL     OW40394   2.321   4.876   4.465
13457SOL    HW140395   2.250   4.849   4.530
13457SOL    HW240396   2.295   4.848   4.372
13458SOL     OW40397   3.133   5.521   4.315
13458SOL    HW140398   3.177   5.585   4.251
13458SOL    HW240399   3.083   5.573   4.385
13459SOL     OW40400   2.894   4.273   3.740
13459SOL    HW140401   2.853   4.355   3.701
13459SOL    HW240402   2.958   4.299   3.813
13460SOL     OW40403   1.940   4.280   5.110
13460SOL    HW140404   2.032   4.279   5.069
13460SOL    HW240405   1.934   4.354   5.177
13461SOL     OW40406   2.423   3.946   4.871
13461SOL    HW140407   2.461   3.862   4.908
13461SOL    HW240408   2.335   3.965   4.915
13462SOL     OW40409   2.728   4.178   4.366
13462SOL    HW140410   2.696   4.250   4.304
13462SOL    HW240411   2.752   4.097   4.313
13463SOL     OW40412   2.879   3.763   4.477
13463SOL    HW140413   2.807   3.768   4.408
13463SOL    HW240414   2.855   3.694   4.546
13464SOL     OW40415   3.291   4.897   4.591
13464SOL    HW140416   3.236   4.813   4.584
13464SOL    HW240417   3.317   4.926   4.499
13465SOL     OW40418   3.328   4.314   4.716
13465SOL    HW140419   3.298   4.219   4.723
13465SOL    HW240420   3.401   4.330   4.782
13466SOL     OW40421   3.719   4.557   4.101
13466SOL    HW140422   3.761   4.493   4.165
13466SOL    HW240423   3.681   4.506   4.023
13467SOL     OW40424   2.350   5.109   3.898
13467SOL    HW140425   2.263   5.094   3.945
13467SOL    HW240426   2.333   5.135   3.803
13468SOL     OW40427   3.526   5.004   4.381
13468SOL    HW140428   3.625   5.012   4.395
13468SOL    HW240429   3.481   5.088   4.412
13469SOL     OW40430   3.252   4.299   3.802
13469SOL    HW140431   3.198   4.278   3.883
13469SOL    HW240432   3.343   4.258   3.811
13470SOL     OW40433   2.389   3.980   4.052
13470SOL    HW140434   2.416   3.921   3.977
13470SOL    HW240435   2.389   4.075   4.021
13471SOL     OW40436   3.616   4.947   5.312
13471SOL    HW140437   3.707   4.908   5.299
13471SOL    HW240438   3.624   5.043   5.336
13472SOL     OW40439   2.926   5.071   5.064
13472SOL    HW140440   2.846   5.048   5.119
13472SOL    HW240441   3.009   5.045   5.113
13473SOL     OW40442   3.454   5.353   5.349
13473SOL    HW140443   3.481   5.387   5.259
13473SOL    HW240444   3.533   5.315   5.395
13474SOL     OW40445   2.973   4.919   4.824
13474SOL    HW140446   2.933   4.963   4.905
13474SOL    HW240447   2.932   4.956   4.741
13475SOL     OW40448   3.500   4.823   4.803
13475SOL    HW140449   3.505   4.904   4.862
13475SOL    HW240450   3.414   4.825   4.752
13476SOL     OW40451   2.777   3.813   5.126
13476SOL    HW140452   2.802   3.793   5.031
13476SOL    HW240453   2.849   3.869   5.168
13477SOL     OW40454   2.842   4.840   5.443
13477SOL    HW140455   2.743   4.846   5.453
13477SOL    HW240456   2.865   4.760   5.387
13478SOL     OW40457   2.567   4.774   4.092
13478SOL    HW140458   2.553   4.781   4.191
13478SOL    HW240459   2.651   4.723   4.074
13479SOL     OW40460   2.272   4.537   4.975
13479SOL    HW140461   2.358   4.549   5.025
13479SOL    HW240462   2.230   4.450   5.002
13480SOL     OW40463   3.136   4.110   4.986
13480SOL    HW140464   3.157   4.184   5.050
13480SOL    HW240465   3.047   4.127   4.943
13481SOL     OW40466   1.926   5.288   5.055
13481SOL    HW140467   1.880   5.370   5.021
13481SOL    HW240468   2.024   5.307   5.064
13482SOL     OW40469   2.229   4.824   4.225
13482SOL    HW140470   2.222   4.907   4.169
13482SOL    HW240471   2.233   4.744   4.165
13483SOL     OW40472   2.428   4.261   4.589
13483SOL    HW140473   2.440   4.327   4.515
13483SOL    HW240474   2.474   4.295   4.672
13484SOL     OW40475   3.114   5.072   4.112
13484SOL    HW140476   3.164   5.149   4.152
13484SOL    HW240477   3.019   5.074   4.144
13485SOL     OW40478   3.134   5.169   4.866
13485SOL    HW140479   3.181   5.182   4.953
13485SOL    HW240480   3.068   5.095   4.875
13486SOL     OW40481   3.444   4.363   4.196
13486SOL    HW140482   3.413   4.424   4.269
13486SOL    HW240483   3.494   4.415   4.127
13487SOL     OW40484   2.216   5.234   5.053
13487SOL    HW140485   2.195   5.190   4.966
13487SOL    HW240486   2.313   5.260   5.056
13488SOL     OW40487   2.264   4.475   5.322
13488SOL    HW140488   2.332   4.530   5.275
13488SOL    HW240489   2.304   4.387   5.349
13489SOL     OW40490   3.449   4.503   5.394
13489SOL    HW140491   3.357   4.541   5.389
13489SOL    HW240492   3.509   4.550   5.329
13490SOL     OW40493   2.875   3.829   5.494
13490SOL    HW140494   2.881   3.914   5.442
13490SOL    HW240495   2.907   3.753   5.437
13491SOL     OW40496   2.366   3.774   5.464
13491SOL    HW140497   2.324   3.717   5.394
13491SOL    HW240498   2.300   3.843   5.496
13492SOL     OW40499   2.435   4.594   4.753
13492SOL    HW140500   2.479   4.683   4.744
13492SOL    HW240501   2.372   4.594   4.830
13493SOL     OW40502   3.222   4.586   4.769
13493SOL    HW140503   3.147   4.586   4.703
13493SOL    HW240504   3.259   4.494   4.778
13494SOL     OW40505   3.071   4.249   3.999
13494SOL    HW140506   3.084   4.165   4.053
13494SOL    HW240507   3.042   4.323   4.059
13495SOL     OW40508   2.169   3.937   4.955
13495SOL    HW140509   2.146   3.974   5.045
13495SOL    HW240510   2.139   3.842   4.949
13496SOL     OW40511   1.899   5.034   5.006
13496SOL    HW140512   1.952   4.985   5.074
13496SOL    HW240513   1.921   5.132   5.011
13497SOL     OW40514   2.594   4.358   4.788
13497SOL    HW140515   2.653   4.332   4.712
13497SOL    HW240516   2.566   4.454   4.777
13498SOL     OW40517   3.590   4.659   5.578
13498SOL    HW140518   3.544   4.652   5.489
13498SOL    HW240519   3.528   4.703   5.644
13499SOL     OW40520   2.169   3.787   4.342
13499SOL    HW140521   2.158   3.881   4.375
13499SOL    HW240522   2.164   3.724   4.419
13500SOL     OW40523   3.484   4.091   4.098
13500SOL    HW140524   3.486   4.015   4.162
13500SOL    HW240525   3.436   4.168   4.138
13501SOL     OW40526   2.885   4.490   4.690
13501SOL    HW140527   2.900   4.511   4.786
13501SOL    HW240528   2.855   4.395   4.681
13502SOL     OW40529   2.842   5.297   5.424
13502SOL    HW140530   2.822   5.341   5.336
13502SOL    HW240531   2.881   5.206   5.408
13503SOL     OW40532   3.721   5.242   5.329
13503SOL    HW140533   3.735   5.269   5.234
13503SOL    HW240534   3.804   5.264   5.382
13504SOL     OW40535   2.212   4.622   5.528
13504SOL    HW140536   2.288   4.666   5.576
13504SOL    HW240537   2.247   4.575   5.446
13505SOL     OW40538   3.402   3.998   3.849
13505SOL    HW140539   3.341   3.923   3.872
13505SOL    HW240540   3.424   4.050   3.932
13506SOL     OW40541   3.165   4.562   3.766
13506SOL    HW140542   3.199   4.469   3.781
13506SOL    HW240543   3.183   4.589   3.671
13507SOL     OW40544   2.930   5.057   4.573
13507SOL    HW140545   2.937   4.973   4.518
13507SOL    HW240546   2.992   5.126   4.537
13508SOL     OW40547   2.181   4.534   4.673
13508SOL    HW140548   2.274   4.570   4.678
13508SOL    HW240549   2.175   4.449   4.725
13509SOL     OW40550   2.201   4.233   4.730
13509SOL    HW140551   2.149   4.150   4.713
13509SOL    HW240552   2.278   4.238   4.666
13510SOL     OW40553   3.000   4.104   5.402
13510SOL    HW140554   2.955   4.167   5.466
13510SOL    HW240555   3.093   4.135   5.385
13511SOL     OW40556   3.022   3.931   5.201
13511SOL    HW140557   3.022   3.995   5.278
13511SOL    HW240558   3.050   3.979   5.118
13512SOL     OW40559   1.870   5.050   3.924
13512SOL    HW140560   1.777   5.071   3.893
13512SOL    HW240561   1.880   4.951   3.937
13513SOL     OW40562   1.950   5.525   4.651
13513SOL    HW140563   1.908   5.439   4.624
13513SOL    HW240564   2.044   5.528   4.617
13514SOL     OW40565   2.366   5.292   4.634
13514SOL    HW140566   2.432   5.366   4.643
13514SOL    HW240567   2.410   5.213   4.592
13515SOL     OW40568   2.864   4.520   4.962
13515SOL    HW140569   2.905   4.488   5.048
13515SOL    HW240570   2.768   4.493   4.959
13516SOL     OW40571   1.902   4.268   4.838
13516SOL    HW140572   1.987   4.235   4.797
13516SOL    HW240573   1.915   4.283   4.936
13517SOL     OW40574   2.051   4.244   5.446
13517SOL    HW140575   2.110   4.204   5.376
13517SOL    HW240576   1.993   4.315   5.405
13518SOL     OW40577   3.231   4.674   5.384
13518SOL    HW140578   3.270   4.763   5.404
13518SOL    HW240579   3.241   4.654   5.287
13519SOL     OW40580   2.677   4.296   4.049
13519SOL    HW140581   2.684   4.207   4.003
13519SOL    HW240582   2.583   4.330   4.041
13520SOL     OW40583   3.519   4.328   4.930
13520SOL    HW140584   3.481   4.259   4.992
13520SOL    HW240585   3.601   4.292   4.886
13521SOL     OW40586   2.114   5.288   5.468
13521SOL    HW140587   2.084   5.345   5.544
13521SOL    HW240588   2.107   5.191   5.494
13522SOL     OW40589   2.533   4.188   4.993
13522SOL    HW140590   2.499   4.099   4.963
13522SOL    HW240591   2.559   4.242   4.913
13523SOL     OW40592   2.792   5.402   5.189
13523SOL    HW140593   2.768   5.384   5.094
13523SOL    HW240594   2.822   5.496   5.199
13524SOL     OW40595   2.335   4.224   3.915
13524SOL    HW140596   2.396   4.304   3.919
13524SOL    HW240597   2.240   4.255   3.922
13525SOL     OW40598   2.021   4.861   5.190
13525SOL    HW140599   2.043   4.800   5.266
13525SOL    HW240600   2.031   4.812   5.104
13526SOL     OW40601   3.209   4.783   4.958
13526SOL    HW140602   3.233   4.720   4.884
13526SOL    HW240603   3.119   4.823   4.940
13527SOL     OW40604   3.164   4.579   4.033
13527SOL    HW140605   3.078   4.548   4.075
13527SOL    HW240606   3.160   4.565   3.934
13528SOL     OW40607   3.621   5.471   4.878
13528SOL    HW140608   3.682   5.501   4.805
13528SOL    HW240609   3.583   5.382   4.856
13529SOL     OW40610   3.114   5.455   4.852
13529SOL    HW140611   3.198   5.460   4.798
13529SOL    HW240612   3.091   5.359   4.870
13530SOL     OW40613   1.945   4.982   4.746
13530SOL    HW140614   1.940   4.981   4.846
13530SOL    HW240615   1.862   4.941   4.708
13531SOL     OW40616   2.550   5.386   5.440
13531SOL    HW140617   2.494   5.467   5.449
13531SOL    HW240618   2.602   5.390   5.354
13532SOL     OW40619   3.588   3.859   4.247
13532SOL    HW140620   3.661   3.842   4.180
13532SOL    HW240621   3.557   3.772   4.285
13533SOL     OW40622   3.250   5.297   4.201
13533SOL    HW140623   3.317   5.309   4.127
13533SOL    HW240624   3.210   5.386   4.224
13534SOL     OW40625   1.992   5.518   5.575
13534SOL    HW140626   1.951   5.444   5.628
13534SOL    HW240627   2.056   5.569   5.633
13535SOL     OW40628   3.142   4.651   4.396
13535SOL    HW140629   3.202   4.570   4.398
13535SOL    HW240630   3.182   4.720   4.336
13536SOL     OW40631   2.692   4.997   5.146
13536SOL    HW140632   2.687   5.030   5.241
13536SOL    HW240633   2.606   5.016   5.100
13537SOL     OW40634   2.534   5.340   3.878
13537SOL    HW140635   2.543   5.350   3.779
13537SOL    HW240636   2.494   5.251   3.899
13538SOL     OW40637   3.512   5.444   5.118
13538SOL    HW140638   3.565   5.454   5.034
13538SOL    HW240639   3.485   5.534   5.152
13539SOL     OW40640   3.703   3.899   4.687
13539SOL    HW140641   3.742   3.814   4.651
13539SOL    HW240642   3.605   3.901   4.668
13540SOL     OW40643   2.125   4.050   4.444
13540SOL    HW140644   2.046   4.101   4.410
13540SOL    HW240645   2.116   4.035   4.542
13541SOL     OW40646   3.056   5.336   3.755
13541SOL    HW140647   3.062   5.243   3.792
13541SOL    HW240648   2.997   5.336   3.675
13542SOL     OW40649   2.684   4.726   5.096
13542SOL    HW140650   2.724   4.725   5.004
13542SOL    HW240651   2.694   4.818   5.136
13543SOL     OW40652   2.778   4.634   4.015
13543SOL    HW140653   2.841   4.672   3.947
13543SOL    HW240654   2.818   4.551   4.054
13544SOL     OW40655   3.366   5.331   3.768
13544SOL    HW140656   3.274   5.368   3.775
13544SOL    HW240657   3.404   5.351   3.678
13545SOL     OW40658   2.234   5.012   5.214
13545SOL    HW140659   2.221   5.105   5.180
13545SOL    HW240660   2.150   4.960   5.201
13546SOL     OW40661   3.476   5.016   5.013
13546SOL    HW140662   3.536   5.019   5.093
13546SOL    HW240663   3.401   5.080   5.026
13547SOL     OW40664   2.901   4.822   4.420
13547SOL    HW140665   2.831   4.775   4.474
13547SOL    HW240666   2.960   4.754   4.377
13548SOL     OW40667   2.876   3.960   4.695
13548SOL    HW140668   2.868   3.924   4.602
13548SOL    HW240669   2.874   3.884   4.760
13549SOL     OW40670   2.452   5.211   4.215
13549SOL    HW140671   2.494   5.153   4.145
13549SOL    HW240672   2.408   5.290   4.171
13550SOL     OW40673   3.571   4.109   5.105
13550SOL    HW140674   3.644   4.178   5.109
13550SOL    HW240675   3.599   4.034   5.046
13551SOL     OW40676   2.117   5.072   4.014
13551SOL    HW140677   2.021   5.073   3.987
13551SOL    HW240678   2.129   5.125   4.098
13552SOL     OW40679   1.967   4.737   5.450
13552SOL    HW140680   1.890   4.704   5.504
13552SOL    HW240681   2.052   4.707   5.492
13553SOL     OW40682   2.534   3.927   5.213
13553SOL    HW140683   2.624   3.911   5.173
13553SOL    HW240684   2.542   3.932   5.312
13554SOL     OW40685   1.937   4.069   3.757
13554SOL    HW140686   1.845   4.041   3.728
13554SOL    HW240687   1.968   4.146   3.701
13555SOL     OW40688   3.302   4.580   5.122
13555SOL    HW140689   3.245   4.632   5.059
13555SOL    HW240690   3.398   4.592   5.098
13556SOL     OW40691   1.934   3.890   4.042
13556SOL    HW140692   1.917   3.973   3.988
13556SOL    HW240693   2.024   3.853   4.020
13557SOL     OW40694   3.045   5.059   3.843
13557SOL    HW140695   2.946   5.048   3.845
13557SOL    HW240696   3.079   5.074   3.936
13558SOL     OW40697   2.475   4.566   5.155
13558SOL    HW140698   2.531   4.647   5.138
13558SOL    HW240699   2.534   4.486   5.158
13559SOL     OW40700   3.355   5.491   4.683
13559SOL    HW140701   3.388   5.555   4.614
13559SOL    HW240702   3.421   5.485   4.758
13560SOL     OW40703   2.578   4.289   5.432
13560SOL    HW140704   2.597   4.354   5.506
13560SOL    HW240705   2.638   4.209   5.441
13561SOL     OW40706   3.312   4.944   5.357
13561SOL    HW140707   3.303   4.934   5.456
13561SOL    HW240708   3.408   4.937   5.331
13562SOL     OW40709   2.252   5.465   5.284
13562SOL    HW140710   2.161   5.506   5.282
13562SOL    HW240711   2.245   5.371   5.316
13563SOL     OW40712   3.536   4.607   4.978
13563SOL    HW140713   3.509   4.518   4.941
13563SOL    HW240714   3.537   4.675   4.905
13564SOL     OW40715   3.087   4.049   4.173
13564SOL    HW140716   3.152   3.975   4.162
13564SOL    HW240717   3.107   4.099   4.257
13565SOL     OW40718   2.456   4.469   4.376
13565SOL    HW140719   2.506   4.554   4.357
13565SOL    HW240720   2.368   4.471   4.328
13566SOL     OW40721   3.639   4.066   5.366
13566SOL    HW140722   3.622   4.097   5.272
13566SOL    HW240723   3.555   4.029   5.404
13567SOL     OW40724   3.592   4.658   5.241
13567SOL    HW140725   3.630   4.749   5.256
13567SOL    HW240726   3.584   4.641   5.142
13568SOL     OW40727   2.721   5.098   3.740
13568SOL    HW140728   2.675   5.113   3.828
13568SOL    HW240729   2.765   5.183   3.710
13569SOL     OW40730   2.523   5.514   4.677
13569SOL    HW140731   2.477   5.602   4.664
13569SOL    HW240732   2.622   5.526   4.670
13570SOL     OW40733   2.721   4.680   4.585
13570SOL    HW140734   2.775   4.611   4.633
13570SOL    HW240735   2.689   4.749   4.651
13571SOL     OW40736   2.945   4.708   3.811
13571SOL    HW140737   2.922   4.761   3.729
13571SOL    HW240738   3.026   4.652   3.792
13572SOL     OW40739   3.723   5.293   4.575
13572SOL    HW140740   3.652   5.281   4.505
13572SOL    HW240741   3.724   5.214   4.635
13573SOL     OW40742   2.083   5.038   5.568
13573SOL    HW140743   2.018   4.965   5.547
13573SOL    HW240744   2.087   5.052   5.666
13574SOL     OW40745   1.941   4.964   4.377
13574SOL    HW140746   1.940   4.917   4.465
13574SOL    HW240747   2.023   4.936   4.326
13575SOL     OW40748   2.534   5.115   5.348
13575SOL    HW140749   2.456   5.065   5.386
13575SOL    HW240750   2.531   5.210   5.379
13576SOL     OW40751   3.686   3.916   4.951
13576SOL    HW140752   3.682   3.826   4.995
13576SOL    HW240753   3.689   3.905   4.852
13577SOL     OW40754   2.290   4.148   4.244
13577SOL    HW140755   2.320   4.076   4.182
13577SOL    HW240756   2.251   4.108   4.327
13578SOL     OW40757   3.567   5.211   4.828
13578SOL    HW140758   3.474   5.186   4.801
13578SOL    HW240759   3.593   5.161   4.910
13579SOL     OW40760   2.179   4.271   5.004
13579SOL    HW140761   2.217   4.212   5.076
13579SOL    HW240762   2.219   4.245   4.916
13580SOL     OW40763   2.674   5.310   4.411
13580SOL    HW140764   2.706   5.320   4.317
13580SOL    HW240765   2.595   5.248   4.413
13581SOL     OW40766   3.286   3.938   4.836
13581SOL    HW140767   3.338   3.873   4.891
13581SOL    HW240768   3.237   4.001   4.897
13582SOL     OW40769   2.863   3.758   4.878
13582SOL    HW140770   2.800   3.686   4.847
13582SOL    HW240771   2.956   3.722   4.878
13583SOL     OW40772   2.632   5.054   4.025
13583SOL    HW140773   2.586   4.967   4.042
13583SOL    HW240774   2.723   5.051   4.066
13584SOL     OW40775   2.480   5.291   5.008
13584SOL    HW140776   2.475   5.373   5.065
13584SOL    HW240777   2.569   5.288   4.963
13585SOL     OW40778   3.214   3.776   3.892
13585SOL    HW140779   3.249   3.735   3.808
13585SOL    HW240780   3.124   3.738   3.912
13586SOL     OW40781   3.162   4.177   4.415
13586SOL    HW140782   3.103   4.257   4.419
13586SOL    HW240783   3.177   4.142   4.508
13587SOL     OW40784   3.455   3.945   4.606
13587SOL    HW140785   3.371   3.944   4.660
13587SOL    HW240786   3.457   4.028   4.550
13588SOL     OW40787   1.901   4.801   4.024
13588SOL    HW140788   2.000   4.790   4.015
13588SOL    HW240789   1.861   4.715   4.056
13589SOL     OW40790   2.737   5.370   4.061
13589SOL    HW140791   2.660   5.335   4.007
13589SOL    HW240792   2.705   5.441   4.123
13590SOL     OW40793   2.092   4.352   5.699
13590SOL    HW140794   1.999   4.350   5.736
13590SOL    HW240795   2.093   4.313   5.607
13591SOL     OW40796   2.087   3.999   6.582
13591SOL    HW140797   2.122   3.982   6.674
13591SOL    HW240798   1.999   3.954   6.570
13592SOL     OW40799   1.881   4.092   6.233
13592SOL    HW140800   1.799   4.135   6.272
13592SOL    HW240801   1.853   4.019   6.170
13593SOL     OW40802   2.431   4.999   6.751
13593SOL    HW140803   2.338   4.992   6.714
13593SOL    HW240804   2.442   5.088   6.795
13594SOL     OW40805   3.417   5.235   6.289
13594SOL    HW140806   3.360   5.219   6.370
13594SOL    HW240807   3.358   5.245   6.209
13595SOL     OW40808   2.997   4.427   6.303
13595SOL    HW140809   3.054   4.505   6.278
13595SOL    HW240810   2.937   4.453   6.379
13596SOL     OW40811   3.617   4.331   5.817
13596SOL    HW140812   3.605   4.318   5.718
13596SOL    HW240813   3.587   4.250   5.866
13597SOL     OW40814   2.630   4.868   6.609
13597SOL    HW140815   2.552   4.885   6.669
13597SOL    HW240816   2.664   4.955   6.573
13598SOL     OW40817   2.712   4.522   7.409
13598SOL    HW140818   2.708   4.598   7.474
13598SOL    HW240819   2.734   4.558   7.318
13599SOL     OW40820   2.547   4.736   6.251
13599SOL    HW140821   2.616   4.720   6.321
13599SOL    HW240822   2.474   4.793   6.289
13600SOL     OW40823   2.548   4.885   7.389
13600SOL    HW140824   2.608   4.964   7.403
13600SOL    HW240825   2.462   4.916   7.348
13601SOL     OW40826   2.197   5.159   6.647
13601SOL    HW140827   2.119   5.128   6.594
13601SOL    HW240828   2.255   5.217   6.590
13602SOL     OW40829   3.322   5.229   6.925
13602SOL    HW140830   3.346   5.323   6.951
13602SOL    HW240831   3.306   5.175   7.007
13603SOL     OW40832   2.300   4.116   7.085
13603SOL    HW140833   2.382   4.060   7.094
13603SOL    HW240834   2.219   4.058   7.089
13604SOL     OW40835   3.465   4.171   6.323
13604SOL    HW140836   3.391   4.217   6.273
13604SOL    HW240837   3.516   4.239   6.376
13605SOL     OW40838   2.093   5.437   6.069
13605SOL    HW140839   2.127   5.514   6.123
13605SOL    HW240840   2.137   5.437   5.979
13606SOL     OW40841   2.989   5.065   7.276
13606SOL    HW140842   3.036   5.065   7.364
13606SOL    HW240843   2.941   4.978   7.265
13607SOL     OW40844   2.092   5.158   6.124
13607SOL    HW140845   2.066   5.254   6.124
13607SOL    HW240846   2.021   5.104   6.169
13608SOL     OW40847   2.102   4.815   6.472
13608SOL    HW140848   2.116   4.731   6.524
13608SOL    HW240849   2.047   4.879   6.527
13609SOL     OW40850   2.482   5.510   7.025
13609SOL    HW140851   2.390   5.493   7.060
13609SOL    HW240852   2.510   5.602   7.051
13610SOL     OW40853   2.468   4.688   5.709
13610SOL    HW140854   2.475   4.772   5.655
13610SOL    HW240855   2.514   4.701   5.797
13611SOL     OW40856   3.456   3.838   7.066
13611SOL    HW140857   3.438   3.905   6.994
13611SOL    HW240858   3.453   3.884   7.155
13612SOL     OW40859   1.984   4.367   6.149
13612SOL    HW140860   1.939   4.279   6.166
13612SOL    HW240861   1.983   4.421   6.233
13613SOL     OW40862   3.704   5.491   5.945
13613SOL    HW140863   3.758   5.462   6.025
13613SOL    HW240864   3.734   5.581   5.916
13614SOL     OW40865   1.889   5.320   5.703
13614SOL    HW140866   1.870   5.224   5.724
13614SOL    HW240867   1.856   5.378   5.778
13615SOL     OW40868   3.551   4.646   6.198
13615SOL    HW140869   3.646   4.617   6.206
13615SOL    HW240870   3.543   4.711   6.123
13616SOL     OW40871   3.503   4.832   6.018
13616SOL    HW140872   3.589   4.834   5.966
13616SOL    HW240873   3.517   4.879   6.106
13617SOL     OW40874   1.975   4.461   7.183
13617SOL    HW140875   2.063   4.448   7.228
13617SOL    HW240876   1.962   4.558   7.161
13618SOL     OW40877   2.475   5.089   6.312
13618SOL    HW140878   2.426   5.002   6.321
13618SOL    HW240879   2.452   5.132   6.225
13619SOL     OW40880   3.155   4.952   7.009
13619SOL    HW140881   3.192   4.879   6.951
13619SOL    HW240882   3.207   4.957   7.094
13620SOL     OW40883   2.671   3.728   6.088
13620SOL    HW140884   2.711   3.819   6.079
13620SOL    HW240885   2.571   3.736   6.094
13621SOL     OW40886   2.059   4.700   6.850
13621SOL    HW140887   2.148   4.655   6.836
13621SOL    HW240888   1.986   4.635   6.831
13622SOL     OW40889   3.387   4.723   5.776
13622SOL    HW140890   3.324   4.647   5.789
13622SOL    HW240891   3.435   4.741   5.862
13623SOL     OW40892   3.049   5.516   7.202
13623SOL    HW140893   3.073   5.576   7.126
13623SOL    HW240894   3.056   5.421   7.172
13624SOL     OW40895   2.179   3.975   7.387
13624SOL    HW140896   2.250   4.046   7.393
13624SOL    HW240897   2.091   4.014   7.415
13625SOL     OW40898   3.328   5.141   6.539
13625SOL    HW140899   3.269   5.147   6.619
13625SOL    HW240900   3.313   5.053   6.493
13626SOL     OW40901   3.529   5.438   6.158
13626SOL    HW140902   3.488   5.415   6.070
13626SOL    HW240903   3.511   5.364   6.223
13627SOL     OW40904   2.460   4.453   5.856
13627SOL    HW140905   2.484   4.522   5.788
13627SOL    HW240906   2.382   4.486   5.910
13628SOL     OW40907   3.143   4.069   6.530
13628SOL    HW140908   3.057   4.019   6.517
13628SOL    HW240909   3.205   4.015   6.586
13629SOL     OW40910   3.438   5.386   5.893
13629SOL    HW140911   3.527   5.432   5.896
13629SOL    HW240912   3.417   5.362   5.798
13630SOL     OW40913   2.669   4.329   7.051
13630SOL    HW140914   2.622   4.326   7.140
13630SOL    HW240915   2.618   4.274   6.985
13631SOL     OW40916   3.256   4.193   7.260
13631SOL    HW140917   3.236   4.236   7.348
13631SOL    HW240918   3.334   4.131   7.269
13632SOL     OW40919   2.835   4.614   7.158
13632SOL    HW140920   2.881   4.530   7.129
13632SOL    HW240921   2.779   4.648   7.083
13633SOL     OW40922   2.853   4.134   6.828
13633SOL    HW140923   2.776   4.168   6.882
13633SOL    HW240924   2.819   4.083   6.749
13634SOL     OW40925   2.903   4.425   6.015
13634SOL    HW140926   2.929   4.421   6.111
13634SOL    HW240927   2.818   4.374   6.001
13635SOL     OW40928   1.938   4.535   6.375
13635SOL    HW140929   2.037   4.523   6.384
13635SOL    HW240930   1.914   4.630   6.396
13636SOL     OW40931   1.992   5.545   7.157
13636SOL    HW140932   1.982   5.530   7.256
13636SOL    HW240933   1.906   5.581   7.121
13637SOL     OW40934   2.727   4.072   5.781
13637SOL    HW140935   2.786   4.135   5.732
13637SOL    HW240936   2.746   3.978   5.752
13638SOL     OW40937   3.581   4.309   7.417
13638SOL    HW140938   3.555   4.398   7.381
13638SOL    HW240939   3.579   4.241   7.344
13639SOL     OW40940   3.224   4.868   6.131
13639SOL    HW140941   3.307   4.839   6.083
13639SOL    HW240942   3.175   4.935   6.075
13640SOL     OW40943   2.412   3.920   6.471
13640SOL    HW140944   2.407   3.915   6.571
13640SOL    HW240945   2.414   4.016   6.442
13641SOL     OW40946   2.870   5.180   6.063
13641SOL    HW140947   2.824   5.252   6.011
13641SOL    HW240948   2.866   5.200   6.161
13642SOL     OW40949   2.213   5.525   6.439
13642SOL    HW140950   2.263   5.439   6.445
13642SOL    HW240951   2.278   5.602   6.436
13643SOL     OW40952   3.657   4.790   6.459
13643SOL    HW140953   3.595   4.775   6.383
13643SOL    HW240954   3.605   4.801   6.544
13644SOL     OW40955   3.089   5.274   7.092
13644SOL    HW140956   3.095   5.197   7.156
13644SOL    HW240957   3.037   5.248   7.012
13645SOL     OW40958   2.183   4.667   5.828
13645SOL    HW140959   2.265   4.706   5.786
13645SOL    HW240960   2.156   4.585   5.779
13646SOL     OW40961   3.320   4.459   6.314
13646SOL    HW140962   3.315   4.394   6.389
13646SOL    HW240963   3.400   4.518   6.327
13647SOL     OW40964   2.323   4.990   7.313
13647SOL    HW140965   2.273   4.991   7.227
13647SOL    HW240966   2.260   4.972   7.389
13648SOL     OW40967   2.973   5.500   5.823
13648SOL    HW140968   2.913   5.438   5.873
13648SOL    HW240969   3.004   5.456   5.738
13649SOL     OW40970   2.064   4.009   7.084
13649SOL    HW140971   1.984   4.069   7.071
13649SOL    HW240972   2.054   3.960   7.170
13650SOL     OW40973   3.494   5.101   5.667
13650SOL    HW140974   3.462   5.195   5.657
13650SOL    HW240975   3.418   5.038   5.655
13651SOL     OW40976   2.326   5.467   5.909
13651SOL    HW140977   2.359   5.506   5.995
13651SOL    HW240978   2.402   5.460   5.844
13652SOL     OW40979   3.262   3.831   6.012
13652SOL    HW140980   3.238   3.794   5.922
13652SOL    HW240981   3.361   3.847   6.016
13653SOL     OW40982   2.111   5.509   6.827
13653SOL    HW140983   2.168   5.444   6.877
13653SOL    HW240984   2.095   5.476   6.734
13654SOL     OW40985   2.802   5.422   6.490
13654SOL    HW140986   2.882   5.365   6.511
13654SOL    HW240987   2.753   5.382   6.413
13655SOL     OW40988   2.244   4.424   6.066
13655SOL    HW140989   2.289   4.334   6.063
13655SOL    HW240990   2.150   4.413   6.099
13656SOL     OW40991   3.409   3.946   7.315
13656SOL    HW140992   3.404   3.983   7.407
13656SOL    HW240993   3.337   3.877   7.303
13657SOL     OW40994   2.476   3.846   5.703
13657SOL    HW140995   2.574   3.824   5.710
13657SOL    HW240996   2.445   3.829   5.610
13658SOL     OW40997   2.643   3.988   7.335
13658SOL    HW140998   2.710   3.927   7.378
13658SOL    HW240999   2.570   4.007   7.400
13659SOL     OW41000   2.750   5.238   6.781
13659SOL    HW141001   2.727   5.213   6.687
13659SOL    HW241002   2.811   5.169   6.820
13660SOL     OW41003   3.213   4.314   7.019
13660SOL    HW141004   3.241   4.271   7.104
13660SOL    HW241005   3.238   4.410   7.020
13661SOL     OW41006   2.665   5.126   6.510
13661SOL    HW141007   2.755   5.140   6.468
13661SOL    HW241008   2.594   5.128   6.439
13662SOL     OW41009   2.784   4.227   6.485
13662SOL    HW141010   2.759   4.218   6.389
13662SOL    HW241011   2.832   4.145   6.516
13663SOL     OW41012   2.401   3.788   6.098
13663SOL    HW141013   2.320   3.789   6.156
13663SOL    HW241014   2.404   3.871   6.043
13664SOL     OW41015   3.296   4.912   5.627
13664SOL    HW141016   3.328   4.836   5.684
13664SOL    HW241017   3.204   4.939   5.657
13665SOL     OW41018   2.159   3.759   5.757
13665SOL    HW141019   2.208   3.843   5.736
13665SOL    HW241020   2.221   3.694   5.802
13666SOL     OW41021   2.797   3.960   6.066
13666SOL    HW141022   2.749   4.001   5.988
13666SOL    HW241023   2.896   3.958   6.047
13667SOL     OW41024   2.938   4.407   7.050
13667SOL    HW141025   2.858   4.346   7.053
13667SOL    HW241026   3.019   4.354   7.026
13668SOL     OW41027   3.089   5.294   6.379
13668SOL    HW141028   3.110   5.368   6.314
13668SOL    HW241029   3.157   5.294   6.452
13669SOL     OW41030   2.321   4.876   6.327
13669SOL    HW141031   2.250   4.849   6.392
13669SOL    HW241032   2.295   4.848   6.234
13670SOL     OW41033   3.133   5.521   6.177
13670SOL    HW141034   3.177   5.585   6.113
13670SOL    HW241035   3.083   5.573   6.247
13671SOL     OW41036   2.894   4.273   5.602
13671SOL    HW141037   2.853   4.355   5.563
13671SOL    HW241038   2.958   4.299   5.675
13672SOL     OW41039   1.940   4.280   6.972
13672SOL    HW141040   2.032   4.279   6.931
13672SOL    HW241041   1.934   4.354   7.039
13673SOL     OW41042   2.423   3.946   6.733
13673SOL    HW141043   2.461   3.862   6.770
13673SOL    HW241044   2.335   3.965   6.777
13674SOL     OW41045   2.728   4.178   6.228
13674SOL    HW141046   2.696   4.250   6.166
13674SOL    HW241047   2.752   4.097   6.175
13675SOL     OW41048   2.879   3.763   6.339
13675SOL    HW141049   2.807   3.768   6.270
13675SOL    HW241050   2.855   3.694   6.408
13676SOL     OW41051   3.291   4.897   6.453
13676SOL    HW141052   3.236   4.813   6.446
13676SOL    HW241053   3.317   4.926   6.361
13677SOL     OW41054   3.328   4.314   6.578
13677SOL    HW141055   3.298   4.219   6.585
13677SOL    HW241056   3.401   4.330   6.644
13678SOL     OW41057   3.719   4.557   5.963
13678SOL    HW141058   3.761   4.493   6.027
13678SOL    HW241059   3.681   4.506   5.885
13679SOL     OW41060   2.350   5.109   5.760
13679SOL    HW141061   2.263   5.094   5.807
13679SOL    HW241062   2.333   5.135   5.665
13680SOL     OW41063   3.526   5.004   6.243
13680SOL    HW141064   3.625   5.012   6.257
13680SOL    HW241065   3.481   5.088   6.274
13681SOL     OW41066   3.252   4.299   5.664
13681SOL    HW141067   3.198   4.278   5.745
13681SOL    HW241068   3.343   4.258   5.673
13682SOL     OW41069   2.389   3.980   5.914
13682SOL    HW141070   2.416   3.921   5.839
13682SOL    HW241071   2.389   4.075   5.883
13683SOL     OW41072   3.616   4.947   7.174
13683SOL    HW141073   3.707   4.908   7.161
13683SOL    HW241074   3.624   5.043   7.198
13684SOL     OW41075   2.926   5.071   6.926
13684SOL    HW141076   2.846   5.048   6.981
13684SOL    HW241077   3.009   5.045   6.975
13685SOL     OW41078   3.454   5.353   7.211
13685SOL    HW141079   3.481   5.387   7.121
13685SOL    HW241080   3.533   5.315   7.257
13686SOL     OW41081   2.973   4.919   6.686
13686SOL    HW141082   2.933   4.963   6.767
13686SOL    HW241083   2.932   4.956   6.603
13687SOL     OW41084   3.500   4.823   6.665
13687SOL    HW141085   3.505   4.904   6.724
13687SOL    HW241086   3.414   4.825   6.614
13688SOL     OW41087   2.777   3.813   6.988
13688SOL    HW141088   2.802   3.793   6.893
13688SOL    HW241089   2.849   3.869   7.030
13689SOL     OW41090   2.842   4.840   7.305
13689SOL    HW141091   2.743   4.846   7.315
13689SOL    HW241092   2.865   4.760   7.249
13690SOL     OW41093   2.567   4.774   5.954
13690SOL    HW141094   2.553   4.781   6.053
13690SOL    HW241095   2.651   4.723   5.936
13691SOL     OW41096   2.272   4.537   6.837
13691SOL    HW141097   2.358   4.549   6.887
13691SOL    HW241098   2.230   4.450   6.864
13692SOL     OW41099   3.136   4.110   6.848
13692SOL    HW141100   3.157   4.184   6.912
13692SOL    HW241101   3.047   4.127   6.805
13693SOL     OW41102   1.926   5.288   6.917
13693SOL    HW141103   1.880   5.370   6.883
13693SOL    HW241104   2.024   5.307   6.926
13694SOL     OW41105   2.229   4.824   6.087
13694SOL    HW141106   2.222   4.907   6.031
13694SOL    HW241107   2.233   4.744   6.027
13695SOL     OW41108   2.428   4.261   6.451
13695SOL    HW141109   2.440   4.327   6.377
13695SOL    HW241110   2.474   4.295   6.534
13696SOL     OW41111   3.114   5.072   5.974
13696SOL    HW141112   3.164   5.149   6.014
13696SOL    HW241113   3.019   5.074   6.006
13697SOL     OW41114   3.134   5.169   6.728
13697SOL    HW141115   3.181   5.182   6.815
13697SOL    HW241116   3.068   5.095   6.737
13698SOL     OW41117   3.444   4.363   6.058
13698SOL    HW141118   3.413   4.424   6.131
13698SOL    HW241119   3.494   4.415   5.989
13699SOL     OW41120   2.216   5.234   6.915
13699SOL    HW141121   2.195   5.190   6.828
13699SOL    HW241122   2.313   5.260   6.918
13700SOL     OW41123   2.264   4.475   7.184
13700SOL    HW141124   2.332   4.530   7.137
13700SOL    HW241125   2.304   4.387   7.211
13701SOL     OW41126   3.449   4.503   7.256
13701SOL    HW141127   3.357   4.541   7.251
13701SOL    HW241128   3.509   4.550   7.191
13702SOL     OW41129   2.875   3.829   7.356
13702SOL    HW141130   2.881   3.914   7.304
13702SOL    HW241131   2.907   3.753   7.299
13703SOL     OW41132   2.366   3.774   7.326
13703SOL    HW141133   2.324   3.717   7.256
13703SOL    HW241134   2.300   3.843   7.358
13704SOL     OW41135   2.435   4.594   6.615
13704SOL    HW141136   2.479   4.683   6.606
13704SOL    HW241137   2.372   4.594   6.692
13705SOL     OW41138   3.222   4.586   6.631
13705SOL    HW141139   3.147   4.586   6.565
13705SOL    HW241140   3.259   4.494   6.640
13706SOL     OW41141   3.071   4.249   5.861
13706SOL    HW141142   3.084   4.165   5.915
13706SOL    HW241143   3.042   4.323   5.921
13707SOL     OW41144   2.169   3.937   6.817
13707SOL    HW141145   2.146   3.974   6.907
13707SOL    HW241146   2.139   3.842   6.811
13708SOL     OW41147   1.899   5.034   6.868
13708SOL    HW141148   1.952   4.985   6.936
13708SOL    HW241149   1.921   5.132   6.873
13709SOL     OW41150   2.594   4.358   6.650
13709SOL    HW141151   2.653   4.332   6.574
13709SOL    HW241152   2.566   4.454   6.639
13710SOL     OW41153   3.590   4.659   7.440
13710SOL    HW141154   3.544   4.652   7.351
13710SOL    HW241155   3.528   4.703   7.506
13711SOL     OW41156   2.169   3.787   6.204
13711SOL    HW141157   2.158   3.881   6.237
13711SOL    HW241158   2.164   3.724   6.281
13712SOL     OW41159   3.484   4.091   5.960
13712SOL    HW141160   3.486   4.015   6.024
13712SOL    HW241161   3.436   4.168   6.000
13713SOL     OW41162   2.885   4.490   6.552
13713SOL    HW141163   2.900   4.511   6.648
13713SOL    HW241164   2.855   4.395   6.543
13714SOL     OW41165   2.842   5.297   7.286
13714SOL    HW141166   2.822   5.341   7.198
13714SOL    HW241167   2.881   5.206   7.270
13715SOL     OW41168   3.721   5.242   7.191
13715SOL    HW141169   3.735   5.269   7.096
13715SOL    HW241170   3.804   5.264   7.244
13716SOL     OW41171   2.212   4.622   7.390
13716SOL    HW141172   2.288   4.666   7.438
13716SOL    HW241173   2.247   4.575   7.308
13717SOL     OW41174   3.402   3.998   5.711
13717SOL    HW141175   3.341   3.923   5.734
13717SOL    HW241176   3.424   4.050   5.794
13718SOL     OW41177   3.165   4.562   5.628
13718SOL    HW141178   3.199   4.469   5.643
13718SOL    HW241179   3.183   4.589   5.533
13719SOL     OW41180   2.930   5.057   6.435
13719SOL    HW141181   2.937   4.973   6.380
13719SOL    HW241182   2.992   5.126   6.399
13720SOL     OW41183   2.181   4.534   6.535
13720SOL    HW141184   2.274   4.570   6.540
13720SOL    HW241185   2.175   4.449   6.587
13721SOL     OW41186   2.201   4.233   6.592
13721SOL    HW141187   2.149   4.150   6.575
13721SOL    HW241188   2.278   4.238   6.528
13722SOL     OW41189   3.000   4.104   7.264
13722SOL    HW141190   2.955   4.167   7.328
13722SOL    HW241191   3.093   4.135   7.247
13723SOL     OW41192   3.022   3.931   7.063
13723SOL    HW141193   3.022   3.995   7.140
13723SOL    HW241194   3.050   3.979   6.980
13724SOL     OW41195   1.870   5.050   5.786
13724SOL    HW141196   1.777   5.071   5.755
13724SOL    HW241197   1.880   4.951   5.799
13725SOL     OW41198   1.950   5.525   6.513
13725SOL    HW141199   1.908   5.439   6.486
13725SOL    HW241200   2.044   5.528   6.479
13726SOL     OW41201   2.366   5.292   6.496
13726SOL    HW141202   2.432   5.366   6.505
13726SOL    HW241203   2.410   5.213   6.454
13727SOL     OW41204   2.864   4.520   6.824
13727SOL    HW141205   2.905   4.488   6.910
13727SOL    HW241206   2.768   4.493   6.821
13728SOL     OW41207   1.902   4.268   6.700
13728SOL    HW141208   1.987   4.235   6.659
13728SOL    HW241209   1.915   4.283   6.798
13729SOL     OW41210   2.051   4.244   7.308
13729SOL    HW141211   2.110   4.204   7.238
13729SOL    HW241212   1.993   4.315   7.267
13730SOL     OW41213   3.231   4.674   7.246
13730SOL    HW141214   3.270   4.763   7.266
13730SOL    HW241215   3.241   4.654   7.149
13731SOL     OW41216   2.677   4.296   5.911
13731SOL    HW141217   2.684   4.207   5.865
13731SOL    HW241218   2.583   4.330   5.903
13732SOL     OW41219   3.519   4.328   6.792
13732SOL    HW141220   3.481   4.259   6.854
13732SOL    HW241221   3.601   4.292   6.748
13733SOL     OW41222   2.114   5.288   7.330
13733SOL    HW141223   2.084   5.345   7.406
13733SOL    HW241224   2.107   5.191   7.356
13734SOL     OW41225   2.533   4.188   6.855
13734SOL    HW141226   2.499   4.099   6.825
13734SOL    HW241227   2.559   4.242   6.775
13735SOL     OW41228   2.792   5.402   7.051
13735SOL    HW141229   2.768   5.384   6.956
13735SOL    HW241230   2.822   5.496   7.061
13736SOL     OW41231   2.335   4.224   5.777
13736SOL    HW141232   2.396   4.304   5.781
13736SOL    HW241233   2.240   4.255   5.784
13737SOL     OW41234   2.021   4.861   7.052
13737SOL    HW141235   2.043   4.800   7.128
13737SOL    HW241236   2.031   4.812   6.966
13738SOL     OW41237   3.209   4.783   6.820
13738SOL    HW141238   3.233   4.720   6.746
13738SOL    HW241239   3.119   4.823   6.802
13739SOL     OW41240   3.164   4.579   5.895
13739SOL    HW141241   3.078   4.548   5.937
13739SOL    HW241242   3.160   4.565   5.796
13740SOL     OW41243   3.621   5.471   6.740
13740SOL    HW141244   3.682   5.501   6.667
13740SOL    HW241245   3.583   5.382   6.718
13741SOL     OW41246   3.114   5.455   6.714
13741SOL    HW141247   3.198   5.460   6.660
13741SOL    HW241248   3.091   5.359   6.732
13742SOL     OW41249   1.945   4.982   6.608
13742SOL    HW141250   1.940   4.981   6.708
13742SOL    HW241251   1.862   4.941   6.570
13743SOL     OW41252   2.550   5.386   7.302
13743SOL    HW141253   2.494   5.467   7.311
13743SOL    HW241254   2.602   5.390   7.216
13744SOL     OW41255   3.588   3.859   6.109
13744SOL    HW141256   3.661   3.842   6.042
13744SOL    HW241257   3.557   3.772   6.147
13745SOL     OW41258   3.250   5.297   6.063
13745SOL    HW141259   3.317   5.309   5.989
13745SOL    HW241260   3.210   5.386   6.086
13746SOL     OW41261   1.992   5.518   7.437
13746SOL    HW141262   1.951   5.444   7.490
13746SOL    HW241263   2.056   5.569   7.495
13747SOL     OW41264   3.142   4.651   6.258
13747SOL    HW141265   3.202   4.570   6.260
13747SOL    HW241266   3.182   4.720   6.198
13748SOL     OW41267   2.692   4.997   7.008
13748SOL    HW141268   2.687   5.030   7.103
13748SOL    HW241269   2.606   5.016   6.962
13749SOL     OW41270   2.534   5.340   5.740
13749SOL    HW141271   2.543   5.350   5.641
13749SOL    HW241272   2.494   5.251   5.761
13750SOL     OW41273   3.512   5.444   6.980
13750SOL    HW141274   3.565   5.454   6.896
13750SOL    HW241275   3.485   5.534   7.014
13751SOL     OW41276   3.703   3.899   6.549
13751SOL    HW141277   3.742   3.814   6.513
13751SOL    HW241278   3.605   3.901   6.530
13752SOL     OW41279   2.125   4.050   6.306
13752SOL    HW141280   2.046   4.101   6.272
13752SOL    HW241281   2.116   4.035   6.404
13753SOL     OW41282   3.056   5.336   5.617
13753SOL    HW141283   3.062   5.243   5.654
13753SOL    HW241284   2.997   5.336   5.537
13754SOL     OW41285   2.684   4.726   6.958
13754SOL    HW141286   2.724   4.725   6.866
13754SOL    HW241287   2.694   4.818   6.998
13755SOL     OW41288   2.778   4.634   5.877
13755SOL    HW141289   2.841   4.672   5.809
13755SOL    HW241290   2.818   4.551   5.916
13756SOL     OW41291   3.366   5.331   5.630
13756SOL    HW141292   3.274   5.368   5.637
13756SOL    HW241293   3.404   5.351   5.540
13757SOL     OW41294   2.234   5.012   7.076
13757SOL    HW141295   2.221   5.105   7.042
13757SOL    HW241296   2.150   4.960   7.063
13758SOL     OW41297   3.476   5.016   6.875
13758SOL    HW141298   3.536   5.019   6.955
13758SOL    HW241299   3.401   5.080   6.888
13759SOL     OW41300   2.901   4.822   6.282
13759SOL    HW141301   2.831   4.775   6.336
13759SOL    HW241302   2.960   4.754   6.239
13760SOL     OW41303   2.876   3.960   6.557
13760SOL    HW141304   2.868   3.924   6.464
13760SOL    HW241305   2.874   3.884   6.622
13761SOL     OW41306   2.452   5.211   6.077
13761SOL    HW141307   2.494   5.153   6.007
13761SOL    HW241308   2.408   5.290   6.033
13762SOL     OW41309   3.571   4.109   6.967
13762SOL    HW141310   3.644   4.178   6.971
13762SOL    HW241311   3.599   4.034   6.908
13763SOL     OW41312   2.117   5.072   5.876
13763SOL    HW141313   2.021   5.073   5.849
13763SOL    HW241314   2.129   5.125   5.960
13764SOL     OW41315   1.967   4.737   7.312
13764SOL    HW141316   1.890   4.704   7.366
13764SOL    HW241317   2.052   4.707   7.354
13765SOL     OW41318   2.534   3.927   7.075
13765SOL    HW141319   2.624   3.911   7.035
13765SOL    HW241320   2.542   3.932   7.174
13766SOL     OW41321   1.937   4.069   5.619
13766SOL    HW141322   1.845   4.041   5.590
13766SOL    HW241323   1.968   4.146   5.563
13767SOL     OW41324   3.302   4.580   6.984
13767SOL    HW141325   3.245   4.632   6.921
13767SOL    HW241326   3.398   4.592   6.960
13768SOL     OW41327   1.934   3.890   5.904
13768SOL    HW141328   1.917   3.973   5.850
13768SOL    HW241329   2.024   3.853   5.882
13769SOL     OW41330   3.045   5.059   5.705
13769SOL    HW141331   2.946   5.048   5.707
13769SOL    HW241332   3.079   5.074   5.798
13770SOL     OW41333   2.475   4.566   7.017
13770SOL    HW141334   2.531   4.647   7.000
13770SOL    HW241335   2.534   4.486   7.020
13771SOL     OW41336   3.355   5.491   6.545
13771SOL    HW141337   3.388   5.555   6.476
13771SOL    HW241338   3.421   5.485   6.620
13772SOL     OW41339   2.578   4.289   7.294
13772SOL    HW141340   2.597   4.354   7.368
13772SOL    HW241341   2.638   4.209   7.303
13773SOL     OW41342   3.312   4.944   7.219
13773SOL    HW141343   3.303   4.934   7.318
13773SOL    HW241344   3.408   4.937   7.193
13774SOL     OW41345   2.252   5.465   7.146
13774SOL    HW141346   2.161   5.506   7.144
13774SOL    HW241347   2.245   5.371   7.178
13775SOL     OW41348   3.536   4.607   6.840
13775SOL    HW141349   3.509   4.518   6.803
13775SOL    HW241350   3.537   4.675   6.767
13776SOL     OW41351   3.087   4.049   6.035
13776SOL    HW141352   3.152   3.975   6.024
13776SOL    HW241353   3.107   4.099   6.119
13777SOL     OW41354   2.456   4.469   6.238
13777SOL    HW141355   2.506   4.554   6.219
13777SOL    HW241356   2.368   4.471   6.190
13778SOL     OW41357   3.639   4.066   7.228
13778SOL    HW141358   3.622   4.097   7.134
13778SOL    HW241359   3.555   4.029   7.266
13779SOL     OW41360   3.592   4.658   7.103
13779SOL    HW141361   3.630   4.749   7.118
13779SOL    HW241362   3.584   4.641   7.004
13780SOL     OW41363   2.721   5.098   5.602
13780SOL    HW141364   2.675   5.113   5.690
13780SOL    HW241365   2.765   5.183   5.572
13781SOL     OW41366   2.523   5.514   6.539
13781SOL    HW141367   2.477   5.602   6.526
13781SOL    HW241368   2.622   5.526   6.532
13782SOL     OW41369   2.721   4.680   6.447
13782SOL    HW141370   2.775   4.611   6.495
13782SOL    HW241371   2.689   4.749   6.513
13783SOL     OW41372   2.945   4.708   5.673
13783SOL    HW141373   2.922   4.761   5.591
13783SOL    HW241374   3.026   4.652   5.654
13784SOL     OW41375   3.723   5.293   6.437
13784SOL    HW141376   3.652   5.281   6.367
13784SOL    HW241377   3.724   5.214   6.497
13785SOL     OW41378   2.083   5.038   7.430
13785SOL    HW141379   2.018   4.965   7.409
13785SOL    HW241380   2.087   5.052   7.528
13786SOL     OW41381   1.941   4.964   6.239
13786SOL    HW141382   1.940   4.917   6.327
13786SOL    HW241383   2.023   4.936   6.188
13787SOL     OW41384   2.534   5.115   7.210
13787SOL    HW141385   2.456   5.065   7.248
13787SOL    HW241386   2.531   5.210   7.241
13788SOL     OW41387   3.686   3.916   6.813
13788SOL    HW141388   3.682   3.826   6.857
13788SOL    HW241389   3.689   3.905   6.714
13789SOL     OW41390   2.290   4.148   6.106
13789SOL    HW141391   2.320   4.076   6.044
13789SOL    HW241392   2.251   4.108   6.189
13790SOL     OW41393   3.567   5.211   6.690
13790SOL    HW141394   3.474   5.186   6.663
13790SOL    HW241395   3.593   5.161   6.772
13791SOL     OW41396   2.179   4.271   6.866
13791SOL    HW141397   2.217   4.212   6.938
13791SOL    HW241398   2.219   4.245   6.778
13792SOL     OW41399   2.674   5.310   6.273
13792SOL    HW141400   2.706   5.320   6.179
13792SOL    HW241401   2.595   5.248   6.275
13793SOL     OW41402   3.286   3.938   6.698
13793SOL    HW141403   3.338   3.873   6.753
13793SOL    HW241404   3.237   4.001   6.759
13794SOL     OW41405   2.863   3.758   6.740
13794SOL    HW141406   2.800   3.686   6.709
13794SOL    HW241407   2.956   3.722   6.740
13795SOL     OW41408   2.632   5.054   5.887
13795SOL    HW141409   2.586   4.967   5.904
13795SOL    HW241410   2.723   5.051   5.928
13796SOL     OW41411   2.480   5.291   6.870
13796SOL    HW141412   2.475   5.373   6.927
13796SOL    HW241413   2.569   5.288   6.825
13797SOL     OW41414   3.214   3.776   5.754
13797SOL    HW141415   3.249   3.735   5.670
13797SOL    HW241416   3.124   3.738   5.774
13798SOL     OW41417   3.162   4.177   6.277
13798SOL    HW141418   3.103   4.257   6.281
13798SOL    HW241419   3.177   4.142   6.370
13799SOL     OW41420   3.455   3.945   6.468
13799SOL    HW141421   3.371   3.944   6.522
13799SOL    HW241422   3.457   4.028   6.412
13800SOL     OW41423   1.901   4.801   5.886
13800SOL    HW141424   2.000   4.790   5.877
13800SOL    HW241425   1.861   4.715   5.918
13801SOL     OW41426   2.737   5.370   5.923
13801SOL    HW141427   2.660   5.335   5.869
13801SOL    HW241428   2.705   5.441   5.985
13802SOL     OW41429   2.092   4.352   7.561
13802SOL    HW141430   1.999   4.350   7.598
13802SOL    HW241431   2.093   4.313   7.469
13803SOL     OW41432   2.087   3.999   8.444
13803SOL    HW141433   2.122   3.982   8.536
13803SOL    HW241434   1.999   3.954   8.432
13804SOL     OW41435   1.881   4.092   8.095
13804SOL    HW141436   1.799   4.135   8.134
13804SOL    HW241437   1.853   4.019   8.032
13805SOL     OW41438   2.431   4.999   8.613
13805SOL    HW141439   2.338   4.992   8.576
13805SOL    HW241440   2.442   5.088   8.657
13806SOL     OW41441   3.417   5.235   8.151
13806SOL    HW141442   3.360   5.219   8.232
13806SOL    HW241443   3.358   5.245   8.071
13807SOL     OW41444   2.997   4.427   8.165
13807SOL    HW141445   3.054   4.505   8.140
13807SOL    HW241446   2.937   4.453   8.241
13808SOL     OW41447   3.617   4.331   7.679
13808SOL    HW141448   3.605   4.318   7.580
13808SOL    HW241449   3.587   4.250   7.728
13809SOL     OW41450   2.630   4.868   8.471
13809SOL    HW141451   2.552   4.885   8.531
13809SOL    HW241452   2.664   4.955   8.435
13810SOL     OW41453   2.712   4.522   9.271
13810SOL    HW141454   2.708   4.598   9.336
13810SOL    HW241455   2.734   4.558   9.180
13811SOL     OW41456   2.547   4.736   8.113
13811SOL    HW141457   2.616   4.720   8.183
13811SOL    HW241458   2.474   4.793   8.151
13812SOL     OW41459   2.548   4.885   9.251
13812SOL    HW141460   2.608   4.964   9.265
13812SOL    HW241461   2.462   4.916   9.210
13813SOL     OW41462   2.197   5.159   8.509
13813SOL    HW141463   2.119   5.128   8.456
13813SOL    HW241464   2.255   5.217   8.452
13814SOL     OW41465   3.322   5.229   8.787
13814SOL    HW141466   3.346   5.323   8.813
13814SOL    HW241467   3.306   5.175   8.869
13815SOL     OW41468   2.300   4.116   8.947
13815SOL    HW141469   2.382   4.060   8.956
13815SOL    HW241470   2.219   4.058   8.951
13816SOL     OW41471   3.465   4.171   8.185
13816SOL    HW141472   3.391   4.217   8.135
13816SOL    HW241473   3.516   4.239   8.238
13817SOL     OW41474   2.093   5.437   7.931
13817SOL    HW141475   2.127   5.514   7.985
13817SOL    HW241476   2.137   5.437   7.841
13818SOL     OW41477   2.989   5.065   9.138
13818SOL    HW141478   3.036   5.065   9.226
13818SOL    HW241479   2.941   4.978   9.127
13819SOL     OW41480   2.092   5.158   7.986
13819SOL    HW141481   2.066   5.254   7.986
13819SOL    HW241482   2.021   5.104   8.031
13820SOL     OW41483   2.102   4.815   8.334
13820SOL    HW141484   2.116   4.731   8.386
13820SOL    HW241485   2.047   4.879   8.389
13821SOL     OW41486   2.482   5.510   8.887
13821SOL    HW141487   2.390   5.493   8.922
13821SOL    HW241488   2.510   5.602   8.913
13822SOL     OW41489   2.468   4.688   7.571
13822SOL    HW141490   2.475   4.772   7.517
13822SOL    HW241491   2.514   4.701   7.659
13823SOL     OW41492   3.456   3.838   8.928
13823SOL    HW141493   3.438   3.905   8.856
13823SOL    HW241494   3.453   3.884   9.017
13824SOL     OW41495   1.984   4.367   8.011
13824SOL    HW141496   1.939   4.279   8.028
13824SOL    HW241497   1.983   4.421   8.095
13825SOL     OW41498   3.704   5.491   7.807
13825SOL    HW141499   3.758   5.462   7.887
13825SOL    HW241500   3.734   5.581   7.778
13826SOL     OW41501   1.889   5.320   7.565
13826SOL    HW141502   1.870   5.224   7.586
13826SOL    HW241503   1.856   5.378   7.640
13827SOL     OW41504   3.551   4.646   8.060
13827SOL    HW141505   3.646   4.617   8.068
13827SOL    HW241506   3.543   4.711   7.985
13828SOL     OW41507   3.503   4.832   7.880
13828SOL    HW141508   3.589   4.834   7.828
13828SOL    HW241509   3.517   4.879   7.968
13829SOL     OW41510   1.975   4.461   9.045
13829SOL    HW141511   2.063   4.448   9.090
13829SOL    HW241512   1.962   4.558   9.023
13830SOL     OW41513   2.475   5.089   8.174
13830SOL    HW141514   2.426   5.002   8.183
13830SOL    HW241515   2.452   5.132   8.087
13831SOL     OW41516   3.155   4.952   8.871
13831SOL    HW141517   3.192   4.879   8.813
13831SOL    HW241518   3.207   4.957   8.956
13832SOL     OW41519   2.671   3.728   7.950
13832SOL    HW141520   2.711   3.819   7.941
13832SOL    HW241521   2.571   3.736   7.956
13833SOL     OW41522   2.059   4.700   8.712
13833SOL    HW141523   2.148   4.655   8.698
13833SOL    HW241524   1.986   4.635   8.693
13834SOL     OW41525   3.387   4.723   7.638
13834SOL    HW141526   3.324   4.647   7.651
13834SOL    HW241527   3.435   4.741   7.724
13835SOL     OW41528   3.049   5.516   9.064
13835SOL    HW141529   3.073   5.576   8.988
13835SOL    HW241530   3.056   5.421   9.034
13836SOL     OW41531   2.179   3.975   9.249
13836SOL    HW141532   2.250   4.046   9.255
13836SOL    HW241533   2.091   4.014   9.277
13837SOL     OW41534   3.328   5.141   8.401
13837SOL    HW141535   3.269   5.147   8.481
13837SOL    HW241536   3.313   5.053   8.355
13838SOL     OW41537   3.529   5.438   8.020
13838SOL    HW141538   3.488   5.415   7.932
13838SOL    HW241539   3.511   5.364   8.085
13839SOL     OW41540   2.460   4.453   7.718
13839SOL    HW141541   2.484   4.522   7.650
13839SOL    HW241542   2.382   4.486   7.772
13840SOL     OW41543   3.143   4.069   8.392
13840SOL    HW141544   3.057   4.019   8.379
13840SOL    HW241545   3.205   4.015   8.448
13841SOL     OW41546   3.438   5.386   7.755
13841SOL    HW141547   3.527   5.432   7.758
13841SOL    HW241548   3.417   5.362   7.660
13842SOL     OW41549   2.669   4.329   8.913
13842SOL    HW141550   2.622   4.326   9.002
13842SOL    HW241551   2.618   4.274   8.847
13843SOL     OW41552   3.256   4.193   9.122
13843SOL    HW141553   3.236   4.236   9.210
13843SOL    HW241554   3.334   4.131   9.131
13844SOL     OW41555   2.835   4.614   9.020
13844SOL    HW141556   2.881   4.530   8.991
13844SOL    HW241557   2.779   4.648   8.945
13845SOL     OW41558   2.853   4.134   8.690
13845SOL    HW141559   2.776   4.168   8.744
13845SOL    HW241560   2.819   4.083   8.611
13846SOL     OW41561   2.903   4.425   7.877
13846SOL    HW141562   2.929   4.421   7.973
13846SOL    HW241563   2.818   4.374   7.863
13847SOL     OW41564   1.938   4.535   8.237
13847SOL    HW141565   2.037   4.523   8.246
13847SOL    HW241566   1.914   4.630   8.258
13848SOL     OW41567   1.992   5.545   9.019
13848SOL    HW141568   1.982   5.530   9.118
13848SOL    HW241569   1.906   5.581   8.983
13849SOL     OW41570   2.727   4.072   7.643
13849SOL    HW141571   2.786   4.135   7.594
13849SOL    HW241572   2.746   3.978   7.614
13850SOL     OW41573   3.581   4.309   9.279
13850SOL    HW141574   3.555   4.398   9.243
13850SOL    HW241575   3.579   4.241   9.206
13851SOL     OW41576   3.224   4.868   7.993
13851SOL    HW141577   3.307   4.839   7.945
13851SOL    HW241578   3.175   4.935   7.937
13852SOL     OW41579   2.412   3.920   8.333
13852SOL    HW141580   2.407   3.915   8.433
13852SOL    HW241581   2.414   4.016   8.304
13853SOL     OW41582   2.870   5.180   7.925
13853SOL    HW141583   2.824   5.252   7.873
13853SOL    HW241584   2.866   5.200   8.023
13854SOL     OW41585   2.213   5.525   8.301
13854SOL    HW141586   2.263   5.439   8.307
13854SOL    HW241587   2.278   5.602   8.298
13855SOL     OW41588   3.657   4.790   8.321
13855SOL    HW141589   3.595   4.775   8.245
13855SOL    HW241590   3.605   4.801   8.406
13856SOL     OW41591   3.089   5.274   8.954
13856SOL    HW141592   3.095   5.197   9.018
13856SOL    HW241593   3.037   5.248   8.874
13857SOL     OW41594   2.183   4.667   7.690
13857SOL    HW141595   2.265   4.706   7.648
13857SOL    HW241596   2.156   4.585   7.641
13858SOL     OW41597   3.320   4.459   8.176
13858SOL    HW141598   3.315   4.394   8.251
13858SOL    HW241599   3.400   4.518   8.189
13859SOL     OW41600   2.323   4.990   9.175
13859SOL    HW141601   2.273   4.991   9.089
13859SOL    HW241602   2.260   4.972   9.251
13860SOL     OW41603   2.973   5.500   7.685
13860SOL    HW141604   2.913   5.438   7.735
13860SOL    HW241605   3.004   5.456   7.600
13861SOL     OW41606   2.064   4.009   8.946
13861SOL    HW141607   1.984   4.069   8.933
13861SOL    HW241608   2.054   3.960   9.032
13862SOL     OW41609   3.494   5.101   7.529
13862SOL    HW141610   3.462   5.195   7.519
13862SOL    HW241611   3.418   5.038   7.517
13863SOL     OW41612   2.326   5.467   7.771
13863SOL    HW141613   2.359   5.506   7.857
13863SOL    HW241614   2.402   5.460   7.706
13864SOL     OW41615   3.262   3.831   7.874
13864SOL    HW141616   3.238   3.794   7.784
13864SOL    HW241617   3.361   3.847   7.878
13865SOL     OW41618   2.111   5.509   8.689
13865SOL    HW141619   2.168   5.444   8.739
13865SOL    HW241620   2.095   5.476   8.596
13866SOL     OW41621   2.802   5.422   8.352
13866SOL    HW141622   2.882   5.365   8.373
13866SOL    HW241623   2.753   5.382   8.275
13867SOL     OW41624   2.244   4.424   7.928
13867SOL    HW141625   2.289   4.334   7.925
13867SOL    HW241626   2.150   4.413   7.961
13868SOL     OW41627   3.409   3.946   9.177
13868SOL    HW141628   3.404   3.983   9.269
13868SOL    HW241629   3.337   3.877   9.165
13869SOL     OW41630   2.476   3.846   7.565
13869SOL    HW141631   2.574   3.824   7.572
13869SOL    HW241632   2.445   3.829   7.472
13870SOL     OW41633   2.643   3.988   9.197
13870SOL    HW141634   2.710   3.927   9.240
13870SOL    HW241635   2.570   4.007   9.262
13871SOL     OW41636   2.750   5.238   8.643
13871SOL    HW141637   2.727   5.213   8.549
13871SOL    HW241638   2.811   5.169   8.682
13872SOL     OW41639   3.213   4.314   8.881
13872SOL    HW141640   3.241   4.271   8.966
13872SOL    HW241641   3.238   4.410   8.882
13873SOL     OW41642   2.665   5.126   8.372
13873SOL    HW141643   2.755   5.140   8.330
13873SOL    HW241644   2.594   5.128   8.301
13874SOL     OW41645   2.784   4.227   8.347
13874SOL    HW141646   2.759   4.218   8.251
13874SOL    HW241647   2.832   4.145   8.378
13875SOL     OW41648   2.401   3.788   7.960
13875SOL    HW141649   2.320   3.789   8.018
13875SOL    HW241650   2.404   3.871   7.905
13876SOL     OW41651   3.296   4.912   7.489
13876SOL    HW141652   3.328   4.836   7.546
13876SOL    HW241653   3.204   4.939   7.519
13877SOL     OW41654   2.159   3.759   7.619
13877SOL    HW141655   2.208   3.843   7.598
13877SOL    HW241656   2.221   3.694   7.664
13878SOL     OW41657   2.797   3.960   7.928
13878SOL    HW141658   2.749   4.001   7.850
13878SOL    HW241659   2.896   3.958   7.909
13879SOL     OW41660   2.938   4.407   8.912
13879SOL    HW141661   2.858   4.346   8.915
13879SOL    HW241662   3.019   4.354   8.888
13880SOL     OW41663   3.089   5.294   8.241
13880SOL    HW141664   3.110   5.368   8.176
13880SOL    HW241665   3.157   5.294   8.314
13881SOL     OW41666   2.321   4.876   8.189
13881SOL    HW141667   2.250   4.849   8.254
13881SOL    HW241668   2.295   4.848   8.096
13882SOL     OW41669   3.133   5.521   8.039
13882SOL    HW141670   3.177   5.585   7.975
13882SOL    HW241671   3.083   5.573   8.109
13883SOL     OW41672   2.894   4.273   7.464
13883SOL    HW141673   2.853   4.355   7.425
13883SOL    HW241674   2.958   4.299   7.537
13884SOL     OW41675   1.940   4.280   8.834
13884SOL    HW141676   2.032   4.279   8.793
13884SOL    HW241677   1.934   4.354   8.901
13885SOL     OW41678   2.423   3.946   8.595
13885SOL    HW141679   2.461   3.862   8.632
13885SOL    HW241680   2.335   3.965   8.639
13886SOL     OW41681   2.728   4.178   8.090
13886SOL    HW141682   2.696   4.250   8.028
13886SOL    HW241683   2.752   4.097   8.037
13887SOL     OW41684   2.879   3.763   8.201
13887SOL    HW141685   2.807   3.768   8.132
13887SOL    HW241686   2.855   3.694   8.270
13888SOL     OW41687   3.291   4.897   8.315
13888SOL    HW141688   3.236   4.813   8.308
13888SOL    HW241689   3.317   4.926   8.223
13889SOL     OW41690   3.328   4.314   8.440
13889SOL    HW141691   3.298   4.219   8.447
13889SOL    HW241692   3.401   4.330   8.506
13890SOL     OW41693   3.719   4.557   7.825
13890SOL    HW141694   3.761   4.493   7.889
13890SOL    HW241695   3.681   4.506   7.747
13891SOL     OW41696   2.350   5.109   7.622
13891SOL    HW141697   2.263   5.094   7.669
13891SOL    HW241698   2.333   5.135   7.527
13892SOL     OW41699   3.526   5.004   8.105
13892SOL    HW141700   3.625   5.012   8.119
13892SOL    HW241701   3.481   5.088   8.136
13893SOL     OW41702   3.252   4.299   7.526
13893SOL    HW141703   3.198   4.278   7.607
13893SOL    HW241704   3.343   4.258   7.535
13894SOL     OW41705   2.389   3.980   7.776
13894SOL    HW141706   2.416   3.921   7.701
13894SOL    HW241707   2.389   4.075   7.745
13895SOL     OW41708   3.616   4.947   9.036
13895SOL    HW141709   3.707   4.908   9.023
13895SOL    HW241710   3.624   5.043   9.060
13896SOL     OW41711   2.926   5.071   8.788
13896SOL    HW141712   2.846   5.048   8.843
13896SOL    HW241713   3.009   5.045   8.837
13897SOL     OW41714   3.454   5.353   9.073
13897SOL    HW141715   3.481   5.387   8.983
13897SOL    HW241716   3.533   5.315   9.119
13898SOL     OW41717   2.973   4.919   8.548
13898SOL    HW141718   2.933   4.963   8.629
13898SOL    HW241719   2.932   4.956   8.465
13899SOL     OW41720   3.500   4.823   8.527
13899SOL    HW141721   3.505   4.904   8.586
13899SOL    HW241722   3.414   4.825   8.476
13900SOL     OW41723   2.777   3.813   8.850
13900SOL    HW141724   2.802   3.793   8.755
13900SOL    HW241725   2.849   3.869   8.892
13901SOL     OW41726   2.842   4.840   9.167
13901SOL    HW141727   2.743   4.846   9.177
13901SOL    HW241728   2.865   4.760   9.111
13902SOL     OW41729   2.567   4.774   7.816
13902SOL    HW141730   2.553   4.781   7.915
13902SOL    HW241731   2.651   4.723   7.798
13903SOL     OW41732   2.272   4.537   8.699
13903SOL    HW141733   2.358   4.549   8.749
13903SOL    HW241734   2.230   4.450   8.726
13904SOL     OW41735   3.136   4.110   8.710
13904SOL    HW141736   3.157   4.184   8.774
13904SOL    HW241737   3.047   4.127   8.667
13905SOL     OW41738   1.926   5.288   8.779
13905SOL    HW141739   1.880   5.370   8.745
13905SOL    HW241740   2.024   5.307   8.788
13906SOL     OW41741   2.229   4.824   7.949
13906SOL    HW141742   2.222   4.907   7.893
13906SOL    HW241743   2.233   4.744   7.889
13907SOL     OW41744   2.428   4.261   8.313
13907SOL    HW141745   2.440   4.327   8.239
13907SOL    HW241746   2.474   4.295   8.396
13908SOL     OW41747   3.114   5.072   7.836
13908SOL    HW141748   3.164   5.149   7.876
13908SOL    HW241749   3.019   5.074   7.868
13909SOL     OW41750   3.134   5.169   8.590
13909SOL    HW141751   3.181   5.182   8.677
13909SOL    HW241752   3.068   5.095   8.599
13910SOL     OW41753   3.444   4.363   7.920
13910SOL    HW141754   3.413   4.424   7.993
13910SOL    HW241755   3.494   4.415   7.851
13911SOL     OW41756   2.216   5.234   8.777
13911SOL    HW141757   2.195   5.190   8.690
13911SOL    HW241758   2.313   5.260   8.780
13912SOL     OW41759   2.264   4.475   9.046
13912SOL    HW141760   2.332   4.530   8.999
13912SOL    HW241761   2.304   4.387   9.073
13913SOL     OW41762   3.449   4.503   9.118
13913SOL    HW141763   3.357   4.541   9.113
13913SOL    HW241764   3.509   4.550   9.053
13914SOL     OW41765   2.875   3.829   9.218
13914SOL    HW141766   2.881   3.914   9.166
13914SOL    HW241767   2.907   3.753   9.161
13915SOL     OW41768   2.366   3.774   9.188
13915SOL    HW141769   2.324   3.717   9.118
13915SOL    HW241770   2.300   3.843   9.220
13916SOL     OW41771   2.435   4.594   8.477
13916SOL    HW141772   2.479   4.683   8.468
13916SOL    HW241773   2.372   4.594   8.554
13917SOL     OW41774   3.222   4.586   8.493
13917SOL    HW141775   3.147   4.586   8.427
13917SOL    HW241776   3.259   4.494   8.502
13918SOL     OW41777   3.071   4.249   7.723
13918SOL    HW141778   3.084   4.165   7.777
13918SOL    HW241779   3.042   4.323   7.783
13919SOL     OW41780   2.169   3.937   8.679
13919SOL    HW141781   2.146   3.974   8.769
13919SOL    HW241782   2.139   3.842   8.673
13920SOL     OW41783   1.899   5.034   8.730
13920SOL    HW141784   1.952   4.985   8.798
13920SOL    HW241785   1.921   5.132   8.735
13921SOL     OW41786   2.594   4.358   8.512
13921SOL    HW141787   2.653   4.332   8.436
13921SOL    HW241788   2.566   4.454   8.501
13922SOL     OW41789   3.590   4.659   9.302
13922SOL    HW141790   3.544   4.652   9.213
13922SOL    HW241791   3.528   4.703   9.368
13923SOL     OW41792   2.169   3.787   8.066
13923SOL    HW141793   2.158   3.881   8.099
13923SOL    HW241794   2.164   3.724   8.143
13924SOL     OW41795   3.484   4.091   7.822
13924SOL    HW141796   3.486   4.015   7.886
13924SOL    HW241797   3.436   4.168   7.862
13925SOL     OW41798   2.885   4.490   8.414
13925SOL    HW141799   2.900   4.511   8.510
13925SOL    HW241800   2.855   4.395   8.405
13926SOL     OW41801   2.842   5.297   9.148
13926SOL    HW141802   2.822   5.341   9.060
13926SOL    HW241803   2.881   5.206   9.132
13927SOL     OW41804   3.721   5.242   9.053
13927SOL    HW141805   3.735   5.269   8.958
13927SOL    HW241806   3.804   5.264   9.106
13928SOL     OW41807   2.212   4.622   9.252
13928SOL    HW141808   2.288   4.666   9.300
13928SOL    HW241809   2.247   4.575   9.170
13929SOL     OW41810   3.402   3.998   7.573
13929SOL    HW141811   3.341   3.923   7.596
13929SOL    HW241812   3.424   4.050   7.656
13930SOL     OW41813   3.165   4.562   7.490
13930SOL    HW141814   3.199   4.469   7.505
13930SOL    HW241815   3.183   4.589   7.395
13931SOL     OW41816   2.930   5.057   8.297
13931SOL    HW141817   2.937   4.973   8.242
13931SOL    HW241818   2.992   5.126   8.261
13932SOL     OW41819   2.181   4.534   8.397
13932SOL    HW141820   2.274   4.570   8.402
13932SOL    HW241821   2.175   4.449   8.449
13933SOL     OW41822   2.201   4.233   8.454
13933SOL    HW141823   2.149   4.150   8.437
13933SOL    HW241824   2.278   4.238   8.390
13934SOL     OW41825   3.000   4.104   9.126
13934SOL    HW141826   2.955   4.167   9.190
13934SOL    HW241827   3.093   4.135   9.109
13935SOL     OW41828   3.022   3.931   8.925
13935SOL    HW141829   3.022   3.995   9.002
13935SOL    HW241830   3.050   3.979   8.842
13936SOL     OW41831   1.870   5.050   7.648
13936SOL    HW141832   1.777   5.071   7.617
13936SOL    HW241833   1.880   4.951   7.661
13937SOL     OW41834   1.950   5.525   8.375
13937SOL    HW141835   1.908   5.439   8.348
13937SOL    HW241836   2.044   5.528   8.341
13938SOL     OW41837   2.366   5.292   8.358
13938SOL    HW141838   2.432   5.366   8.367
13938SOL    HW241839   2.410   5.213   8.316
13939SOL     OW41840   2.864   4.520   8.686
13939SOL    HW141841   2.905   4.488   8.772
13939SOL    HW241842   2.768   4.493   8.683
13940SOL     OW41843   1.902   4.268   8.562
13940SOL    HW141844   1.987   4.235   8.521
13940SOL    HW241845   1.915   4.283   8.660
13941SOL     OW41846   2.051   4.244   9.170
13941SOL    HW141847   2.110   4.204   9.100
13941SOL    HW241848   1.993   4.315   9.129
13942SOL     OW41849   3.231   4.674   9.108
13942SOL    HW141850   3.270   4.763   9.128
13942SOL    HW241851   3.241   4.654   9.011
13943SOL     OW41852   2.677   4.296   7.773
13943SOL    HW141853   2.684   4.207   7.727
13943SOL    HW241854   2.583   4.330   7.765
13944SOL     OW41855   3.519   4.328   8.654
13944SOL    HW141856   3.481   4.259   8.716
13944SOL    HW241857   3.601   4.292   8.610
13945SOL     OW41858   2.114   5.288   9.192
13945SOL    HW141859   2.084   5.345   9.268
13945SOL    HW241860   2.107   5.191   9.218
13946SOL     OW41861   2.533   4.188   8.717
13946SOL    HW141862   2.499   4.099   8.687
13946SOL    HW241863   2.559   4.242   8.637
13947SOL     OW41864   2.792   5.402   8.913
13947SOL    HW141865   2.768   5.384   8.818
13947SOL    HW241866   2.822   5.496   8.923
13948SOL     OW41867   2.335   4.224   7.639
13948SOL    HW141868   2.396   4.304   7.643
13948SOL    HW241869   2.240   4.255   7.646
13949SOL     OW41870   2.021   4.861   8.914
13949SOL    HW141871   2.043   4.800   8.990
13949SOL    HW241872   2.031   4.812   8.828
13950SOL     OW41873   3.209   4.783   8.682
13950SOL    HW141874   3.233   4.720   8.608
13950SOL    HW241875   3.119   4.823   8.664
13951SOL     OW41876   3.164   4.579   7.757
13951SOL    HW141877   3.078   4.548   7.799
13951SOL    HW241878   3.160   4.565   7.658
13952SOL     OW41879   3.621   5.471   8.602
13952SOL    HW141880   3.682   5.501   8.529
13952SOL    HW241881   3.583   5.382   8.580
13953SOL     OW41882   3.114   5.455   8.576
13953SOL    HW141883   3.198   5.460   8.522
13953SOL    HW241884   3.091   5.359   8.594
13954SOL     OW41885   1.945   4.982   8.470
13954SOL    HW141886   1.940   4.981   8.570
13954SOL    HW241887   1.862   4.941   8.432
13955SOL     OW41888   2.550   5.386   9.164
13955SOL    HW141889   2.494   5.467   9.173
13955SOL    HW241890   2.602   5.390   9.078
13956SOL     OW41891   3.588   3.859   7.971
13956SOL    HW141892   3.661   3.842   7.904
13956SOL    HW241893   3.557   3.772   8.009
13957SOL     OW41894   3.250   5.297   7.925
13957SOL    HW141895   3.317   5.309   7.851
13957SOL    HW241896   3.210   5.386   7.948
13958SOL     OW41897   1.992   5.518   9.299
13958SOL    HW141898   1.951   5.444   9.352
13958SOL    HW241899   2.056   5.569   9.357
13959SOL     OW41900   3.142   4.651   8.120
13959SOL    HW141901   3.202   4.570   8.122
13959SOL    HW241902   3.182   4.720   8.060
13960SOL     OW41903   2.692   4.997   8.870
13960SOL    HW141904   2.687   5.030   8.965
13960SOL    HW241905   2.606   5.016   8.824
13961SOL     OW41906   2.534   5.340   7.602
13961SOL    HW141907   2.543   5.350   7.503
13961SOL    HW241908   2.494   5.251   7.623
13962SOL     OW41909   3.512   5.444   8.842
13962SOL    HW141910   3.565   5.454   8.758
13962SOL    HW241911   3.485   5.534   8.876
13963SOL     OW41912   3.703   3.899   8.411
13963SOL    HW141913   3.742   3.814   8.375
13963SOL    HW241914   3.605   3.901   8.392
13964SOL     OW41915   2.125   4.050   8.168
13964SOL    HW141916   2.046   4.101   8.134
13964SOL    HW241917   2.116   4.035   8.266
13965SOL     OW41918   3.056   5.336   7.479
13965SOL    HW141919   3.062   5.243   7.516
13965SOL    HW241920   2.997   5.336   7.399
13966SOL     OW41921   2.684   4.726   8.820
13966SOL    HW141922   2.724   4.725   8.728
13966SOL    HW241923   2.694   4.818   8.860
13967SOL     OW41924   2.778   4.634   7.739
13967SOL    HW141925   2.841   4.672   7.671
13967SOL    HW241926   2.818   4.551   7.778
13968SOL     OW41927   3.366   5.331   7.492
13968SOL    HW141928   3.274   5.368   7.499
13968SOL    HW241929   3.404   5.351   7.402
13969SOL     OW41930   2.234   5.012   8.938
13969SOL    HW141931   2.221   5.105   8.904
13969SOL    HW241932   2.150   4.960   8.925
13970SOL     OW41933   3.476   5.016   8.737
13970SOL    HW141934   3.536   5.019   8.817
13970SOL    HW241935   3.401   5.080   8.750
13971SOL     OW41936   2.901   4.822   8.144
13971SOL    HW141937   2.831   4.775   8.198
13971SOL    HW241938   2.960   4.754   8.101
13972SOL     OW41939   2.876   3.960   8.419
13972SOL    HW141940   2.868   3.924   8.326
13972SOL    HW241941   2.874   3.884   8.484
13973SOL     OW41942   2.452   5.211   7.939
13973SOL    HW141943   2.494   5.153   7.869
13973SOL    HW241944   2.408   5.290   7.895
13974SOL     OW41945   3.571   4.109   8.829
13974SOL    HW141946   3.644   4.178   8.833
13974SOL    HW241947   3.599   4.034   8.770
13975SOL     OW41948   2.117   5.072   7.738
13975SOL    HW141949   2.021   5.073   7.711
13975SOL    HW241950   2.129   5.125   7.822
13976SOL     OW41951   1.967   4.737   9.174
13976SOL    HW141952   1.890   4.704   9.228
13976SOL    HW241953   2.052   4.707   9.216
13977SOL     OW41954   2.534   3.927   8.937
13977SOL    HW141955   2.624   3.911   8.897
13977SOL    HW241956   2.542   3.932   9.036
13978SOL     OW41957   1.937   4.069   7.481
13978SOL    HW141958   1.845   4.041   7.452
13978SOL    HW241959   1.968   4.146   7.425
13979SOL     OW41960   3.302   4.580   8.846
13979SOL    HW141961   3.245   4.632   8.783
13979SOL    HW241962   3.398   4.592   8.822
13980SOL     OW41963   1.934   3.890   7.766
13980SOL    HW141964   1.917   3.973   7.712
13980SOL    HW241965   2.024   3.853   7.744
13981SOL     OW41966   3.045   5.059   7.567
13981SOL    HW141967   2.946   5.048   7.569
13981SOL    HW241968   3.079   5.074   7.660
13982SOL     OW41969   2.475   4.566   8.879
13982SOL    HW141970   2.531   4.647   8.862
13982SOL    HW241971   2.534   4.486   8.882
13983SOL     OW41972   3.355   5.491   8.407
13983SOL    HW141973   3.388   5.555   8.338
13983SOL    HW241974   3.421   5.485   8.482
13984SOL     OW41975   2.578   4.289   9.156
13984SOL    HW141976   2.597   4.354   9.230
13984SOL    HW241977   2.638   4.209   9.165
13985SOL     OW41978   3.312   4.944   9.081
13985SOL    HW141979   3.303   4.934   9.180
13985SOL    HW241980   3.408   4.937   9.055
13986SOL     OW41981   2.252   5.465   9.008
13986SOL    HW141982   2.161   5.506   9.006
13986SOL    HW241983   2.245   5.371   9.040
13987SOL     OW41984   3.536   4.607   8.702
13987SOL    HW141985   3.509   4.518   8.665
13987SOL    HW241986   3.537   4.675   8.629
13988SOL     OW41987   3.087   4.049   7.897
13988SOL    HW141988   3.152   3.975   7.886
13988SOL    HW241989   3.107   4.099   7.981
13989SOL     OW41990   2.456   4.469   8.100
13989SOL    HW141991   2.506   4.554   8.081
13989SOL    HW241992   2.368   4.471   8.052
13990SOL     OW41993   3.639   4.066   9.090
13990SOL    HW141994   3.622   4.097   8.996
13990SOL    HW241995   3.555   4.029   9.128
13991SOL     OW41996   3.592   4.658   8.965
13991SOL    HW141997   3.630   4.749   8.980
13991SOL    HW241998   3.584   4.641   8.866
13992SOL     OW41999   2.721   5.098   7.464
13992SOL    HW142000   2.675   5.113   7.552
13992SOL    HW242001   2.765   5.183   7.434
13993SOL     OW42002   2.523   5.514   8.401
13993SOL    HW142003   2.477   5.602   8.388
13993SOL    HW242004   2.622   5.526   8.394
13994SOL     OW42005   2.721   4.680   8.309
13994SOL    HW142006   2.775   4.611   8.357
13994SOL    HW242007   2.689   4.749   8.375
13995SOL     OW42008   2.945   4.708   7.535
13995SOL    HW142009   2.922   4.761   7.453
13995SOL    HW242010   3.026   4.652   7.516
13996SOL     OW42011   3.723   5.293   8.299
13996SOL    HW142012   3.652   5.281   8.229
13996SOL    HW242013   3.724   5.214   8.359
13997SOL     OW42014   2.083   5.038   9.292
13997SOL    HW142015   2.018   4.965   9.271
13997SOL    HW242016   2.087   5.052   9.390
13998SOL     OW42017   1.941   4.964   8.101
13998SOL    HW142018   1.940   4.917   8.189
13998SOL    HW242019   2.023   4.936   8.050
13999SOL     OW42020   2.534   5.115   9.072
13999SOL    HW142021   2.456   5.065   9.110
13999SOL    HW242022   2.531   5.210   9.103
14000SOL     OW42023   3.686   3.916   8.675
14000SOL    HW142024   3.682   3.826   8.719
14000SOL    HW242025   3.689   3.905   8.576
14001SOL     OW42026   2.290   4.148   7.968
14001SOL    HW142027   2.320   4.076   7.906
14001SOL    HW242028   2.251   4.108   8.051
14002SOL     OW42029   3.567   5.211   8.552
14002SOL    HW142030   3.474   5.186   8.525
14002SOL    HW242031   3.593   5.161   8.634
14003SOL     OW42032   2.179   4.271   8.728
14003SOL    HW142033   2.217   4.212   8.800
14003SOL    HW242034   2.219   4.245   8.640
14004SOL     OW42035   2.674   5.310   8.135
14004SOL    HW142036   2.706   5.320   8.041
14004SOL    HW242037   2.595   5.248   8.137
14005SOL     OW42038   3.286   3.938   8.560
14005SOL    HW142039   3.338   3.873   8.615
14005SOL    HW242040   3.237   4.001   8.621
14006SOL     OW42041   2.863   3.758   8.602
14006SOL    HW142042   2.800   3.686   8.571
14006SOL    HW242043   2.956   3.722   8.602
14007SOL     OW42044   2.632   5.054   7.749
14007SOL    HW142045   2.586   4.967   7.766
14007SOL    HW242046   2.723   5.051   7.790
14008SOL     OW42047   2.480   5.291   8.732
14008SOL    HW142048   2.475   5.373   8.789
14008SOL    HW242049   2.569   5.288   8.687
14009SOL     OW42050   3.214   3.776   7.616
14009SOL    HW142051   3.249   3.735   7.532
14009SOL    HW242052   3.124   3.738   7.636
14010SOL     OW42053   3.162   4.177   8.139
14010SOL    HW142054   3.103   4.257   8.143
14010SOL    HW242055   3.177   4.142   8.232
14011SOL     OW42056   3.455   3.945   8.330
14011SOL    HW142057   3.371   3.944   8.384
14011SOL    HW242058   3.457   4.028   8.274
14012SOL     OW42059   1.901   4.801   7.748
14012SOL    HW142060   2.000   4.790   7.739
14012SOL    HW242061   1.861   4.715   7.780
14013SOL     OW42062   2.737   5.370   7.785
14013SOL    HW142063   2.660   5.335   7.731
14013SOL    HW242064   2.705   5.441   7.847
14014SOL     OW42065   2.092   4.352   9.423
14014SOL    HW142066   1.999   4.350   9.460
14014SOL    HW242067   2.093   4.313   9.331
14015SOL     OW42068   2.087   3.999  10.306
14015SOL    HW142069   2.122   3.982  10.398
14015SOL    HW242070   1.999   3.954  10.294
14016SOL     OW42071   1.881   4.092   9.957
14016SOL    HW142072   1.799   4.135   9.996
14016SOL    HW242073   1.853   4.019   9.894
14017SOL     OW42074   2.431   4.999  10.475
14017SOL    HW142075   2.338   4.992  10.438
14017SOL    HW242076   2.442   5.088  10.519
14018SOL     OW42077   3.417   5.235  10.013
14018SOL    HW142078   3.360   5.219  10.094
14018SOL    HW242079   3.358   5.245   9.933
14019SOL     OW42080   2.997   4.427  10.027
14019SOL    HW142081   3.054   4.505  10.002
14019SOL    HW242082   2.937   4.453  10.103
14020SOL     OW42083   3.617   4.331   9.541
14020SOL    HW142084   3.605   4.318   9.442
14020SOL    HW242085   3.587   4.250   9.590
14021SOL     OW42086   2.630   4.868  10.333
14021SOL    HW142087   2.552   4.885  10.393
14021SOL    HW242088   2.664   4.955  10.297
14022SOL     OW42089   2.712   4.522  11.133
14022SOL    HW142090   2.708   4.598  11.198
14022SOL    HW242091   2.734   4.558  11.042
14023SOL     OW42092   2.547   4.736   9.975
14023SOL    HW142093   2.616   4.720  10.045
14023SOL    HW242094   2.474   4.793  10.013
14024SOL     OW42095   2.548   4.885  11.113
14024SOL    HW142096   2.608   4.964  11.127
14024SOL    HW242097   2.462   4.916  11.072
14025SOL     OW42098   2.197   5.159  10.371
14025SOL    HW142099   2.119   5.128  10.318
14025SOL    HW242100   2.255   5.217  10.314
14026SOL     OW42101   3.322   5.229  10.649
14026SOL    HW142102   3.346   5.323  10.675
14026SOL    HW242103   3.306   5.175  10.731
14027SOL     OW42104   2.300   4.116  10.809
14027SOL    HW142105   2.382   4.060  10.818
14027SOL    HW242106   2.219   4.058  10.813
14028SOL     OW42107   3.465   4.171  10.047
14028SOL    HW142108   3.391   4.217   9.997
14028SOL    HW242109   3.516   4.239  10.100
14029SOL     OW42110   2.093   5.437   9.793
14029SOL    HW142111   2.127   5.514   9.847
14029SOL    HW242112   2.137   5.437   9.703
14030SOL     OW42113   2.989   5.065  11.000
14030SOL    HW142114   3.036   5.065  11.088
14030SOL    HW242115   2.941   4.978  10.989
14031SOL     OW42116   2.092   5.158   9.848
14031SOL    HW142117   2.066   5.254   9.848
14031SOL    HW242118   2.021   5.104   9.893
14032SOL     OW42119   2.102   4.815  10.196
14032SOL    HW142120   2.116   4.731  10.248
14032SOL    HW242121   2.047   4.879  10.251
14033SOL     OW42122   2.482   5.510  10.749
14033SOL    HW142123   2.390   5.493  10.784
14033SOL    HW242124   2.510   5.602  10.775
14034SOL     OW42125   2.468   4.688   9.433
14034SOL    HW142126   2.475   4.772   9.379
14034SOL    HW242127   2.514   4.701   9.521
14035SOL     OW42128   3.456   3.838  10.790
14035SOL    HW142129   3.438   3.905  10.718
14035SOL    HW242130   3.453   3.884  10.879
14036SOL     OW42131   1.984   4.367   9.873
14036SOL    HW142132   1.939   4.279   9.890
14036SOL    HW242133   1.983   4.421   9.957
14037SOL     OW42134   3.704   5.491   9.669
14037SOL    HW142135   3.758   5.462   9.749
14037SOL    HW242136   3.734   5.581   9.640
14038SOL     OW42137   1.889   5.320   9.427
14038SOL    HW142138   1.870   5.224   9.448
14038SOL    HW242139   1.856   5.378   9.502
14039SOL     OW42140   3.551   4.646   9.922
14039SOL    HW142141   3.646   4.617   9.930
14039SOL    HW242142   3.543   4.711   9.847
14040SOL     OW42143   3.503   4.832   9.742
14040SOL    HW142144   3.589   4.834   9.690
14040SOL    HW242145   3.517   4.879   9.830
14041SOL     OW42146   1.975   4.461  10.907
14041SOL    HW142147   2.063   4.448  10.952
14041SOL    HW242148   1.962   4.558  10.885
14042SOL     OW42149   2.475   5.089  10.036
14042SOL    HW142150   2.426   5.002  10.045
14042SOL    HW242151   2.452   5.132   9.949
14043SOL     OW42152   3.155   4.952  10.733
14043SOL    HW142153   3.192   4.879  10.675
14043SOL    HW242154   3.207   4.957  10.818
14044SOL     OW42155   2.671   3.728   9.812
14044SOL    HW142156   2.711   3.819   9.803
14044SOL    HW242157   2.571   3.736   9.818
14045SOL     OW42158   2.059   4.700  10.574
14045SOL    HW142159   2.148   4.655  10.560
14045SOL    HW242160   1.986   4.635  10.555
14046SOL     OW42161   3.387   4.723   9.500
14046SOL    HW142162   3.324   4.647   9.513
14046SOL    HW242163   3.435   4.741   9.586
14047SOL     OW42164   3.049   5.516  10.926
14047SOL    HW142165   3.073   5.576  10.850
14047SOL    HW242166   3.056   5.421  10.896
14048SOL     OW42167   2.179   3.975  11.111
14048SOL    HW142168   2.250   4.046  11.117
14048SOL    HW242169   2.091   4.014  11.139
14049SOL     OW42170   3.328   5.141  10.263
14049SOL    HW142171   3.269   5.147  10.343
14049SOL    HW242172   3.313   5.053  10.217
14050SOL     OW42173   3.529   5.438   9.882
14050SOL    HW142174   3.488   5.415   9.794
14050SOL    HW242175   3.511   5.364   9.947
14051SOL     OW42176   2.460   4.453   9.580
14051SOL    HW142177   2.484   4.522   9.512
14051SOL    HW242178   2.382   4.486   9.634
14052SOL     OW42179   3.143   4.069  10.254
14052SOL    HW142180   3.057   4.019  10.241
14052SOL    HW242181   3.205   4.015  10.310
14053SOL     OW42182   3.438   5.386   9.617
14053SOL    HW142183   3.527   5.432   9.620
14053SOL    HW242184   3.417   5.362   9.522
14054SOL     OW42185   2.669   4.329  10.775
14054SOL    HW142186   2.622   4.326  10.864
14054SOL    HW242187   2.618   4.274  10.709
14055SOL     OW42188   3.256   4.193  10.984
14055SOL    HW142189   3.236   4.236  11.072
14055SOL    HW242190   3.334   4.131  10.993
14056SOL     OW42191   2.835   4.614  10.882
14056SOL    HW142192   2.881   4.530  10.853
14056SOL    HW242193   2.779   4.648  10.807
14057SOL     OW42194   2.853   4.134  10.552
14057SOL    HW142195   2.776   4.168  10.606
14057SOL    HW242196   2.819   4.083  10.473
14058SOL     OW42197   2.903   4.425   9.739
14058SOL    HW142198   2.929   4.421   9.835
14058SOL    HW242199   2.818   4.374   9.725
14059SOL     OW42200   1.938   4.535  10.099
14059SOL    HW142201   2.037   4.523  10.108
14059SOL    HW242202   1.914   4.630  10.120
14060SOL     OW42203   1.992   5.545  10.881
14060SOL    HW142204   1.982   5.530  10.980
14060SOL    HW242205   1.906   5.581  10.845
14061SOL     OW42206   2.727   4.072   9.505
14061SOL    HW142207   2.786   4.135   9.456
14061SOL    HW242208   2.746   3.978   9.476
14062SOL     OW42209   3.581   4.309  11.141
14062SOL    HW142210   3.555   4.398  11.105
14062SOL    HW242211   3.579   4.241  11.068
14063SOL     OW42212   3.224   4.868   9.855
14063SOL    HW142213   3.307   4.839   9.807
14063SOL    HW242214   3.175   4.935   9.799
14064SOL     OW42215   2.412   3.920  10.195
14064SOL    HW142216   2.407   3.915  10.295
14064SOL    HW242217   2.414   4.016  10.166
14065SOL     OW42218   2.870   5.180   9.787
14065SOL    HW142219   2.824   5.252   9.735
14065SOL    HW242220   2.866   5.200   9.885
14066SOL     OW42221   2.213   5.525  10.163
14066SOL    HW142222   2.263   5.439  10.169
14066SOL    HW242223   2.278   5.602  10.160
14067SOL     OW42224   3.657   4.790  10.183
14067SOL    HW142225   3.595   4.775  10.107
14067SOL    HW242226   3.605   4.801  10.268
14068SOL     OW42227   3.089   5.274  10.816
14068SOL    HW142228   3.095   5.197  10.880
14068SOL    HW242229   3.037   5.248  10.736
14069SOL     OW42230   2.183   4.667   9.552
14069SOL    HW142231   2.265   4.706   9.510
14069SOL    HW242232   2.156   4.585   9.503
14070SOL     OW42233   3.320   4.459  10.038
14070SOL    HW142234   3.315   4.394  10.113
14070SOL    HW242235   3.400   4.518  10.051
14071SOL     OW42236   2.323   4.990  11.037
14071SOL    HW142237   2.273   4.991  10.951
14071SOL    HW242238   2.260   4.972  11.113
14072SOL     OW42239   2.973   5.500   9.547
14072SOL    HW142240   2.913   5.438   9.597
14072SOL    HW242241   3.004   5.456   9.462
14073SOL     OW42242   2.064   4.009  10.808
14073SOL    HW142243   1.984   4.069  10.795
14073SOL    HW242244   2.054   3.960  10.894
14074SOL     OW42245   3.494   5.101   9.391
14074SOL    HW142246   3.462   5.195   9.381
14074SOL    HW242247   3.418   5.038   9.379
14075SOL     OW42248   2.326   5.467   9.633
14075SOL    HW142249   2.359   5.506   9.719
14075SOL    HW242250   2.402   5.460   9.568
14076SOL     OW42251   3.262   3.831   9.736
14076SOL    HW142252   3.238   3.794   9.646
14076SOL    HW242253   3.361   3.847   9.740
14077SOL     OW42254   2.111   5.509  10.551
14077SOL    HW142255   2.168   5.444  10.601
14077SOL    HW242256   2.095   5.476  10.458
14078SOL     OW42257   2.802   5.422  10.214
14078SOL    HW142258   2.882   5.365  10.235
14078SOL    HW242259   2.753   5.382  10.137
14079SOL     OW42260   2.244   4.424   9.790
14079SOL    HW142261   2.289   4.334   9.787
14079SOL    HW242262   2.150   4.413   9.823
14080SOL     OW42263   3.409   3.946  11.039
14080SOL    HW142264   3.404   3.983  11.131
14080SOL    HW242265   3.337   3.877  11.027
14081SOL     OW42266   2.476   3.846   9.427
14081SOL    HW142267   2.574   3.824   9.434
14081SOL    HW242268   2.445   3.829   9.334
14082SOL     OW42269   2.643   3.988  11.059
14082SOL    HW142270   2.710   3.927  11.102
14082SOL    HW242271   2.570   4.007  11.124
14083SOL     OW42272   2.750   5.238  10.505
14083SOL    HW142273   2.727   5.213  10.411
14083SOL    HW242274   2.811   5.169  10.544
14084SOL     OW42275   3.213   4.314  10.743
14084SOL    HW142276   3.241   4.271  10.828
14084SOL    HW242277   3.238   4.410  10.744
14085SOL     OW42278   2.665   5.126  10.234
14085SOL    HW142279   2.755   5.140  10.192
14085SOL    HW242280   2.594   5.128  10.163
14086SOL     OW42281   2.784   4.227  10.209
14086SOL    HW142282   2.759   4.218  10.113
14086SOL    HW242283   2.832   4.145  10.240
14087SOL     OW42284   2.401   3.788   9.822
14087SOL    HW142285   2.320   3.789   9.880
14087SOL    HW242286   2.404   3.871   9.767
14088SOL     OW42287   3.296   4.912   9.351
14088SOL    HW142288   3.328   4.836   9.408
14088SOL    HW242289   3.204   4.939   9.381
14089SOL     OW42290   2.159   3.759   9.481
14089SOL    HW142291   2.208   3.843   9.460
14089SOL    HW242292   2.221   3.694   9.526
14090SOL     OW42293   2.797   3.960   9.790
14090SOL    HW142294   2.749   4.001   9.712
14090SOL    HW242295   2.896   3.958   9.771
14091SOL     OW42296   2.938   4.407  10.774
14091SOL    HW142297   2.858   4.346  10.777
14091SOL    HW242298   3.019   4.354  10.750
14092SOL     OW42299   3.089   5.294  10.103
14092SOL    HW142300   3.110   5.368  10.038
14092SOL    HW242301   3.157   5.294  10.176
14093SOL     OW42302   2.321   4.876  10.051
14093SOL    HW142303   2.250   4.849  10.116
14093SOL    HW242304   2.295   4.848   9.958
14094SOL     OW42305   3.133   5.521   9.901
14094SOL    HW142306   3.177   5.585   9.837
14094SOL    HW242307   3.083   5.573   9.971
14095SOL     OW42308   2.894   4.273   9.326
14095SOL    HW142309   2.853   4.355   9.287
14095SOL    HW242310   2.958   4.299   9.399
14096SOL     OW42311   1.940   4.280  10.696
14096SOL    HW142312   2.032   4.279  10.655
14096SOL    HW242313   1.934   4.354  10.763
14097SOL     OW42314   2.423   3.946  10.457
14097SOL    HW142315   2.461   3.862  10.494
14097SOL    HW242316   2.335   3.965  10.501
14098SOL     OW42317   2.728   4.178   9.952
14098SOL    HW142318   2.696   4.250   9.890
14098SOL    HW242319   2.752   4.097   9.899
14099SOL     OW42320   2.879   3.763  10.063
14099SOL    HW142321   2.807   3.768   9.994
14099SOL    HW242322   2.855   3.694  10.132
14100SOL     OW42323   3.291   4.897  10.177
14100SOL    HW142324   3.236   4.813  10.170
14100SOL    HW242325   3.317   4.926  10.085
14101SOL     OW42326   3.328   4.314  10.302
14101SOL    HW142327   3.298   4.219  10.309
14101SOL    HW242328   3.401   4.330  10.368
14102SOL     OW42329   3.719   4.557   9.687
14102SOL    HW142330   3.761   4.493   9.751
14102SOL    HW242331   3.681   4.506   9.609
14103SOL     OW42332   2.350   5.109   9.484
14103SOL    HW142333   2.263   5.094   9.531
14103SOL    HW242334   2.333   5.135   9.389
14104SOL     OW42335   3.526   5.004   9.967
14104SOL    HW142336   3.625   5.012   9.981
14104SOL    HW242337   3.481   5.088   9.998
14105SOL     OW42338   3.252   4.299   9.388
14105SOL    HW142339   3.198   4.278   9.469
14105SOL    HW242340   3.343   4.258   9.397
14106SOL     OW42341   2.389   3.980   9.638
14106SOL    HW142342   2.416   3.921   9.563
14106SOL    HW242343   2.389   4.075   9.607
14107SOL     OW42344   3.616   4.947  10.898
14107SOL    HW142345   3.707   4.908  10.885
14107SOL    HW242346   3.624   5.043  10.922
14108SOL     OW42347   2.926   5.071  10.650
14108SOL    HW142348   2.846   5.048  10.705
14108SOL    HW242349   3.009   5.045  10.699
14109SOL     OW42350   3.454   5.353  10.935
14109SOL    HW142351   3.481   5.387  10.845
14109SOL    HW242352   3.533   5.315  10.981
14110SOL     OW42353   2.973   4.919  10.410
14110SOL    HW142354   2.933   4.963  10.491
14110SOL    HW242355   2.932   4.956  10.327
14111SOL     OW42356   3.500   4.823  10.389
14111SOL    HW142357   3.505   4.904  10.448
14111SOL    HW242358   3.414   4.825  10.338
14112SOL     OW42359   2.777   3.813  10.712
14112SOL    HW142360   2.802   3.793  10.617
14112SOL    HW242361   2.849   3.869  10.754
14113SOL     OW42362   2.842   4.840  11.029
14113SOL    HW142363   2.743   4.846  11.039
14113SOL    HW242364   2.865   4.760  10.973
14114SOL     OW42365   2.567   4.774   9.678
14114SOL    HW142366   2.553   4.781   9.777
14114SOL    HW242367   2.651   4.723   9.660
14115SOL     OW42368   2.272   4.537  10.561
14115SOL    HW142369   2.358   4.549  10.611
14115SOL    HW242370   2.230   4.450  10.588
14116SOL     OW42371   3.136   4.110  10.572
14116SOL    HW142372   3.157   4.184  10.636
14116SOL    HW242373   3.047   4.127  10.529
14117SOL     OW42374   1.926   5.288  10.641
14117SOL    HW142375   1.880   5.370  10.607
14117SOL    HW242376   2.024   5.307  10.650
14118SOL     OW42377   2.229   4.824   9.811
14118SOL    HW142378   2.222   4.907   9.755
14118SOL    HW242379   2.233   4.744   9.751
14119SOL     OW42380   2.428   4.261  10.175
14119SOL    HW142381   2.440   4.327  10.101
14119SOL    HW242382   2.474   4.295  10.258
14120SOL     OW42383   3.114   5.072   9.698
14120SOL    HW142384   3.164   5.149   9.738
14120SOL    HW242385   3.019   5.074   9.730
14121SOL     OW42386   3.134   5.169  10.452
14121SOL    HW142387   3.181   5.182  10.539
14121SOL    HW242388   3.068   5.095  10.461
14122SOL     OW42389   3.444   4.363   9.782
14122SOL    HW142390   3.413   4.424   9.855
14122SOL    HW242391   3.494   4.415   9.713
14123SOL     OW42392   2.216   5.234  10.639
14123SOL    HW142393   2.195   5.190  10.552
14123SOL    HW242394   2.313   5.260  10.642
14124SOL     OW42395   2.264   4.475  10.908
14124SOL    HW142396   2.332   4.530  10.861
14124SOL    HW242397   2.304   4.387  10.935
14125SOL     OW42398   3.449   4.503  10.980
14125SOL    HW142399   3.357   4.541  10.975
14125SOL    HW242400   3.509   4.550  10.915
14126SOL     OW42401   2.875   3.829  11.080
14126SOL    HW142402   2.881   3.914  11.028
14126SOL    HW242403   2.907   3.753  11.023
14127SOL     OW42404   2.366   3.774  11.050
14127SOL    HW142405   2.324   3.717  10.980
14127SOL    HW242406   2.300   3.843  11.082
14128SOL     OW42407   2.435   4.594  10.339
14128SOL    HW142408   2.479   4.683  10.330
14128SOL    HW242409   2.372   4.594  10.416
14129SOL     OW42410   3.222   4.586  10.355
14129SOL    HW142411   3.147   4.586  10.289
14129SOL    HW242412   3.259   4.494  10.364
14130SOL     OW42413   3.071   4.249   9.585
14130SOL    HW142414   3.084   4.165   9.639
14130SOL    HW242415   3.042   4.323   9.645
14131SOL     OW42416   2.169   3.937  10.541
14131SOL    HW142417   2.146   3.974  10.631
14131SOL    HW242418   2.139   3.842  10.535
14132SOL     OW42419   1.899   5.034  10.592
14132SOL    HW142420   1.952   4.985  10.660
14132SOL    HW242421   1.921   5.132  10.597
14133SOL     OW42422   2.594   4.358  10.374
14133SOL    HW142423   2.653   4.332  10.298
14133SOL    HW242424   2.566   4.454  10.363
14134SOL     OW42425   3.590   4.659  11.164
14134SOL    HW142426   3.544   4.652  11.075
14134SOL    HW242427   3.528   4.703  11.230
14135SOL     OW42428   2.169   3.787   9.928
14135SOL    HW142429   2.158   3.881   9.961
14135SOL    HW242430   2.164   3.724  10.005
14136SOL     OW42431   3.484   4.091   9.684
14136SOL    HW142432   3.486   4.015   9.748
14136SOL    HW242433   3.436   4.168   9.724
14137SOL     OW42434   2.885   4.490  10.276
14137SOL    HW142435   2.900   4.511  10.372
14137SOL    HW242436   2.855   4.395  10.267
14138SOL     OW42437   2.842   5.297  11.010
14138SOL    HW142438   2.822   5.341  10.922
14138SOL    HW242439   2.881   5.206  10.994
14139SOL     OW42440   3.721   5.242  10.915
14139SOL    HW142441   3.735   5.269  10.820
14139SOL    HW242442   3.804   5.264  10.968
14140SOL     OW42443   2.212   4.622  11.114
14140SOL    HW142444   2.288   4.666  11.162
14140SOL    HW242445   2.247   4.575  11.032
14141SOL     OW42446   3.402   3.998   9.435
14141SOL    HW142447   3.341   3.923   9.458
14141SOL    HW242448   3.424   4.050   9.518
14142SOL     OW42449   3.165   4.562   9.352
14142SOL    HW142450   3.199   4.469   9.367
14142SOL    HW242451   3.183   4.589   9.257
14143SOL     OW42452   2.930   5.057  10.159
14143SOL    HW142453   2.937   4.973  10.104
14143SOL    HW242454   2.992   5.126  10.123
14144SOL     OW42455   2.181   4.534  10.259
14144SOL    HW142456   2.274   4.570  10.264
14144SOL    HW242457   2.175   4.449  10.311
14145SOL     OW42458   2.201   4.233  10.316
14145SOL    HW142459   2.149   4.150  10.299
14145SOL    HW242460   2.278   4.238  10.252
14146SOL     OW42461   3.000   4.104  10.988
14146SOL    HW142462   2.955   4.167  11.052
14146SOL    HW242463   3.093   4.135  10.971
14147SOL     OW42464   3.022   3.931  10.787
14147SOL    HW142465   3.022   3.995  10.864
14147SOL    HW242466   3.050   3.979  10.704
14148SOL     OW42467   1.870   5.050   9.510
14148SOL    HW142468   1.777   5.071   9.479
14148SOL    HW242469   1.880   4.951   9.523
14149SOL     OW42470   1.950   5.525  10.237
14149SOL    HW142471   1.908   5.439  10.210
14149SOL    HW242472   2.044   5.528  10.203
14150SOL     OW42473   2.366   5.292  10.220
14150SOL    HW142474   2.432   5.366  10.229
14150SOL    HW242475   2.410   5.213  10.178
14151SOL     OW42476   2.864   4.520  10.548
14151SOL    HW142477   2.905   4.488  10.634
14151SOL    HW242478   2.768   4.493  10.545
14152SOL     OW42479   1.902   4.268  10.424
14152SOL    HW142480   1.987   4.235  10.383
14152SOL    HW242481   1.915   4.283  10.522
14153SOL     OW42482   2.051   4.244  11.032
14153SOL    HW142483   2.110   4.204  10.962
14153SOL    HW242484   1.993   4.315  10.991
14154SOL     OW42485   3.231   4.674  10.970
14154SOL    HW142486   3.270   4.763  10.990
14154SOL    HW242487   3.241   4.654  10.873
14155SOL     OW42488   2.677   4.296   9.635
14155SOL    HW142489   2.684   4.207   9.589
14155SOL    HW242490   2.583   4.330   9.627
14156SOL     OW42491   3.519   4.328  10.516
14156SOL    HW142492   3.481   4.259  10.578
14156SOL    HW242493   3.601   4.292  10.472
14157SOL     OW42494   2.114   5.288  11.054
14157SOL    HW142495   2.084   5.345  11.130
14157SOL    HW242496   2.107   5.191  11.080
14158SOL     OW42497   2.533   4.188  10.579
14158SOL    HW142498   2.499   4.099  10.549
14158SOL    HW242499   2.559   4.242  10.499
14159SOL     OW42500   2.792   5.402  10.775
14159SOL    HW142501   2.768   5.384  10.680
14159SOL    HW242502   2.822   5.496  10.785
14160SOL     OW42503   2.335   4.224   9.501
14160SOL    HW142504   2.396   4.304   9.505
14160SOL    HW242505   2.240   4.255   9.508
14161SOL     OW42506   2.021   4.861  10.776
14161SOL    HW142507   2.043   4.800  10.852
14161SOL    HW242508   2.031   4.812  10.690
14162SOL     OW42509   3.209   4.783  10.544
14162SOL    HW142510   3.233   4.720  10.470
14162SOL    HW242511   3.119   4.823  10.526
14163SOL     OW42512   3.164   4.579   9.619
14163SOL    HW142513   3.078   4.548   9.661
14163SOL    HW242514   3.160   4.565   9.520
14164SOL     OW42515   3.621   5.471  10.464
14164SOL    HW142516   3.682   5.501  10.391
14164SOL    HW242517   3.583   5.382  10.442
14165SOL     OW42518   3.114   5.455  10.438
14165SOL    HW142519   3.198   5.460  10.384
14165SOL    HW242520   3.091   5.359  10.456
14166SOL     OW42521   1.945   4.982  10.332
14166SOL    HW142522   1.940   4.981  10.432
14166SOL    HW242523   1.862   4.941  10.294
14167SOL     OW42524   2.550   5.386  11.026
14167SOL    HW142525   2.494   5.467  11.035
14167SOL    HW242526   2.602   5.390  10.940
14168SOL     OW42527   3.588   3.859   9.833
14168SOL    HW142528   3.661   3.842   9.766
14168SOL    HW242529   3.557   3.772   9.871
14169SOL     OW42530   3.250   5.297   9.787
14169SOL    HW142531   3.317   5.309   9.713
14169SOL    HW242532   3.210   5.386   9.810
14170SOL     OW42533   1.992   5.518  11.161
14170SOL    HW142534   1.951   5.444  11.214
14170SOL    HW242535   2.056   5.569  11.219
14171SOL     OW42536   3.142   4.651   9.982
14171SOL    HW142537   3.202   4.570   9.984
14171SOL    HW242538   3.182   4.720   9.922
14172SOL     OW42539   2.692   4.997  10.732
14172SOL    HW142540   2.687   5.030  10.827
14172SOL    HW242541   2.606   5.016  10.686
14173SOL     OW42542   2.534   5.340   9.464
14173SOL    HW142543   2.543   5.350   9.365
14173SOL    HW242544   2.494   5.251   9.485
14174SOL     OW42545   3.512   5.444  10.704
14174SOL    HW142546   3.565   5.454  10.620
14174SOL    HW242547   3.485   5.534  10.738
14175SOL     OW42548   3.703   3.899  10.273
14175SOL    HW142549   3.742   3.814  10.237
14175SOL    HW242550   3.605   3.901  10.254
14176SOL     OW42551   2.125   4.050  10.030
14176SOL    HW142552   2.046   4.101   9.996
14176SOL    HW242553   2.116   4.035  10.128
14177SOL     OW42554   3.056   5.336   9.341
14177SOL    HW142555   3.062   5.243   9.378
14177SOL    HW242556   2.997   5.336   9.261
14178SOL     OW42557   2.684   4.726  10.682
14178SOL    HW142558   2.724   4.725  10.590
14178SOL    HW242559   2.694   4.818  10.722
14179SOL     OW42560   2.778   4.634   9.601
14179SOL    HW142561   2.841   4.672   9.533
14179SOL    HW242562   2.818   4.551   9.640
14180SOL     OW42563   3.366   5.331   9.354
14180SOL    HW142564   3.274   5.368   9.361
14180SOL    HW242565   3.404   5.351   9.264
14181SOL     OW42566   2.234   5.012  10.800
14181SOL    HW142567   2.221   5.105  10.766
14181SOL    HW242568   2.150   4.960  10.787
14182SOL     OW42569   3.476   5.016  10.599
14182SOL    HW142570   3.536   5.019  10.679
14182SOL    HW242571   3.401   5.080  10.612
14183SOL     OW42572   2.901   4.822  10.006
14183SOL    HW142573   2.831   4.775  10.060
14183SOL    HW242574   2.960   4.754   9.963
14184SOL     OW42575   2.876   3.960  10.281
14184SOL    HW142576   2.868   3.924  10.188
14184SOL    HW242577   2.874   3.884  10.346
14185SOL     OW42578   2.452   5.211   9.801
14185SOL    HW142579   2.494   5.153   9.731
14185SOL    HW242580   2.408   5.290   9.757
14186SOL     OW42581   3.571   4.109  10.691
14186SOL    HW142582   3.644   4.178  10.695
14186SOL    HW242583   3.599   4.034  10.632
14187SOL     OW42584   2.117   5.072   9.600
14187SOL    HW142585   2.021   5.073   9.573
14187SOL    HW242586   2.129   5.125   9.684
14188SOL     OW42587   1.967   4.737  11.036
14188SOL    HW142588   1.890   4.704  11.090
14188SOL    HW242589   2.052   4.707  11.078
14189SOL     OW42590   2.534   3.927  10.799
14189SOL    HW142591   2.624   3.911  10.759
14189SOL    HW242592   2.542   3.932  10.898
14190SOL     OW42593   1.937   4.069   9.343
14190SOL    HW142594   1.845   4.041   9.314
14190SOL    HW242595   1.968   4.146   9.287
14191SOL     OW42596   3.302   4.580  10.708
14191SOL    HW142597   3.245   4.632  10.645
14191SOL    HW242598   3.398   4.592  10.684
14192SOL     OW42599   1.934   3.890   9.628
14192SOL    HW142600   1.917   3.973   9.574
14192SOL    HW242601   2.024   3.853   9.606
14193SOL     OW42602   3.045   5.059   9.429
14193SOL    HW142603   2.946   5.048   9.431
14193SOL    HW242604   3.079   5.074   9.522
14194SOL     OW42605   2.475   4.566  10.741
14194SOL    HW142606   2.531   4.647  10.724
14194SOL    HW242607   2.534   4.486  10.744
14195SOL     OW42608   3.355   5.491  10.269
14195SOL    HW142609   3.388   5.555  10.200
14195SOL    HW242610   3.421   5.485  10.344
14196SOL     OW42611   2.578   4.289  11.018
14196SOL    HW142612   2.597   4.354  11.092
14196SOL    HW242613   2.638   4.209  11.027
14197SOL     OW42614   3.312   4.944  10.943
14197SOL    HW142615   3.303   4.934  11.042
14197SOL    HW242616   3.408   4.937  10.917
14198SOL     OW42617   2.252   5.465  10.870
14198SOL    HW142618   2.161   5.506  10.868
14198SOL    HW242619   2.245   5.371  10.902
14199SOL     OW42620   3.536   4.607  10.564
14199SOL    HW142621   3.509   4.518  10.527
14199SOL    HW242622   3.537   4.675  10.491
14200SOL     OW42623   3.087   4.049   9.759
14200SOL    HW142624   3.152   3.975   9.748
14200SOL    HW242625   3.107   4.099   9.843
14201SOL     OW42626   2.456   4.469   9.962
14201SOL    HW142627   2.506   4.554   9.943
14201SOL    HW242628   2.368   4.471   9.914
14202SOL     OW42629   3.639   4.066  10.952
14202SOL    HW142630   3.622   4.097  10.858
14202SOL    HW242631   3.555   4.029  10.990
14203SOL     OW42632   3.592   4.658  10.827
14203SOL    HW142633   3.630   4.749  10.842
14203SOL    HW242634   3.584   4.641  10.728
14204SOL     OW42635   2.721   5.098   9.326
14204SOL    HW142636   2.675   5.113   9.414
14204SOL    HW242637   2.765   5.183   9.296
14205SOL     OW42638   2.523   5.514  10.263
14205SOL    HW142639   2.477   5.602  10.250
14205SOL    HW242640   2.622   5.526  10.256
14206SOL     OW42641   2.721   4.680  10.171
14206SOL    HW142642   2.775   4.611  10.219
14206SOL    HW242643   2.689   4.749  10.237
14207SOL     OW42644   2.945   4.708   9.397
14207SOL    HW142645   2.922   4.761   9.315
14207SOL    HW242646   3.026   4.652   9.378
14208SOL     OW42647   3.723   5.293  10.161
14208SOL    HW142648   3.652   5.281  10.091
14208SOL    HW242649   3.724   5.214  10.221
14209SOL     OW42650   2.083   5.038  11.154
14209SOL    HW142651   2.018   4.965  11.133
14209SOL    HW242652   2.087   5.052  11.252
14210SOL     OW42653   1.941   4.964   9.963
14210SOL    HW142654   1.940   4.917  10.051
14210SOL    HW242655   2.023   4.936   9.912
14211SOL     OW42656   2.534   5.115  10.934
14211SOL    HW142657   2.456   5.065  10.972
14211SOL    HW242658   2.531   5.210  10.965
14212SOL     OW42659   3.686   3.916  10.537
14212SOL    HW142660   3.682   3.826  10.581
14212SOL    HW242661   3.689   3.905  10.438
14213SOL     OW42662   2.290   4.148   9.830
14213SOL    HW142663   2.320   4.076   9.768
14213SOL    HW242664   2.251   4.108   9.913
14214SOL     OW42665   3.567   5.211  10.414
14214SOL    HW142666   3.474   5.186  10.387
14214SOL    HW242667   3.593   5.161  10.496
14215SOL     OW42668   2.179   4.271  10.590
14215SOL    HW142669   2.217   4.212  10.662
14215SOL    HW242670   2.219   4.245  10.502
14216SOL     OW42671   2.674   5.310   9.997
14216SOL    HW142672   2.706   5.320   9.903
14216SOL    HW242673   2.595   5.248   9.999
14217SOL     OW42674   3.286   3.938  10.422
14217SOL    HW142675   3.338   3.873  10.477
14217SOL    HW242676   3.237   4.001  10.483
14218SOL     OW42677   2.863   3.758  10.464
14218SOL    HW142678   2.800   3.686  10.433
14218SOL    HW242679   2.956   3.722  10.464
14219SOL     OW42680   2.632   5.054   9.611
14219SOL    HW142681   2.586   4.967   9.628
14219SOL    HW242682   2.723   5.051   9.652
14220SOL     OW42683   2.480   5.291  10.594
14220SOL    HW142684   2.475   5.373  10.651
14220SOL    HW242685   2.569   5.288  10.549
14221SOL     OW42686   3.214   3.776   9.478
14221SOL    HW142687   3.249   3.735   9.394
14221SOL    HW242688   3.124   3.738   9.498
14222SOL     OW42689   3.162   4.177  10.001
14222SOL    HW142690   3.103   4.257  10.005
14222SOL    HW242691   3.177   4.142  10.094
14223SOL     OW42692   3.455   3.945  10.192
14223SOL    HW142693   3.371   3.944  10.246
14223SOL    HW242694   3.457   4.028  10.136
14224SOL     OW42695   1.901   4.801   9.610
14224SOL    HW142696   2.000   4.790   9.601
14224SOL    HW242697   1.861   4.715   9.642
14225SOL     OW42698   2.737   5.370   9.647
14225SOL    HW142699   2.660   5.335   9.593
14225SOL    HW242700   2.705   5.441   9.709
14226SOL     OW42701   2.092   4.352  11.285
14226SOL    HW142702   1.999   4.350  11.322
14226SOL    HW242703   2.093   4.313  11.193
14227SOL     OW42704   2.087   3.999  12.168
14227SOL    HW142705   2.122   3.982  12.260
14227SOL    HW242706   1.999   3.954  12.156
14228SOL     OW42707   1.881   4.092  11.819
14228SOL    HW142708   1.799   4.135  11.858
14228SOL    HW242709   1.853   4.019  11.756
14229SOL     OW42710   2.431   4.999  12.337
14229SOL    HW142711   2.338   4.992  12.300
14229SOL    HW242712   2.442   5.088  12.381
14230SOL     OW42713   3.417   5.235  11.875
14230SOL    HW142714   3.360   5.219  11.956
14230SOL    HW242715   3.358   5.245  11.795
14231SOL     OW42716   2.997   4.427  11.889
14231SOL    HW142717   3.054   4.505  11.864
14231SOL    HW242718   2.937   4.453  11.965
14232SOL     OW42719   3.617   4.331  11.403
14232SOL    HW142720   3.605   4.318  11.304
14232SOL    HW242721   3.587   4.250  11.452
14233SOL     OW42722   2.630   4.868  12.195
14233SOL    HW142723   2.552   4.885  12.255
14233SOL    HW242724   2.664   4.955  12.159
14234SOL     OW42725   2.547   4.736  11.837
14234SOL    HW142726   2.616   4.720  11.907
14234SOL    HW242727   2.474   4.793  11.875
14235SOL     OW42728   2.197   5.159  12.233
14235SOL    HW142729   2.119   5.128  12.180
14235SOL    HW242730   2.255   5.217  12.176
14236SOL     OW42731   3.322   5.229  12.511
14236SOL    HW142732   3.346   5.323  12.537
14236SOL    HW242733   3.306   5.175  12.593
14237SOL     OW42734   2.300   4.116  12.671
14237SOL    HW142735   2.382   4.060  12.680
14237SOL    HW242736   2.219   4.058  12.675
14238SOL     OW42737   3.465   4.171  11.909
14238SOL    HW142738   3.391   4.217  11.859
14238SOL    HW242739   3.516   4.239  11.962
14239SOL     OW42740   2.093   5.437  11.655
14239SOL    HW142741   2.127   5.514  11.709
14239SOL    HW242742   2.137   5.437  11.565
14240SOL     OW42743   2.092   5.158  11.710
14240SOL    HW142744   2.066   5.254  11.710
14240SOL    HW242745   2.021   5.104  11.755
14241SOL     OW42746   2.102   4.815  12.058
14241SOL    HW142747   2.116   4.731  12.110
14241SOL    HW242748   2.047   4.879  12.113
14242SOL     OW42749   2.482   5.510  12.611
14242SOL    HW142750   2.390   5.493  12.646
14242SOL    HW242751   2.510   5.602  12.637
14243SOL     OW42752   2.468   4.688  11.295
14243SOL    HW142753   2.475   4.772  11.241
14243SOL    HW242754   2.514   4.701  11.383
14244SOL     OW42755   3.456   3.838  12.652
14244SOL    HW142756   3.438   3.905  12.580
14244SOL    HW242757   3.453   3.884  12.741
14245SOL     OW42758   1.984   4.367  11.735
14245SOL    HW142759   1.939   4.279  11.752
14245SOL    HW242760   1.983   4.421  11.819
14246SOL     OW42761   3.704   5.491  11.531
14246SOL    HW142762   3.758   5.462  11.611
14246SOL    HW242763   3.734   5.581  11.502
14247SOL     OW42764   1.889   5.320  11.289
14247SOL    HW142765   1.870   5.224  11.310
14247SOL    HW242766   1.856   5.378  11.364
14248SOL     OW42767   3.551   4.646  11.784
14248SOL    HW142768   3.646   4.617  11.792
14248SOL    HW242769   3.543   4.711  11.709
14249SOL     OW42770   3.503   4.832  11.604
14249SOL    HW142771   3.589   4.834  11.552
14249SOL    HW242772   3.517   4.879  11.692
14250SOL     OW42773   1.975   4.461  12.769
14250SOL    HW142774   2.063   4.448  12.814
14250SOL    HW242775   1.962   4.558  12.747
14251SOL     OW42776   2.475   5.089  11.898
14251SOL    HW142777   2.426   5.002  11.907
14251SOL    HW242778   2.452   5.132  11.811
14252SOL     OW42779   3.155   4.952  12.595
14252SOL    HW142780   3.192   4.879  12.537
14252SOL    HW242781   3.207   4.957  12.680
14253SOL     OW42782   2.671   3.728  11.674
14253SOL    HW142783   2.711   3.819  11.665
14253SOL    HW242784   2.571   3.736  11.680
14254SOL     OW42785   2.059   4.700  12.436
14254SOL    HW142786   2.148   4.655  12.422
14254SOL    HW242787   1.986   4.635  12.417
14255SOL     OW42788   3.387   4.723  11.362
14255SOL    HW142789   3.324   4.647  11.375
14255SOL    HW242790   3.435   4.741  11.448
14256SOL     OW42791   3.328   5.141  12.125
14256SOL    HW142792   3.269   5.147  12.205
14256SOL    HW242793   3.313   5.053  12.079
14257SOL     OW42794   3.529   5.438  11.744
14257SOL    HW142795   3.488   5.415  11.656
14257SOL    HW242796   3.511   5.364  11.809
14258SOL     OW42797   2.460   4.453  11.442
14258SOL    HW142798   2.484   4.522  11.374
14258SOL    HW242799   2.382   4.486  11.496
14259SOL     OW42800   3.143   4.069  12.116
14259SOL    HW142801   3.057   4.019  12.103
14259SOL    HW242802   3.205   4.015  12.172
14260SOL     OW42803   3.438   5.386  11.479
14260SOL    HW142804   3.527   5.432  11.482
14260SOL    HW242805   3.417   5.362  11.384
14261SOL     OW42806   2.669   4.329  12.637
14261SOL    HW142807   2.622   4.326  12.726
14261SOL    HW242808   2.618   4.274  12.571
14262SOL     OW42809   2.835   4.614  12.744
14262SOL    HW142810   2.881   4.530  12.715
14262SOL    HW242811   2.779   4.648  12.669
14263SOL     OW42812   2.853   4.134  12.414
14263SOL    HW142813   2.776   4.168  12.468
14263SOL    HW242814   2.819   4.083  12.335
14264SOL     OW42815   2.903   4.425  11.601
14264SOL    HW142816   2.929   4.421  11.697
14264SOL    HW242817   2.818   4.374  11.587
14265SOL     OW42818   1.938   4.535  11.961
14265SOL    HW142819   2.037   4.523  11.970
14265SOL    HW242820   1.914   4.630  11.982
14266SOL     OW42821   1.992   5.545  12.743
14266SOL    HW142822   1.982   5.530  12.842
14266SOL    HW242823   1.906   5.581  12.707
14267SOL     OW42824   2.727   4.072  11.367
14267SOL    HW142825   2.786   4.135  11.318
14267SOL    HW242826   2.746   3.978  11.338
14268SOL     OW42827   3.224   4.868  11.717
14268SOL    HW142828   3.307   4.839  11.669
14268SOL    HW242829   3.175   4.935  11.661
14269SOL     OW42830   2.412   3.920  12.057
14269SOL    HW142831   2.407   3.915  12.157
14269SOL    HW242832   2.414   4.016  12.028
14270SOL     OW42833   2.870   5.180  11.649
14270SOL    HW142834   2.824   5.252  11.597
14270SOL    HW242835   2.866   5.200  11.747
14271SOL     OW42836   2.213   5.525  12.025
14271SOL    HW142837   2.263   5.439  12.031
14271SOL    HW242838   2.278   5.602  12.022
14272SOL     OW42839   3.657   4.790  12.045
14272SOL    HW142840   3.595   4.775  11.969
14272SOL    HW242841   3.605   4.801  12.130
14273SOL     OW42842   3.089   5.274  12.678
14273SOL    HW142843   3.095   5.197  12.742
14273SOL    HW242844   3.037   5.248  12.598
14274SOL     OW42845   2.183   4.667  11.414
14274SOL    HW142846   2.265   4.706  11.372
14274SOL    HW242847   2.156   4.585  11.365
14275SOL     OW42848   3.320   4.459  11.900
14275SOL    HW142849   3.315   4.394  11.975
14275SOL    HW242850   3.400   4.518  11.913
14276SOL     OW42851   2.973   5.500  11.409
14276SOL    HW142852   2.913   5.438  11.459
14276SOL    HW242853   3.004   5.456  11.324
14277SOL     OW42854   2.064   4.009  12.670
14277SOL    HW142855   1.984   4.069  12.657
14277SOL    HW242856   2.054   3.960  12.756
14278SOL     OW42857   3.494   5.101  11.253
14278SOL    HW142858   3.462   5.195  11.243
14278SOL    HW242859   3.418   5.038  11.241
14279SOL     OW42860   2.326   5.467  11.495
14279SOL    HW142861   2.359   5.506  11.581
14279SOL    HW242862   2.402   5.460  11.430
14280SOL     OW42863   3.262   3.831  11.598
14280SOL    HW142864   3.238   3.794  11.508
14280SOL    HW242865   3.361   3.847  11.602
14281SOL     OW42866   2.111   5.509  12.413
14281SOL    HW142867   2.168   5.444  12.463
14281SOL    HW242868   2.095   5.476  12.320
14282SOL     OW42869   2.802   5.422  12.076
14282SOL    HW142870   2.882   5.365  12.097
14282SOL    HW242871   2.753   5.382  11.999
14283SOL     OW42872   2.244   4.424  11.652
14283SOL    HW142873   2.289   4.334  11.649
14283SOL    HW242874   2.150   4.413  11.685
14284SOL     OW42875   2.476   3.846  11.289
14284SOL    HW142876   2.574   3.824  11.296
14284SOL    HW242877   2.445   3.829  11.196
14285SOL     OW42878   2.750   5.238  12.367
14285SOL    HW142879   2.727   5.213  12.273
14285SOL    HW242880   2.811   5.169  12.406
14286SOL     OW42881   3.213   4.314  12.605
14286SOL    HW142882   3.241   4.271  12.690
14286SOL    HW242883   3.238   4.410  12.606
14287SOL     OW42884   2.665   5.126  12.096
14287SOL    HW142885   2.755   5.140  12.054
14287SOL    HW242886   2.594   5.128  12.025
14288SOL     OW42887   2.784   4.227  12.071
14288SOL    HW142888   2.759   4.218  11.975
14288SOL    HW242889   2.832   4.145  12.102
14289SOL     OW42890   2.401   3.788  11.684
14289SOL    HW142891   2.320   3.789  11.742
14289SOL    HW242892   2.404   3.871  11.629
14290SOL     OW42893   3.296   4.912  11.213
14290SOL    HW142894   3.328   4.836  11.270
14290SOL    HW242895   3.204   4.939  11.243
14291SOL     OW42896   2.159   3.759  11.343
14291SOL    HW142897   2.208   3.843  11.322
14291SOL    HW242898   2.221   3.694  11.388
14292SOL     OW42899   2.797   3.960  11.652
14292SOL    HW142900   2.749   4.001  11.574
14292SOL    HW242901   2.896   3.958  11.633
14293SOL     OW42902   2.938   4.407  12.636
14293SOL    HW142903   2.858   4.346  12.639
14293SOL    HW242904   3.019   4.354  12.612
14294SOL     OW42905   3.089   5.294  11.965
14294SOL    HW142906   3.110   5.368  11.900
14294SOL    HW242907   3.157   5.294  12.038
14295SOL     OW42908   2.321   4.876  11.913
14295SOL    HW142909   2.250   4.849  11.978
14295SOL    HW242910   2.295   4.848  11.820
14296SOL     OW42911   3.133   5.521  11.763
14296SOL    HW142912   3.177   5.585  11.699
14296SOL    HW242913   3.083   5.573  11.833
14297SOL     OW42914   2.894   4.273  11.188
14297SOL    HW142915   2.853   4.355  11.149
14297SOL    HW242916   2.958   4.299  11.261
14298SOL     OW42917   1.940   4.280  12.558
14298SOL    HW142918   2.032   4.279  12.517
14298SOL    HW242919   1.934   4.354  12.625
14299SOL     OW42920   2.423   3.946  12.319
14299SOL    HW142921   2.461   3.862  12.356
14299SOL    HW242922   2.335   3.965  12.363
14300SOL     OW42923   2.728   4.178  11.814
14300SOL    HW142924   2.696   4.250  11.752
14300SOL    HW242925   2.752   4.097  11.761
14301SOL     OW42926   2.879   3.763  11.925
14301SOL    HW142927   2.807   3.768  11.856
14301SOL    HW242928   2.855   3.694  11.994
14302SOL     OW42929   3.291   4.897  12.039
14302SOL    HW142930   3.236   4.813  12.032
14302SOL    HW242931   3.317   4.926  11.947
14303SOL     OW42932   3.328   4.314  12.164
14303SOL    HW142933   3.298   4.219  12.171
14303SOL    HW242934   3.401   4.330  12.230
14304SOL     OW42935   3.719   4.557  11.549
14304SOL    HW142936   3.761   4.493  11.613
14304SOL    HW242937   3.681   4.506  11.471
14305SOL     OW42938   2.350   5.109  11.346
14305SOL    HW142939   2.263   5.094  11.393
14305SOL    HW242940   2.333   5.135  11.251
14306SOL     OW42941   3.526   5.004  11.829
14306SOL    HW142942   3.625   5.012  11.843
14306SOL    HW242943   3.481   5.088  11.860
14307SOL     OW42944   3.252   4.299  11.250
14307SOL    HW142945   3.198   4.278  11.331
14307SOL    HW242946   3.343   4.258  11.259
14308SOL     OW42947   2.389   3.980  11.500
14308SOL    HW142948   2.416   3.921  11.425
14308SOL    HW242949   2.389   4.075  11.469
14309SOL     OW42950   3.616   4.947  12.760
14309SOL    HW142951   3.707   4.908  12.747
14309SOL    HW242952   3.624   5.043  12.784
14310SOL     OW42953   2.926   5.071  12.512
14310SOL    HW142954   2.846   5.048  12.567
14310SOL    HW242955   3.009   5.045  12.561
14311SOL     OW42956   2.973   4.919  12.272
14311SOL    HW142957   2.933   4.963  12.353
14311SOL    HW242958   2.932   4.956  12.189
14312SOL     OW42959   3.500   4.823  12.251
14312SOL    HW142960   3.505   4.904  12.310
14312SOL    HW242961   3.414   4.825  12.200
14313SOL     OW42962   2.777   3.813  12.574
14313SOL    HW142963   2.802   3.793  12.479
14313SOL    HW242964   2.849   3.869  12.616
14314SOL     OW42965   2.567   4.774  11.540
14314SOL    HW142966   2.553   4.781  11.639
14314SOL    HW242967   2.651   4.723  11.522
14315SOL     OW42968   2.272   4.537  12.423
14315SOL    HW142969   2.358   4.549  12.473
14315SOL    HW242970   2.230   4.450  12.450
14316SOL     OW42971   3.136   4.110  12.434
14316SOL    HW142972   3.157   4.184  12.498
14316SOL    HW242973   3.047   4.127  12.391
14317SOL     OW42974   1.926   5.288  12.503
14317SOL    HW142975   1.880   5.370  12.469
14317SOL    HW242976   2.024   5.307  12.512
14318SOL     OW42977   2.229   4.824  11.673
14318SOL    HW142978   2.222   4.907  11.617
14318SOL    HW242979   2.233   4.744  11.613
14319SOL     OW42980   2.428   4.261  12.037
14319SOL    HW142981   2.440   4.327  11.963
14319SOL    HW242982   2.474   4.295  12.120
14320SOL     OW42983   3.114   5.072  11.560
14320SOL    HW142984   3.164   5.149  11.600
14320SOL    HW242985   3.019   5.074  11.592
14321SOL     OW42986   3.134   5.169  12.314
14321SOL    HW142987   3.181   5.182  12.401
14321SOL    HW242988   3.068   5.095  12.323
14322SOL     OW42989   3.444   4.363  11.644
14322SOL    HW142990   3.413   4.424  11.717
14322SOL    HW242991   3.494   4.415  11.575
14323SOL     OW42992   2.216   5.234  12.501
14323SOL    HW142993   2.195   5.190  12.414
14323SOL    HW242994   2.313   5.260  12.504
14324SOL     OW42995   2.264   4.475  12.770
14324SOL    HW142996   2.332   4.530  12.723
14324SOL    HW242997   2.304   4.387  12.797
14325SOL     OW42998   3.449   4.503  12.842
14325SOL    HW142999   3.357   4.541  12.837
14325SOL    HW243000   3.509   4.550  12.777
14326SOL     OW43001   2.435   4.594  12.201
14326SOL    HW143002   2.479   4.683  12.192
14326SOL    HW243003   2.372   4.594  12.278
14327SOL     OW43004   3.222   4.586  12.217
14327SOL    HW143005   3.147   4.586  12.151
14327SOL    HW243006   3.259   4.494  12.226
14328SOL     OW43007   3.071   4.249  11.447
14328SOL    HW143008   3.084   4.165  11.501
14328SOL    HW243009   3.042   4.323  11.507
14329SOL     OW43010   2.169   3.937  12.403
14329SOL    HW143011   2.146   3.974  12.493
14329SOL    HW243012   2.139   3.842  12.397
14330SOL     OW43013   1.899   5.034  12.454
14330SOL    HW143014   1.952   4.985  12.522
14330SOL    HW243015   1.921   5.132  12.459
14331SOL     OW43016   2.594   4.358  12.236
14331SOL    HW143017   2.653   4.332  12.160
14331SOL    HW243018   2.566   4.454  12.225
14332SOL     OW43019   2.169   3.787  11.790
14332SOL    HW143020   2.158   3.881  11.823
14332SOL    HW243021   2.164   3.724  11.867
14333SOL     OW43022   3.484   4.091  11.546
14333SOL    HW143023   3.486   4.015  11.610
14333SOL    HW243024   3.436   4.168  11.586
14334SOL     OW43025   2.885   4.490  12.138
14334SOL    HW143026   2.900   4.511  12.234
14334SOL    HW243027   2.855   4.395  12.129
14335SOL     OW43028   3.402   3.998  11.297
14335SOL    HW143029   3.341   3.923  11.320
14335SOL    HW243030   3.424   4.050  11.380
14336SOL     OW43031   3.165   4.562  11.214
14336SOL    HW143032   3.199   4.469  11.229
14336SOL    HW243033   3.183   4.589  11.119
14337SOL     OW43034   2.930   5.057  12.021
14337SOL    HW143035   2.937   4.973  11.966
14337SOL    HW243036   2.992   5.126  11.985
14338SOL     OW43037   2.181   4.534  12.121
14338SOL    HW143038   2.274   4.570  12.126
14338SOL    HW243039   2.175   4.449  12.173
14339SOL     OW43040   2.201   4.233  12.178
14339SOL    HW143041   2.149   4.150  12.161
14339SOL    HW243042   2.278   4.238  12.114
14340SOL     OW43043   3.022   3.931  12.649
14340SOL    HW143044   3.022   3.995  12.726
14340SOL    HW243045   3.050   3.979  12.566
14341SOL     OW43046   1.870   5.050  11.372
14341SOL    HW143047   1.777   5.071  11.341
14341SOL    HW243048   1.880   4.951  11.385
14342SOL     OW43049   1.950   5.525  12.099
14342SOL    HW143050   1.908   5.439  12.072
14342SOL    HW243051   2.044   5.528  12.065
14343SOL     OW43052   2.366   5.292  12.082
14343SOL    HW143053   2.432   5.366  12.091
14343SOL    HW243054   2.410   5.213  12.040
14344SOL     OW43055   2.864   4.520  12.410
14344SOL    HW143056   2.905   4.488  12.496
14344SOL    HW243057   2.768   4.493  12.407
14345SOL     OW43058   1.902   4.268  12.286
14345SOL    HW143059   1.987   4.235  12.245
14345SOL    HW243060   1.915   4.283  12.384
14346SOL     OW43061   2.677   4.296  11.497
14346SOL    HW143062   2.684   4.207  11.451
14346SOL    HW243063   2.583   4.330  11.489
14347SOL     OW43064   3.519   4.328  12.378
14347SOL    HW143065   3.481   4.259  12.440
14347SOL    HW243066   3.601   4.292  12.334
14348SOL     OW43067   2.114   5.288  12.916
14348SOL    HW143068   2.084   5.345  12.992
14348SOL    HW243069   2.107   5.191  12.942
14349SOL     OW43070   2.533   4.188  12.441
14349SOL    HW143071   2.499   4.099  12.411
14349SOL    HW243072   2.559   4.242  12.361
14350SOL     OW43073   2.792   5.402  12.637
14350SOL    HW143074   2.768   5.384  12.542
14350SOL    HW243075   2.822   5.496  12.647
14351SOL     OW43076   2.335   4.224  11.363
14351SOL    HW143077   2.396   4.304  11.367
14351SOL    HW243078   2.240   4.255  11.370
14352SOL     OW43079   2.021   4.861  12.638
14352SOL    HW143080   2.043   4.800  12.714
14352SOL    HW243081   2.031   4.812  12.552
14353SOL     OW43082   3.209   4.783  12.406
14353SOL    HW143083   3.233   4.720  12.332
14353SOL    HW243084   3.119   4.823  12.388
14354SOL     OW43085   3.164   4.579  11.481
14354SOL    HW143086   3.078   4.548  11.523
14354SOL    HW243087   3.160   4.565  11.382
14355SOL     OW43088   3.621   5.471  12.326
14355SOL    HW143089   3.682   5.501  12.253
14355SOL    HW243090   3.583   5.382  12.304
14356SOL     OW43091   3.114   5.455  12.300
14356SOL    HW143092   3.198   5.460  12.246
14356SOL    HW243093   3.091   5.359  12.318
14357SOL     OW43094   1.945   4.982  12.194
14357SOL    HW143095   1.940   4.981  12.294
14357SOL    HW243096   1.862   4.941  12.156
14358SOL     OW43097   3.588   3.859  11.695
14358SOL    HW143098   3.661   3.842  11.628
14358SOL    HW243099   3.557   3.772  11.733
14359SOL     OW43100   3.250   5.297  11.649
14359SOL    HW143101   3.317   5.309  11.575
14359SOL    HW243102   3.210   5.386  11.672
14360SOL     OW43103   3.142   4.651  11.844
14360SOL    HW143104   3.202   4.570  11.846
14360SOL    HW243105   3.182   4.720  11.784
14361SOL     OW43106   2.692   4.997  12.594
14361SOL    HW143107   2.687   5.030  12.689
14361SOL    HW243108   2.606   5.016  12.548
14362SOL     OW43109   2.534   5.340  11.326
14362SOL    HW143110   2.543   5.350  11.227
14362SOL    HW243111   2.494   5.251  11.347
14363SOL     OW43112   3.512   5.444  12.566
14363SOL    HW143113   3.565   5.454  12.482
14363SOL    HW243114   3.485   5.534  12.600
14364SOL     OW43115   3.703   3.899  12.135
14364SOL    HW143116   3.742   3.814  12.099
14364SOL    HW243117   3.605   3.901  12.116
14365SOL     OW43118   2.125   4.050  11.892
14365SOL    HW143119   2.046   4.101  11.858
14365SOL    HW243120   2.116   4.035  11.990
14366SOL     OW43121   3.056   5.336  11.203
14366SOL    HW143122   3.062   5.243  11.240
14366SOL    HW243123   2.997   5.336  11.123
14367SOL     OW43124   2.684   4.726  12.544
14367SOL    HW143125   2.724   4.725  12.452
14367SOL    HW243126   2.694   4.818  12.584
14368SOL     OW43127   2.778   4.634  11.463
14368SOL    HW143128   2.841   4.672  11.395
14368SOL    HW243129   2.818   4.551  11.502
14369SOL     OW43130   3.366   5.331  11.216
14369SOL    HW143131   3.274   5.368  11.223
14369SOL    HW243132   3.404   5.351  11.126
14370SOL     OW43133   2.234   5.012  12.662
14370SOL    HW143134   2.221   5.105  12.628
14370SOL    HW243135   2.150   4.960  12.649
14371SOL     OW43136   3.476   5.016  12.461
14371SOL    HW143137   3.536   5.019  12.541
14371SOL    HW243138   3.401   5.080  12.474
14372SOL     OW43139   2.901   4.822  11.868
14372SOL    HW143140   2.831   4.775  11.922
14372SOL    HW243141   2.960   4.754  11.825
14373SOL     OW43142   2.876   3.960  12.143
14373SOL    HW143143   2.868   3.924  12.050
14373SOL    HW243144   2.874   3.884  12.208
14374SOL     OW43145   2.452   5.211  11.663
14374SOL    HW143146   2.494   5.153  11.593
14374SOL    HW243147   2.408   5.290  11.619
14375SOL     OW43148   3.571   4.109  12.553
14375SOL    HW143149   3.644   4.178  12.557
14375SOL    HW243150   3.599   4.034  12.494
14376SOL     OW43151   2.117   5.072  11.462
14376SOL    HW143152   2.021   5.073  11.435
14376SOL    HW243153   2.129   5.125  11.546
14377SOL     OW43154   1.967   4.737  12.898
14377SOL    HW143155   1.890   4.704  12.952
14377SOL    HW243156   2.052   4.707  12.940
14378SOL     OW43157   2.534   3.927  12.661
14378SOL    HW143158   2.624   3.911  12.621
14378SOL    HW243159   2.542   3.932  12.760
14379SOL     OW43160   1.937   4.069  11.205
14379SOL    HW143161   1.845   4.041  11.176
14379SOL    HW243162   1.968   4.146  11.149
14380SOL     OW43163   3.302   4.580  12.570
14380SOL    HW143164   3.245   4.632  12.507
14380SOL    HW243165   3.398   4.592  12.546
14381SOL     OW43166   1.934   3.890  11.490
14381SOL    HW143167   1.917   3.973  11.436
14381SOL    HW243168   2.024   3.853  11.468
14382SOL     OW43169   3.045   5.059  11.291
14382SOL    HW143170   2.946   5.048  11.293
14382SOL    HW243171   3.079   5.074  11.384
14383SOL     OW43172   2.475   4.566  12.603
14383SOL    HW143173   2.531   4.647  12.586
14383SOL    HW243174   2.534   4.486  12.606
14384SOL     OW43175   3.355   5.491  12.131
14384SOL    HW143176   3.388   5.555  12.062
14384SOL    HW243177   3.421   5.485  12.206
14385SOL     OW43178   2.578   4.289  12.880
14385SOL    HW143179   2.597   4.354  12.954
14385SOL    HW243180   2.638   4.209  12.889
14386SOL     OW43181   2.252   5.465  12.732
14386SOL    HW143182   2.161   5.506  12.730
14386SOL    HW243183   2.245   5.371  12.764
14387SOL     OW43184   3.536   4.607  12.426
14387SOL    HW143185   3.509   4.518  12.389
14387SOL    HW243186   3.537   4.675  12.353
14388SOL     OW43187   3.087   4.049  11.621
14388SOL    HW143188   3.152   3.975  11.610
14388SOL    HW243189   3.107   4.099  11.705
14389SOL     OW43190   2.456   4.469  11.824
14389SOL    HW143191   2.506   4.554  11.805
14389SOL    HW243192   2.368   4.471  11.776
14390SOL     OW43193   3.639   4.066  12.814
14390SOL    HW143194   3.622   4.097  12.720
14390SOL    HW243195   3.555   4.029  12.852
14391SOL     OW43196   3.592   4.658  12.689
14391SOL    HW143197   3.630   4.749  12.704
14391SOL    HW243198   3.584   4.641  12.590
14392SOL     OW43199   2.721   5.098  11.188
14392SOL    HW143200   2.675   5.113  11.276
14392SOL    HW243201   2.765   5.183  11.158
14393SOL     OW43202   2.523   5.514  12.125
14393SOL    HW143203   2.477   5.602  12.112
14393SOL    HW243204   2.622   5.526  12.118
14394SOL     OW43205   2.721   4.680  12.033
14394SOL    HW143206   2.775   4.611  12.081
14394SOL    HW243207   2.689   4.749  12.099
14395SOL     OW43208   2.945   4.708  11.259
14395SOL    HW143209   2.922   4.761  11.177
14395SOL    HW243210   3.026   4.652  11.240
14396SOL     OW43211   3.723   5.293  12.023
14396SOL    HW143212   3.652   5.281  11.953
14396SOL    HW243213   3.724   5.214  12.083
14397SOL     OW43214   1.941   4.964  11.825
14397SOL    HW143215   1.940   4.917  11.913
14397SOL    HW243216   2.023   4.936  11.774
14398SOL     OW43217   2.534   5.115  12.796
14398SOL    HW143218   2.456   5.065  12.834
14398SOL    HW243219   2.531   5.210  12.827
14399SOL     OW43220   3.686   3.916  12.399
14399SOL    HW143221   3.682   3.826  12.443
14399SOL    HW243222   3.689   3.905  12.300
14400SOL     OW43223   2.290   4.148  11.692
14400SOL    HW143224   2.320   4.076  11.630
14400SOL    HW243225   2.251   4.108  11.775
14401SOL     OW43226   3.567   5.211  12.276
14401SOL    HW143227   3.474   5.186  12.249
14401SOL    HW243228   3.593   5.161  12.358
14402SOL     OW43229   2.179   4.271  12.452
14402SOL    HW143230   2.217   4.212  12.524
14402SOL    HW243231   2.219   4.245  12.364
14403SOL     OW43232   2.674   5.310  11.859
14403SOL    HW143233   2.706   5.320  11.765
14403SOL    HW243234   2.595   5.248  11.861
14404SOL     OW43235   3.286   3.938  12.284
14404SOL    HW143236   3.338   3.873  12.339
14404SOL    HW243237   3.237   4.001  12.345
14405SOL     OW43238   2.863   3.758  12.326
14405SOL    HW143239   2.800   3.686  12.295
14405SOL    HW243240   2.956   3.722  12.326
14406SOL     OW43241   2.632   5.054  11.473
14406SOL    HW143242   2.586   4.967  11.490
14406SOL    HW243243   2.723   5.051  11.514
14407SOL     OW43244   2.480   5.291  12.456
14407SOL    HW143245   2.475   5.373  12.513
14407SOL    HW243246   2.569   5.288  12.411
14408SOL     OW43247   3.214   3.776  11.340
14408SOL    HW143248   3.249   3.735  11.256
14408SOL    HW243249   3.124   3.738  11.360
14409SOL     OW43250   3.162   4.177  11.863
14409SOL    HW143251   3.103   4.257  11.867
14409SOL    HW243252   3.177   4.142  11.956
14410SOL     OW43253   3.455   3.945  12.054
14410SOL    HW143254   3.371   3.944  12.108
14410SOL    HW243255   3.457   4.028  11.998
14411SOL     OW43256   1.901   4.801  11.472
14411SOL    HW143257   2.000   4.790  11.463
14411SOL    HW243258   1.861   4.715  11.504
14412SOL     OW43259   2.737   5.370  11.509
14412SOL    HW143260   2.660   5.335  11.455
14412SOL    HW243261   2.705   5.441  11.571
14413SOL     OW43262   2.092   6.214   0.113
14413SOL    HW143263   1.999   6.212   0.150
14413SOL    HW243264   2.093   6.175   0.021
14414SOL     OW43265   2.087   5.861   0.996
14414SOL    HW143266   2.122   5.844   1.088
14414SOL    HW243267   1.999   5.816   0.984
14415SOL     OW43268   1.881   5.954   0.647
14415SOL    HW143269   1.799   5.997   0.686
14415SOL    HW243270   1.853   5.881   0.584
14416SOL     OW43271   2.431   6.861   1.165
14416SOL    HW143272   2.338   6.854   1.128
14416SOL    HW243273   2.442   6.950   1.209
14417SOL     OW43274   3.417   7.097   0.703
14417SOL    HW143275   3.360   7.081   0.784
14417SOL    HW243276   3.358   7.107   0.623
14418SOL     OW43277   2.997   6.289   0.717
14418SOL    HW143278   3.054   6.367   0.692
14418SOL    HW243279   2.937   6.315   0.793
14419SOL     OW43280   3.617   6.193   0.231
14419SOL    HW143281   3.605   6.180   0.132
14419SOL    HW243282   3.587   6.112   0.280
14420SOL     OW43283   2.630   6.730   1.023
14420SOL    HW143284   2.552   6.747   1.083
14420SOL    HW243285   2.664   6.817   0.987
14421SOL     OW43286   2.712   6.384   1.823
14421SOL    HW143287   2.708   6.460   1.888
14421SOL    HW243288   2.734   6.420   1.732
14422SOL     OW43289   2.547   6.598   0.665
14422SOL    HW143290   2.616   6.582   0.735
14422SOL    HW243291   2.474   6.655   0.703
14423SOL     OW43292   2.548   6.747   1.803
14423SOL    HW143293   2.608   6.826   1.817
14423SOL    HW243294   2.462   6.778   1.762
14424SOL     OW43295   2.197   7.021   1.061
14424SOL    HW143296   2.119   6.990   1.008
14424SOL    HW243297   2.255   7.079   1.004
14425SOL     OW43298   3.322   7.091   1.339
14425SOL    HW143299   3.346   7.185   1.365
14425SOL    HW243300   3.306   7.037   1.421
14426SOL     OW43301   2.300   5.978   1.499
14426SOL    HW143302   2.382   5.922   1.508
14426SOL    HW243303   2.219   5.920   1.503
14427SOL     OW43304   3.465   6.033   0.737
14427SOL    HW143305   3.391   6.079   0.687
14427SOL    HW243306   3.516   6.101   0.790
14428SOL     OW43307   2.093   7.299   0.483
14428SOL    HW143308   2.127   7.376   0.537
14428SOL    HW243309   2.137   7.299   0.393
14429SOL     OW43310   2.989   6.927   1.690
14429SOL    HW143311   3.036   6.927   1.778
14429SOL    HW243312   2.941   6.840   1.679
14430SOL     OW43313   2.092   7.020   0.538
14430SOL    HW143314   2.066   7.116   0.538
14430SOL    HW243315   2.021   6.966   0.583
14431SOL     OW43316   2.102   6.677   0.886
14431SOL    HW143317   2.116   6.593   0.938
14431SOL    HW243318   2.047   6.741   0.941
14432SOL     OW43319   2.482   7.372   1.439
14432SOL    HW143320   2.390   7.355   1.474
14432SOL    HW243321   2.510   7.464   1.465
14433SOL     OW43322   2.468   6.550   0.123
14433SOL    HW143323   2.475   6.634   0.069
14433SOL    HW243324   2.514   6.563   0.211
14434SOL     OW43325   3.456   5.700   1.480
14434SOL    HW143326   3.438   5.767   1.408
14434SOL    HW243327   3.453   5.746   1.569
14435SOL     OW43328   1.984   6.229   0.563
14435SOL    HW143329   1.939   6.141   0.580
14435SOL    HW243330   1.983   6.283   0.647
14436SOL     OW43331   3.704   7.353   0.359
14436SOL    HW143332   3.758   7.324   0.439
14436SOL    HW243333   3.734   7.443   0.330
14437SOL     OW43334   1.889   7.182   0.117
14437SOL    HW143335   1.870   7.086   0.138
14437SOL    HW243336   1.856   7.240   0.192
14438SOL     OW43337   3.551   6.508   0.612
14438SOL    HW143338   3.646   6.479   0.620
14438SOL    HW243339   3.543   6.573   0.537
14439SOL     OW43340   3.503   6.694   0.432
14439SOL    HW143341   3.589   6.696   0.380
14439SOL    HW243342   3.517   6.741   0.520
14440SOL     OW43343   1.975   6.323   1.597
14440SOL    HW143344   2.063   6.310   1.642
14440SOL    HW243345   1.962   6.420   1.575
14441SOL     OW43346   2.475   6.951   0.726
14441SOL    HW143347   2.426   6.864   0.735
14441SOL    HW243348   2.452   6.994   0.639
14442SOL     OW43349   3.155   6.814   1.423
14442SOL    HW143350   3.192   6.741   1.365
14442SOL    HW243351   3.207   6.819   1.508
14443SOL     OW43352   2.671   5.590   0.502
14443SOL    HW143353   2.711   5.681   0.493
14443SOL    HW243354   2.571   5.598   0.508
14444SOL     OW43355   2.059   6.562   1.264
14444SOL    HW143356   2.148   6.517   1.250
14444SOL    HW243357   1.986   6.497   1.245
14445SOL     OW43358   3.387   6.585   0.190
14445SOL    HW143359   3.324   6.509   0.203
14445SOL    HW243360   3.435   6.603   0.276
14446SOL     OW43361   3.049   7.378   1.616
14446SOL    HW143362   3.073   7.438   1.540
14446SOL    HW243363   3.056   7.283   1.586
14447SOL     OW43364   2.179   5.837   1.801
14447SOL    HW143365   2.250   5.908   1.807
14447SOL    HW243366   2.091   5.876   1.829
14448SOL     OW43367   3.328   7.003   0.953
14448SOL    HW143368   3.269   7.009   1.033
14448SOL    HW243369   3.313   6.915   0.907
14449SOL     OW43370   3.529   7.300   0.572
14449SOL    HW143371   3.488   7.277   0.484
14449SOL    HW243372   3.511   7.226   0.637
14450SOL     OW43373   2.460   6.315   0.270
14450SOL    HW143374   2.484   6.384   0.202
14450SOL    HW243375   2.382   6.348   0.324
14451SOL     OW43376   3.143   5.931   0.944
14451SOL    HW143377   3.057   5.881   0.931
14451SOL    HW243378   3.205   5.877   1.000
14452SOL     OW43379   3.438   7.248   0.307
14452SOL    HW143380   3.527   7.294   0.310
14452SOL    HW243381   3.417   7.224   0.212
14453SOL     OW43382   2.669   6.191   1.465
14453SOL    HW143383   2.622   6.188   1.554
14453SOL    HW243384   2.618   6.136   1.399
14454SOL     OW43385   3.256   6.055   1.674
14454SOL    HW143386   3.236   6.098   1.762
14454SOL    HW243387   3.334   5.993   1.683
14455SOL     OW43388   2.835   6.476   1.572
14455SOL    HW143389   2.881   6.392   1.543
14455SOL    HW243390   2.779   6.510   1.497
14456SOL     OW43391   2.853   5.996   1.242
14456SOL    HW143392   2.776   6.030   1.296
14456SOL    HW243393   2.819   5.945   1.163
14457SOL     OW43394   2.903   6.287   0.429
14457SOL    HW143395   2.929   6.283   0.525
14457SOL    HW243396   2.818   6.236   0.415
14458SOL     OW43397   1.938   6.397   0.789
14458SOL    HW143398   2.037   6.385   0.798
14458SOL    HW243399   1.914   6.492   0.810
14459SOL     OW43400   1.992   7.407   1.571
14459SOL    HW143401   1.982   7.392   1.670
14459SOL    HW243402   1.906   7.443   1.535
14460SOL     OW43403   2.727   5.934   0.195
14460SOL    HW143404   2.786   5.997   0.146
14460SOL    HW243405   2.746   5.840   0.166
14461SOL     OW43406   3.581   6.171   1.831
14461SOL    HW143407   3.555   6.260   1.795
14461SOL    HW243408   3.579   6.103   1.758
14462SOL     OW43409   3.224   6.730   0.545
14462SOL    HW143410   3.307   6.701   0.497
14462SOL    HW243411   3.175   6.797   0.489
14463SOL     OW43412   2.412   5.782   0.885
14463SOL    HW143413   2.407   5.777   0.985
14463SOL    HW243414   2.414   5.878   0.856
14464SOL     OW43415   2.870   7.042   0.477
14464SOL    HW143416   2.824   7.114   0.425
14464SOL    HW243417   2.866   7.062   0.575
14465SOL     OW43418   2.213   7.387   0.853
14465SOL    HW143419   2.263   7.301   0.859
14465SOL    HW243420   2.278   7.464   0.850
14466SOL     OW43421   3.657   6.652   0.873
14466SOL    HW143422   3.595   6.637   0.797
14466SOL    HW243423   3.605   6.663   0.958
14467SOL     OW43424   3.089   7.136   1.506
14467SOL    HW143425   3.095   7.059   1.570
14467SOL    HW243426   3.037   7.110   1.426
14468SOL     OW43427   2.183   6.529   0.242
14468SOL    HW143428   2.265   6.568   0.200
14468SOL    HW243429   2.156   6.447   0.193
14469SOL     OW43430   3.320   6.321   0.728
14469SOL    HW143431   3.315   6.256   0.803
14469SOL    HW243432   3.400   6.380   0.741
14470SOL     OW43433   2.323   6.852   1.727
14470SOL    HW143434   2.273   6.853   1.641
14470SOL    HW243435   2.260   6.834   1.803
14471SOL     OW43436   2.973   7.362   0.237
14471SOL    HW143437   2.913   7.300   0.287
14471SOL    HW243438   3.004   7.318   0.152
14472SOL     OW43439   2.064   5.871   1.498
14472SOL    HW143440   1.984   5.931   1.485
14472SOL    HW243441   2.054   5.822   1.584
14473SOL     OW43442   3.494   6.963   0.081
14473SOL    HW143443   3.462   7.057   0.071
14473SOL    HW243444   3.418   6.900   0.069
14474SOL     OW43445   2.326   7.329   0.323
14474SOL    HW143446   2.359   7.368   0.409
14474SOL    HW243447   2.402   7.322   0.258
14475SOL     OW43448   3.262   5.693   0.426
14475SOL    HW143449   3.238   5.656   0.336
14475SOL    HW243450   3.361   5.709   0.430
14476SOL     OW43451   2.111   7.371   1.241
14476SOL    HW143452   2.168   7.306   1.291
14476SOL    HW243453   2.095   7.338   1.148
14477SOL     OW43454   2.802   7.284   0.904
14477SOL    HW143455   2.882   7.227   0.925
14477SOL    HW243456   2.753   7.244   0.827
14478SOL     OW43457   2.244   6.286   0.480
14478SOL    HW143458   2.289   6.196   0.477
14478SOL    HW243459   2.150   6.275   0.513
14479SOL     OW43460   3.409   5.808   1.729
14479SOL    HW143461   3.404   5.845   1.821
14479SOL    HW243462   3.337   5.739   1.717
14480SOL     OW43463   2.476   5.708   0.117
14480SOL    HW143464   2.574   5.686   0.124
14480SOL    HW243465   2.445   5.691   0.024
14481SOL     OW43466   2.643   5.850   1.749
14481SOL    HW143467   2.710   5.789   1.792
14481SOL    HW243468   2.570   5.869   1.814
14482SOL     OW43469   2.750   7.100   1.195
14482SOL    HW143470   2.727   7.075   1.101
14482SOL    HW243471   2.811   7.031   1.234
14483SOL     OW43472   3.213   6.176   1.433
14483SOL    HW143473   3.241   6.133   1.518
14483SOL    HW243474   3.238   6.272   1.434
14484SOL     OW43475   2.665   6.988   0.924
14484SOL    HW143476   2.755   7.002   0.882
14484SOL    HW243477   2.594   6.990   0.853
14485SOL     OW43478   2.784   6.089   0.899
14485SOL    HW143479   2.759   6.080   0.803
14485SOL    HW243480   2.832   6.007   0.930
14486SOL     OW43481   2.401   5.650   0.512
14486SOL    HW143482   2.320   5.651   0.570
14486SOL    HW243483   2.404   5.733   0.457
14487SOL     OW43484   3.296   6.774   0.041
14487SOL    HW143485   3.328   6.698   0.098
14487SOL    HW243486   3.204   6.801   0.071
14488SOL     OW43487   2.159   5.621   0.171
14488SOL    HW143488   2.208   5.705   0.150
14488SOL    HW243489   2.221   5.556   0.216
14489SOL     OW43490   2.797   5.822   0.480
14489SOL    HW143491   2.749   5.863   0.402
14489SOL    HW243492   2.896   5.820   0.461
14490SOL     OW43493   2.938   6.269   1.464
14490SOL    HW143494   2.858   6.208   1.467
14490SOL    HW243495   3.019   6.216   1.440
14491SOL     OW43496   3.089   7.156   0.793
14491SOL    HW143497   3.110   7.230   0.728
14491SOL    HW243498   3.157   7.156   0.866
14492SOL     OW43499   2.321   6.738   0.741
14492SOL    HW143500   2.250   6.711   0.806
14492SOL    HW243501   2.295   6.710   0.648
14493SOL     OW43502   3.133   7.383   0.591
14493SOL    HW143503   3.177   7.447   0.527
14493SOL    HW243504   3.083   7.435   0.661
14494SOL     OW43505   2.894   6.135   0.016
14494SOL    HW143506   2.853   6.217  -0.023
14494SOL    HW243507   2.958   6.161   0.089
14495SOL     OW43508   1.940   6.142   1.386
14495SOL    HW143509   2.032   6.141   1.345
14495SOL    HW243510   1.934   6.216   1.453
14496SOL     OW43511   2.423   5.808   1.147
14496SOL    HW143512   2.461   5.724   1.184
14496SOL    HW243513   2.335   5.827   1.191
14497SOL     OW43514   2.728   6.040   0.642
14497SOL    HW143515   2.696   6.112   0.580
14497SOL    HW243516   2.752   5.959   0.589
14498SOL     OW43517   2.879   5.625   0.753
14498SOL    HW143518   2.807   5.630   0.684
14498SOL    HW243519   2.855   5.556   0.822
14499SOL     OW43520   3.291   6.759   0.867
14499SOL    HW143521   3.236   6.675   0.860
14499SOL    HW243522   3.317   6.788   0.775
14500SOL     OW43523   3.328   6.176   0.992
14500SOL    HW143524   3.298   6.081   0.999
14500SOL    HW243525   3.401   6.192   1.058
14501SOL     OW43526   3.719   6.419   0.377
14501SOL    HW143527   3.761   6.355   0.441
14501SOL    HW243528   3.681   6.368   0.299
14502SOL     OW43529   2.350   6.971   0.174
14502SOL    HW143530   2.263   6.956   0.221
14502SOL    HW243531   2.333   6.997   0.079
14503SOL     OW43532   3.526   6.866   0.657
14503SOL    HW143533   3.625   6.874   0.671
14503SOL    HW243534   3.481   6.950   0.688
14504SOL     OW43535   3.252   6.161   0.078
14504SOL    HW143536   3.198   6.140   0.159
14504SOL    HW243537   3.343   6.120   0.087
14505SOL     OW43538   2.389   5.842   0.328
14505SOL    HW143539   2.416   5.783   0.253
14505SOL    HW243540   2.389   5.937   0.297
14506SOL     OW43541   3.616   6.809   1.588
14506SOL    HW143542   3.707   6.770   1.575
14506SOL    HW243543   3.624   6.905   1.612
14507SOL     OW43544   2.926   6.933   1.340
14507SOL    HW143545   2.846   6.910   1.395
14507SOL    HW243546   3.009   6.907   1.389
14508SOL     OW43547   3.454   7.215   1.625
14508SOL    HW143548   3.481   7.249   1.535
14508SOL    HW243549   3.533   7.177   1.671
14509SOL     OW43550   2.973   6.781   1.100
14509SOL    HW143551   2.933   6.825   1.181
14509SOL    HW243552   2.932   6.818   1.017
14510SOL     OW43553   3.500   6.685   1.079
14510SOL    HW143554   3.505   6.766   1.138
14510SOL    HW243555   3.414   6.687   1.028
14511SOL     OW43556   2.777   5.675   1.402
14511SOL    HW143557   2.802   5.655   1.307
14511SOL    HW243558   2.849   5.731   1.444
14512SOL     OW43559   2.842   6.702   1.719
14512SOL    HW143560   2.743   6.708   1.729
14512SOL    HW243561   2.865   6.622   1.663
14513SOL     OW43562   2.567   6.636   0.368
14513SOL    HW143563   2.553   6.643   0.467
14513SOL    HW243564   2.651   6.585   0.350
14514SOL     OW43565   2.272   6.399   1.251
14514SOL    HW143566   2.358   6.411   1.301
14514SOL    HW243567   2.230   6.312   1.278
14515SOL     OW43568   3.136   5.972   1.262
14515SOL    HW143569   3.157   6.046   1.326
14515SOL    HW243570   3.047   5.989   1.219
14516SOL     OW43571   1.926   7.150   1.331
14516SOL    HW143572   1.880   7.232   1.297
14516SOL    HW243573   2.024   7.169   1.340
14517SOL     OW43574   2.229   6.686   0.501
14517SOL    HW143575   2.222   6.769   0.445
14517SOL    HW243576   2.233   6.606   0.441
14518SOL     OW43577   2.428   6.123   0.865
14518SOL    HW143578   2.440   6.189   0.791
14518SOL    HW243579   2.474   6.157   0.948
14519SOL     OW43580   3.114   6.934   0.388
14519SOL    HW143581   3.164   7.011   0.428
14519SOL    HW243582   3.019   6.936   0.420
14520SOL     OW43583   3.134   7.031   1.142
14520SOL    HW143584   3.181   7.044   1.229
14520SOL    HW243585   3.068   6.957   1.151
14521SOL     OW43586   3.444   6.225   0.472
14521SOL    HW143587   3.413   6.286   0.545
14521SOL    HW243588   3.494   6.277   0.403
14522SOL     OW43589   2.216   7.096   1.329
14522SOL    HW143590   2.195   7.052   1.242
14522SOL    HW243591   2.313   7.122   1.332
14523SOL     OW43592   2.264   6.337   1.598
14523SOL    HW143593   2.332   6.392   1.551
14523SOL    HW243594   2.304   6.249   1.625
14524SOL     OW43595   3.449   6.365   1.670
14524SOL    HW143596   3.357   6.403   1.665
14524SOL    HW243597   3.509   6.412   1.605
14525SOL     OW43598   2.875   5.691   1.770
14525SOL    HW143599   2.881   5.776   1.718
14525SOL    HW243600   2.907   5.615   1.713
14526SOL     OW43601   2.366   5.636   1.740
14526SOL    HW143602   2.324   5.579   1.670
14526SOL    HW243603   2.300   5.705   1.772
14527SOL     OW43604   2.435   6.456   1.029
14527SOL    HW143605   2.479   6.545   1.020
14527SOL    HW243606   2.372   6.456   1.106
14528SOL     OW43607   3.222   6.448   1.045
14528SOL    HW143608   3.147   6.448   0.979
14528SOL    HW243609   3.259   6.356   1.054
14529SOL     OW43610   3.071   6.111   0.275
14529SOL    HW143611   3.084   6.027   0.329
14529SOL    HW243612   3.042   6.185   0.335
14530SOL     OW43613   2.169   5.799   1.231
14530SOL    HW143614   2.146   5.836   1.321
14530SOL    HW243615   2.139   5.704   1.225
14531SOL     OW43616   1.899   6.896   1.282
14531SOL    HW143617   1.952   6.847   1.350
14531SOL    HW243618   1.921   6.994   1.287
14532SOL     OW43619   2.594   6.220   1.064
14532SOL    HW143620   2.653   6.194   0.988
14532SOL    HW243621   2.566   6.316   1.053
14533SOL     OW43622   3.590   6.521   1.854
14533SOL    HW143623   3.544   6.514   1.765
14533SOL    HW243624   3.528   6.565   1.920
14534SOL     OW43625   2.169   5.649   0.618
14534SOL    HW143626   2.158   5.743   0.651
14534SOL    HW243627   2.164   5.586   0.695
14535SOL     OW43628   3.484   5.953   0.374
14535SOL    HW143629   3.486   5.877   0.438
14535SOL    HW243630   3.436   6.030   0.414
14536SOL     OW43631   2.885   6.352   0.966
14536SOL    HW143632   2.900   6.373   1.062
14536SOL    HW243633   2.855   6.257   0.957
14537SOL     OW43634   2.842   7.159   1.700
14537SOL    HW143635   2.822   7.203   1.612
14537SOL    HW243636   2.881   7.068   1.684
14538SOL     OW43637   3.721   7.104   1.605
14538SOL    HW143638   3.735   7.131   1.510
14538SOL    HW243639   3.804   7.126   1.658
14539SOL     OW43640   2.212   6.484   1.804
14539SOL    HW143641   2.288   6.528   1.852
14539SOL    HW243642   2.247   6.437   1.722
14540SOL     OW43643   3.402   5.860   0.125
14540SOL    HW143644   3.341   5.785   0.148
14540SOL    HW243645   3.424   5.912   0.208
14541SOL     OW43646   3.165   6.424   0.042
14541SOL    HW143647   3.199   6.331   0.057
14541SOL    HW243648   3.183   6.451  -0.053
14542SOL     OW43649   2.930   6.919   0.849
14542SOL    HW143650   2.937   6.835   0.794
14542SOL    HW243651   2.992   6.988   0.813
14543SOL     OW43652   2.181   6.396   0.949
14543SOL    HW143653   2.274   6.432   0.954
14543SOL    HW243654   2.175   6.311   1.001
14544SOL     OW43655   2.201   6.095   1.006
14544SOL    HW143656   2.149   6.012   0.989
14544SOL    HW243657   2.278   6.100   0.942
14545SOL     OW43658   3.000   5.966   1.678
14545SOL    HW143659   2.955   6.029   1.742
14545SOL    HW243660   3.093   5.997   1.661
14546SOL     OW43661   3.022   5.793   1.477
14546SOL    HW143662   3.022   5.857   1.554
14546SOL    HW243663   3.050   5.841   1.394
14547SOL     OW43664   1.870   6.912   0.200
14547SOL    HW143665   1.777   6.933   0.169
14547SOL    HW243666   1.880   6.813   0.213
14548SOL     OW43667   1.950   7.387   0.927
14548SOL    HW143668   1.908   7.301   0.900
14548SOL    HW243669   2.044   7.390   0.893
14549SOL     OW43670   2.366   7.154   0.910
14549SOL    HW143671   2.432   7.228   0.919
14549SOL    HW243672   2.410   7.075   0.868
14550SOL     OW43673   2.864   6.382   1.238
14550SOL    HW143674   2.905   6.350   1.324
14550SOL    HW243675   2.768   6.355   1.235
14551SOL     OW43676   1.902   6.130   1.114
14551SOL    HW143677   1.987   6.097   1.073
14551SOL    HW243678   1.915   6.145   1.212
14552SOL     OW43679   2.051   6.106   1.722
14552SOL    HW143680   2.110   6.066   1.652
14552SOL    HW243681   1.993   6.177   1.681
14553SOL     OW43682   3.231   6.536   1.660
14553SOL    HW143683   3.270   6.625   1.680
14553SOL    HW243684   3.241   6.516   1.563
14554SOL     OW43685   2.677   6.158   0.325
14554SOL    HW143686   2.684   6.069   0.279
14554SOL    HW243687   2.583   6.192   0.317
14555SOL     OW43688   3.519   6.190   1.206
14555SOL    HW143689   3.481   6.121   1.268
14555SOL    HW243690   3.601   6.154   1.162
14556SOL     OW43691   2.114   7.150   1.744
14556SOL    HW143692   2.084   7.207   1.820
14556SOL    HW243693   2.107   7.053   1.770
14557SOL     OW43694   2.533   6.050   1.269
14557SOL    HW143695   2.499   5.961   1.239
14557SOL    HW243696   2.559   6.104   1.189
14558SOL     OW43697   2.792   7.264   1.465
14558SOL    HW143698   2.768   7.246   1.370
14558SOL    HW243699   2.822   7.358   1.475
14559SOL     OW43700   2.335   6.086   0.191
14559SOL    HW143701   2.396   6.166   0.195
14559SOL    HW243702   2.240   6.117   0.198
14560SOL     OW43703   2.021   6.723   1.466
14560SOL    HW143704   2.043   6.662   1.542
14560SOL    HW243705   2.031   6.674   1.380
14561SOL     OW43706   3.209   6.645   1.234
14561SOL    HW143707   3.233   6.582   1.160
14561SOL    HW243708   3.119   6.685   1.216
14562SOL     OW43709   3.164   6.441   0.309
14562SOL    HW143710   3.078   6.410   0.351
14562SOL    HW243711   3.160   6.427   0.210
14563SOL     OW43712   3.621   7.333   1.154
14563SOL    HW143713   3.682   7.363   1.081
14563SOL    HW243714   3.583   7.244   1.132
14564SOL     OW43715   3.114   7.317   1.128
14564SOL    HW143716   3.198   7.322   1.074
14564SOL    HW243717   3.091   7.221   1.146
14565SOL     OW43718   1.945   6.844   1.022
14565SOL    HW143719   1.940   6.843   1.122
14565SOL    HW243720   1.862   6.803   0.984
14566SOL     OW43721   2.550   7.248   1.716
14566SOL    HW143722   2.494   7.329   1.725
14566SOL    HW243723   2.602   7.252   1.630
14567SOL     OW43724   2.765   5.672   0.133
14567SOL    HW143725   2.816   5.673   0.047
14567SOL    HW243726   2.821   5.630   0.204
14568SOL     OW43727   3.588   5.721   0.523
14568SOL    HW143728   3.661   5.704   0.456
14568SOL    HW243729   3.557   5.634   0.561
14569SOL     OW43730   3.250   7.159   0.477
14569SOL    HW143731   3.317   7.171   0.403
14569SOL    HW243732   3.210   7.248   0.500
14570SOL     OW43733   1.992   7.380   1.851
14570SOL    HW143734   1.951   7.306   1.904
14570SOL    HW243735   2.056   7.431   1.909
14571SOL     OW43736   3.142   6.513   0.672
14571SOL    HW143737   3.202   6.432   0.674
14571SOL    HW243738   3.182   6.582   0.612
14572SOL     OW43739   2.692   6.859   1.422
14572SOL    HW143740   2.687   6.892   1.517
14572SOL    HW243741   2.606   6.878   1.376
14573SOL     OW43742   2.534   7.202   0.154
14573SOL    HW143743   2.543   7.212   0.055
14573SOL    HW243744   2.494   7.113   0.175
14574SOL     OW43745   3.512   7.306   1.394
14574SOL    HW143746   3.565   7.316   1.310
14574SOL    HW243747   3.485   7.396   1.428
14575SOL     OW43748   3.703   5.761   0.963
14575SOL    HW143749   3.742   5.676   0.927
14575SOL    HW243750   3.605   5.763   0.944
14576SOL     OW43751   2.125   5.912   0.720
14576SOL    HW143752   2.046   5.963   0.686
14576SOL    HW243753   2.116   5.897   0.818
14577SOL     OW43754   3.056   7.198   0.031
14577SOL    HW143755   3.062   7.105   0.068
14577SOL    HW243756   2.997   7.198  -0.049
14578SOL     OW43757   2.684   6.588   1.372
14578SOL    HW143758   2.724   6.587   1.280
14578SOL    HW243759   2.694   6.680   1.412
14579SOL     OW43760   2.778   6.496   0.291
14579SOL    HW143761   2.841   6.534   0.223
14579SOL    HW243762   2.818   6.413   0.330
14580SOL     OW43763   3.366   7.193   0.044
14580SOL    HW143764   3.274   7.230   0.051
14580SOL    HW243765   3.404   7.213  -0.046
14581SOL     OW43766   2.234   6.874   1.490
14581SOL    HW143767   2.221   6.967   1.456
14581SOL    HW243768   2.150   6.822   1.477
14582SOL     OW43769   3.476   6.878   1.289
14582SOL    HW143770   3.536   6.881   1.369
14582SOL    HW243771   3.401   6.942   1.302
14583SOL     OW43772   2.901   6.684   0.696
14583SOL    HW143773   2.831   6.637   0.750
14583SOL    HW243774   2.960   6.616   0.653
14584SOL     OW43775   2.876   5.822   0.971
14584SOL    HW143776   2.868   5.786   0.878
14584SOL    HW243777   2.874   5.746   1.036
14585SOL     OW43778   2.452   7.073   0.491
14585SOL    HW143779   2.494   7.015   0.421
14585SOL    HW243780   2.408   7.152   0.447
14586SOL     OW43781   3.571   5.971   1.381
14586SOL    HW143782   3.644   6.040   1.385
14586SOL    HW243783   3.599   5.896   1.322
14587SOL     OW43784   2.117   6.934   0.290
14587SOL    HW143785   2.021   6.935   0.263
14587SOL    HW243786   2.129   6.987   0.374
14588SOL     OW43787   1.967   6.599   1.726
14588SOL    HW143788   1.890   6.566   1.780
14588SOL    HW243789   2.052   6.569   1.768
14589SOL     OW43790   2.534   5.789   1.489
14589SOL    HW143791   2.624   5.773   1.449
14589SOL    HW243792   2.542   5.794   1.588
14590SOL     OW43793   3.302   6.442   1.398
14590SOL    HW143794   3.245   6.494   1.335
14590SOL    HW243795   3.398   6.454   1.374
14591SOL     OW43796   1.934   5.752   0.318
14591SOL    HW143797   1.917   5.835   0.264
14591SOL    HW243798   2.024   5.715   0.296
14592SOL     OW43799   3.045   6.921   0.119
14592SOL    HW143800   2.946   6.910   0.121
14592SOL    HW243801   3.079   6.936   0.212
14593SOL     OW43802   2.475   6.428   1.431
14593SOL    HW143803   2.531   6.509   1.414
14593SOL    HW243804   2.534   6.348   1.434
14594SOL     OW43805   3.355   7.353   0.959
14594SOL    HW143806   3.388   7.417   0.890
14594SOL    HW243807   3.421   7.347   1.034
14595SOL     OW43808   2.578   6.151   1.708
14595SOL    HW143809   2.597   6.216   1.782
14595SOL    HW243810   2.638   6.071   1.717
14596SOL     OW43811   3.312   6.806   1.633
14596SOL    HW143812   3.303   6.796   1.732
14596SOL    HW243813   3.408   6.799   1.607
14597SOL     OW43814   2.252   7.327   1.560
14597SOL    HW143815   2.161   7.368   1.558
14597SOL    HW243816   2.245   7.233   1.592
14598SOL     OW43817   3.536   6.469   1.254
14598SOL    HW143818   3.509   6.380   1.217
14598SOL    HW243819   3.537   6.537   1.181
14599SOL     OW43820   3.087   5.911   0.449
14599SOL    HW143821   3.152   5.837   0.438
14599SOL    HW243822   3.107   5.961   0.533
14600SOL     OW43823   2.456   6.331   0.652
14600SOL    HW143824   2.506   6.416   0.633
14600SOL    HW243825   2.368   6.333   0.604
14601SOL     OW43826   3.639   5.928   1.642
14601SOL    HW143827   3.622   5.959   1.548
14601SOL    HW243828   3.555   5.891   1.680
14602SOL     OW43829   3.592   6.520   1.517
14602SOL    HW143830   3.630   6.611   1.532
14602SOL    HW243831   3.584   6.503   1.418
14603SOL     OW43832   2.721   6.960   0.016
14603SOL    HW143833   2.675   6.975   0.104
14603SOL    HW243834   2.765   7.045  -0.014
14604SOL     OW43835   2.523   7.376   0.953
14604SOL    HW143836   2.477   7.464   0.940
14604SOL    HW243837   2.622   7.388   0.946
14605SOL     OW43838   2.721   6.542   0.861
14605SOL    HW143839   2.775   6.473   0.909
14605SOL    HW243840   2.689   6.611   0.927
14606SOL     OW43841   2.945   6.570   0.087
14606SOL    HW143842   2.922   6.623   0.005
14606SOL    HW243843   3.026   6.514   0.068
14607SOL     OW43844   3.723   7.155   0.851
14607SOL    HW143845   3.652   7.143   0.781
14607SOL    HW243846   3.724   7.076   0.911
14608SOL     OW43847   2.083   6.900   1.844
14608SOL    HW143848   2.018   6.827   1.823
14608SOL    HW243849   2.087   6.914   1.942
14609SOL     OW43850   1.941   6.826   0.653
14609SOL    HW143851   1.940   6.779   0.741
14609SOL    HW243852   2.023   6.798   0.602
14610SOL     OW43853   2.534   6.977   1.624
14610SOL    HW143854   2.456   6.927   1.662
14610SOL    HW243855   2.531   7.072   1.655
14611SOL     OW43856   3.686   5.778   1.227
14611SOL    HW143857   3.682   5.688   1.271
14611SOL    HW243858   3.689   5.767   1.128
14612SOL     OW43859   2.290   6.010   0.520
14612SOL    HW143860   2.320   5.938   0.458
14612SOL    HW243861   2.251   5.970   0.603
14613SOL     OW43862   3.567   7.073   1.104
14613SOL    HW143863   3.474   7.048   1.077
14613SOL    HW243864   3.593   7.023   1.186
14614SOL     OW43865   2.179   6.133   1.280
14614SOL    HW143866   2.217   6.074   1.352
14614SOL    HW243867   2.219   6.107   1.192
14615SOL     OW43868   2.674   7.172   0.687
14615SOL    HW143869   2.706   7.182   0.593
14615SOL    HW243870   2.595   7.110   0.689
14616SOL     OW43871   3.286   5.800   1.112
14616SOL    HW143872   3.338   5.735   1.167
14616SOL    HW243873   3.237   5.863   1.173
14617SOL     OW43874   2.863   5.620   1.154
14617SOL    HW143875   2.800   5.548   1.123
14617SOL    HW243876   2.956   5.584   1.154
14618SOL     OW43877   2.632   6.916   0.301
14618SOL    HW143878   2.586   6.829   0.318
14618SOL    HW243879   2.723   6.913   0.342
14619SOL     OW43880   2.480   7.153   1.284
14619SOL    HW143881   2.475   7.235   1.341
14619SOL    HW243882   2.569   7.150   1.239
14620SOL     OW43883   3.214   5.638   0.168
14620SOL    HW143884   3.249   5.597   0.084
14620SOL    HW243885   3.124   5.600   0.188
14621SOL     OW43886   3.162   6.039   0.691
14621SOL    HW143887   3.103   6.119   0.695
14621SOL    HW243888   3.177   6.004   0.784
14622SOL     OW43889   3.455   5.807   0.882
14622SOL    HW143890   3.371   5.806   0.936
14622SOL    HW243891   3.457   5.890   0.826
14623SOL     OW43892   1.901   6.663   0.300
14623SOL    HW143893   2.000   6.652   0.291
14623SOL    HW243894   1.861   6.577   0.332
14624SOL     OW43895   2.737   7.232   0.337
14624SOL    HW143896   2.660   7.197   0.283
14624SOL    HW243897   2.705   7.303   0.399
14625SOL     OW43898   2.092   6.214   1.975
14625SOL    HW143899   1.999   6.212   2.012
14625SOL    HW243900   2.093   6.175   1.883
14626SOL     OW43901   2.087   5.861   2.858
14626SOL    HW143902   2.122   5.844   2.950
14626SOL    HW243903   1.999   5.816   2.846
14627SOL     OW43904   1.881   5.954   2.509
14627SOL    HW143905   1.799   5.997   2.548
14627SOL    HW243906   1.853   5.881   2.446
14628SOL     OW43907   2.431   6.861   3.027
14628SOL    HW143908   2.338   6.854   2.990
14628SOL    HW243909   2.442   6.950   3.071
14629SOL     OW43910   3.417   7.097   2.565
14629SOL    HW143911   3.360   7.081   2.646
14629SOL    HW243912   3.358   7.107   2.485
14630SOL     OW43913   2.997   6.289   2.579
14630SOL    HW143914   3.054   6.367   2.554
14630SOL    HW243915   2.937   6.315   2.655
14631SOL     OW43916   3.617   6.193   2.093
14631SOL    HW143917   3.605   6.180   1.994
14631SOL    HW243918   3.587   6.112   2.142
14632SOL     OW43919   2.630   6.730   2.885
14632SOL    HW143920   2.552   6.747   2.945
14632SOL    HW243921   2.664   6.817   2.849
14633SOL     OW43922   2.712   6.384   3.685
14633SOL    HW143923   2.708   6.460   3.750
14633SOL    HW243924   2.734   6.420   3.594
14634SOL     OW43925   2.547   6.598   2.527
14634SOL    HW143926   2.616   6.582   2.597
14634SOL    HW243927   2.474   6.655   2.565
14635SOL     OW43928   2.548   6.747   3.665
14635SOL    HW143929   2.608   6.826   3.679
14635SOL    HW243930   2.462   6.778   3.624
14636SOL     OW43931   2.197   7.021   2.923
14636SOL    HW143932   2.119   6.990   2.870
14636SOL    HW243933   2.255   7.079   2.866
14637SOL     OW43934   3.322   7.091   3.201
14637SOL    HW143935   3.346   7.185   3.227
14637SOL    HW243936   3.306   7.037   3.283
14638SOL     OW43937   2.300   5.978   3.361
14638SOL    HW143938   2.382   5.922   3.370
14638SOL    HW243939   2.219   5.920   3.365
14639SOL     OW43940   3.465   6.033   2.599
14639SOL    HW143941   3.391   6.079   2.549
14639SOL    HW243942   3.516   6.101   2.652
14640SOL     OW43943   2.093   7.299   2.345
14640SOL    HW143944   2.127   7.376   2.399
14640SOL    HW243945   2.137   7.299   2.255
14641SOL     OW43946   2.989   6.927   3.552
14641SOL    HW143947   3.036   6.927   3.640
14641SOL    HW243948   2.941   6.840   3.541
14642SOL     OW43949   2.092   7.020   2.400
14642SOL    HW143950   2.066   7.116   2.400
14642SOL    HW243951   2.021   6.966   2.445
14643SOL     OW43952   2.102   6.677   2.748
14643SOL    HW143953   2.116   6.593   2.800
14643SOL    HW243954   2.047   6.741   2.803
14644SOL     OW43955   2.482   7.372   3.301
14644SOL    HW143956   2.390   7.355   3.336
14644SOL    HW243957   2.510   7.464   3.327
14645SOL     OW43958   2.468   6.550   1.985
14645SOL    HW143959   2.475   6.634   1.931
14645SOL    HW243960   2.514   6.563   2.073
14646SOL     OW43961   3.456   5.700   3.342
14646SOL    HW143962   3.438   5.767   3.270
14646SOL    HW243963   3.453   5.746   3.431
14647SOL     OW43964   1.984   6.229   2.425
14647SOL    HW143965   1.939   6.141   2.442
14647SOL    HW243966   1.983   6.283   2.509
14648SOL     OW43967   3.704   7.353   2.221
14648SOL    HW143968   3.758   7.324   2.301
14648SOL    HW243969   3.734   7.443   2.192
14649SOL     OW43970   1.889   7.182   1.979
14649SOL    HW143971   1.870   7.086   2.000
14649SOL    HW243972   1.856   7.240   2.054
14650SOL     OW43973   3.551   6.508   2.474
14650SOL    HW143974   3.646   6.479   2.482
14650SOL    HW243975   3.543   6.573   2.399
14651SOL     OW43976   3.503   6.694   2.294
14651SOL    HW143977   3.589   6.696   2.242
14651SOL    HW243978   3.517   6.741   2.382
14652SOL     OW43979   1.975   6.323   3.459
14652SOL    HW143980   2.063   6.310   3.504
14652SOL    HW243981   1.962   6.420   3.437
14653SOL     OW43982   2.475   6.951   2.588
14653SOL    HW143983   2.426   6.864   2.597
14653SOL    HW243984   2.452   6.994   2.501
14654SOL     OW43985   3.155   6.814   3.285
14654SOL    HW143986   3.192   6.741   3.227
14654SOL    HW243987   3.207   6.819   3.370
14655SOL     OW43988   2.671   5.590   2.364
14655SOL    HW143989   2.711   5.681   2.355
14655SOL    HW243990   2.571   5.598   2.370
14656SOL     OW43991   2.059   6.562   3.126
14656SOL    HW143992   2.148   6.517   3.112
14656SOL    HW243993   1.986   6.497   3.107
14657SOL     OW43994   3.387   6.585   2.052
14657SOL    HW143995   3.324   6.509   2.065
14657SOL    HW243996   3.435   6.603   2.138
14658SOL     OW43997   3.049   7.378   3.478
14658SOL    HW143998   3.073   7.438   3.402
14658SOL    HW243999   3.056   7.283   3.448
14659SOL     OW44000   2.179   5.837   3.663
14659SOL    HW144001   2.250   5.908   3.669
14659SOL    HW244002   2.091   5.876   3.691
14660SOL     OW44003   3.328   7.003   2.815
14660SOL    HW144004   3.269   7.009   2.895
14660SOL    HW244005   3.313   6.915   2.769
14661SOL     OW44006   3.529   7.300   2.434
14661SOL    HW144007   3.488   7.277   2.346
14661SOL    HW244008   3.511   7.226   2.499
14662SOL     OW44009   2.460   6.315   2.132
14662SOL    HW144010   2.484   6.384   2.064
14662SOL    HW244011   2.382   6.348   2.186
14663SOL     OW44012   3.143   5.931   2.806
14663SOL    HW144013   3.057   5.881   2.793
14663SOL    HW244014   3.205   5.877   2.862
14664SOL     OW44015   3.438   7.248   2.169
14664SOL    HW144016   3.527   7.294   2.172
14664SOL    HW244017   3.417   7.224   2.074
14665SOL     OW44018   2.669   6.191   3.327
14665SOL    HW144019   2.622   6.188   3.416
14665SOL    HW244020   2.618   6.136   3.261
14666SOL     OW44021   3.256   6.055   3.536
14666SOL    HW144022   3.236   6.098   3.624
14666SOL    HW244023   3.334   5.993   3.545
14667SOL     OW44024   2.835   6.476   3.434
14667SOL    HW144025   2.881   6.392   3.405
14667SOL    HW244026   2.779   6.510   3.359
14668SOL     OW44027   2.853   5.996   3.104
14668SOL    HW144028   2.776   6.030   3.158
14668SOL    HW244029   2.819   5.945   3.025
14669SOL     OW44030   2.903   6.287   2.291
14669SOL    HW144031   2.929   6.283   2.387
14669SOL    HW244032   2.818   6.236   2.277
14670SOL     OW44033   1.938   6.397   2.651
14670SOL    HW144034   2.037   6.385   2.660
14670SOL    HW244035   1.914   6.492   2.672
14671SOL     OW44036   1.992   7.407   3.433
14671SOL    HW144037   1.982   7.392   3.532
14671SOL    HW244038   1.906   7.443   3.397
14672SOL     OW44039   2.727   5.934   2.057
14672SOL    HW144040   2.786   5.997   2.008
14672SOL    HW244041   2.746   5.840   2.028
14673SOL     OW44042   3.581   6.171   3.693
14673SOL    HW144043   3.555   6.260   3.657
14673SOL    HW244044   3.579   6.103   3.620
14674SOL     OW44045   3.224   6.730   2.407
14674SOL    HW144046   3.307   6.701   2.359
14674SOL    HW244047   3.175   6.797   2.351
14675SOL     OW44048   2.412   5.782   2.747
14675SOL    HW144049   2.407   5.777   2.847
14675SOL    HW244050   2.414   5.878   2.718
14676SOL     OW44051   2.870   7.042   2.339
14676SOL    HW144052   2.824   7.114   2.287
14676SOL    HW244053   2.866   7.062   2.437
14677SOL     OW44054   2.213   7.387   2.715
14677SOL    HW144055   2.263   7.301   2.721
14677SOL    HW244056   2.278   7.464   2.712
14678SOL     OW44057   3.657   6.652   2.735
14678SOL    HW144058   3.595   6.637   2.659
14678SOL    HW244059   3.605   6.663   2.820
14679SOL     OW44060   3.089   7.136   3.368
14679SOL    HW144061   3.095   7.059   3.432
14679SOL    HW244062   3.037   7.110   3.288
14680SOL     OW44063   2.183   6.529   2.104
14680SOL    HW144064   2.265   6.568   2.062
14680SOL    HW244065   2.156   6.447   2.055
14681SOL     OW44066   3.320   6.321   2.590
14681SOL    HW144067   3.315   6.256   2.665
14681SOL    HW244068   3.400   6.380   2.603
14682SOL     OW44069   2.323   6.852   3.589
14682SOL    HW144070   2.273   6.853   3.503
14682SOL    HW244071   2.260   6.834   3.665
14683SOL     OW44072   2.973   7.362   2.099
14683SOL    HW144073   2.913   7.300   2.149
14683SOL    HW244074   3.004   7.318   2.014
14684SOL     OW44075   2.064   5.871   3.360
14684SOL    HW144076   1.984   5.931   3.347
14684SOL    HW244077   2.054   5.822   3.446
14685SOL     OW44078   3.494   6.963   1.943
14685SOL    HW144079   3.462   7.057   1.933
14685SOL    HW244080   3.418   6.900   1.931
14686SOL     OW44081   2.326   7.329   2.185
14686SOL    HW144082   2.359   7.368   2.271
14686SOL    HW244083   2.402   7.322   2.120
14687SOL     OW44084   3.262   5.693   2.288
14687SOL    HW144085   3.238   5.656   2.198
14687SOL    HW244086   3.361   5.709   2.292
14688SOL     OW44087   2.111   7.371   3.103
14688SOL    HW144088   2.168   7.306   3.153
14688SOL    HW244089   2.095   7.338   3.010
14689SOL     OW44090   2.802   7.284   2.766
14689SOL    HW144091   2.882   7.227   2.787
14689SOL    HW244092   2.753   7.244   2.689
14690SOL     OW44093   2.244   6.286   2.342
14690SOL    HW144094   2.289   6.196   2.339
14690SOL    HW244095   2.150   6.275   2.375
14691SOL     OW44096   3.409   5.808   3.591
14691SOL    HW144097   3.404   5.845   3.683
14691SOL    HW244098   3.337   5.739   3.579
14692SOL     OW44099   2.476   5.708   1.979
14692SOL    HW144100   2.574   5.686   1.986
14692SOL    HW244101   2.445   5.691   1.886
14693SOL     OW44102   2.643   5.850   3.611
14693SOL    HW144103   2.710   5.789   3.654
14693SOL    HW244104   2.570   5.869   3.676
14694SOL     OW44105   2.750   7.100   3.057
14694SOL    HW144106   2.727   7.075   2.963
14694SOL    HW244107   2.811   7.031   3.096
14695SOL     OW44108   3.213   6.176   3.295
14695SOL    HW144109   3.241   6.133   3.380
14695SOL    HW244110   3.238   6.272   3.296
14696SOL     OW44111   2.665   6.988   2.786
14696SOL    HW144112   2.755   7.002   2.744
14696SOL    HW244113   2.594   6.990   2.715
14697SOL     OW44114   2.784   6.089   2.761
14697SOL    HW144115   2.759   6.080   2.665
14697SOL    HW244116   2.832   6.007   2.792
14698SOL     OW44117   2.401   5.650   2.374
14698SOL    HW144118   2.320   5.651   2.432
14698SOL    HW244119   2.404   5.733   2.319
14699SOL     OW44120   3.296   6.774   1.903
14699SOL    HW144121   3.328   6.698   1.960
14699SOL    HW244122   3.204   6.801   1.933
14700SOL     OW44123   2.159   5.621   2.033
14700SOL    HW144124   2.208   5.705   2.012
14700SOL    HW244125   2.221   5.556   2.078
14701SOL     OW44126   2.797   5.822   2.342
14701SOL    HW144127   2.749   5.863   2.264
14701SOL    HW244128   2.896   5.820   2.323
14702SOL     OW44129   2.938   6.269   3.326
14702SOL    HW144130   2.858   6.208   3.329
14702SOL    HW244131   3.019   6.216   3.302
14703SOL     OW44132   3.089   7.156   2.655
14703SOL    HW144133   3.110   7.230   2.590
14703SOL    HW244134   3.157   7.156   2.728
14704SOL     OW44135   2.321   6.738   2.603
14704SOL    HW144136   2.250   6.711   2.668
14704SOL    HW244137   2.295   6.710   2.510
14705SOL     OW44138   3.133   7.383   2.453
14705SOL    HW144139   3.177   7.447   2.389
14705SOL    HW244140   3.083   7.435   2.523
14706SOL     OW44141   2.894   6.135   1.878
14706SOL    HW144142   2.853   6.217   1.839
14706SOL    HW244143   2.958   6.161   1.951
14707SOL     OW44144   1.940   6.142   3.248
14707SOL    HW144145   2.032   6.141   3.207
14707SOL    HW244146   1.934   6.216   3.315
14708SOL     OW44147   2.423   5.808   3.009
14708SOL    HW144148   2.461   5.724   3.046
14708SOL    HW244149   2.335   5.827   3.053
14709SOL     OW44150   2.728   6.040   2.504
14709SOL    HW144151   2.696   6.112   2.442
14709SOL    HW244152   2.752   5.959   2.451
14710SOL     OW44153   2.879   5.625   2.615
14710SOL    HW144154   2.807   5.630   2.546
14710SOL    HW244155   2.855   5.556   2.684
14711SOL     OW44156   3.291   6.759   2.729
14711SOL    HW144157   3.236   6.675   2.722
14711SOL    HW244158   3.317   6.788   2.637
14712SOL     OW44159   3.328   6.176   2.854
14712SOL    HW144160   3.298   6.081   2.861
14712SOL    HW244161   3.401   6.192   2.920
14713SOL     OW44162   3.719   6.419   2.239
14713SOL    HW144163   3.761   6.355   2.303
14713SOL    HW244164   3.681   6.368   2.161
14714SOL     OW44165   2.350   6.971   2.036
14714SOL    HW144166   2.263   6.956   2.083
14714SOL    HW244167   2.333   6.997   1.941
14715SOL     OW44168   3.526   6.866   2.519
14715SOL    HW144169   3.625   6.874   2.533
14715SOL    HW244170   3.481   6.950   2.550
14716SOL     OW44171   3.252   6.161   1.940
14716SOL    HW144172   3.198   6.140   2.021
14716SOL    HW244173   3.343   6.120   1.949
14717SOL     OW44174   2.389   5.842   2.190
14717SOL    HW144175   2.416   5.783   2.115
14717SOL    HW244176   2.389   5.937   2.159
14718SOL     OW44177   3.616   6.809   3.450
14718SOL    HW144178   3.707   6.770   3.437
14718SOL    HW244179   3.624   6.905   3.474
14719SOL     OW44180   2.926   6.933   3.202
14719SOL    HW144181   2.846   6.910   3.257
14719SOL    HW244182   3.009   6.907   3.251
14720SOL     OW44183   3.454   7.215   3.487
14720SOL    HW144184   3.481   7.249   3.397
14720SOL    HW244185   3.533   7.177   3.533
14721SOL     OW44186   2.973   6.781   2.962
14721SOL    HW144187   2.933   6.825   3.043
14721SOL    HW244188   2.932   6.818   2.879
14722SOL     OW44189   3.500   6.685   2.941
14722SOL    HW144190   3.505   6.766   3.000
14722SOL    HW244191   3.414   6.687   2.890
14723SOL     OW44192   2.777   5.675   3.264
14723SOL    HW144193   2.802   5.655   3.169
14723SOL    HW244194   2.849   5.731   3.306
14724SOL     OW44195   2.842   6.702   3.581
14724SOL    HW144196   2.743   6.708   3.591
14724SOL    HW244197   2.865   6.622   3.525
14725SOL     OW44198   2.567   6.636   2.230
14725SOL    HW144199   2.553   6.643   2.329
14725SOL    HW244200   2.651   6.585   2.212
14726SOL     OW44201   2.272   6.399   3.113
14726SOL    HW144202   2.358   6.411   3.163
14726SOL    HW244203   2.230   6.312   3.140
14727SOL     OW44204   3.136   5.972   3.124
14727SOL    HW144205   3.157   6.046   3.188
14727SOL    HW244206   3.047   5.989   3.081
14728SOL     OW44207   1.926   7.150   3.193
14728SOL    HW144208   1.880   7.232   3.159
14728SOL    HW244209   2.024   7.169   3.202
14729SOL     OW44210   2.229   6.686   2.363
14729SOL    HW144211   2.222   6.769   2.307
14729SOL    HW244212   2.233   6.606   2.303
14730SOL     OW44213   2.428   6.123   2.727
14730SOL    HW144214   2.440   6.189   2.653
14730SOL    HW244215   2.474   6.157   2.810
14731SOL     OW44216   3.114   6.934   2.250
14731SOL    HW144217   3.164   7.011   2.290
14731SOL    HW244218   3.019   6.936   2.282
14732SOL     OW44219   3.134   7.031   3.004
14732SOL    HW144220   3.181   7.044   3.091
14732SOL    HW244221   3.068   6.957   3.013
14733SOL     OW44222   3.444   6.225   2.334
14733SOL    HW144223   3.413   6.286   2.407
14733SOL    HW244224   3.494   6.277   2.265
14734SOL     OW44225   2.216   7.096   3.191
14734SOL    HW144226   2.195   7.052   3.104
14734SOL    HW244227   2.313   7.122   3.194
14735SOL     OW44228   2.264   6.337   3.460
14735SOL    HW144229   2.332   6.392   3.413
14735SOL    HW244230   2.304   6.249   3.487
14736SOL     OW44231   3.449   6.365   3.532
14736SOL    HW144232   3.357   6.403   3.527
14736SOL    HW244233   3.509   6.412   3.467
14737SOL     OW44234   2.875   5.691   3.632
14737SOL    HW144235   2.881   5.776   3.580
14737SOL    HW244236   2.907   5.615   3.575
14738SOL     OW44237   2.366   5.636   3.602
14738SOL    HW144238   2.324   5.579   3.532
14738SOL    HW244239   2.300   5.705   3.634
14739SOL     OW44240   2.435   6.456   2.891
14739SOL    HW144241   2.479   6.545   2.882
14739SOL    HW244242   2.372   6.456   2.968
14740SOL     OW44243   3.222   6.448   2.907
14740SOL    HW144244   3.147   6.448   2.841
14740SOL    HW244245   3.259   6.356   2.916
14741SOL     OW44246   3.071   6.111   2.137
14741SOL    HW144247   3.084   6.027   2.191
14741SOL    HW244248   3.042   6.185   2.197
14742SOL     OW44249   2.169   5.799   3.093
14742SOL    HW144250   2.146   5.836   3.183
14742SOL    HW244251   2.139   5.704   3.087
14743SOL     OW44252   1.899   6.896   3.144
14743SOL    HW144253   1.952   6.847   3.212
14743SOL    HW244254   1.921   6.994   3.149
14744SOL     OW44255   2.594   6.220   2.926
14744SOL    HW144256   2.653   6.194   2.850
14744SOL    HW244257   2.566   6.316   2.915
14745SOL     OW44258   3.590   6.521   3.716
14745SOL    HW144259   3.544   6.514   3.627
14745SOL    HW244260   3.528   6.565   3.782
14746SOL     OW44261   2.169   5.649   2.480
14746SOL    HW144262   2.158   5.743   2.513
14746SOL    HW244263   2.164   5.586   2.557
14747SOL     OW44264   3.484   5.953   2.236
14747SOL    HW144265   3.486   5.877   2.300
14747SOL    HW244266   3.436   6.030   2.276
14748SOL     OW44267   2.885   6.352   2.828
14748SOL    HW144268   2.900   6.373   2.924
14748SOL    HW244269   2.855   6.257   2.819
14749SOL     OW44270   2.842   7.159   3.562
14749SOL    HW144271   2.822   7.203   3.474
14749SOL    HW244272   2.881   7.068   3.546
14750SOL     OW44273   3.721   7.104   3.467
14750SOL    HW144274   3.735   7.131   3.372
14750SOL    HW244275   3.804   7.126   3.520
14751SOL     OW44276   2.212   6.484   3.666
14751SOL    HW144277   2.288   6.528   3.714
14751SOL    HW244278   2.247   6.437   3.584
14752SOL     OW44279   3.402   5.860   1.987
14752SOL    HW144280   3.341   5.785   2.010
14752SOL    HW244281   3.424   5.912   2.070
14753SOL     OW44282   3.165   6.424   1.904
14753SOL    HW144283   3.199   6.331   1.919
14753SOL    HW244284   3.183   6.451   1.809
14754SOL     OW44285   2.930   6.919   2.711
14754SOL    HW144286   2.937   6.835   2.656
14754SOL    HW244287   2.992   6.988   2.675
14755SOL     OW44288   2.181   6.396   2.811
14755SOL    HW144289   2.274   6.432   2.816
14755SOL    HW244290   2.175   6.311   2.863
14756SOL     OW44291   2.201   6.095   2.868
14756SOL    HW144292   2.149   6.012   2.851
14756SOL    HW244293   2.278   6.100   2.804
14757SOL     OW44294   3.000   5.966   3.540
14757SOL    HW144295   2.955   6.029   3.604
14757SOL    HW244296   3.093   5.997   3.523
14758SOL     OW44297   3.022   5.793   3.339
14758SOL    HW144298   3.022   5.857   3.416
14758SOL    HW244299   3.050   5.841   3.256
14759SOL     OW44300   1.870   6.912   2.062
14759SOL    HW144301   1.777   6.933   2.031
14759SOL    HW244302   1.880   6.813   2.075
14760SOL     OW44303   1.950   7.387   2.789
14760SOL    HW144304   1.908   7.301   2.762
14760SOL    HW244305   2.044   7.390   2.755
14761SOL     OW44306   2.366   7.154   2.772
14761SOL    HW144307   2.432   7.228   2.781
14761SOL    HW244308   2.410   7.075   2.730
14762SOL     OW44309   2.864   6.382   3.100
14762SOL    HW144310   2.905   6.350   3.186
14762SOL    HW244311   2.768   6.355   3.097
14763SOL     OW44312   1.902   6.130   2.976
14763SOL    HW144313   1.987   6.097   2.935
14763SOL    HW244314   1.915   6.145   3.074
14764SOL     OW44315   2.051   6.106   3.584
14764SOL    HW144316   2.110   6.066   3.514
14764SOL    HW244317   1.993   6.177   3.543
14765SOL     OW44318   3.231   6.536   3.522
14765SOL    HW144319   3.270   6.625   3.542
14765SOL    HW244320   3.241   6.516   3.425
14766SOL     OW44321   2.677   6.158   2.187
14766SOL    HW144322   2.684   6.069   2.141
14766SOL    HW244323   2.583   6.192   2.179
14767SOL     OW44324   3.519   6.190   3.068
14767SOL    HW144325   3.481   6.121   3.130
14767SOL    HW244326   3.601   6.154   3.024
14768SOL     OW44327   2.114   7.150   3.606
14768SOL    HW144328   2.084   7.207   3.682
14768SOL    HW244329   2.107   7.053   3.632
14769SOL     OW44330   2.533   6.050   3.131
14769SOL    HW144331   2.499   5.961   3.101
14769SOL    HW244332   2.559   6.104   3.051
14770SOL     OW44333   2.792   7.264   3.327
14770SOL    HW144334   2.768   7.246   3.232
14770SOL    HW244335   2.822   7.358   3.337
14771SOL     OW44336   2.335   6.086   2.053
14771SOL    HW144337   2.396   6.166   2.057
14771SOL    HW244338   2.240   6.117   2.060
14772SOL     OW44339   2.021   6.723   3.328
14772SOL    HW144340   2.043   6.662   3.404
14772SOL    HW244341   2.031   6.674   3.242
14773SOL     OW44342   3.209   6.645   3.096
14773SOL    HW144343   3.233   6.582   3.022
14773SOL    HW244344   3.119   6.685   3.078
14774SOL     OW44345   3.164   6.441   2.171
14774SOL    HW144346   3.078   6.410   2.213
14774SOL    HW244347   3.160   6.427   2.072
14775SOL     OW44348   3.621   7.333   3.016
14775SOL    HW144349   3.682   7.363   2.943
14775SOL    HW244350   3.583   7.244   2.994
14776SOL     OW44351   3.114   7.317   2.990
14776SOL    HW144352   3.198   7.322   2.936
14776SOL    HW244353   3.091   7.221   3.008
14777SOL     OW44354   1.945   6.844   2.884
14777SOL    HW144355   1.940   6.843   2.984
14777SOL    HW244356   1.862   6.803   2.846
14778SOL     OW44357   2.550   7.248   3.578
14778SOL    HW144358   2.494   7.329   3.587
14778SOL    HW244359   2.602   7.252   3.492
14779SOL     OW44360   3.588   5.721   2.385
14779SOL    HW144361   3.661   5.704   2.318
14779SOL    HW244362   3.557   5.634   2.423
14780SOL     OW44363   3.250   7.159   2.339
14780SOL    HW144364   3.317   7.171   2.265
14780SOL    HW244365   3.210   7.248   2.362
14781SOL     OW44366   1.992   7.380   3.713
14781SOL    HW144367   1.951   7.306   3.766
14781SOL    HW244368   2.056   7.431   3.771
14782SOL     OW44369   3.142   6.513   2.534
14782SOL    HW144370   3.202   6.432   2.536
14782SOL    HW244371   3.182   6.582   2.474
14783SOL     OW44372   2.692   6.859   3.284
14783SOL    HW144373   2.687   6.892   3.379
14783SOL    HW244374   2.606   6.878   3.238
14784SOL     OW44375   2.534   7.202   2.016
14784SOL    HW144376   2.543   7.212   1.917
14784SOL    HW244377   2.494   7.113   2.037
14785SOL     OW44378   3.512   7.306   3.256
14785SOL    HW144379   3.565   7.316   3.172
14785SOL    HW244380   3.485   7.396   3.290
14786SOL     OW44381   3.703   5.761   2.825
14786SOL    HW144382   3.742   5.676   2.789
14786SOL    HW244383   3.605   5.763   2.806
14787SOL     OW44384   2.125   5.912   2.582
14787SOL    HW144385   2.046   5.963   2.548
14787SOL    HW244386   2.116   5.897   2.680
14788SOL     OW44387   3.056   7.198   1.893
14788SOL    HW144388   3.062   7.105   1.930
14788SOL    HW244389   2.997   7.198   1.813
14789SOL     OW44390   2.684   6.588   3.234
14789SOL    HW144391   2.724   6.587   3.142
14789SOL    HW244392   2.694   6.680   3.274
14790SOL     OW44393   2.778   6.496   2.153
14790SOL    HW144394   2.841   6.534   2.085
14790SOL    HW244395   2.818   6.413   2.192
14791SOL     OW44396   3.366   7.193   1.906
14791SOL    HW144397   3.274   7.230   1.913
14791SOL    HW244398   3.404   7.213   1.816
14792SOL     OW44399   2.234   6.874   3.352
14792SOL    HW144400   2.221   6.967   3.318
14792SOL    HW244401   2.150   6.822   3.339
14793SOL     OW44402   3.476   6.878   3.151
14793SOL    HW144403   3.536   6.881   3.231
14793SOL    HW244404   3.401   6.942   3.164
14794SOL     OW44405   2.901   6.684   2.558
14794SOL    HW144406   2.831   6.637   2.612
14794SOL    HW244407   2.960   6.616   2.515
14795SOL     OW44408   2.876   5.822   2.833
14795SOL    HW144409   2.868   5.786   2.740
14795SOL    HW244410   2.874   5.746   2.898
14796SOL     OW44411   2.452   7.073   2.353
14796SOL    HW144412   2.494   7.015   2.283
14796SOL    HW244413   2.408   7.152   2.309
14797SOL     OW44414   3.571   5.971   3.243
14797SOL    HW144415   3.644   6.040   3.247
14797SOL    HW244416   3.599   5.896   3.184
14798SOL     OW44417   2.117   6.934   2.152
14798SOL    HW144418   2.021   6.935   2.125
14798SOL    HW244419   2.129   6.987   2.236
14799SOL     OW44420   1.967   6.599   3.588
14799SOL    HW144421   1.890   6.566   3.642
14799SOL    HW244422   2.052   6.569   3.630
14800SOL     OW44423   2.534   5.789   3.351
14800SOL    HW144424   2.624   5.773   3.311
14800SOL    HW244425   2.542   5.794   3.450
14801SOL     OW44426   1.937   5.931   1.895
14801SOL    HW144427   1.845   5.903   1.866
14801SOL    HW244428   1.968   6.008   1.839
14802SOL     OW44429   3.302   6.442   3.260
14802SOL    HW144430   3.245   6.494   3.197
14802SOL    HW244431   3.398   6.454   3.236
14803SOL     OW44432   1.934   5.752   2.180
14803SOL    HW144433   1.917   5.835   2.126
14803SOL    HW244434   2.024   5.715   2.158
14804SOL     OW44435   3.045   6.921   1.981
14804SOL    HW144436   2.946   6.910   1.983
14804SOL    HW244437   3.079   6.936   2.074
14805SOL     OW44438   2.475   6.428   3.293
14805SOL    HW144439   2.531   6.509   3.276
14805SOL    HW244440   2.534   6.348   3.296
14806SOL     OW44441   3.355   7.353   2.821
14806SOL    HW144442   3.388   7.417   2.752
14806SOL    HW244443   3.421   7.347   2.896
14807SOL     OW44444   2.578   6.151   3.570
14807SOL    HW144445   2.597   6.216   3.644
14807SOL    HW244446   2.638   6.071   3.579
14808SOL     OW44447   3.312   6.806   3.495
14808SOL    HW144448   3.303   6.796   3.594
14808SOL    HW244449   3.408   6.799   3.469
14809SOL     OW44450   2.252   7.327   3.422
14809SOL    HW144451   2.161   7.368   3.420
14809SOL    HW244452   2.245   7.233   3.454
14810SOL     OW44453   3.536   6.469   3.116
14810SOL    HW144454   3.509   6.380   3.079
14810SOL    HW244455   3.537   6.537   3.043
14811SOL     OW44456   3.087   5.911   2.311
14811SOL    HW144457   3.152   5.837   2.300
14811SOL    HW244458   3.107   5.961   2.395
14812SOL     OW44459   2.456   6.331   2.514
14812SOL    HW144460   2.506   6.416   2.495
14812SOL    HW244461   2.368   6.333   2.466
14813SOL     OW44462   3.639   5.928   3.504
14813SOL    HW144463   3.622   5.959   3.410
14813SOL    HW244464   3.555   5.891   3.542
14814SOL     OW44465   3.592   6.520   3.379
14814SOL    HW144466   3.630   6.611   3.394
14814SOL    HW244467   3.584   6.503   3.280
14815SOL     OW44468   2.721   6.960   1.878
14815SOL    HW144469   2.675   6.975   1.966
14815SOL    HW244470   2.765   7.045   1.848
14816SOL     OW44471   2.523   7.376   2.815
14816SOL    HW144472   2.477   7.464   2.802
14816SOL    HW244473   2.622   7.388   2.808
14817SOL     OW44474   2.721   6.542   2.723
14817SOL    HW144475   2.775   6.473   2.771
14817SOL    HW244476   2.689   6.611   2.789
14818SOL     OW44477   2.945   6.570   1.949
14818SOL    HW144478   2.922   6.623   1.867
14818SOL    HW244479   3.026   6.514   1.930
14819SOL     OW44480   3.723   7.155   2.713
14819SOL    HW144481   3.652   7.143   2.643
14819SOL    HW244482   3.724   7.076   2.773
14820SOL     OW44483   2.083   6.900   3.706
14820SOL    HW144484   2.018   6.827   3.685
14820SOL    HW244485   2.087   6.914   3.804
14821SOL     OW44486   1.941   6.826   2.515
14821SOL    HW144487   1.940   6.779   2.603
14821SOL    HW244488   2.023   6.798   2.464
14822SOL     OW44489   2.534   6.977   3.486
14822SOL    HW144490   2.456   6.927   3.524
14822SOL    HW244491   2.531   7.072   3.517
14823SOL     OW44492   3.686   5.778   3.089
14823SOL    HW144493   3.682   5.688   3.133
14823SOL    HW244494   3.689   5.767   2.990
14824SOL     OW44495   2.290   6.010   2.382
14824SOL    HW144496   2.320   5.938   2.320
14824SOL    HW244497   2.251   5.970   2.465
14825SOL     OW44498   3.567   7.073   2.966
14825SOL    HW144499   3.474   7.048   2.939
14825SOL    HW244500   3.593   7.023   3.048
14826SOL     OW44501   2.179   6.133   3.142
14826SOL    HW144502   2.217   6.074   3.214
14826SOL    HW244503   2.219   6.107   3.054
14827SOL     OW44504   2.674   7.172   2.549
14827SOL    HW144505   2.706   7.182   2.455
14827SOL    HW244506   2.595   7.110   2.551
14828SOL     OW44507   3.286   5.800   2.974
14828SOL    HW144508   3.338   5.735   3.029
14828SOL    HW244509   3.237   5.863   3.035
14829SOL     OW44510   2.863   5.620   3.016
14829SOL    HW144511   2.800   5.548   2.985
14829SOL    HW244512   2.956   5.584   3.016
14830SOL     OW44513   2.632   6.916   2.163
14830SOL    HW144514   2.586   6.829   2.180
14830SOL    HW244515   2.723   6.913   2.204
14831SOL     OW44516   2.480   7.153   3.146
14831SOL    HW144517   2.475   7.235   3.203
14831SOL    HW244518   2.569   7.150   3.101
14832SOL     OW44519   3.214   5.638   2.030
14832SOL    HW144520   3.249   5.597   1.946
14832SOL    HW244521   3.124   5.600   2.050
14833SOL     OW44522   3.162   6.039   2.553
14833SOL    HW144523   3.103   6.119   2.557
14833SOL    HW244524   3.177   6.004   2.646
14834SOL     OW44525   3.455   5.807   2.744
14834SOL    HW144526   3.371   5.806   2.798
14834SOL    HW244527   3.457   5.890   2.688
14835SOL     OW44528   1.901   6.663   2.162
14835SOL    HW144529   2.000   6.652   2.153
14835SOL    HW244530   1.861   6.577   2.194
14836SOL     OW44531   2.737   7.232   2.199
14836SOL    HW144532   2.660   7.197   2.145
14836SOL    HW244533   2.705   7.303   2.261
14837SOL     OW44534   2.092   6.214   3.837
14837SOL    HW144535   1.999   6.212   3.874
14837SOL    HW244536   2.093   6.175   3.745
14838SOL     OW44537   2.087   5.861   4.720
14838SOL    HW144538   2.122   5.844   4.812
14838SOL    HW244539   1.999   5.816   4.708
14839SOL     OW44540   1.881   5.954   4.371
14839SOL    HW144541   1.799   5.997   4.410
14839SOL    HW244542   1.853   5.881   4.308
14840SOL     OW44543   2.431   6.861   4.889
14840SOL    HW144544   2.338   6.854   4.852
14840SOL    HW244545   2.442   6.950   4.933
14841SOL     OW44546   3.417   7.097   4.427
14841SOL    HW144547   3.360   7.081   4.508
14841SOL    HW244548   3.358   7.107   4.347
14842SOL     OW44549   2.997   6.289   4.441
14842SOL    HW144550   3.054   6.367   4.416
14842SOL    HW244551   2.937   6.315   4.517
14843SOL     OW44552   3.617   6.193   3.955
14843SOL    HW144553   3.605   6.180   3.856
14843SOL    HW244554   3.587   6.112   4.004
14844SOL     OW44555   2.630   6.730   4.747
14844SOL    HW144556   2.552   6.747   4.807
14844SOL    HW244557   2.664   6.817   4.711
14845SOL     OW44558   2.712   6.384   5.547
14845SOL    HW144559   2.708   6.460   5.612
14845SOL    HW244560   2.734   6.420   5.456
14846SOL     OW44561   2.547   6.598   4.389
14846SOL    HW144562   2.616   6.582   4.459
14846SOL    HW244563   2.474   6.655   4.427
14847SOL     OW44564   2.548   6.747   5.527
14847SOL    HW144565   2.608   6.826   5.541
14847SOL    HW244566   2.462   6.778   5.486
14848SOL     OW44567   2.197   7.021   4.785
14848SOL    HW144568   2.119   6.990   4.732
14848SOL    HW244569   2.255   7.079   4.728
14849SOL     OW44570   3.322   7.091   5.063
14849SOL    HW144571   3.346   7.185   5.089
14849SOL    HW244572   3.306   7.037   5.145
14850SOL     OW44573   2.300   5.978   5.223
14850SOL    HW144574   2.382   5.922   5.232
14850SOL    HW244575   2.219   5.920   5.227
14851SOL     OW44576   3.465   6.033   4.461
14851SOL    HW144577   3.391   6.079   4.411
14851SOL    HW244578   3.516   6.101   4.514
14852SOL     OW44579   2.093   7.299   4.207
14852SOL    HW144580   2.127   7.376   4.261
14852SOL    HW244581   2.137   7.299   4.117
14853SOL     OW44582   2.989   6.927   5.414
14853SOL    HW144583   3.036   6.927   5.502
14853SOL    HW244584   2.941   6.840   5.403
14854SOL     OW44585   2.092   7.020   4.262
14854SOL    HW144586   2.066   7.116   4.262
14854SOL    HW244587   2.021   6.966   4.307
14855SOL     OW44588   2.102   6.677   4.610
14855SOL    HW144589   2.116   6.593   4.662
14855SOL    HW244590   2.047   6.741   4.665
14856SOL     OW44591   2.482   7.372   5.163
14856SOL    HW144592   2.390   7.355   5.198
14856SOL    HW244593   2.510   7.464   5.189
14857SOL     OW44594   2.468   6.550   3.847
14857SOL    HW144595   2.475   6.634   3.793
14857SOL    HW244596   2.514   6.563   3.935
14858SOL     OW44597   3.456   5.700   5.204
14858SOL    HW144598   3.438   5.767   5.132
14858SOL    HW244599   3.453   5.746   5.293
14859SOL     OW44600   1.984   6.229   4.287
14859SOL    HW144601   1.939   6.141   4.304
14859SOL    HW244602   1.983   6.283   4.371
14860SOL     OW44603   3.704   7.353   4.083
14860SOL    HW144604   3.758   7.324   4.163
14860SOL    HW244605   3.734   7.443   4.054
14861SOL     OW44606   1.889   7.182   3.841
14861SOL    HW144607   1.870   7.086   3.862
14861SOL    HW244608   1.856   7.240   3.916
14862SOL     OW44609   3.551   6.508   4.336
14862SOL    HW144610   3.646   6.479   4.344
14862SOL    HW244611   3.543   6.573   4.261
14863SOL     OW44612   3.503   6.694   4.156
14863SOL    HW144613   3.589   6.696   4.104
14863SOL    HW244614   3.517   6.741   4.244
14864SOL     OW44615   1.975   6.323   5.321
14864SOL    HW144616   2.063   6.310   5.366
14864SOL    HW244617   1.962   6.420   5.299
14865SOL     OW44618   2.475   6.951   4.450
14865SOL    HW144619   2.426   6.864   4.459
14865SOL    HW244620   2.452   6.994   4.363
14866SOL     OW44621   3.155   6.814   5.147
14866SOL    HW144622   3.192   6.741   5.089
14866SOL    HW244623   3.207   6.819   5.232
14867SOL     OW44624   2.671   5.590   4.226
14867SOL    HW144625   2.711   5.681   4.217
14867SOL    HW244626   2.571   5.598   4.232
14868SOL     OW44627   2.059   6.562   4.988
14868SOL    HW144628   2.148   6.517   4.974
14868SOL    HW244629   1.986   6.497   4.969
14869SOL     OW44630   3.387   6.585   3.914
14869SOL    HW144631   3.324   6.509   3.927
14869SOL    HW244632   3.435   6.603   4.000
14870SOL     OW44633   3.049   7.378   5.340
14870SOL    HW144634   3.073   7.438   5.264
14870SOL    HW244635   3.056   7.283   5.310
14871SOL     OW44636   2.179   5.837   5.525
14871SOL    HW144637   2.250   5.908   5.531
14871SOL    HW244638   2.091   5.876   5.553
14872SOL     OW44639   3.328   7.003   4.677
14872SOL    HW144640   3.269   7.009   4.757
14872SOL    HW244641   3.313   6.915   4.631
14873SOL     OW44642   3.529   7.300   4.296
14873SOL    HW144643   3.488   7.277   4.208
14873SOL    HW244644   3.511   7.226   4.361
14874SOL     OW44645   2.460   6.315   3.994
14874SOL    HW144646   2.484   6.384   3.926
14874SOL    HW244647   2.382   6.348   4.048
14875SOL     OW44648   3.143   5.931   4.668
14875SOL    HW144649   3.057   5.881   4.655
14875SOL    HW244650   3.205   5.877   4.724
14876SOL     OW44651   3.438   7.248   4.031
14876SOL    HW144652   3.527   7.294   4.034
14876SOL    HW244653   3.417   7.224   3.936
14877SOL     OW44654   2.669   6.191   5.189
14877SOL    HW144655   2.622   6.188   5.278
14877SOL    HW244656   2.618   6.136   5.123
14878SOL     OW44657   3.256   6.055   5.398
14878SOL    HW144658   3.236   6.098   5.486
14878SOL    HW244659   3.334   5.993   5.407
14879SOL     OW44660   2.835   6.476   5.296
14879SOL    HW144661   2.881   6.392   5.267
14879SOL    HW244662   2.779   6.510   5.221
14880SOL     OW44663   2.853   5.996   4.966
14880SOL    HW144664   2.776   6.030   5.020
14880SOL    HW244665   2.819   5.945   4.887
14881SOL     OW44666   2.903   6.287   4.153
14881SOL    HW144667   2.929   6.283   4.249
14881SOL    HW244668   2.818   6.236   4.139
14882SOL     OW44669   1.938   6.397   4.513
14882SOL    HW144670   2.037   6.385   4.522
14882SOL    HW244671   1.914   6.492   4.534
14883SOL     OW44672   1.992   7.407   5.295
14883SOL    HW144673   1.982   7.392   5.394
14883SOL    HW244674   1.906   7.443   5.259
14884SOL     OW44675   2.727   5.934   3.919
14884SOL    HW144676   2.786   5.997   3.870
14884SOL    HW244677   2.746   5.840   3.890
14885SOL     OW44678   3.581   6.171   5.555
14885SOL    HW144679   3.555   6.260   5.519
14885SOL    HW244680   3.579   6.103   5.482
14886SOL     OW44681   3.224   6.730   4.269
14886SOL    HW144682   3.307   6.701   4.221
14886SOL    HW244683   3.175   6.797   4.213
14887SOL     OW44684   2.412   5.782   4.609
14887SOL    HW144685   2.407   5.777   4.709
14887SOL    HW244686   2.414   5.878   4.580
14888SOL     OW44687   2.870   7.042   4.201
14888SOL    HW144688   2.824   7.114   4.149
14888SOL    HW244689   2.866   7.062   4.299
14889SOL     OW44690   2.213   7.387   4.577
14889SOL    HW144691   2.263   7.301   4.583
14889SOL    HW244692   2.278   7.464   4.574
14890SOL     OW44693   3.657   6.652   4.597
14890SOL    HW144694   3.595   6.637   4.521
14890SOL    HW244695   3.605   6.663   4.682
14891SOL     OW44696   3.089   7.136   5.230
14891SOL    HW144697   3.095   7.059   5.294
14891SOL    HW244698   3.037   7.110   5.150
14892SOL     OW44699   2.183   6.529   3.966
14892SOL    HW144700   2.265   6.568   3.924
14892SOL    HW244701   2.156   6.447   3.917
14893SOL     OW44702   3.320   6.321   4.452
14893SOL    HW144703   3.315   6.256   4.527
14893SOL    HW244704   3.400   6.380   4.465
14894SOL     OW44705   2.323   6.852   5.451
14894SOL    HW144706   2.273   6.853   5.365
14894SOL    HW244707   2.260   6.834   5.527
14895SOL     OW44708   2.973   7.362   3.961
14895SOL    HW144709   2.913   7.300   4.011
14895SOL    HW244710   3.004   7.318   3.876
14896SOL     OW44711   2.064   5.871   5.222
14896SOL    HW144712   1.984   5.931   5.209
14896SOL    HW244713   2.054   5.822   5.308
14897SOL     OW44714   3.494   6.963   3.805
14897SOL    HW144715   3.462   7.057   3.795
14897SOL    HW244716   3.418   6.900   3.793
14898SOL     OW44717   2.326   7.329   4.047
14898SOL    HW144718   2.359   7.368   4.133
14898SOL    HW244719   2.402   7.322   3.982
14899SOL     OW44720   3.262   5.693   4.150
14899SOL    HW144721   3.238   5.656   4.060
14899SOL    HW244722   3.361   5.709   4.154
14900SOL     OW44723   2.111   7.371   4.965
14900SOL    HW144724   2.168   7.306   5.015
14900SOL    HW244725   2.095   7.338   4.872
14901SOL     OW44726   2.802   7.284   4.628
14901SOL    HW144727   2.882   7.227   4.649
14901SOL    HW244728   2.753   7.244   4.551
14902SOL     OW44729   2.244   6.286   4.204
14902SOL    HW144730   2.289   6.196   4.201
14902SOL    HW244731   2.150   6.275   4.237
14903SOL     OW44732   3.409   5.808   5.453
14903SOL    HW144733   3.404   5.845   5.545
14903SOL    HW244734   3.337   5.739   5.441
14904SOL     OW44735   2.476   5.708   3.841
14904SOL    HW144736   2.574   5.686   3.848
14904SOL    HW244737   2.445   5.691   3.748
14905SOL     OW44738   2.643   5.850   5.473
14905SOL    HW144739   2.710   5.789   5.516
14905SOL    HW244740   2.570   5.869   5.538
14906SOL     OW44741   2.750   7.100   4.919
14906SOL    HW144742   2.727   7.075   4.825
14906SOL    HW244743   2.811   7.031   4.958
14907SOL     OW44744   3.213   6.176   5.157
14907SOL    HW144745   3.241   6.133   5.242
14907SOL    HW244746   3.238   6.272   5.158
14908SOL     OW44747   2.665   6.988   4.648
14908SOL    HW144748   2.755   7.002   4.606
14908SOL    HW244749   2.594   6.990   4.577
14909SOL     OW44750   2.784   6.089   4.623
14909SOL    HW144751   2.759   6.080   4.527
14909SOL    HW244752   2.832   6.007   4.654
14910SOL     OW44753   2.401   5.650   4.236
14910SOL    HW144754   2.320   5.651   4.294
14910SOL    HW244755   2.404   5.733   4.181
14911SOL     OW44756   3.296   6.774   3.765
14911SOL    HW144757   3.328   6.698   3.822
14911SOL    HW244758   3.204   6.801   3.795
14912SOL     OW44759   2.159   5.621   3.895
14912SOL    HW144760   2.208   5.705   3.874
14912SOL    HW244761   2.221   5.556   3.940
14913SOL     OW44762   2.797   5.822   4.204
14913SOL    HW144763   2.749   5.863   4.126
14913SOL    HW244764   2.896   5.820   4.185
14914SOL     OW44765   2.938   6.269   5.188
14914SOL    HW144766   2.858   6.208   5.191
14914SOL    HW244767   3.019   6.216   5.164
14915SOL     OW44768   3.089   7.156   4.517
14915SOL    HW144769   3.110   7.230   4.452
14915SOL    HW244770   3.157   7.156   4.590
14916SOL     OW44771   2.321   6.738   4.465
14916SOL    HW144772   2.250   6.711   4.530
14916SOL    HW244773   2.295   6.710   4.372
14917SOL     OW44774   3.133   7.383   4.315
14917SOL    HW144775   3.177   7.447   4.251
14917SOL    HW244776   3.083   7.435   4.385
14918SOL     OW44777   2.894   6.135   3.740
14918SOL    HW144778   2.853   6.217   3.701
14918SOL    HW244779   2.958   6.161   3.813
14919SOL     OW44780   1.940   6.142   5.110
14919SOL    HW144781   2.032   6.141   5.069
14919SOL    HW244782   1.934   6.216   5.177
14920SOL     OW44783   2.423   5.808   4.871
14920SOL    HW144784   2.461   5.724   4.908
14920SOL    HW244785   2.335   5.827   4.915
14921SOL     OW44786   2.728   6.040   4.366
14921SOL    HW144787   2.696   6.112   4.304
14921SOL    HW244788   2.752   5.959   4.313
14922SOL     OW44789   2.879   5.625   4.477
14922SOL    HW144790   2.807   5.630   4.408
14922SOL    HW244791   2.855   5.556   4.546
14923SOL     OW44792   3.291   6.759   4.591
14923SOL    HW144793   3.236   6.675   4.584
14923SOL    HW244794   3.317   6.788   4.499
14924SOL     OW44795   3.328   6.176   4.716
14924SOL    HW144796   3.298   6.081   4.723
14924SOL    HW244797   3.401   6.192   4.782
14925SOL     OW44798   3.719   6.419   4.101
14925SOL    HW144799   3.761   6.355   4.165
14925SOL    HW244800   3.681   6.368   4.023
14926SOL     OW44801   2.350   6.971   3.898
14926SOL    HW144802   2.263   6.956   3.945
14926SOL    HW244803   2.333   6.997   3.803
14927SOL     OW44804   3.526   6.866   4.381
14927SOL    HW144805   3.625   6.874   4.395
14927SOL    HW244806   3.481   6.950   4.412
14928SOL     OW44807   3.252   6.161   3.802
14928SOL    HW144808   3.198   6.140   3.883
14928SOL    HW244809   3.343   6.120   3.811
14929SOL     OW44810   2.389   5.842   4.052
14929SOL    HW144811   2.416   5.783   3.977
14929SOL    HW244812   2.389   5.937   4.021
14930SOL     OW44813   3.616   6.809   5.312
14930SOL    HW144814   3.707   6.770   5.299
14930SOL    HW244815   3.624   6.905   5.336
14931SOL     OW44816   2.926   6.933   5.064
14931SOL    HW144817   2.846   6.910   5.119
14931SOL    HW244818   3.009   6.907   5.113
14932SOL     OW44819   3.454   7.215   5.349
14932SOL    HW144820   3.481   7.249   5.259
14932SOL    HW244821   3.533   7.177   5.395
14933SOL     OW44822   2.973   6.781   4.824
14933SOL    HW144823   2.933   6.825   4.905
14933SOL    HW244824   2.932   6.818   4.741
14934SOL     OW44825   3.500   6.685   4.803
14934SOL    HW144826   3.505   6.766   4.862
14934SOL    HW244827   3.414   6.687   4.752
14935SOL     OW44828   2.777   5.675   5.126
14935SOL    HW144829   2.802   5.655   5.031
14935SOL    HW244830   2.849   5.731   5.168
14936SOL     OW44831   2.842   6.702   5.443
14936SOL    HW144832   2.743   6.708   5.453
14936SOL    HW244833   2.865   6.622   5.387
14937SOL     OW44834   2.567   6.636   4.092
14937SOL    HW144835   2.553   6.643   4.191
14937SOL    HW244836   2.651   6.585   4.074
14938SOL     OW44837   2.272   6.399   4.975
14938SOL    HW144838   2.358   6.411   5.025
14938SOL    HW244839   2.230   6.312   5.002
14939SOL     OW44840   3.136   5.972   4.986
14939SOL    HW144841   3.157   6.046   5.050
14939SOL    HW244842   3.047   5.989   4.943
14940SOL     OW44843   1.926   7.150   5.055
14940SOL    HW144844   1.880   7.232   5.021
14940SOL    HW244845   2.024   7.169   5.064
14941SOL     OW44846   2.229   6.686   4.225
14941SOL    HW144847   2.222   6.769   4.169
14941SOL    HW244848   2.233   6.606   4.165
14942SOL     OW44849   2.428   6.123   4.589
14942SOL    HW144850   2.440   6.189   4.515
14942SOL    HW244851   2.474   6.157   4.672
14943SOL     OW44852   3.114   6.934   4.112
14943SOL    HW144853   3.164   7.011   4.152
14943SOL    HW244854   3.019   6.936   4.144
14944SOL     OW44855   3.134   7.031   4.866
14944SOL    HW144856   3.181   7.044   4.953
14944SOL    HW244857   3.068   6.957   4.875
14945SOL     OW44858   3.444   6.225   4.196
14945SOL    HW144859   3.413   6.286   4.269
14945SOL    HW244860   3.494   6.277   4.127
14946SOL     OW44861   2.216   7.096   5.053
14946SOL    HW144862   2.195   7.052   4.966
14946SOL    HW244863   2.313   7.122   5.056
14947SOL     OW44864   2.264   6.337   5.322
14947SOL    HW144865   2.332   6.392   5.275
14947SOL    HW244866   2.304   6.249   5.349
14948SOL     OW44867   3.449   6.365   5.394
14948SOL    HW144868   3.357   6.403   5.389
14948SOL    HW244869   3.509   6.412   5.329
14949SOL     OW44870   2.875   5.691   5.494
14949SOL    HW144871   2.881   5.776   5.442
14949SOL    HW244872   2.907   5.615   5.437
14950SOL     OW44873   2.366   5.636   5.464
14950SOL    HW144874   2.324   5.579   5.394
14950SOL    HW244875   2.300   5.705   5.496
14951SOL     OW44876   2.435   6.456   4.753
14951SOL    HW144877   2.479   6.545   4.744
14951SOL    HW244878   2.372   6.456   4.830
14952SOL     OW44879   3.222   6.448   4.769
14952SOL    HW144880   3.147   6.448   4.703
14952SOL    HW244881   3.259   6.356   4.778
14953SOL     OW44882   3.071   6.111   3.999
14953SOL    HW144883   3.084   6.027   4.053
14953SOL    HW244884   3.042   6.185   4.059
14954SOL     OW44885   2.169   5.799   4.955
14954SOL    HW144886   2.146   5.836   5.045
14954SOL    HW244887   2.139   5.704   4.949
14955SOL     OW44888   1.899   6.896   5.006
14955SOL    HW144889   1.952   6.847   5.074
14955SOL    HW244890   1.921   6.994   5.011
14956SOL     OW44891   2.594   6.220   4.788
14956SOL    HW144892   2.653   6.194   4.712
14956SOL    HW244893   2.566   6.316   4.777
14957SOL     OW44894   3.590   6.521   5.578
14957SOL    HW144895   3.544   6.514   5.489
14957SOL    HW244896   3.528   6.565   5.644
14958SOL     OW44897   2.169   5.649   4.342
14958SOL    HW144898   2.158   5.743   4.375
14958SOL    HW244899   2.164   5.586   4.419
14959SOL     OW44900   3.484   5.953   4.098
14959SOL    HW144901   3.486   5.877   4.162
14959SOL    HW244902   3.436   6.030   4.138
14960SOL     OW44903   2.885   6.352   4.690
14960SOL    HW144904   2.900   6.373   4.786
14960SOL    HW244905   2.855   6.257   4.681
14961SOL     OW44906   2.842   7.159   5.424
14961SOL    HW144907   2.822   7.203   5.336
14961SOL    HW244908   2.881   7.068   5.408
14962SOL     OW44909   3.721   7.104   5.329
14962SOL    HW144910   3.735   7.131   5.234
14962SOL    HW244911   3.804   7.126   5.382
14963SOL     OW44912   2.212   6.484   5.528
14963SOL    HW144913   2.288   6.528   5.576
14963SOL    HW244914   2.247   6.437   5.446
14964SOL     OW44915   3.402   5.860   3.849
14964SOL    HW144916   3.341   5.785   3.872
14964SOL    HW244917   3.424   5.912   3.932
14965SOL     OW44918   3.165   6.424   3.766
14965SOL    HW144919   3.199   6.331   3.781
14965SOL    HW244920   3.183   6.451   3.671
14966SOL     OW44921   2.930   6.919   4.573
14966SOL    HW144922   2.937   6.835   4.518
14966SOL    HW244923   2.992   6.988   4.537
14967SOL     OW44924   2.181   6.396   4.673
14967SOL    HW144925   2.274   6.432   4.678
14967SOL    HW244926   2.175   6.311   4.725
14968SOL     OW44927   2.201   6.095   4.730
14968SOL    HW144928   2.149   6.012   4.713
14968SOL    HW244929   2.278   6.100   4.666
14969SOL     OW44930   3.000   5.966   5.402
14969SOL    HW144931   2.955   6.029   5.466
14969SOL    HW244932   3.093   5.997   5.385
14970SOL     OW44933   3.022   5.793   5.201
14970SOL    HW144934   3.022   5.857   5.278
14970SOL    HW244935   3.050   5.841   5.118
14971SOL     OW44936   1.870   6.912   3.924
14971SOL    HW144937   1.777   6.933   3.893
14971SOL    HW244938   1.880   6.813   3.937
14972SOL     OW44939   1.950   7.387   4.651
14972SOL    HW144940   1.908   7.301   4.624
14972SOL    HW244941   2.044   7.390   4.617
14973SOL     OW44942   2.366   7.154   4.634
14973SOL    HW144943   2.432   7.228   4.643
14973SOL    HW244944   2.410   7.075   4.592
14974SOL     OW44945   2.864   6.382   4.962
14974SOL    HW144946   2.905   6.350   5.048
14974SOL    HW244947   2.768   6.355   4.959
14975SOL     OW44948   1.902   6.130   4.838
14975SOL    HW144949   1.987   6.097   4.797
14975SOL    HW244950   1.915   6.145   4.936
14976SOL     OW44951   2.051   6.106   5.446
14976SOL    HW144952   2.110   6.066   5.376
14976SOL    HW244953   1.993   6.177   5.405
14977SOL     OW44954   3.231   6.536   5.384
14977SOL    HW144955   3.270   6.625   5.404
14977SOL    HW244956   3.241   6.516   5.287
14978SOL     OW44957   2.677   6.158   4.049
14978SOL    HW144958   2.684   6.069   4.003
14978SOL    HW244959   2.583   6.192   4.041
14979SOL     OW44960   3.519   6.190   4.930
14979SOL    HW144961   3.481   6.121   4.992
14979SOL    HW244962   3.601   6.154   4.886
14980SOL     OW44963   2.114   7.150   5.468
14980SOL    HW144964   2.084   7.207   5.544
14980SOL    HW244965   2.107   7.053   5.494
14981SOL     OW44966   2.533   6.050   4.993
14981SOL    HW144967   2.499   5.961   4.963
14981SOL    HW244968   2.559   6.104   4.913
14982SOL     OW44969   2.792   7.264   5.189
14982SOL    HW144970   2.768   7.246   5.094
14982SOL    HW244971   2.822   7.358   5.199
14983SOL     OW44972   2.335   6.086   3.915
14983SOL    HW144973   2.396   6.166   3.919
14983SOL    HW244974   2.240   6.117   3.922
14984SOL     OW44975   2.021   6.723   5.190
14984SOL    HW144976   2.043   6.662   5.266
14984SOL    HW244977   2.031   6.674   5.104
14985SOL     OW44978   3.209   6.645   4.958
14985SOL    HW144979   3.233   6.582   4.884
14985SOL    HW244980   3.119   6.685   4.940
14986SOL     OW44981   3.164   6.441   4.033
14986SOL    HW144982   3.078   6.410   4.075
14986SOL    HW244983   3.160   6.427   3.934
14987SOL     OW44984   3.621   7.333   4.878
14987SOL    HW144985   3.682   7.363   4.805
14987SOL    HW244986   3.583   7.244   4.856
14988SOL     OW44987   3.114   7.317   4.852
14988SOL    HW144988   3.198   7.322   4.798
14988SOL    HW244989   3.091   7.221   4.870
14989SOL     OW44990   1.945   6.844   4.746
14989SOL    HW144991   1.940   6.843   4.846
14989SOL    HW244992   1.862   6.803   4.708
14990SOL     OW44993   2.550   7.248   5.440
14990SOL    HW144994   2.494   7.329   5.449
14990SOL    HW244995   2.602   7.252   5.354
14991SOL     OW44996   3.588   5.721   4.247
14991SOL    HW144997   3.661   5.704   4.180
14991SOL    HW244998   3.557   5.634   4.285
14992SOL     OW44999   3.250   7.159   4.201
14992SOL    HW145000   3.317   7.171   4.127
14992SOL    HW245001   3.210   7.248   4.224
14993SOL     OW45002   1.992   7.380   5.575
14993SOL    HW145003   1.951   7.306   5.628
14993SOL    HW245004   2.056   7.431   5.633
14994SOL     OW45005   3.142   6.513   4.396
14994SOL    HW145006   3.202   6.432   4.398
14994SOL    HW245007   3.182   6.582   4.336
14995SOL     OW45008   2.692   6.859   5.146
14995SOL    HW145009   2.687   6.892   5.241
14995SOL    HW245010   2.606   6.878   5.100
14996SOL     OW45011   2.534   7.202   3.878
14996SOL    HW145012   2.543   7.212   3.779
14996SOL    HW245013   2.494   7.113   3.899
14997SOL     OW45014   3.512   7.306   5.118
14997SOL    HW145015   3.565   7.316   5.034
14997SOL    HW245016   3.485   7.396   5.152
14998SOL     OW45017   3.703   5.761   4.687
14998SOL    HW145018   3.742   5.676   4.651
14998SOL    HW245019   3.605   5.763   4.668
14999SOL     OW45020   2.125   5.912   4.444
14999SOL    HW145021   2.046   5.963   4.410
14999SOL    HW245022   2.116   5.897   4.542
15000SOL     OW45023   3.056   7.198   3.755
15000SOL    HW145024   3.062   7.105   3.792
15000SOL    HW245025   2.997   7.198   3.675
15001SOL     OW45026   2.684   6.588   5.096
15001SOL    HW145027   2.724   6.587   5.004
15001SOL    HW245028   2.694   6.680   5.136
15002SOL     OW45029   2.778   6.496   4.015
15002SOL    HW145030   2.841   6.534   3.947
15002SOL    HW245031   2.818   6.413   4.054
15003SOL     OW45032   3.366   7.193   3.768
15003SOL    HW145033   3.274   7.230   3.775
15003SOL    HW245034   3.404   7.213   3.678
15004SOL     OW45035   2.234   6.874   5.214
15004SOL    HW145036   2.221   6.967   5.180
15004SOL    HW245037   2.150   6.822   5.201
15005SOL     OW45038   3.476   6.878   5.013
15005SOL    HW145039   3.536   6.881   5.093
15005SOL    HW245040   3.401   6.942   5.026
15006SOL     OW45041   2.901   6.684   4.420
15006SOL    HW145042   2.831   6.637   4.474
15006SOL    HW245043   2.960   6.616   4.377
15007SOL     OW45044   2.876   5.822   4.695
15007SOL    HW145045   2.868   5.786   4.602
15007SOL    HW245046   2.874   5.746   4.760
15008SOL     OW45047   2.452   7.073   4.215
15008SOL    HW145048   2.494   7.015   4.145
15008SOL    HW245049   2.408   7.152   4.171
15009SOL     OW45050   3.571   5.971   5.105
15009SOL    HW145051   3.644   6.040   5.109
15009SOL    HW245052   3.599   5.896   5.046
15010SOL     OW45053   2.117   6.934   4.014
15010SOL    HW145054   2.021   6.935   3.987
15010SOL    HW245055   2.129   6.987   4.098
15011SOL     OW45056   1.967   6.599   5.450
15011SOL    HW145057   1.890   6.566   5.504
15011SOL    HW245058   2.052   6.569   5.492
15012SOL     OW45059   2.534   5.789   5.213
15012SOL    HW145060   2.624   5.773   5.173
15012SOL    HW245061   2.542   5.794   5.312
15013SOL     OW45062   1.937   5.931   3.757
15013SOL    HW145063   1.845   5.903   3.728
15013SOL    HW245064   1.968   6.008   3.701
15014SOL     OW45065   3.302   6.442   5.122
15014SOL    HW145066   3.245   6.494   5.059
15014SOL    HW245067   3.398   6.454   5.098
15015SOL     OW45068   1.934   5.752   4.042
15015SOL    HW145069   1.917   5.835   3.988
15015SOL    HW245070   2.024   5.715   4.020
15016SOL     OW45071   3.045   6.921   3.843
15016SOL    HW145072   2.946   6.910   3.845
15016SOL    HW245073   3.079   6.936   3.936
15017SOL     OW45074   2.475   6.428   5.155
15017SOL    HW145075   2.531   6.509   5.138
15017SOL    HW245076   2.534   6.348   5.158
15018SOL     OW45077   3.355   7.353   4.683
15018SOL    HW145078   3.388   7.417   4.614
15018SOL    HW245079   3.421   7.347   4.758
15019SOL     OW45080   2.578   6.151   5.432
15019SOL    HW145081   2.597   6.216   5.506
15019SOL    HW245082   2.638   6.071   5.441
15020SOL     OW45083   3.312   6.806   5.357
15020SOL    HW145084   3.303   6.796   5.456
15020SOL    HW245085   3.408   6.799   5.331
15021SOL     OW45086   2.252   7.327   5.284
15021SOL    HW145087   2.161   7.368   5.282
15021SOL    HW245088   2.245   7.233   5.316
15022SOL     OW45089   3.536   6.469   4.978
15022SOL    HW145090   3.509   6.380   4.941
15022SOL    HW245091   3.537   6.537   4.905
15023SOL     OW45092   3.087   5.911   4.173
15023SOL    HW145093   3.152   5.837   4.162
15023SOL    HW245094   3.107   5.961   4.257
15024SOL     OW45095   2.456   6.331   4.376
15024SOL    HW145096   2.506   6.416   4.357
15024SOL    HW245097   2.368   6.333   4.328
15025SOL     OW45098   3.639   5.928   5.366
15025SOL    HW145099   3.622   5.959   5.272
15025SOL    HW245100   3.555   5.891   5.404
15026SOL     OW45101   3.592   6.520   5.241
15026SOL    HW145102   3.630   6.611   5.256
15026SOL    HW245103   3.584   6.503   5.142
15027SOL     OW45104   2.721   6.960   3.740
15027SOL    HW145105   2.675   6.975   3.828
15027SOL    HW245106   2.765   7.045   3.710
15028SOL     OW45107   2.523   7.376   4.677
15028SOL    HW145108   2.477   7.464   4.664
15028SOL    HW245109   2.622   7.388   4.670
15029SOL     OW45110   2.721   6.542   4.585
15029SOL    HW145111   2.775   6.473   4.633
15029SOL    HW245112   2.689   6.611   4.651
15030SOL     OW45113   2.945   6.570   3.811
15030SOL    HW145114   2.922   6.623   3.729
15030SOL    HW245115   3.026   6.514   3.792
15031SOL     OW45116   3.723   7.155   4.575
15031SOL    HW145117   3.652   7.143   4.505
15031SOL    HW245118   3.724   7.076   4.635
15032SOL     OW45119   2.083   6.900   5.568
15032SOL    HW145120   2.018   6.827   5.547
15032SOL    HW245121   2.087   6.914   5.666
15033SOL     OW45122   1.941   6.826   4.377
15033SOL    HW145123   1.940   6.779   4.465
15033SOL    HW245124   2.023   6.798   4.326
15034SOL     OW45125   2.534   6.977   5.348
15034SOL    HW145126   2.456   6.927   5.386
15034SOL    HW245127   2.531   7.072   5.379
15035SOL     OW45128   3.686   5.778   4.951
15035SOL    HW145129   3.682   5.688   4.995
15035SOL    HW245130   3.689   5.767   4.852
15036SOL     OW45131   2.290   6.010   4.244
15036SOL    HW145132   2.320   5.938   4.182
15036SOL    HW245133   2.251   5.970   4.327
15037SOL     OW45134   3.567   7.073   4.828
15037SOL    HW145135   3.474   7.048   4.801
15037SOL    HW245136   3.593   7.023   4.910
15038SOL     OW45137   2.179   6.133   5.004
15038SOL    HW145138   2.217   6.074   5.076
15038SOL    HW245139   2.219   6.107   4.916
15039SOL     OW45140   2.674   7.172   4.411
15039SOL    HW145141   2.706   7.182   4.317
15039SOL    HW245142   2.595   7.110   4.413
15040SOL     OW45143   3.286   5.800   4.836
15040SOL    HW145144   3.338   5.735   4.891
15040SOL    HW245145   3.237   5.863   4.897
15041SOL     OW45146   2.863   5.620   4.878
15041SOL    HW145147   2.800   5.548   4.847
15041SOL    HW245148   2.956   5.584   4.878
15042SOL     OW45149   2.632   6.916   4.025
15042SOL    HW145150   2.586   6.829   4.042
15042SOL    HW245151   2.723   6.913   4.066
15043SOL     OW45152   2.480   7.153   5.008
15043SOL    HW145153   2.475   7.235   5.065
15043SOL    HW245154   2.569   7.150   4.963
15044SOL     OW45155   3.214   5.638   3.892
15044SOL    HW145156   3.249   5.597   3.808
15044SOL    HW245157   3.124   5.600   3.912
15045SOL     OW45158   3.162   6.039   4.415
15045SOL    HW145159   3.103   6.119   4.419
15045SOL    HW245160   3.177   6.004   4.508
15046SOL     OW45161   3.455   5.807   4.606
15046SOL    HW145162   3.371   5.806   4.660
15046SOL    HW245163   3.457   5.890   4.550
15047SOL     OW45164   1.901   6.663   4.024
15047SOL    HW145165   2.000   6.652   4.015
15047SOL    HW245166   1.861   6.577   4.056
15048SOL     OW45167   2.737   7.232   4.061
15048SOL    HW145168   2.660   7.197   4.007
15048SOL    HW245169   2.705   7.303   4.123
15049SOL     OW45170   2.092   6.214   5.699
15049SOL    HW145171   1.999   6.212   5.736
15049SOL    HW245172   2.093   6.175   5.607
15050SOL     OW45173   2.087   5.861   6.582
15050SOL    HW145174   2.122   5.844   6.674
15050SOL    HW245175   1.999   5.816   6.570
15051SOL     OW45176   1.881   5.954   6.233
15051SOL    HW145177   1.799   5.997   6.272
15051SOL    HW245178   1.853   5.881   6.170
15052SOL     OW45179   2.431   6.861   6.751
15052SOL    HW145180   2.338   6.854   6.714
15052SOL    HW245181   2.442   6.950   6.795
15053SOL     OW45182   3.417   7.097   6.289
15053SOL    HW145183   3.360   7.081   6.370
15053SOL    HW245184   3.358   7.107   6.209
15054SOL     OW45185   2.997   6.289   6.303
15054SOL    HW145186   3.054   6.367   6.278
15054SOL    HW245187   2.937   6.315   6.379
15055SOL     OW45188   3.617   6.193   5.817
15055SOL    HW145189   3.605   6.180   5.718
15055SOL    HW245190   3.587   6.112   5.866
15056SOL     OW45191   2.630   6.730   6.609
15056SOL    HW145192   2.552   6.747   6.669
15056SOL    HW245193   2.664   6.817   6.573
15057SOL     OW45194   2.712   6.384   7.409
15057SOL    HW145195   2.708   6.460   7.474
15057SOL    HW245196   2.734   6.420   7.318
15058SOL     OW45197   2.547   6.598   6.251
15058SOL    HW145198   2.616   6.582   6.321
15058SOL    HW245199   2.474   6.655   6.289
15059SOL     OW45200   2.548   6.747   7.389
15059SOL    HW145201   2.608   6.826   7.403
15059SOL    HW245202   2.462   6.778   7.348
15060SOL     OW45203   2.197   7.021   6.647
15060SOL    HW145204   2.119   6.990   6.594
15060SOL    HW245205   2.255   7.079   6.590
15061SOL     OW45206   3.322   7.091   6.925
15061SOL    HW145207   3.346   7.185   6.951
15061SOL    HW245208   3.306   7.037   7.007
15062SOL     OW45209   2.300   5.978   7.085
15062SOL    HW145210   2.382   5.922   7.094
15062SOL    HW245211   2.219   5.920   7.089
15063SOL     OW45212   3.465   6.033   6.323
15063SOL    HW145213   3.391   6.079   6.273
15063SOL    HW245214   3.516   6.101   6.376
15064SOL     OW45215   2.093   7.299   6.069
15064SOL    HW145216   2.127   7.376   6.123
15064SOL    HW245217   2.137   7.299   5.979
15065SOL     OW45218   2.989   6.927   7.276
15065SOL    HW145219   3.036   6.927   7.364
15065SOL    HW245220   2.941   6.840   7.265
15066SOL     OW45221   2.092   7.020   6.124
15066SOL    HW145222   2.066   7.116   6.124
15066SOL    HW245223   2.021   6.966   6.169
15067SOL     OW45224   2.102   6.677   6.472
15067SOL    HW145225   2.116   6.593   6.524
15067SOL    HW245226   2.047   6.741   6.527
15068SOL     OW45227   2.482   7.372   7.025
15068SOL    HW145228   2.390   7.355   7.060
15068SOL    HW245229   2.510   7.464   7.051
15069SOL     OW45230   2.468   6.550   5.709
15069SOL    HW145231   2.475   6.634   5.655
15069SOL    HW245232   2.514   6.563   5.797
15070SOL     OW45233   3.456   5.700   7.066
15070SOL    HW145234   3.438   5.767   6.994
15070SOL    HW245235   3.453   5.746   7.155
15071SOL     OW45236   1.984   6.229   6.149
15071SOL    HW145237   1.939   6.141   6.166
15071SOL    HW245238   1.983   6.283   6.233
15072SOL     OW45239   3.704   7.353   5.945
15072SOL    HW145240   3.758   7.324   6.025
15072SOL    HW245241   3.734   7.443   5.916
15073SOL     OW45242   1.889   7.182   5.703
15073SOL    HW145243   1.870   7.086   5.724
15073SOL    HW245244   1.856   7.240   5.778
15074SOL     OW45245   3.551   6.508   6.198
15074SOL    HW145246   3.646   6.479   6.206
15074SOL    HW245247   3.543   6.573   6.123
15075SOL     OW45248   3.503   6.694   6.018
15075SOL    HW145249   3.589   6.696   5.966
15075SOL    HW245250   3.517   6.741   6.106
15076SOL     OW45251   1.975   6.323   7.183
15076SOL    HW145252   2.063   6.310   7.228
15076SOL    HW245253   1.962   6.420   7.161
15077SOL     OW45254   2.475   6.951   6.312
15077SOL    HW145255   2.426   6.864   6.321
15077SOL    HW245256   2.452   6.994   6.225
15078SOL     OW45257   3.155   6.814   7.009
15078SOL    HW145258   3.192   6.741   6.951
15078SOL    HW245259   3.207   6.819   7.094
15079SOL     OW45260   2.671   5.590   6.088
15079SOL    HW145261   2.711   5.681   6.079
15079SOL    HW245262   2.571   5.598   6.094
15080SOL     OW45263   2.059   6.562   6.850
15080SOL    HW145264   2.148   6.517   6.836
15080SOL    HW245265   1.986   6.497   6.831
15081SOL     OW45266   3.387   6.585   5.776
15081SOL    HW145267   3.324   6.509   5.789
15081SOL    HW245268   3.435   6.603   5.862
15082SOL     OW45269   3.049   7.378   7.202
15082SOL    HW145270   3.073   7.438   7.126
15082SOL    HW245271   3.056   7.283   7.172
15083SOL     OW45272   2.179   5.837   7.387
15083SOL    HW145273   2.250   5.908   7.393
15083SOL    HW245274   2.091   5.876   7.415
15084SOL     OW45275   3.328   7.003   6.539
15084SOL    HW145276   3.269   7.009   6.619
15084SOL    HW245277   3.313   6.915   6.493
15085SOL     OW45278   3.529   7.300   6.158
15085SOL    HW145279   3.488   7.277   6.070
15085SOL    HW245280   3.511   7.226   6.223
15086SOL     OW45281   2.460   6.315   5.856
15086SOL    HW145282   2.484   6.384   5.788
15086SOL    HW245283   2.382   6.348   5.910
15087SOL     OW45284   3.143   5.931   6.530
15087SOL    HW145285   3.057   5.881   6.517
15087SOL    HW245286   3.205   5.877   6.586
15088SOL     OW45287   3.438   7.248   5.893
15088SOL    HW145288   3.527   7.294   5.896
15088SOL    HW245289   3.417   7.224   5.798
15089SOL     OW45290   2.669   6.191   7.051
15089SOL    HW145291   2.622   6.188   7.140
15089SOL    HW245292   2.618   6.136   6.985
15090SOL     OW45293   3.256   6.055   7.260
15090SOL    HW145294   3.236   6.098   7.348
15090SOL    HW245295   3.334   5.993   7.269
15091SOL     OW45296   2.835   6.476   7.158
15091SOL    HW145297   2.881   6.392   7.129
15091SOL    HW245298   2.779   6.510   7.083
15092SOL     OW45299   2.853   5.996   6.828
15092SOL    HW145300   2.776   6.030   6.882
15092SOL    HW245301   2.819   5.945   6.749
15093SOL     OW45302   2.903   6.287   6.015
15093SOL    HW145303   2.929   6.283   6.111
15093SOL    HW245304   2.818   6.236   6.001
15094SOL     OW45305   1.938   6.397   6.375
15094SOL    HW145306   2.037   6.385   6.384
15094SOL    HW245307   1.914   6.492   6.396
15095SOL     OW45308   1.992   7.407   7.157
15095SOL    HW145309   1.982   7.392   7.256
15095SOL    HW245310   1.906   7.443   7.121
15096SOL     OW45311   2.727   5.934   5.781
15096SOL    HW145312   2.786   5.997   5.732
15096SOL    HW245313   2.746   5.840   5.752
15097SOL     OW45314   3.581   6.171   7.417
15097SOL    HW145315   3.555   6.260   7.381
15097SOL    HW245316   3.579   6.103   7.344
15098SOL     OW45317   3.224   6.730   6.131
15098SOL    HW145318   3.307   6.701   6.083
15098SOL    HW245319   3.175   6.797   6.075
15099SOL     OW45320   2.412   5.782   6.471
15099SOL    HW145321   2.407   5.777   6.571
15099SOL    HW245322   2.414   5.878   6.442
15100SOL     OW45323   2.870   7.042   6.063
15100SOL    HW145324   2.824   7.114   6.011
15100SOL    HW245325   2.866   7.062   6.161
15101SOL     OW45326   2.213   7.387   6.439
15101SOL    HW145327   2.263   7.301   6.445
15101SOL    HW245328   2.278   7.464   6.436
15102SOL     OW45329   3.657   6.652   6.459
15102SOL    HW145330   3.595   6.637   6.383
15102SOL    HW245331   3.605   6.663   6.544
15103SOL     OW45332   3.089   7.136   7.092
15103SOL    HW145333   3.095   7.059   7.156
15103SOL    HW245334   3.037   7.110   7.012
15104SOL     OW45335   2.183   6.529   5.828
15104SOL    HW145336   2.265   6.568   5.786
15104SOL    HW245337   2.156   6.447   5.779
15105SOL     OW45338   3.320   6.321   6.314
15105SOL    HW145339   3.315   6.256   6.389
15105SOL    HW245340   3.400   6.380   6.327
15106SOL     OW45341   2.323   6.852   7.313
15106SOL    HW145342   2.273   6.853   7.227
15106SOL    HW245343   2.260   6.834   7.389
15107SOL     OW45344   2.973   7.362   5.823
15107SOL    HW145345   2.913   7.300   5.873
15107SOL    HW245346   3.004   7.318   5.738
15108SOL     OW45347   2.064   5.871   7.084
15108SOL    HW145348   1.984   5.931   7.071
15108SOL    HW245349   2.054   5.822   7.170
15109SOL     OW45350   3.494   6.963   5.667
15109SOL    HW145351   3.462   7.057   5.657
15109SOL    HW245352   3.418   6.900   5.655
15110SOL     OW45353   2.326   7.329   5.909
15110SOL    HW145354   2.359   7.368   5.995
15110SOL    HW245355   2.402   7.322   5.844
15111SOL     OW45356   3.262   5.693   6.012
15111SOL    HW145357   3.238   5.656   5.922
15111SOL    HW245358   3.361   5.709   6.016
15112SOL     OW45359   2.111   7.371   6.827
15112SOL    HW145360   2.168   7.306   6.877
15112SOL    HW245361   2.095   7.338   6.734
15113SOL     OW45362   2.802   7.284   6.490
15113SOL    HW145363   2.882   7.227   6.511
15113SOL    HW245364   2.753   7.244   6.413
15114SOL     OW45365   2.244   6.286   6.066
15114SOL    HW145366   2.289   6.196   6.063
15114SOL    HW245367   2.150   6.275   6.099
15115SOL     OW45368   3.409   5.808   7.315
15115SOL    HW145369   3.404   5.845   7.407
15115SOL    HW245370   3.337   5.739   7.303
15116SOL     OW45371   2.476   5.708   5.703
15116SOL    HW145372   2.574   5.686   5.710
15116SOL    HW245373   2.445   5.691   5.610
15117SOL     OW45374   2.643   5.850   7.335
15117SOL    HW145375   2.710   5.789   7.378
15117SOL    HW245376   2.570   5.869   7.400
15118SOL     OW45377   2.750   7.100   6.781
15118SOL    HW145378   2.727   7.075   6.687
15118SOL    HW245379   2.811   7.031   6.820
15119SOL     OW45380   3.213   6.176   7.019
15119SOL    HW145381   3.241   6.133   7.104
15119SOL    HW245382   3.238   6.272   7.020
15120SOL     OW45383   2.665   6.988   6.510
15120SOL    HW145384   2.755   7.002   6.468
15120SOL    HW245385   2.594   6.990   6.439
15121SOL     OW45386   2.784   6.089   6.485
15121SOL    HW145387   2.759   6.080   6.389
15121SOL    HW245388   2.832   6.007   6.516
15122SOL     OW45389   2.401   5.650   6.098
15122SOL    HW145390   2.320   5.651   6.156
15122SOL    HW245391   2.404   5.733   6.043
15123SOL     OW45392   3.296   6.774   5.627
15123SOL    HW145393   3.328   6.698   5.684
15123SOL    HW245394   3.204   6.801   5.657
15124SOL     OW45395   2.159   5.621   5.757
15124SOL    HW145396   2.208   5.705   5.736
15124SOL    HW245397   2.221   5.556   5.802
15125SOL     OW45398   2.797   5.822   6.066
15125SOL    HW145399   2.749   5.863   5.988
15125SOL    HW245400   2.896   5.820   6.047
15126SOL     OW45401   2.938   6.269   7.050
15126SOL    HW145402   2.858   6.208   7.053
15126SOL    HW245403   3.019   6.216   7.026
15127SOL     OW45404   3.089   7.156   6.379
15127SOL    HW145405   3.110   7.230   6.314
15127SOL    HW245406   3.157   7.156   6.452
15128SOL     OW45407   2.321   6.738   6.327
15128SOL    HW145408   2.250   6.711   6.392
15128SOL    HW245409   2.295   6.710   6.234
15129SOL     OW45410   3.133   7.383   6.177
15129SOL    HW145411   3.177   7.447   6.113
15129SOL    HW245412   3.083   7.435   6.247
15130SOL     OW45413   2.894   6.135   5.602
15130SOL    HW145414   2.853   6.217   5.563
15130SOL    HW245415   2.958   6.161   5.675
15131SOL     OW45416   1.940   6.142   6.972
15131SOL    HW145417   2.032   6.141   6.931
15131SOL    HW245418   1.934   6.216   7.039
15132SOL     OW45419   2.423   5.808   6.733
15132SOL    HW145420   2.461   5.724   6.770
15132SOL    HW245421   2.335   5.827   6.777
15133SOL     OW45422   2.728   6.040   6.228
15133SOL    HW145423   2.696   6.112   6.166
15133SOL    HW245424   2.752   5.959   6.175
15134SOL     OW45425   2.879   5.625   6.339
15134SOL    HW145426   2.807   5.630   6.270
15134SOL    HW245427   2.855   5.556   6.408
15135SOL     OW45428   3.291   6.759   6.453
15135SOL    HW145429   3.236   6.675   6.446
15135SOL    HW245430   3.317   6.788   6.361
15136SOL     OW45431   3.328   6.176   6.578
15136SOL    HW145432   3.298   6.081   6.585
15136SOL    HW245433   3.401   6.192   6.644
15137SOL     OW45434   3.719   6.419   5.963
15137SOL    HW145435   3.761   6.355   6.027
15137SOL    HW245436   3.681   6.368   5.885
15138SOL     OW45437   2.350   6.971   5.760
15138SOL    HW145438   2.263   6.956   5.807
15138SOL    HW245439   2.333   6.997   5.665
15139SOL     OW45440   3.526   6.866   6.243
15139SOL    HW145441   3.625   6.874   6.257
15139SOL    HW245442   3.481   6.950   6.274
15140SOL     OW45443   3.252   6.161   5.664
15140SOL    HW145444   3.198   6.140   5.745
15140SOL    HW245445   3.343   6.120   5.673
15141SOL     OW45446   2.389   5.842   5.914
15141SOL    HW145447   2.416   5.783   5.839
15141SOL    HW245448   2.389   5.937   5.883
15142SOL     OW45449   3.616   6.809   7.174
15142SOL    HW145450   3.707   6.770   7.161
15142SOL    HW245451   3.624   6.905   7.198
15143SOL     OW45452   2.926   6.933   6.926
15143SOL    HW145453   2.846   6.910   6.981
15143SOL    HW245454   3.009   6.907   6.975
15144SOL     OW45455   3.454   7.215   7.211
15144SOL    HW145456   3.481   7.249   7.121
15144SOL    HW245457   3.533   7.177   7.257
15145SOL     OW45458   2.973   6.781   6.686
15145SOL    HW145459   2.933   6.825   6.767
15145SOL    HW245460   2.932   6.818   6.603
15146SOL     OW45461   3.500   6.685   6.665
15146SOL    HW145462   3.505   6.766   6.724
15146SOL    HW245463   3.414   6.687   6.614
15147SOL     OW45464   2.777   5.675   6.988
15147SOL    HW145465   2.802   5.655   6.893
15147SOL    HW245466   2.849   5.731   7.030
15148SOL     OW45467   2.842   6.702   7.305
15148SOL    HW145468   2.743   6.708   7.315
15148SOL    HW245469   2.865   6.622   7.249
15149SOL     OW45470   2.567   6.636   5.954
15149SOL    HW145471   2.553   6.643   6.053
15149SOL    HW245472   2.651   6.585   5.936
15150SOL     OW45473   2.272   6.399   6.837
15150SOL    HW145474   2.358   6.411   6.887
15150SOL    HW245475   2.230   6.312   6.864
15151SOL     OW45476   3.136   5.972   6.848
15151SOL    HW145477   3.157   6.046   6.912
15151SOL    HW245478   3.047   5.989   6.805
15152SOL     OW45479   1.926   7.150   6.917
15152SOL    HW145480   1.880   7.232   6.883
15152SOL    HW245481   2.024   7.169   6.926
15153SOL     OW45482   2.229   6.686   6.087
15153SOL    HW145483   2.222   6.769   6.031
15153SOL    HW245484   2.233   6.606   6.027
15154SOL     OW45485   2.428   6.123   6.451
15154SOL    HW145486   2.440   6.189   6.377
15154SOL    HW245487   2.474   6.157   6.534
15155SOL     OW45488   3.114   6.934   5.974
15155SOL    HW145489   3.164   7.011   6.014
15155SOL    HW245490   3.019   6.936   6.006
15156SOL     OW45491   3.134   7.031   6.728
15156SOL    HW145492   3.181   7.044   6.815
15156SOL    HW245493   3.068   6.957   6.737
15157SOL     OW45494   3.444   6.225   6.058
15157SOL    HW145495   3.413   6.286   6.131
15157SOL    HW245496   3.494   6.277   5.989
15158SOL     OW45497   2.216   7.096   6.915
15158SOL    HW145498   2.195   7.052   6.828
15158SOL    HW245499   2.313   7.122   6.918
15159SOL     OW45500   2.264   6.337   7.184
15159SOL    HW145501   2.332   6.392   7.137
15159SOL    HW245502   2.304   6.249   7.211
15160SOL     OW45503   3.449   6.365   7.256
15160SOL    HW145504   3.357   6.403   7.251
15160SOL    HW245505   3.509   6.412   7.191
15161SOL     OW45506   2.875   5.691   7.356
15161SOL    HW145507   2.881   5.776   7.304
15161SOL    HW245508   2.907   5.615   7.299
15162SOL     OW45509   2.366   5.636   7.326
15162SOL    HW145510   2.324   5.579   7.256
15162SOL    HW245511   2.300   5.705   7.358
15163SOL     OW45512   2.435   6.456   6.615
15163SOL    HW145513   2.479   6.545   6.606
15163SOL    HW245514   2.372   6.456   6.692
15164SOL     OW45515   3.222   6.448   6.631
15164SOL    HW145516   3.147   6.448   6.565
15164SOL    HW245517   3.259   6.356   6.640
15165SOL     OW45518   3.071   6.111   5.861
15165SOL    HW145519   3.084   6.027   5.915
15165SOL    HW245520   3.042   6.185   5.921
15166SOL     OW45521   2.169   5.799   6.817
15166SOL    HW145522   2.146   5.836   6.907
15166SOL    HW245523   2.139   5.704   6.811
15167SOL     OW45524   1.899   6.896   6.868
15167SOL    HW145525   1.952   6.847   6.936
15167SOL    HW245526   1.921   6.994   6.873
15168SOL     OW45527   2.594   6.220   6.650
15168SOL    HW145528   2.653   6.194   6.574
15168SOL    HW245529   2.566   6.316   6.639
15169SOL     OW45530   3.590   6.521   7.440
15169SOL    HW145531   3.544   6.514   7.351
15169SOL    HW245532   3.528   6.565   7.506
15170SOL     OW45533   2.169   5.649   6.204
15170SOL    HW145534   2.158   5.743   6.237
15170SOL    HW245535   2.164   5.586   6.281
15171SOL     OW45536   3.484   5.953   5.960
15171SOL    HW145537   3.486   5.877   6.024
15171SOL    HW245538   3.436   6.030   6.000
15172SOL     OW45539   2.885   6.352   6.552
15172SOL    HW145540   2.900   6.373   6.648
15172SOL    HW245541   2.855   6.257   6.543
15173SOL     OW45542   2.842   7.159   7.286
15173SOL    HW145543   2.822   7.203   7.198
15173SOL    HW245544   2.881   7.068   7.270
15174SOL     OW45545   3.721   7.104   7.191
15174SOL    HW145546   3.735   7.131   7.096
15174SOL    HW245547   3.804   7.126   7.244
15175SOL     OW45548   2.212   6.484   7.390
15175SOL    HW145549   2.288   6.528   7.438
15175SOL    HW245550   2.247   6.437   7.308
15176SOL     OW45551   3.402   5.860   5.711
15176SOL    HW145552   3.341   5.785   5.734
15176SOL    HW245553   3.424   5.912   5.794
15177SOL     OW45554   3.165   6.424   5.628
15177SOL    HW145555   3.199   6.331   5.643
15177SOL    HW245556   3.183   6.451   5.533
15178SOL     OW45557   2.930   6.919   6.435
15178SOL    HW145558   2.937   6.835   6.380
15178SOL    HW245559   2.992   6.988   6.399
15179SOL     OW45560   2.181   6.396   6.535
15179SOL    HW145561   2.274   6.432   6.540
15179SOL    HW245562   2.175   6.311   6.587
15180SOL     OW45563   2.201   6.095   6.592
15180SOL    HW145564   2.149   6.012   6.575
15180SOL    HW245565   2.278   6.100   6.528
15181SOL     OW45566   3.000   5.966   7.264
15181SOL    HW145567   2.955   6.029   7.328
15181SOL    HW245568   3.093   5.997   7.247
15182SOL     OW45569   3.022   5.793   7.063
15182SOL    HW145570   3.022   5.857   7.140
15182SOL    HW245571   3.050   5.841   6.980
15183SOL     OW45572   1.870   6.912   5.786
15183SOL    HW145573   1.777   6.933   5.755
15183SOL    HW245574   1.880   6.813   5.799
15184SOL     OW45575   1.950   7.387   6.513
15184SOL    HW145576   1.908   7.301   6.486
15184SOL    HW245577   2.044   7.390   6.479
15185SOL     OW45578   2.366   7.154   6.496
15185SOL    HW145579   2.432   7.228   6.505
15185SOL    HW245580   2.410   7.075   6.454
15186SOL     OW45581   2.864   6.382   6.824
15186SOL    HW145582   2.905   6.350   6.910
15186SOL    HW245583   2.768   6.355   6.821
15187SOL     OW45584   1.902   6.130   6.700
15187SOL    HW145585   1.987   6.097   6.659
15187SOL    HW245586   1.915   6.145   6.798
15188SOL     OW45587   2.051   6.106   7.308
15188SOL    HW145588   2.110   6.066   7.238
15188SOL    HW245589   1.993   6.177   7.267
15189SOL     OW45590   3.231   6.536   7.246
15189SOL    HW145591   3.270   6.625   7.266
15189SOL    HW245592   3.241   6.516   7.149
15190SOL     OW45593   2.677   6.158   5.911
15190SOL    HW145594   2.684   6.069   5.865
15190SOL    HW245595   2.583   6.192   5.903
15191SOL     OW45596   3.519   6.190   6.792
15191SOL    HW145597   3.481   6.121   6.854
15191SOL    HW245598   3.601   6.154   6.748
15192SOL     OW45599   2.114   7.150   7.330
15192SOL    HW145600   2.084   7.207   7.406
15192SOL    HW245601   2.107   7.053   7.356
15193SOL     OW45602   2.533   6.050   6.855
15193SOL    HW145603   2.499   5.961   6.825
15193SOL    HW245604   2.559   6.104   6.775
15194SOL     OW45605   2.792   7.264   7.051
15194SOL    HW145606   2.768   7.246   6.956
15194SOL    HW245607   2.822   7.358   7.061
15195SOL     OW45608   2.335   6.086   5.777
15195SOL    HW145609   2.396   6.166   5.781
15195SOL    HW245610   2.240   6.117   5.784
15196SOL     OW45611   2.021   6.723   7.052
15196SOL    HW145612   2.043   6.662   7.128
15196SOL    HW245613   2.031   6.674   6.966
15197SOL     OW45614   3.209   6.645   6.820
15197SOL    HW145615   3.233   6.582   6.746
15197SOL    HW245616   3.119   6.685   6.802
15198SOL     OW45617   3.164   6.441   5.895
15198SOL    HW145618   3.078   6.410   5.937
15198SOL    HW245619   3.160   6.427   5.796
15199SOL     OW45620   3.621   7.333   6.740
15199SOL    HW145621   3.682   7.363   6.667
15199SOL    HW245622   3.583   7.244   6.718
15200SOL     OW45623   3.114   7.317   6.714
15200SOL    HW145624   3.198   7.322   6.660
15200SOL    HW245625   3.091   7.221   6.732
15201SOL     OW45626   1.945   6.844   6.608
15201SOL    HW145627   1.940   6.843   6.708
15201SOL    HW245628   1.862   6.803   6.570
15202SOL     OW45629   2.550   7.248   7.302
15202SOL    HW145630   2.494   7.329   7.311
15202SOL    HW245631   2.602   7.252   7.216
15203SOL     OW45632   3.588   5.721   6.109
15203SOL    HW145633   3.661   5.704   6.042
15203SOL    HW245634   3.557   5.634   6.147
15204SOL     OW45635   3.250   7.159   6.063
15204SOL    HW145636   3.317   7.171   5.989
15204SOL    HW245637   3.210   7.248   6.086
15205SOL     OW45638   1.992   7.380   7.437
15205SOL    HW145639   1.951   7.306   7.490
15205SOL    HW245640   2.056   7.431   7.495
15206SOL     OW45641   3.142   6.513   6.258
15206SOL    HW145642   3.202   6.432   6.260
15206SOL    HW245643   3.182   6.582   6.198
15207SOL     OW45644   2.692   6.859   7.008
15207SOL    HW145645   2.687   6.892   7.103
15207SOL    HW245646   2.606   6.878   6.962
15208SOL     OW45647   2.534   7.202   5.740
15208SOL    HW145648   2.543   7.212   5.641
15208SOL    HW245649   2.494   7.113   5.761
15209SOL     OW45650   3.512   7.306   6.980
15209SOL    HW145651   3.565   7.316   6.896
15209SOL    HW245652   3.485   7.396   7.014
15210SOL     OW45653   3.703   5.761   6.549
15210SOL    HW145654   3.742   5.676   6.513
15210SOL    HW245655   3.605   5.763   6.530
15211SOL     OW45656   2.125   5.912   6.306
15211SOL    HW145657   2.046   5.963   6.272
15211SOL    HW245658   2.116   5.897   6.404
15212SOL     OW45659   3.056   7.198   5.617
15212SOL    HW145660   3.062   7.105   5.654
15212SOL    HW245661   2.997   7.198   5.537
15213SOL     OW45662   2.684   6.588   6.958
15213SOL    HW145663   2.724   6.587   6.866
15213SOL    HW245664   2.694   6.680   6.998
15214SOL     OW45665   2.778   6.496   5.877
15214SOL    HW145666   2.841   6.534   5.809
15214SOL    HW245667   2.818   6.413   5.916
15215SOL     OW45668   3.366   7.193   5.630
15215SOL    HW145669   3.274   7.230   5.637
15215SOL    HW245670   3.404   7.213   5.540
15216SOL     OW45671   2.234   6.874   7.076
15216SOL    HW145672   2.221   6.967   7.042
15216SOL    HW245673   2.150   6.822   7.063
15217SOL     OW45674   3.476   6.878   6.875
15217SOL    HW145675   3.536   6.881   6.955
15217SOL    HW245676   3.401   6.942   6.888
15218SOL     OW45677   2.901   6.684   6.282
15218SOL    HW145678   2.831   6.637   6.336
15218SOL    HW245679   2.960   6.616   6.239
15219SOL     OW45680   2.876   5.822   6.557
15219SOL    HW145681   2.868   5.786   6.464
15219SOL    HW245682   2.874   5.746   6.622
15220SOL     OW45683   2.452   7.073   6.077
15220SOL    HW145684   2.494   7.015   6.007
15220SOL    HW245685   2.408   7.152   6.033
15221SOL     OW45686   3.571   5.971   6.967
15221SOL    HW145687   3.644   6.040   6.971
15221SOL    HW245688   3.599   5.896   6.908
15222SOL     OW45689   2.117   6.934   5.876
15222SOL    HW145690   2.021   6.935   5.849
15222SOL    HW245691   2.129   6.987   5.960
15223SOL     OW45692   1.967   6.599   7.312
15223SOL    HW145693   1.890   6.566   7.366
15223SOL    HW245694   2.052   6.569   7.354
15224SOL     OW45695   2.534   5.789   7.075
15224SOL    HW145696   2.624   5.773   7.035
15224SOL    HW245697   2.542   5.794   7.174
15225SOL     OW45698   1.937   5.931   5.619
15225SOL    HW145699   1.845   5.903   5.590
15225SOL    HW245700   1.968   6.008   5.563
15226SOL     OW45701   3.302   6.442   6.984
15226SOL    HW145702   3.245   6.494   6.921
15226SOL    HW245703   3.398   6.454   6.960
15227SOL     OW45704   1.934   5.752   5.904
15227SOL    HW145705   1.917   5.835   5.850
15227SOL    HW245706   2.024   5.715   5.882
15228SOL     OW45707   3.045   6.921   5.705
15228SOL    HW145708   2.946   6.910   5.707
15228SOL    HW245709   3.079   6.936   5.798
15229SOL     OW45710   2.475   6.428   7.017
15229SOL    HW145711   2.531   6.509   7.000
15229SOL    HW245712   2.534   6.348   7.020
15230SOL     OW45713   3.355   7.353   6.545
15230SOL    HW145714   3.388   7.417   6.476
15230SOL    HW245715   3.421   7.347   6.620
15231SOL     OW45716   2.578   6.151   7.294
15231SOL    HW145717   2.597   6.216   7.368
15231SOL    HW245718   2.638   6.071   7.303
15232SOL     OW45719   3.312   6.806   7.219
15232SOL    HW145720   3.303   6.796   7.318
15232SOL    HW245721   3.408   6.799   7.193
15233SOL     OW45722   2.252   7.327   7.146
15233SOL    HW145723   2.161   7.368   7.144
15233SOL    HW245724   2.245   7.233   7.178
15234SOL     OW45725   3.536   6.469   6.840
15234SOL    HW145726   3.509   6.380   6.803
15234SOL    HW245727   3.537   6.537   6.767
15235SOL     OW45728   3.087   5.911   6.035
15235SOL    HW145729   3.152   5.837   6.024
15235SOL    HW245730   3.107   5.961   6.119
15236SOL     OW45731   2.456   6.331   6.238
15236SOL    HW145732   2.506   6.416   6.219
15236SOL    HW245733   2.368   6.333   6.190
15237SOL     OW45734   3.639   5.928   7.228
15237SOL    HW145735   3.622   5.959   7.134
15237SOL    HW245736   3.555   5.891   7.266
15238SOL     OW45737   3.592   6.520   7.103
15238SOL    HW145738   3.630   6.611   7.118
15238SOL    HW245739   3.584   6.503   7.004
15239SOL     OW45740   2.721   6.960   5.602
15239SOL    HW145741   2.675   6.975   5.690
15239SOL    HW245742   2.765   7.045   5.572
15240SOL     OW45743   2.523   7.376   6.539
15240SOL    HW145744   2.477   7.464   6.526
15240SOL    HW245745   2.622   7.388   6.532
15241SOL     OW45746   2.721   6.542   6.447
15241SOL    HW145747   2.775   6.473   6.495
15241SOL    HW245748   2.689   6.611   6.513
15242SOL     OW45749   2.945   6.570   5.673
15242SOL    HW145750   2.922   6.623   5.591
15242SOL    HW245751   3.026   6.514   5.654
15243SOL     OW45752   3.723   7.155   6.437
15243SOL    HW145753   3.652   7.143   6.367
15243SOL    HW245754   3.724   7.076   6.497
15244SOL     OW45755   2.083   6.900   7.430
15244SOL    HW145756   2.018   6.827   7.409
15244SOL    HW245757   2.087   6.914   7.528
15245SOL     OW45758   1.941   6.826   6.239
15245SOL    HW145759   1.940   6.779   6.327
15245SOL    HW245760   2.023   6.798   6.188
15246SOL     OW45761   2.534   6.977   7.210
15246SOL    HW145762   2.456   6.927   7.248
15246SOL    HW245763   2.531   7.072   7.241
15247SOL     OW45764   3.686   5.778   6.813
15247SOL    HW145765   3.682   5.688   6.857
15247SOL    HW245766   3.689   5.767   6.714
15248SOL     OW45767   2.290   6.010   6.106
15248SOL    HW145768   2.320   5.938   6.044
15248SOL    HW245769   2.251   5.970   6.189
15249SOL     OW45770   3.567   7.073   6.690
15249SOL    HW145771   3.474   7.048   6.663
15249SOL    HW245772   3.593   7.023   6.772
15250SOL     OW45773   2.179   6.133   6.866
15250SOL    HW145774   2.217   6.074   6.938
15250SOL    HW245775   2.219   6.107   6.778
15251SOL     OW45776   2.674   7.172   6.273
15251SOL    HW145777   2.706   7.182   6.179
15251SOL    HW245778   2.595   7.110   6.275
15252SOL     OW45779   3.286   5.800   6.698
15252SOL    HW145780   3.338   5.735   6.753
15252SOL    HW245781   3.237   5.863   6.759
15253SOL     OW45782   2.863   5.620   6.740
15253SOL    HW145783   2.800   5.548   6.709
15253SOL    HW245784   2.956   5.584   6.740
15254SOL     OW45785   2.632   6.916   5.887
15254SOL    HW145786   2.586   6.829   5.904
15254SOL    HW245787   2.723   6.913   5.928
15255SOL     OW45788   2.480   7.153   6.870
15255SOL    HW145789   2.475   7.235   6.927
15255SOL    HW245790   2.569   7.150   6.825
15256SOL     OW45791   3.214   5.638   5.754
15256SOL    HW145792   3.249   5.597   5.670
15256SOL    HW245793   3.124   5.600   5.774
15257SOL     OW45794   3.162   6.039   6.277
15257SOL    HW145795   3.103   6.119   6.281
15257SOL    HW245796   3.177   6.004   6.370
15258SOL     OW45797   3.455   5.807   6.468
15258SOL    HW145798   3.371   5.806   6.522
15258SOL    HW245799   3.457   5.890   6.412
15259SOL     OW45800   1.901   6.663   5.886
15259SOL    HW145801   2.000   6.652   5.877
15259SOL    HW245802   1.861   6.577   5.918
15260SOL     OW45803   2.737   7.232   5.923
15260SOL    HW145804   2.660   7.197   5.869
15260SOL    HW245805   2.705   7.303   5.985
15261SOL     OW45806   2.092   6.214   7.561
15261SOL    HW145807   1.999   6.212   7.598
15261SOL    HW245808   2.093   6.175   7.469
15262SOL     OW45809   2.087   5.861   8.444
15262SOL    HW145810   2.122   5.844   8.536
15262SOL    HW245811   1.999   5.816   8.432
15263SOL     OW45812   1.881   5.954   8.095
15263SOL    HW145813   1.799   5.997   8.134
15263SOL    HW245814   1.853   5.881   8.032
15264SOL     OW45815   2.431   6.861   8.613
15264SOL    HW145816   2.338   6.854   8.576
15264SOL    HW245817   2.442   6.950   8.657
15265SOL     OW45818   3.417   7.097   8.151
15265SOL    HW145819   3.360   7.081   8.232
15265SOL    HW245820   3.358   7.107   8.071
15266SOL     OW45821   2.997   6.289   8.165
15266SOL    HW145822   3.054   6.367   8.140
15266SOL    HW245823   2.937   6.315   8.241
15267SOL     OW45824   3.617   6.193   7.679
15267SOL    HW145825   3.605   6.180   7.580
15267SOL    HW245826   3.587   6.112   7.728
15268SOL     OW45827   2.630   6.730   8.471
15268SOL    HW145828   2.552   6.747   8.531
15268SOL    HW245829   2.664   6.817   8.435
15269SOL     OW45830   2.712   6.384   9.271
15269SOL    HW145831   2.708   6.460   9.336
15269SOL    HW245832   2.734   6.420   9.180
15270SOL     OW45833   2.547   6.598   8.113
15270SOL    HW145834   2.616   6.582   8.183
15270SOL    HW245835   2.474   6.655   8.151
15271SOL     OW45836   2.548   6.747   9.251
15271SOL    HW145837   2.608   6.826   9.265
15271SOL    HW245838   2.462   6.778   9.210
15272SOL     OW45839   2.197   7.021   8.509
15272SOL    HW145840   2.119   6.990   8.456
15272SOL    HW245841   2.255   7.079   8.452
15273SOL     OW45842   3.322   7.091   8.787
15273SOL    HW145843   3.346   7.185   8.813
15273SOL    HW245844   3.306   7.037   8.869
15274SOL     OW45845   2.300   5.978   8.947
15274SOL    HW145846   2.382   5.922   8.956
15274SOL    HW245847   2.219   5.920   8.951
15275SOL     OW45848   3.465   6.033   8.185
15275SOL    HW145849   3.391   6.079   8.135
15275SOL    HW245850   3.516   6.101   8.238
15276SOL     OW45851   2.093   7.299   7.931
15276SOL    HW145852   2.127   7.376   7.985
15276SOL    HW245853   2.137   7.299   7.841
15277SOL     OW45854   2.989   6.927   9.138
15277SOL    HW145855   3.036   6.927   9.226
15277SOL    HW245856   2.941   6.840   9.127
15278SOL     OW45857   2.092   7.020   7.986
15278SOL    HW145858   2.066   7.116   7.986
15278SOL    HW245859   2.021   6.966   8.031
15279SOL     OW45860   2.102   6.677   8.334
15279SOL    HW145861   2.116   6.593   8.386
15279SOL    HW245862   2.047   6.741   8.389
15280SOL     OW45863   2.482   7.372   8.887
15280SOL    HW145864   2.390   7.355   8.922
15280SOL    HW245865   2.510   7.464   8.913
15281SOL     OW45866   2.468   6.550   7.571
15281SOL    HW145867   2.475   6.634   7.517
15281SOL    HW245868   2.514   6.563   7.659
15282SOL     OW45869   3.456   5.700   8.928
15282SOL    HW145870   3.438   5.767   8.856
15282SOL    HW245871   3.453   5.746   9.017
15283SOL     OW45872   1.984   6.229   8.011
15283SOL    HW145873   1.939   6.141   8.028
15283SOL    HW245874   1.983   6.283   8.095
15284SOL     OW45875   3.704   7.353   7.807
15284SOL    HW145876   3.758   7.324   7.887
15284SOL    HW245877   3.734   7.443   7.778
15285SOL     OW45878   1.889   7.182   7.565
15285SOL    HW145879   1.870   7.086   7.586
15285SOL    HW245880   1.856   7.240   7.640
15286SOL     OW45881   3.551   6.508   8.060
15286SOL    HW145882   3.646   6.479   8.068
15286SOL    HW245883   3.543   6.573   7.985
15287SOL     OW45884   3.503   6.694   7.880
15287SOL    HW145885   3.589   6.696   7.828
15287SOL    HW245886   3.517   6.741   7.968
15288SOL     OW45887   1.975   6.323   9.045
15288SOL    HW145888   2.063   6.310   9.090
15288SOL    HW245889   1.962   6.420   9.023
15289SOL     OW45890   2.475   6.951   8.174
15289SOL    HW145891   2.426   6.864   8.183
15289SOL    HW245892   2.452   6.994   8.087
15290SOL     OW45893   3.155   6.814   8.871
15290SOL    HW145894   3.192   6.741   8.813
15290SOL    HW245895   3.207   6.819   8.956
15291SOL     OW45896   2.671   5.590   7.950
15291SOL    HW145897   2.711   5.681   7.941
15291SOL    HW245898   2.571   5.598   7.956
15292SOL     OW45899   2.059   6.562   8.712
15292SOL    HW145900   2.148   6.517   8.698
15292SOL    HW245901   1.986   6.497   8.693
15293SOL     OW45902   3.387   6.585   7.638
15293SOL    HW145903   3.324   6.509   7.651
15293SOL    HW245904   3.435   6.603   7.724
15294SOL     OW45905   3.049   7.378   9.064
15294SOL    HW145906   3.073   7.438   8.988
15294SOL    HW245907   3.056   7.283   9.034
15295SOL     OW45908   2.179   5.837   9.249
15295SOL    HW145909   2.250   5.908   9.255
15295SOL    HW245910   2.091   5.876   9.277
15296SOL     OW45911   3.328   7.003   8.401
15296SOL    HW145912   3.269   7.009   8.481
15296SOL    HW245913   3.313   6.915   8.355
15297SOL     OW45914   3.529   7.300   8.020
15297SOL    HW145915   3.488   7.277   7.932
15297SOL    HW245916   3.511   7.226   8.085
15298SOL     OW45917   2.460   6.315   7.718
15298SOL    HW145918   2.484   6.384   7.650
15298SOL    HW245919   2.382   6.348   7.772
15299SOL     OW45920   3.143   5.931   8.392
15299SOL    HW145921   3.057   5.881   8.379
15299SOL    HW245922   3.205   5.877   8.448
15300SOL     OW45923   3.438   7.248   7.755
15300SOL    HW145924   3.527   7.294   7.758
15300SOL    HW245925   3.417   7.224   7.660
15301SOL     OW45926   2.669   6.191   8.913
15301SOL    HW145927   2.622   6.188   9.002
15301SOL    HW245928   2.618   6.136   8.847
15302SOL     OW45929   3.256   6.055   9.122
15302SOL    HW145930   3.236   6.098   9.210
15302SOL    HW245931   3.334   5.993   9.131
15303SOL     OW45932   2.835   6.476   9.020
15303SOL    HW145933   2.881   6.392   8.991
15303SOL    HW245934   2.779   6.510   8.945
15304SOL     OW45935   2.853   5.996   8.690
15304SOL    HW145936   2.776   6.030   8.744
15304SOL    HW245937   2.819   5.945   8.611
15305SOL     OW45938   2.903   6.287   7.877
15305SOL    HW145939   2.929   6.283   7.973
15305SOL    HW245940   2.818   6.236   7.863
15306SOL     OW45941   1.938   6.397   8.237
15306SOL    HW145942   2.037   6.385   8.246
15306SOL    HW245943   1.914   6.492   8.258
15307SOL     OW45944   1.992   7.407   9.019
15307SOL    HW145945   1.982   7.392   9.118
15307SOL    HW245946   1.906   7.443   8.983
15308SOL     OW45947   2.727   5.934   7.643
15308SOL    HW145948   2.786   5.997   7.594
15308SOL    HW245949   2.746   5.840   7.614
15309SOL     OW45950   3.581   6.171   9.279
15309SOL    HW145951   3.555   6.260   9.243
15309SOL    HW245952   3.579   6.103   9.206
15310SOL     OW45953   3.224   6.730   7.993
15310SOL    HW145954   3.307   6.701   7.945
15310SOL    HW245955   3.175   6.797   7.937
15311SOL     OW45956   2.412   5.782   8.333
15311SOL    HW145957   2.407   5.777   8.433
15311SOL    HW245958   2.414   5.878   8.304
15312SOL     OW45959   2.870   7.042   7.925
15312SOL    HW145960   2.824   7.114   7.873
15312SOL    HW245961   2.866   7.062   8.023
15313SOL     OW45962   2.213   7.387   8.301
15313SOL    HW145963   2.263   7.301   8.307
15313SOL    HW245964   2.278   7.464   8.298
15314SOL     OW45965   3.657   6.652   8.321
15314SOL    HW145966   3.595   6.637   8.245
15314SOL    HW245967   3.605   6.663   8.406
15315SOL     OW45968   3.089   7.136   8.954
15315SOL    HW145969   3.095   7.059   9.018
15315SOL    HW245970   3.037   7.110   8.874
15316SOL     OW45971   2.183   6.529   7.690
15316SOL    HW145972   2.265   6.568   7.648
15316SOL    HW245973   2.156   6.447   7.641
15317SOL     OW45974   3.320   6.321   8.176
15317SOL    HW145975   3.315   6.256   8.251
15317SOL    HW245976   3.400   6.380   8.189
15318SOL     OW45977   2.323   6.852   9.175
15318SOL    HW145978   2.273   6.853   9.089
15318SOL    HW245979   2.260   6.834   9.251
15319SOL     OW45980   2.973   7.362   7.685
15319SOL    HW145981   2.913   7.300   7.735
15319SOL    HW245982   3.004   7.318   7.600
15320SOL     OW45983   2.064   5.871   8.946
15320SOL    HW145984   1.984   5.931   8.933
15320SOL    HW245985   2.054   5.822   9.032
15321SOL     OW45986   3.494   6.963   7.529
15321SOL    HW145987   3.462   7.057   7.519
15321SOL    HW245988   3.418   6.900   7.517
15322SOL     OW45989   2.326   7.329   7.771
15322SOL    HW145990   2.359   7.368   7.857
15322SOL    HW245991   2.402   7.322   7.706
15323SOL     OW45992   3.262   5.693   7.874
15323SOL    HW145993   3.238   5.656   7.784
15323SOL    HW245994   3.361   5.709   7.878
15324SOL     OW45995   2.111   7.371   8.689
15324SOL    HW145996   2.168   7.306   8.739
15324SOL    HW245997   2.095   7.338   8.596
15325SOL     OW45998   2.802   7.284   8.352
15325SOL    HW145999   2.882   7.227   8.373
15325SOL    HW246000   2.753   7.244   8.275
15326SOL     OW46001   2.244   6.286   7.928
15326SOL    HW146002   2.289   6.196   7.925
15326SOL    HW246003   2.150   6.275   7.961
15327SOL     OW46004   3.409   5.808   9.177
15327SOL    HW146005   3.404   5.845   9.269
15327SOL    HW246006   3.337   5.739   9.165
15328SOL     OW46007   2.476   5.708   7.565
15328SOL    HW146008   2.574   5.686   7.572
15328SOL    HW246009   2.445   5.691   7.472
15329SOL     OW46010   2.643   5.850   9.197
15329SOL    HW146011   2.710   5.789   9.240
15329SOL    HW246012   2.570   5.869   9.262
15330SOL     OW46013   2.750   7.100   8.643
15330SOL    HW146014   2.727   7.075   8.549
15330SOL    HW246015   2.811   7.031   8.682
15331SOL     OW46016   3.213   6.176   8.881
15331SOL    HW146017   3.241   6.133   8.966
15331SOL    HW246018   3.238   6.272   8.882
15332SOL     OW46019   2.665   6.988   8.372
15332SOL    HW146020   2.755   7.002   8.330
15332SOL    HW246021   2.594   6.990   8.301
15333SOL     OW46022   2.784   6.089   8.347
15333SOL    HW146023   2.759   6.080   8.251
15333SOL    HW246024   2.832   6.007   8.378
15334SOL     OW46025   2.401   5.650   7.960
15334SOL    HW146026   2.320   5.651   8.018
15334SOL    HW246027   2.404   5.733   7.905
15335SOL     OW46028   3.296   6.774   7.489
15335SOL    HW146029   3.328   6.698   7.546
15335SOL    HW246030   3.204   6.801   7.519
15336SOL     OW46031   2.159   5.621   7.619
15336SOL    HW146032   2.208   5.705   7.598
15336SOL    HW246033   2.221   5.556   7.664
15337SOL     OW46034   2.797   5.822   7.928
15337SOL    HW146035   2.749   5.863   7.850
15337SOL    HW246036   2.896   5.820   7.909
15338SOL     OW46037   2.938   6.269   8.912
15338SOL    HW146038   2.858   6.208   8.915
15338SOL    HW246039   3.019   6.216   8.888
15339SOL     OW46040   3.089   7.156   8.241
15339SOL    HW146041   3.110   7.230   8.176
15339SOL    HW246042   3.157   7.156   8.314
15340SOL     OW46043   2.321   6.738   8.189
15340SOL    HW146044   2.250   6.711   8.254
15340SOL    HW246045   2.295   6.710   8.096
15341SOL     OW46046   3.133   7.383   8.039
15341SOL    HW146047   3.177   7.447   7.975
15341SOL    HW246048   3.083   7.435   8.109
15342SOL     OW46049   2.894   6.135   7.464
15342SOL    HW146050   2.853   6.217   7.425
15342SOL    HW246051   2.958   6.161   7.537
15343SOL     OW46052   1.940   6.142   8.834
15343SOL    HW146053   2.032   6.141   8.793
15343SOL    HW246054   1.934   6.216   8.901
15344SOL     OW46055   2.423   5.808   8.595
15344SOL    HW146056   2.461   5.724   8.632
15344SOL    HW246057   2.335   5.827   8.639
15345SOL     OW46058   2.728   6.040   8.090
15345SOL    HW146059   2.696   6.112   8.028
15345SOL    HW246060   2.752   5.959   8.037
15346SOL     OW46061   2.879   5.625   8.201
15346SOL    HW146062   2.807   5.630   8.132
15346SOL    HW246063   2.855   5.556   8.270
15347SOL     OW46064   3.291   6.759   8.315
15347SOL    HW146065   3.236   6.675   8.308
15347SOL    HW246066   3.317   6.788   8.223
15348SOL     OW46067   3.328   6.176   8.440
15348SOL    HW146068   3.298   6.081   8.447
15348SOL    HW246069   3.401   6.192   8.506
15349SOL     OW46070   3.719   6.419   7.825
15349SOL    HW146071   3.761   6.355   7.889
15349SOL    HW246072   3.681   6.368   7.747
15350SOL     OW46073   2.350   6.971   7.622
15350SOL    HW146074   2.263   6.956   7.669
15350SOL    HW246075   2.333   6.997   7.527
15351SOL     OW46076   3.526   6.866   8.105
15351SOL    HW146077   3.625   6.874   8.119
15351SOL    HW246078   3.481   6.950   8.136
15352SOL     OW46079   3.252   6.161   7.526
15352SOL    HW146080   3.198   6.140   7.607
15352SOL    HW246081   3.343   6.120   7.535
15353SOL     OW46082   2.389   5.842   7.776
15353SOL    HW146083   2.416   5.783   7.701
15353SOL    HW246084   2.389   5.937   7.745
15354SOL     OW46085   3.616   6.809   9.036
15354SOL    HW146086   3.707   6.770   9.023
15354SOL    HW246087   3.624   6.905   9.060
15355SOL     OW46088   2.926   6.933   8.788
15355SOL    HW146089   2.846   6.910   8.843
15355SOL    HW246090   3.009   6.907   8.837
15356SOL     OW46091   3.454   7.215   9.073
15356SOL    HW146092   3.481   7.249   8.983
15356SOL    HW246093   3.533   7.177   9.119
15357SOL     OW46094   2.973   6.781   8.548
15357SOL    HW146095   2.933   6.825   8.629
15357SOL    HW246096   2.932   6.818   8.465
15358SOL     OW46097   3.500   6.685   8.527
15358SOL    HW146098   3.505   6.766   8.586
15358SOL    HW246099   3.414   6.687   8.476
15359SOL     OW46100   2.777   5.675   8.850
15359SOL    HW146101   2.802   5.655   8.755
15359SOL    HW246102   2.849   5.731   8.892
15360SOL     OW46103   2.842   6.702   9.167
15360SOL    HW146104   2.743   6.708   9.177
15360SOL    HW246105   2.865   6.622   9.111
15361SOL     OW46106   2.567   6.636   7.816
15361SOL    HW146107   2.553   6.643   7.915
15361SOL    HW246108   2.651   6.585   7.798
15362SOL     OW46109   2.272   6.399   8.699
15362SOL    HW146110   2.358   6.411   8.749
15362SOL    HW246111   2.230   6.312   8.726
15363SOL     OW46112   3.136   5.972   8.710
15363SOL    HW146113   3.157   6.046   8.774
15363SOL    HW246114   3.047   5.989   8.667
15364SOL     OW46115   1.926   7.150   8.779
15364SOL    HW146116   1.880   7.232   8.745
15364SOL    HW246117   2.024   7.169   8.788
15365SOL     OW46118   2.229   6.686   7.949
15365SOL    HW146119   2.222   6.769   7.893
15365SOL    HW246120   2.233   6.606   7.889
15366SOL     OW46121   2.428   6.123   8.313
15366SOL    HW146122   2.440   6.189   8.239
15366SOL    HW246123   2.474   6.157   8.396
15367SOL     OW46124   3.114   6.934   7.836
15367SOL    HW146125   3.164   7.011   7.876
15367SOL    HW246126   3.019   6.936   7.868
15368SOL     OW46127   3.134   7.031   8.590
15368SOL    HW146128   3.181   7.044   8.677
15368SOL    HW246129   3.068   6.957   8.599
15369SOL     OW46130   3.444   6.225   7.920
15369SOL    HW146131   3.413   6.286   7.993
15369SOL    HW246132   3.494   6.277   7.851
15370SOL     OW46133   2.216   7.096   8.777
15370SOL    HW146134   2.195   7.052   8.690
15370SOL    HW246135   2.313   7.122   8.780
15371SOL     OW46136   2.264   6.337   9.046
15371SOL    HW146137   2.332   6.392   8.999
15371SOL    HW246138   2.304   6.249   9.073
15372SOL     OW46139   3.449   6.365   9.118
15372SOL    HW146140   3.357   6.403   9.113
15372SOL    HW246141   3.509   6.412   9.053
15373SOL     OW46142   2.875   5.691   9.218
15373SOL    HW146143   2.881   5.776   9.166
15373SOL    HW246144   2.907   5.615   9.161
15374SOL     OW46145   2.366   5.636   9.188
15374SOL    HW146146   2.324   5.579   9.118
15374SOL    HW246147   2.300   5.705   9.220
15375SOL     OW46148   2.435   6.456   8.477
15375SOL    HW146149   2.479   6.545   8.468
15375SOL    HW246150   2.372   6.456   8.554
15376SOL     OW46151   3.222   6.448   8.493
15376SOL    HW146152   3.147   6.448   8.427
15376SOL    HW246153   3.259   6.356   8.502
15377SOL     OW46154   3.071   6.111   7.723
15377SOL    HW146155   3.084   6.027   7.777
15377SOL    HW246156   3.042   6.185   7.783
15378SOL     OW46157   2.169   5.799   8.679
15378SOL    HW146158   2.146   5.836   8.769
15378SOL    HW246159   2.139   5.704   8.673
15379SOL     OW46160   1.899   6.896   8.730
15379SOL    HW146161   1.952   6.847   8.798
15379SOL    HW246162   1.921   6.994   8.735
15380SOL     OW46163   2.594   6.220   8.512
15380SOL    HW146164   2.653   6.194   8.436
15380SOL    HW246165   2.566   6.316   8.501
15381SOL     OW46166   3.590   6.521   9.302
15381SOL    HW146167   3.544   6.514   9.213
15381SOL    HW246168   3.528   6.565   9.368
15382SOL     OW46169   2.169   5.649   8.066
15382SOL    HW146170   2.158   5.743   8.099
15382SOL    HW246171   2.164   5.586   8.143
15383SOL     OW46172   3.484   5.953   7.822
15383SOL    HW146173   3.486   5.877   7.886
15383SOL    HW246174   3.436   6.030   7.862
15384SOL     OW46175   2.885   6.352   8.414
15384SOL    HW146176   2.900   6.373   8.510
15384SOL    HW246177   2.855   6.257   8.405
15385SOL     OW46178   2.842   7.159   9.148
15385SOL    HW146179   2.822   7.203   9.060
15385SOL    HW246180   2.881   7.068   9.132
15386SOL     OW46181   3.721   7.104   9.053
15386SOL    HW146182   3.735   7.131   8.958
15386SOL    HW246183   3.804   7.126   9.106
15387SOL     OW46184   2.212   6.484   9.252
15387SOL    HW146185   2.288   6.528   9.300
15387SOL    HW246186   2.247   6.437   9.170
15388SOL     OW46187   3.402   5.860   7.573
15388SOL    HW146188   3.341   5.785   7.596
15388SOL    HW246189   3.424   5.912   7.656
15389SOL     OW46190   3.165   6.424   7.490
15389SOL    HW146191   3.199   6.331   7.505
15389SOL    HW246192   3.183   6.451   7.395
15390SOL     OW46193   2.930   6.919   8.297
15390SOL    HW146194   2.937   6.835   8.242
15390SOL    HW246195   2.992   6.988   8.261
15391SOL     OW46196   2.181   6.396   8.397
15391SOL    HW146197   2.274   6.432   8.402
15391SOL    HW246198   2.175   6.311   8.449
15392SOL     OW46199   2.201   6.095   8.454
15392SOL    HW146200   2.149   6.012   8.437
15392SOL    HW246201   2.278   6.100   8.390
15393SOL     OW46202   3.000   5.966   9.126
15393SOL    HW146203   2.955   6.029   9.190
15393SOL    HW246204   3.093   5.997   9.109
15394SOL     OW46205   3.022   5.793   8.925
15394SOL    HW146206   3.022   5.857   9.002
15394SOL    HW246207   3.050   5.841   8.842
15395SOL     OW46208   1.870   6.912   7.648
15395SOL    HW146209   1.777   6.933   7.617
15395SOL    HW246210   1.880   6.813   7.661
15396SOL     OW46211   1.950   7.387   8.375
15396SOL    HW146212   1.908   7.301   8.348
15396SOL    HW246213   2.044   7.390   8.341
15397SOL     OW46214   2.366   7.154   8.358
15397SOL    HW146215   2.432   7.228   8.367
15397SOL    HW246216   2.410   7.075   8.316
15398SOL     OW46217   2.864   6.382   8.686
15398SOL    HW146218   2.905   6.350   8.772
15398SOL    HW246219   2.768   6.355   8.683
15399SOL     OW46220   1.902   6.130   8.562
15399SOL    HW146221   1.987   6.097   8.521
15399SOL    HW246222   1.915   6.145   8.660
15400SOL     OW46223   2.051   6.106   9.170
15400SOL    HW146224   2.110   6.066   9.100
15400SOL    HW246225   1.993   6.177   9.129
15401SOL     OW46226   3.231   6.536   9.108
15401SOL    HW146227   3.270   6.625   9.128
15401SOL    HW246228   3.241   6.516   9.011
15402SOL     OW46229   2.677   6.158   7.773
15402SOL    HW146230   2.684   6.069   7.727
15402SOL    HW246231   2.583   6.192   7.765
15403SOL     OW46232   3.519   6.190   8.654
15403SOL    HW146233   3.481   6.121   8.716
15403SOL    HW246234   3.601   6.154   8.610
15404SOL     OW46235   2.114   7.150   9.192
15404SOL    HW146236   2.084   7.207   9.268
15404SOL    HW246237   2.107   7.053   9.218
15405SOL     OW46238   2.533   6.050   8.717
15405SOL    HW146239   2.499   5.961   8.687
15405SOL    HW246240   2.559   6.104   8.637
15406SOL     OW46241   2.792   7.264   8.913
15406SOL    HW146242   2.768   7.246   8.818
15406SOL    HW246243   2.822   7.358   8.923
15407SOL     OW46244   2.335   6.086   7.639
15407SOL    HW146245   2.396   6.166   7.643
15407SOL    HW246246   2.240   6.117   7.646
15408SOL     OW46247   2.021   6.723   8.914
15408SOL    HW146248   2.043   6.662   8.990
15408SOL    HW246249   2.031   6.674   8.828
15409SOL     OW46250   3.209   6.645   8.682
15409SOL    HW146251   3.233   6.582   8.608
15409SOL    HW246252   3.119   6.685   8.664
15410SOL     OW46253   3.164   6.441   7.757
15410SOL    HW146254   3.078   6.410   7.799
15410SOL    HW246255   3.160   6.427   7.658
15411SOL     OW46256   3.621   7.333   8.602
15411SOL    HW146257   3.682   7.363   8.529
15411SOL    HW246258   3.583   7.244   8.580
15412SOL     OW46259   3.114   7.317   8.576
15412SOL    HW146260   3.198   7.322   8.522
15412SOL    HW246261   3.091   7.221   8.594
15413SOL     OW46262   1.945   6.844   8.470
15413SOL    HW146263   1.940   6.843   8.570
15413SOL    HW246264   1.862   6.803   8.432
15414SOL     OW46265   2.550   7.248   9.164
15414SOL    HW146266   2.494   7.329   9.173
15414SOL    HW246267   2.602   7.252   9.078
15415SOL     OW46268   3.588   5.721   7.971
15415SOL    HW146269   3.661   5.704   7.904
15415SOL    HW246270   3.557   5.634   8.009
15416SOL     OW46271   3.250   7.159   7.925
15416SOL    HW146272   3.317   7.171   7.851
15416SOL    HW246273   3.210   7.248   7.948
15417SOL     OW46274   1.992   7.380   9.299
15417SOL    HW146275   1.951   7.306   9.352
15417SOL    HW246276   2.056   7.431   9.357
15418SOL     OW46277   3.142   6.513   8.120
15418SOL    HW146278   3.202   6.432   8.122
15418SOL    HW246279   3.182   6.582   8.060
15419SOL     OW46280   2.692   6.859   8.870
15419SOL    HW146281   2.687   6.892   8.965
15419SOL    HW246282   2.606   6.878   8.824
15420SOL     OW46283   2.534   7.202   7.602
15420SOL    HW146284   2.543   7.212   7.503
15420SOL    HW246285   2.494   7.113   7.623
15421SOL     OW46286   3.512   7.306   8.842
15421SOL    HW146287   3.565   7.316   8.758
15421SOL    HW246288   3.485   7.396   8.876
15422SOL     OW46289   3.703   5.761   8.411
15422SOL    HW146290   3.742   5.676   8.375
15422SOL    HW246291   3.605   5.763   8.392
15423SOL     OW46292   2.125   5.912   8.168
15423SOL    HW146293   2.046   5.963   8.134
15423SOL    HW246294   2.116   5.897   8.266
15424SOL     OW46295   3.056   7.198   7.479
15424SOL    HW146296   3.062   7.105   7.516
15424SOL    HW246297   2.997   7.198   7.399
15425SOL     OW46298   2.684   6.588   8.820
15425SOL    HW146299   2.724   6.587   8.728
15425SOL    HW246300   2.694   6.680   8.860
15426SOL     OW46301   2.778   6.496   7.739
15426SOL    HW146302   2.841   6.534   7.671
15426SOL    HW246303   2.818   6.413   7.778
15427SOL     OW46304   3.366   7.193   7.492
15427SOL    HW146305   3.274   7.230   7.499
15427SOL    HW246306   3.404   7.213   7.402
15428SOL     OW46307   2.234   6.874   8.938
15428SOL    HW146308   2.221   6.967   8.904
15428SOL    HW246309   2.150   6.822   8.925
15429SOL     OW46310   3.476   6.878   8.737
15429SOL    HW146311   3.536   6.881   8.817
15429SOL    HW246312   3.401   6.942   8.750
15430SOL     OW46313   2.901   6.684   8.144
15430SOL    HW146314   2.831   6.637   8.198
15430SOL    HW246315   2.960   6.616   8.101
15431SOL     OW46316   2.876   5.822   8.419
15431SOL    HW146317   2.868   5.786   8.326
15431SOL    HW246318   2.874   5.746   8.484
15432SOL     OW46319   2.452   7.073   7.939
15432SOL    HW146320   2.494   7.015   7.869
15432SOL    HW246321   2.408   7.152   7.895
15433SOL     OW46322   3.571   5.971   8.829
15433SOL    HW146323   3.644   6.040   8.833
15433SOL    HW246324   3.599   5.896   8.770
15434SOL     OW46325   2.117   6.934   7.738
15434SOL    HW146326   2.021   6.935   7.711
15434SOL    HW246327   2.129   6.987   7.822
15435SOL     OW46328   1.967   6.599   9.174
15435SOL    HW146329   1.890   6.566   9.228
15435SOL    HW246330   2.052   6.569   9.216
15436SOL     OW46331   2.534   5.789   8.937
15436SOL    HW146332   2.624   5.773   8.897
15436SOL    HW246333   2.542   5.794   9.036
15437SOL     OW46334   1.937   5.931   7.481
15437SOL    HW146335   1.845   5.903   7.452
15437SOL    HW246336   1.968   6.008   7.425
15438SOL     OW46337   3.302   6.442   8.846
15438SOL    HW146338   3.245   6.494   8.783
15438SOL    HW246339   3.398   6.454   8.822
15439SOL     OW46340   1.934   5.752   7.766
15439SOL    HW146341   1.917   5.835   7.712
15439SOL    HW246342   2.024   5.715   7.744
15440SOL     OW46343   3.045   6.921   7.567
15440SOL    HW146344   2.946   6.910   7.569
15440SOL    HW246345   3.079   6.936   7.660
15441SOL     OW46346   2.475   6.428   8.879
15441SOL    HW146347   2.531   6.509   8.862
15441SOL    HW246348   2.534   6.348   8.882
15442SOL     OW46349   3.355   7.353   8.407
15442SOL    HW146350   3.388   7.417   8.338
15442SOL    HW246351   3.421   7.347   8.482
15443SOL     OW46352   2.578   6.151   9.156
15443SOL    HW146353   2.597   6.216   9.230
15443SOL    HW246354   2.638   6.071   9.165
15444SOL     OW46355   3.312   6.806   9.081
15444SOL    HW146356   3.303   6.796   9.180
15444SOL    HW246357   3.408   6.799   9.055
15445SOL     OW46358   2.252   7.327   9.008
15445SOL    HW146359   2.161   7.368   9.006
15445SOL    HW246360   2.245   7.233   9.040
15446SOL     OW46361   3.536   6.469   8.702
15446SOL    HW146362   3.509   6.380   8.665
15446SOL    HW246363   3.537   6.537   8.629
15447SOL     OW46364   3.087   5.911   7.897
15447SOL    HW146365   3.152   5.837   7.886
15447SOL    HW246366   3.107   5.961   7.981
15448SOL     OW46367   2.456   6.331   8.100
15448SOL    HW146368   2.506   6.416   8.081
15448SOL    HW246369   2.368   6.333   8.052
15449SOL     OW46370   3.639   5.928   9.090
15449SOL    HW146371   3.622   5.959   8.996
15449SOL    HW246372   3.555   5.891   9.128
15450SOL     OW46373   3.592   6.520   8.965
15450SOL    HW146374   3.630   6.611   8.980
15450SOL    HW246375   3.584   6.503   8.866
15451SOL     OW46376   2.721   6.960   7.464
15451SOL    HW146377   2.675   6.975   7.552
15451SOL    HW246378   2.765   7.045   7.434
15452SOL     OW46379   2.523   7.376   8.401
15452SOL    HW146380   2.477   7.464   8.388
15452SOL    HW246381   2.622   7.388   8.394
15453SOL     OW46382   2.721   6.542   8.309
15453SOL    HW146383   2.775   6.473   8.357
15453SOL    HW246384   2.689   6.611   8.375
15454SOL     OW46385   2.945   6.570   7.535
15454SOL    HW146386   2.922   6.623   7.453
15454SOL    HW246387   3.026   6.514   7.516
15455SOL     OW46388   3.723   7.155   8.299
15455SOL    HW146389   3.652   7.143   8.229
15455SOL    HW246390   3.724   7.076   8.359
15456SOL     OW46391   2.083   6.900   9.292
15456SOL    HW146392   2.018   6.827   9.271
15456SOL    HW246393   2.087   6.914   9.390
15457SOL     OW46394   1.941   6.826   8.101
15457SOL    HW146395   1.940   6.779   8.189
15457SOL    HW246396   2.023   6.798   8.050
15458SOL     OW46397   2.534   6.977   9.072
15458SOL    HW146398   2.456   6.927   9.110
15458SOL    HW246399   2.531   7.072   9.103
15459SOL     OW46400   3.686   5.778   8.675
15459SOL    HW146401   3.682   5.688   8.719
15459SOL    HW246402   3.689   5.767   8.576
15460SOL     OW46403   2.290   6.010   7.968
15460SOL    HW146404   2.320   5.938   7.906
15460SOL    HW246405   2.251   5.970   8.051
15461SOL     OW46406   3.567   7.073   8.552
15461SOL    HW146407   3.474   7.048   8.525
15461SOL    HW246408   3.593   7.023   8.634
15462SOL     OW46409   2.179   6.133   8.728
15462SOL    HW146410   2.217   6.074   8.800
15462SOL    HW246411   2.219   6.107   8.640
15463SOL     OW46412   2.674   7.172   8.135
15463SOL    HW146413   2.706   7.182   8.041
15463SOL    HW246414   2.595   7.110   8.137
15464SOL     OW46415   3.286   5.800   8.560
15464SOL    HW146416   3.338   5.735   8.615
15464SOL    HW246417   3.237   5.863   8.621
15465SOL     OW46418   2.863   5.620   8.602
15465SOL    HW146419   2.800   5.548   8.571
15465SOL    HW246420   2.956   5.584   8.602
15466SOL     OW46421   2.632   6.916   7.749
15466SOL    HW146422   2.586   6.829   7.766
15466SOL    HW246423   2.723   6.913   7.790
15467SOL     OW46424   2.480   7.153   8.732
15467SOL    HW146425   2.475   7.235   8.789
15467SOL    HW246426   2.569   7.150   8.687
15468SOL     OW46427   3.214   5.638   7.616
15468SOL    HW146428   3.249   5.597   7.532
15468SOL    HW246429   3.124   5.600   7.636
15469SOL     OW46430   3.162   6.039   8.139
15469SOL    HW146431   3.103   6.119   8.143
15469SOL    HW246432   3.177   6.004   8.232
15470SOL     OW46433   3.455   5.807   8.330
15470SOL    HW146434   3.371   5.806   8.384
15470SOL    HW246435   3.457   5.890   8.274
15471SOL     OW46436   1.901   6.663   7.748
15471SOL    HW146437   2.000   6.652   7.739
15471SOL    HW246438   1.861   6.577   7.780
15472SOL     OW46439   2.737   7.232   7.785
15472SOL    HW146440   2.660   7.197   7.731
15472SOL    HW246441   2.705   7.303   7.847
15473SOL     OW46442   2.092   6.214   9.423
15473SOL    HW146443   1.999   6.212   9.460
15473SOL    HW246444   2.093   6.175   9.331
15474SOL     OW46445   2.087   5.861  10.306
15474SOL    HW146446   2.122   5.844  10.398
15474SOL    HW246447   1.999   5.816  10.294
15475SOL     OW46448   1.881   5.954   9.957
15475SOL    HW146449   1.799   5.997   9.996
15475SOL    HW246450   1.853   5.881   9.894
15476SOL     OW46451   2.431   6.861  10.475
15476SOL    HW146452   2.338   6.854  10.438
15476SOL    HW246453   2.442   6.950  10.519
15477SOL     OW46454   3.417   7.097  10.013
15477SOL    HW146455   3.360   7.081  10.094
15477SOL    HW246456   3.358   7.107   9.933
15478SOL     OW46457   2.997   6.289  10.027
15478SOL    HW146458   3.054   6.367  10.002
15478SOL    HW246459   2.937   6.315  10.103
15479SOL     OW46460   3.617   6.193   9.541
15479SOL    HW146461   3.605   6.180   9.442
15479SOL    HW246462   3.587   6.112   9.590
15480SOL     OW46463   2.630   6.730  10.333
15480SOL    HW146464   2.552   6.747  10.393
15480SOL    HW246465   2.664   6.817  10.297
15481SOL     OW46466   2.712   6.384  11.133
15481SOL    HW146467   2.708   6.460  11.198
15481SOL    HW246468   2.734   6.420  11.042
15482SOL     OW46469   2.547   6.598   9.975
15482SOL    HW146470   2.616   6.582  10.045
15482SOL    HW246471   2.474   6.655  10.013
15483SOL     OW46472   2.548   6.747  11.113
15483SOL    HW146473   2.608   6.826  11.127
15483SOL    HW246474   2.462   6.778  11.072
15484SOL     OW46475   2.197   7.021  10.371
15484SOL    HW146476   2.119   6.990  10.318
15484SOL    HW246477   2.255   7.079  10.314
15485SOL     OW46478   3.322   7.091  10.649
15485SOL    HW146479   3.346   7.185  10.675
15485SOL    HW246480   3.306   7.037  10.731
15486SOL     OW46481   2.300   5.978  10.809
15486SOL    HW146482   2.382   5.922  10.818
15486SOL    HW246483   2.219   5.920  10.813
15487SOL     OW46484   3.465   6.033  10.047
15487SOL    HW146485   3.391   6.079   9.997
15487SOL    HW246486   3.516   6.101  10.100
15488SOL     OW46487   2.093   7.299   9.793
15488SOL    HW146488   2.127   7.376   9.847
15488SOL    HW246489   2.137   7.299   9.703
15489SOL     OW46490   2.989   6.927  11.000
15489SOL    HW146491   3.036   6.927  11.088
15489SOL    HW246492   2.941   6.840  10.989
15490SOL     OW46493   2.092   7.020   9.848
15490SOL    HW146494   2.066   7.116   9.848
15490SOL    HW246495   2.021   6.966   9.893
15491SOL     OW46496   2.102   6.677  10.196
15491SOL    HW146497   2.116   6.593  10.248
15491SOL    HW246498   2.047   6.741  10.251
15492SOL     OW46499   2.482   7.372  10.749
15492SOL    HW146500   2.390   7.355  10.784
15492SOL    HW246501   2.510   7.464  10.775
15493SOL     OW46502   2.468   6.550   9.433
15493SOL    HW146503   2.475   6.634   9.379
15493SOL    HW246504   2.514   6.563   9.521
15494SOL     OW46505   3.456   5.700  10.790
15494SOL    HW146506   3.438   5.767  10.718
15494SOL    HW246507   3.453   5.746  10.879
15495SOL     OW46508   1.984   6.229   9.873
15495SOL    HW146509   1.939   6.141   9.890
15495SOL    HW246510   1.983   6.283   9.957
15496SOL     OW46511   3.704   7.353   9.669
15496SOL    HW146512   3.758   7.324   9.749
15496SOL    HW246513   3.734   7.443   9.640
15497SOL     OW46514   1.889   7.182   9.427
15497SOL    HW146515   1.870   7.086   9.448
15497SOL    HW246516   1.856   7.240   9.502
15498SOL     OW46517   3.551   6.508   9.922
15498SOL    HW146518   3.646   6.479   9.930
15498SOL    HW246519   3.543   6.573   9.847
15499SOL     OW46520   3.503   6.694   9.742
15499SOL    HW146521   3.589   6.696   9.690
15499SOL    HW246522   3.517   6.741   9.830
15500SOL     OW46523   1.975   6.323  10.907
15500SOL    HW146524   2.063   6.310  10.952
15500SOL    HW246525   1.962   6.420  10.885
15501SOL     OW46526   2.475   6.951  10.036
15501SOL    HW146527   2.426   6.864  10.045
15501SOL    HW246528   2.452   6.994   9.949
15502SOL     OW46529   3.155   6.814  10.733
15502SOL    HW146530   3.192   6.741  10.675
15502SOL    HW246531   3.207   6.819  10.818
15503SOL     OW46532   2.671   5.590   9.812
15503SOL    HW146533   2.711   5.681   9.803
15503SOL    HW246534   2.571   5.598   9.818
15504SOL     OW46535   2.059   6.562  10.574
15504SOL    HW146536   2.148   6.517  10.560
15504SOL    HW246537   1.986   6.497  10.555
15505SOL     OW46538   3.387   6.585   9.500
15505SOL    HW146539   3.324   6.509   9.513
15505SOL    HW246540   3.435   6.603   9.586
15506SOL     OW46541   3.049   7.378  10.926
15506SOL    HW146542   3.073   7.438  10.850
15506SOL    HW246543   3.056   7.283  10.896
15507SOL     OW46544   2.179   5.837  11.111
15507SOL    HW146545   2.250   5.908  11.117
15507SOL    HW246546   2.091   5.876  11.139
15508SOL     OW46547   3.328   7.003  10.263
15508SOL    HW146548   3.269   7.009  10.343
15508SOL    HW246549   3.313   6.915  10.217
15509SOL     OW46550   3.529   7.300   9.882
15509SOL    HW146551   3.488   7.277   9.794
15509SOL    HW246552   3.511   7.226   9.947
15510SOL     OW46553   2.460   6.315   9.580
15510SOL    HW146554   2.484   6.384   9.512
15510SOL    HW246555   2.382   6.348   9.634
15511SOL     OW46556   3.143   5.931  10.254
15511SOL    HW146557   3.057   5.881  10.241
15511SOL    HW246558   3.205   5.877  10.310
15512SOL     OW46559   3.438   7.248   9.617
15512SOL    HW146560   3.527   7.294   9.620
15512SOL    HW246561   3.417   7.224   9.522
15513SOL     OW46562   2.669   6.191  10.775
15513SOL    HW146563   2.622   6.188  10.864
15513SOL    HW246564   2.618   6.136  10.709
15514SOL     OW46565   3.256   6.055  10.984
15514SOL    HW146566   3.236   6.098  11.072
15514SOL    HW246567   3.334   5.993  10.993
15515SOL     OW46568   2.835   6.476  10.882
15515SOL    HW146569   2.881   6.392  10.853
15515SOL    HW246570   2.779   6.510  10.807
15516SOL     OW46571   2.853   5.996  10.552
15516SOL    HW146572   2.776   6.030  10.606
15516SOL    HW246573   2.819   5.945  10.473
15517SOL     OW46574   2.903   6.287   9.739
15517SOL    HW146575   2.929   6.283   9.835
15517SOL    HW246576   2.818   6.236   9.725
15518SOL     OW46577   1.938   6.397  10.099
15518SOL    HW146578   2.037   6.385  10.108
15518SOL    HW246579   1.914   6.492  10.120
15519SOL     OW46580   1.992   7.407  10.881
15519SOL    HW146581   1.982   7.392  10.980
15519SOL    HW246582   1.906   7.443  10.845
15520SOL     OW46583   2.727   5.934   9.505
15520SOL    HW146584   2.786   5.997   9.456
15520SOL    HW246585   2.746   5.840   9.476
15521SOL     OW46586   3.581   6.171  11.141
15521SOL    HW146587   3.555   6.260  11.105
15521SOL    HW246588   3.579   6.103  11.068
15522SOL     OW46589   3.224   6.730   9.855
15522SOL    HW146590   3.307   6.701   9.807
15522SOL    HW246591   3.175   6.797   9.799
15523SOL     OW46592   2.412   5.782  10.195
15523SOL    HW146593   2.407   5.777  10.295
15523SOL    HW246594   2.414   5.878  10.166
15524SOL     OW46595   2.870   7.042   9.787
15524SOL    HW146596   2.824   7.114   9.735
15524SOL    HW246597   2.866   7.062   9.885
15525SOL     OW46598   2.213   7.387  10.163
15525SOL    HW146599   2.263   7.301  10.169
15525SOL    HW246600   2.278   7.464  10.160
15526SOL     OW46601   3.657   6.652  10.183
15526SOL    HW146602   3.595   6.637  10.107
15526SOL    HW246603   3.605   6.663  10.268
15527SOL     OW46604   3.089   7.136  10.816
15527SOL    HW146605   3.095   7.059  10.880
15527SOL    HW246606   3.037   7.110  10.736
15528SOL     OW46607   2.183   6.529   9.552
15528SOL    HW146608   2.265   6.568   9.510
15528SOL    HW246609   2.156   6.447   9.503
15529SOL     OW46610   3.320   6.321  10.038
15529SOL    HW146611   3.315   6.256  10.113
15529SOL    HW246612   3.400   6.380  10.051
15530SOL     OW46613   2.323   6.852  11.037
15530SOL    HW146614   2.273   6.853  10.951
15530SOL    HW246615   2.260   6.834  11.113
15531SOL     OW46616   2.973   7.362   9.547
15531SOL    HW146617   2.913   7.300   9.597
15531SOL    HW246618   3.004   7.318   9.462
15532SOL     OW46619   2.064   5.871  10.808
15532SOL    HW146620   1.984   5.931  10.795
15532SOL    HW246621   2.054   5.822  10.894
15533SOL     OW46622   3.494   6.963   9.391
15533SOL    HW146623   3.462   7.057   9.381
15533SOL    HW246624   3.418   6.900   9.379
15534SOL     OW46625   2.326   7.329   9.633
15534SOL    HW146626   2.359   7.368   9.719
15534SOL    HW246627   2.402   7.322   9.568
15535SOL     OW46628   3.262   5.693   9.736
15535SOL    HW146629   3.238   5.656   9.646
15535SOL    HW246630   3.361   5.709   9.740
15536SOL     OW46631   2.111   7.371  10.551
15536SOL    HW146632   2.168   7.306  10.601
15536SOL    HW246633   2.095   7.338  10.458
15537SOL     OW46634   2.802   7.284  10.214
15537SOL    HW146635   2.882   7.227  10.235
15537SOL    HW246636   2.753   7.244  10.137
15538SOL     OW46637   2.244   6.286   9.790
15538SOL    HW146638   2.289   6.196   9.787
15538SOL    HW246639   2.150   6.275   9.823
15539SOL     OW46640   3.409   5.808  11.039
15539SOL    HW146641   3.404   5.845  11.131
15539SOL    HW246642   3.337   5.739  11.027
15540SOL     OW46643   2.476   5.708   9.427
15540SOL    HW146644   2.574   5.686   9.434
15540SOL    HW246645   2.445   5.691   9.334
15541SOL     OW46646   2.643   5.850  11.059
15541SOL    HW146647   2.710   5.789  11.102
15541SOL    HW246648   2.570   5.869  11.124
15542SOL     OW46649   2.750   7.100  10.505
15542SOL    HW146650   2.727   7.075  10.411
15542SOL    HW246651   2.811   7.031  10.544
15543SOL     OW46652   3.213   6.176  10.743
15543SOL    HW146653   3.241   6.133  10.828
15543SOL    HW246654   3.238   6.272  10.744
15544SOL     OW46655   2.665   6.988  10.234
15544SOL    HW146656   2.755   7.002  10.192
15544SOL    HW246657   2.594   6.990  10.163
15545SOL     OW46658   2.784   6.089  10.209
15545SOL    HW146659   2.759   6.080  10.113
15545SOL    HW246660   2.832   6.007  10.240
15546SOL     OW46661   2.401   5.650   9.822
15546SOL    HW146662   2.320   5.651   9.880
15546SOL    HW246663   2.404   5.733   9.767
15547SOL     OW46664   3.296   6.774   9.351
15547SOL    HW146665   3.328   6.698   9.408
15547SOL    HW246666   3.204   6.801   9.381
15548SOL     OW46667   2.159   5.621   9.481
15548SOL    HW146668   2.208   5.705   9.460
15548SOL    HW246669   2.221   5.556   9.526
15549SOL     OW46670   2.797   5.822   9.790
15549SOL    HW146671   2.749   5.863   9.712
15549SOL    HW246672   2.896   5.820   9.771
15550SOL     OW46673   2.938   6.269  10.774
15550SOL    HW146674   2.858   6.208  10.777
15550SOL    HW246675   3.019   6.216  10.750
15551SOL     OW46676   3.089   7.156  10.103
15551SOL    HW146677   3.110   7.230  10.038
15551SOL    HW246678   3.157   7.156  10.176
15552SOL     OW46679   2.321   6.738  10.051
15552SOL    HW146680   2.250   6.711  10.116
15552SOL    HW246681   2.295   6.710   9.958
15553SOL     OW46682   3.133   7.383   9.901
15553SOL    HW146683   3.177   7.447   9.837
15553SOL    HW246684   3.083   7.435   9.971
15554SOL     OW46685   2.894   6.135   9.326
15554SOL    HW146686   2.853   6.217   9.287
15554SOL    HW246687   2.958   6.161   9.399
15555SOL     OW46688   1.940   6.142  10.696
15555SOL    HW146689   2.032   6.141  10.655
15555SOL    HW246690   1.934   6.216  10.763
15556SOL     OW46691   2.423   5.808  10.457
15556SOL    HW146692   2.461   5.724  10.494
15556SOL    HW246693   2.335   5.827  10.501
15557SOL     OW46694   2.728   6.040   9.952
15557SOL    HW146695   2.696   6.112   9.890
15557SOL    HW246696   2.752   5.959   9.899
15558SOL     OW46697   2.879   5.625  10.063
15558SOL    HW146698   2.807   5.630   9.994
15558SOL    HW246699   2.855   5.556  10.132
15559SOL     OW46700   3.291   6.759  10.177
15559SOL    HW146701   3.236   6.675  10.170
15559SOL    HW246702   3.317   6.788  10.085
15560SOL     OW46703   3.328   6.176  10.302
15560SOL    HW146704   3.298   6.081  10.309
15560SOL    HW246705   3.401   6.192  10.368
15561SOL     OW46706   3.719   6.419   9.687
15561SOL    HW146707   3.761   6.355   9.751
15561SOL    HW246708   3.681   6.368   9.609
15562SOL     OW46709   2.350   6.971   9.484
15562SOL    HW146710   2.263   6.956   9.531
15562SOL    HW246711   2.333   6.997   9.389
15563SOL     OW46712   3.526   6.866   9.967
15563SOL    HW146713   3.625   6.874   9.981
15563SOL    HW246714   3.481   6.950   9.998
15564SOL     OW46715   3.252   6.161   9.388
15564SOL    HW146716   3.198   6.140   9.469
15564SOL    HW246717   3.343   6.120   9.397
15565SOL     OW46718   2.389   5.842   9.638
15565SOL    HW146719   2.416   5.783   9.563
15565SOL    HW246720   2.389   5.937   9.607
15566SOL     OW46721   3.616   6.809  10.898
15566SOL    HW146722   3.707   6.770  10.885
15566SOL    HW246723   3.624   6.905  10.922
15567SOL     OW46724   2.926   6.933  10.650
15567SOL    HW146725   2.846   6.910  10.705
15567SOL    HW246726   3.009   6.907  10.699
15568SOL     OW46727   3.454   7.215  10.935
15568SOL    HW146728   3.481   7.249  10.845
15568SOL    HW246729   3.533   7.177  10.981
15569SOL     OW46730   2.973   6.781  10.410
15569SOL    HW146731   2.933   6.825  10.491
15569SOL    HW246732   2.932   6.818  10.327
15570SOL     OW46733   3.500   6.685  10.389
15570SOL    HW146734   3.505   6.766  10.448
15570SOL    HW246735   3.414   6.687  10.338
15571SOL     OW46736   2.777   5.675  10.712
15571SOL    HW146737   2.802   5.655  10.617
15571SOL    HW246738   2.849   5.731  10.754
15572SOL     OW46739   2.842   6.702  11.029
15572SOL    HW146740   2.743   6.708  11.039
15572SOL    HW246741   2.865   6.622  10.973
15573SOL     OW46742   2.567   6.636   9.678
15573SOL    HW146743   2.553   6.643   9.777
15573SOL    HW246744   2.651   6.585   9.660
15574SOL     OW46745   2.272   6.399  10.561
15574SOL    HW146746   2.358   6.411  10.611
15574SOL    HW246747   2.230   6.312  10.588
15575SOL     OW46748   3.136   5.972  10.572
15575SOL    HW146749   3.157   6.046  10.636
15575SOL    HW246750   3.047   5.989  10.529
15576SOL     OW46751   1.926   7.150  10.641
15576SOL    HW146752   1.880   7.232  10.607
15576SOL    HW246753   2.024   7.169  10.650
15577SOL     OW46754   2.229   6.686   9.811
15577SOL    HW146755   2.222   6.769   9.755
15577SOL    HW246756   2.233   6.606   9.751
15578SOL     OW46757   2.428   6.123  10.175
15578SOL    HW146758   2.440   6.189  10.101
15578SOL    HW246759   2.474   6.157  10.258
15579SOL     OW46760   3.114   6.934   9.698
15579SOL    HW146761   3.164   7.011   9.738
15579SOL    HW246762   3.019   6.936   9.730
15580SOL     OW46763   3.134   7.031  10.452
15580SOL    HW146764   3.181   7.044  10.539
15580SOL    HW246765   3.068   6.957  10.461
15581SOL     OW46766   3.444   6.225   9.782
15581SOL    HW146767   3.413   6.286   9.855
15581SOL    HW246768   3.494   6.277   9.713
15582SOL     OW46769   2.216   7.096  10.639
15582SOL    HW146770   2.195   7.052  10.552
15582SOL    HW246771   2.313   7.122  10.642
15583SOL     OW46772   2.264   6.337  10.908
15583SOL    HW146773   2.332   6.392  10.861
15583SOL    HW246774   2.304   6.249  10.935
15584SOL     OW46775   3.449   6.365  10.980
15584SOL    HW146776   3.357   6.403  10.975
15584SOL    HW246777   3.509   6.412  10.915
15585SOL     OW46778   2.875   5.691  11.080
15585SOL    HW146779   2.881   5.776  11.028
15585SOL    HW246780   2.907   5.615  11.023
15586SOL     OW46781   2.366   5.636  11.050
15586SOL    HW146782   2.324   5.579  10.980
15586SOL    HW246783   2.300   5.705  11.082
15587SOL     OW46784   2.435   6.456  10.339
15587SOL    HW146785   2.479   6.545  10.330
15587SOL    HW246786   2.372   6.456  10.416
15588SOL     OW46787   3.222   6.448  10.355
15588SOL    HW146788   3.147   6.448  10.289
15588SOL    HW246789   3.259   6.356  10.364
15589SOL     OW46790   3.071   6.111   9.585
15589SOL    HW146791   3.084   6.027   9.639
15589SOL    HW246792   3.042   6.185   9.645
15590SOL     OW46793   2.169   5.799  10.541
15590SOL    HW146794   2.146   5.836  10.631
15590SOL    HW246795   2.139   5.704  10.535
15591SOL     OW46796   1.899   6.896  10.592
15591SOL    HW146797   1.952   6.847  10.660
15591SOL    HW246798   1.921   6.994  10.597
15592SOL     OW46799   2.594   6.220  10.374
15592SOL    HW146800   2.653   6.194  10.298
15592SOL    HW246801   2.566   6.316  10.363
15593SOL     OW46802   3.590   6.521  11.164
15593SOL    HW146803   3.544   6.514  11.075
15593SOL    HW246804   3.528   6.565  11.230
15594SOL     OW46805   2.169   5.649   9.928
15594SOL    HW146806   2.158   5.743   9.961
15594SOL    HW246807   2.164   5.586  10.005
15595SOL     OW46808   3.484   5.953   9.684
15595SOL    HW146809   3.486   5.877   9.748
15595SOL    HW246810   3.436   6.030   9.724
15596SOL     OW46811   2.885   6.352  10.276
15596SOL    HW146812   2.900   6.373  10.372
15596SOL    HW246813   2.855   6.257  10.267
15597SOL     OW46814   2.842   7.159  11.010
15597SOL    HW146815   2.822   7.203  10.922
15597SOL    HW246816   2.881   7.068  10.994
15598SOL     OW46817   3.721   7.104  10.915
15598SOL    HW146818   3.735   7.131  10.820
15598SOL    HW246819   3.804   7.126  10.968
15599SOL     OW46820   2.212   6.484  11.114
15599SOL    HW146821   2.288   6.528  11.162
15599SOL    HW246822   2.247   6.437  11.032
15600SOL     OW46823   3.402   5.860   9.435
15600SOL    HW146824   3.341   5.785   9.458
15600SOL    HW246825   3.424   5.912   9.518
15601SOL     OW46826   3.165   6.424   9.352
15601SOL    HW146827   3.199   6.331   9.367
15601SOL    HW246828   3.183   6.451   9.257
15602SOL     OW46829   2.930   6.919  10.159
15602SOL    HW146830   2.937   6.835  10.104
15602SOL    HW246831   2.992   6.988  10.123
15603SOL     OW46832   2.181   6.396  10.259
15603SOL    HW146833   2.274   6.432  10.264
15603SOL    HW246834   2.175   6.311  10.311
15604SOL     OW46835   2.201   6.095  10.316
15604SOL    HW146836   2.149   6.012  10.299
15604SOL    HW246837   2.278   6.100  10.252
15605SOL     OW46838   3.000   5.966  10.988
15605SOL    HW146839   2.955   6.029  11.052
15605SOL    HW246840   3.093   5.997  10.971
15606SOL     OW46841   3.022   5.793  10.787
15606SOL    HW146842   3.022   5.857  10.864
15606SOL    HW246843   3.050   5.841  10.704
15607SOL     OW46844   1.870   6.912   9.510
15607SOL    HW146845   1.777   6.933   9.479
15607SOL    HW246846   1.880   6.813   9.523
15608SOL     OW46847   1.950   7.387  10.237
15608SOL    HW146848   1.908   7.301  10.210
15608SOL    HW246849   2.044   7.390  10.203
15609SOL     OW46850   2.366   7.154  10.220
15609SOL    HW146851   2.432   7.228  10.229
15609SOL    HW246852   2.410   7.075  10.178
15610SOL     OW46853   2.864   6.382  10.548
15610SOL    HW146854   2.905   6.350  10.634
15610SOL    HW246855   2.768   6.355  10.545
15611SOL     OW46856   1.902   6.130  10.424
15611SOL    HW146857   1.987   6.097  10.383
15611SOL    HW246858   1.915   6.145  10.522
15612SOL     OW46859   2.051   6.106  11.032
15612SOL    HW146860   2.110   6.066  10.962
15612SOL    HW246861   1.993   6.177  10.991
15613SOL     OW46862   3.231   6.536  10.970
15613SOL    HW146863   3.270   6.625  10.990
15613SOL    HW246864   3.241   6.516  10.873
15614SOL     OW46865   2.677   6.158   9.635
15614SOL    HW146866   2.684   6.069   9.589
15614SOL    HW246867   2.583   6.192   9.627
15615SOL     OW46868   3.519   6.190  10.516
15615SOL    HW146869   3.481   6.121  10.578
15615SOL    HW246870   3.601   6.154  10.472
15616SOL     OW46871   2.114   7.150  11.054
15616SOL    HW146872   2.084   7.207  11.130
15616SOL    HW246873   2.107   7.053  11.080
15617SOL     OW46874   2.533   6.050  10.579
15617SOL    HW146875   2.499   5.961  10.549
15617SOL    HW246876   2.559   6.104  10.499
15618SOL     OW46877   2.792   7.264  10.775
15618SOL    HW146878   2.768   7.246  10.680
15618SOL    HW246879   2.822   7.358  10.785
15619SOL     OW46880   2.335   6.086   9.501
15619SOL    HW146881   2.396   6.166   9.505
15619SOL    HW246882   2.240   6.117   9.508
15620SOL     OW46883   2.021   6.723  10.776
15620SOL    HW146884   2.043   6.662  10.852
15620SOL    HW246885   2.031   6.674  10.690
15621SOL     OW46886   3.209   6.645  10.544
15621SOL    HW146887   3.233   6.582  10.470
15621SOL    HW246888   3.119   6.685  10.526
15622SOL     OW46889   3.164   6.441   9.619
15622SOL    HW146890   3.078   6.410   9.661
15622SOL    HW246891   3.160   6.427   9.520
15623SOL     OW46892   3.621   7.333  10.464
15623SOL    HW146893   3.682   7.363  10.391
15623SOL    HW246894   3.583   7.244  10.442
15624SOL     OW46895   3.114   7.317  10.438
15624SOL    HW146896   3.198   7.322  10.384
15624SOL    HW246897   3.091   7.221  10.456
15625SOL     OW46898   1.945   6.844  10.332
15625SOL    HW146899   1.940   6.843  10.432
15625SOL    HW246900   1.862   6.803  10.294
15626SOL     OW46901   2.550   7.248  11.026
15626SOL    HW146902   2.494   7.329  11.035
15626SOL    HW246903   2.602   7.252  10.940
15627SOL     OW46904   3.588   5.721   9.833
15627SOL    HW146905   3.661   5.704   9.766
15627SOL    HW246906   3.557   5.634   9.871
15628SOL     OW46907   3.250   7.159   9.787
15628SOL    HW146908   3.317   7.171   9.713
15628SOL    HW246909   3.210   7.248   9.810
15629SOL     OW46910   1.992   7.380  11.161
15629SOL    HW146911   1.951   7.306  11.214
15629SOL    HW246912   2.056   7.431  11.219
15630SOL     OW46913   3.142   6.513   9.982
15630SOL    HW146914   3.202   6.432   9.984
15630SOL    HW246915   3.182   6.582   9.922
15631SOL     OW46916   2.692   6.859  10.732
15631SOL    HW146917   2.687   6.892  10.827
15631SOL    HW246918   2.606   6.878  10.686
15632SOL     OW46919   2.534   7.202   9.464
15632SOL    HW146920   2.543   7.212   9.365
15632SOL    HW246921   2.494   7.113   9.485
15633SOL     OW46922   3.512   7.306  10.704
15633SOL    HW146923   3.565   7.316  10.620
15633SOL    HW246924   3.485   7.396  10.738
15634SOL     OW46925   3.703   5.761  10.273
15634SOL    HW146926   3.742   5.676  10.237
15634SOL    HW246927   3.605   5.763  10.254
15635SOL     OW46928   2.125   5.912  10.030
15635SOL    HW146929   2.046   5.963   9.996
15635SOL    HW246930   2.116   5.897  10.128
15636SOL     OW46931   3.056   7.198   9.341
15636SOL    HW146932   3.062   7.105   9.378
15636SOL    HW246933   2.997   7.198   9.261
15637SOL     OW46934   2.684   6.588  10.682
15637SOL    HW146935   2.724   6.587  10.590
15637SOL    HW246936   2.694   6.680  10.722
15638SOL     OW46937   2.778   6.496   9.601
15638SOL    HW146938   2.841   6.534   9.533
15638SOL    HW246939   2.818   6.413   9.640
15639SOL     OW46940   3.366   7.193   9.354
15639SOL    HW146941   3.274   7.230   9.361
15639SOL    HW246942   3.404   7.213   9.264
15640SOL     OW46943   2.234   6.874  10.800
15640SOL    HW146944   2.221   6.967  10.766
15640SOL    HW246945   2.150   6.822  10.787
15641SOL     OW46946   3.476   6.878  10.599
15641SOL    HW146947   3.536   6.881  10.679
15641SOL    HW246948   3.401   6.942  10.612
15642SOL     OW46949   2.901   6.684  10.006
15642SOL    HW146950   2.831   6.637  10.060
15642SOL    HW246951   2.960   6.616   9.963
15643SOL     OW46952   2.876   5.822  10.281
15643SOL    HW146953   2.868   5.786  10.188
15643SOL    HW246954   2.874   5.746  10.346
15644SOL     OW46955   2.452   7.073   9.801
15644SOL    HW146956   2.494   7.015   9.731
15644SOL    HW246957   2.408   7.152   9.757
15645SOL     OW46958   3.571   5.971  10.691
15645SOL    HW146959   3.644   6.040  10.695
15645SOL    HW246960   3.599   5.896  10.632
15646SOL     OW46961   2.117   6.934   9.600
15646SOL    HW146962   2.021   6.935   9.573
15646SOL    HW246963   2.129   6.987   9.684
15647SOL     OW46964   1.967   6.599  11.036
15647SOL    HW146965   1.890   6.566  11.090
15647SOL    HW246966   2.052   6.569  11.078
15648SOL     OW46967   2.534   5.789  10.799
15648SOL    HW146968   2.624   5.773  10.759
15648SOL    HW246969   2.542   5.794  10.898
15649SOL     OW46970   1.937   5.931   9.343
15649SOL    HW146971   1.845   5.903   9.314
15649SOL    HW246972   1.968   6.008   9.287
15650SOL     OW46973   3.302   6.442  10.708
15650SOL    HW146974   3.245   6.494  10.645
15650SOL    HW246975   3.398   6.454  10.684
15651SOL     OW46976   1.934   5.752   9.628
15651SOL    HW146977   1.917   5.835   9.574
15651SOL    HW246978   2.024   5.715   9.606
15652SOL     OW46979   3.045   6.921   9.429
15652SOL    HW146980   2.946   6.910   9.431
15652SOL    HW246981   3.079   6.936   9.522
15653SOL     OW46982   2.475   6.428  10.741
15653SOL    HW146983   2.531   6.509  10.724
15653SOL    HW246984   2.534   6.348  10.744
15654SOL     OW46985   3.355   7.353  10.269
15654SOL    HW146986   3.388   7.417  10.200
15654SOL    HW246987   3.421   7.347  10.344
15655SOL     OW46988   2.578   6.151  11.018
15655SOL    HW146989   2.597   6.216  11.092
15655SOL    HW246990   2.638   6.071  11.027
15656SOL     OW46991   3.312   6.806  10.943
15656SOL    HW146992   3.303   6.796  11.042
15656SOL    HW246993   3.408   6.799  10.917
15657SOL     OW46994   2.252   7.327  10.870
15657SOL    HW146995   2.161   7.368  10.868
15657SOL    HW246996   2.245   7.233  10.902
15658SOL     OW46997   3.536   6.469  10.564
15658SOL    HW146998   3.509   6.380  10.527
15658SOL    HW246999   3.537   6.537  10.491
15659SOL     OW47000   3.087   5.911   9.759
15659SOL    HW147001   3.152   5.837   9.748
15659SOL    HW247002   3.107   5.961   9.843
15660SOL     OW47003   2.456   6.331   9.962
15660SOL    HW147004   2.506   6.416   9.943
15660SOL    HW247005   2.368   6.333   9.914
15661SOL     OW47006   3.639   5.928  10.952
15661SOL    HW147007   3.622   5.959  10.858
15661SOL    HW247008   3.555   5.891  10.990
15662SOL     OW47009   3.592   6.520  10.827
15662SOL    HW147010   3.630   6.611  10.842
15662SOL    HW247011   3.584   6.503  10.728
15663SOL     OW47012   2.721   6.960   9.326
15663SOL    HW147013   2.675   6.975   9.414
15663SOL    HW247014   2.765   7.045   9.296
15664SOL     OW47015   2.523   7.376  10.263
15664SOL    HW147016   2.477   7.464  10.250
15664SOL    HW247017   2.622   7.388  10.256
15665SOL     OW47018   2.721   6.542  10.171
15665SOL    HW147019   2.775   6.473  10.219
15665SOL    HW247020   2.689   6.611  10.237
15666SOL     OW47021   2.945   6.570   9.397
15666SOL    HW147022   2.922   6.623   9.315
15666SOL    HW247023   3.026   6.514   9.378
15667SOL     OW47024   3.723   7.155  10.161
15667SOL    HW147025   3.652   7.143  10.091
15667SOL    HW247026   3.724   7.076  10.221
15668SOL     OW47027   2.083   6.900  11.154
15668SOL    HW147028   2.018   6.827  11.133
15668SOL    HW247029   2.087   6.914  11.252
15669SOL     OW47030   1.941   6.826   9.963
15669SOL    HW147031   1.940   6.779  10.051
15669SOL    HW247032   2.023   6.798   9.912
15670SOL     OW47033   2.534   6.977  10.934
15670SOL    HW147034   2.456   6.927  10.972
15670SOL    HW247035   2.531   7.072  10.965
15671SOL     OW47036   3.686   5.778  10.537
15671SOL    HW147037   3.682   5.688  10.581
15671SOL    HW247038   3.689   5.767  10.438
15672SOL     OW47039   2.290   6.010   9.830
15672SOL    HW147040   2.320   5.938   9.768
15672SOL    HW247041   2.251   5.970   9.913
15673SOL     OW47042   3.567   7.073  10.414
15673SOL    HW147043   3.474   7.048  10.387
15673SOL    HW247044   3.593   7.023  10.496
15674SOL     OW47045   2.179   6.133  10.590
15674SOL    HW147046   2.217   6.074  10.662
15674SOL    HW247047   2.219   6.107  10.502
15675SOL     OW47048   2.674   7.172   9.997
15675SOL    HW147049   2.706   7.182   9.903
15675SOL    HW247050   2.595   7.110   9.999
15676SOL     OW47051   3.286   5.800  10.422
15676SOL    HW147052   3.338   5.735  10.477
15676SOL    HW247053   3.237   5.863  10.483
15677SOL     OW47054   2.863   5.620  10.464
15677SOL    HW147055   2.800   5.548  10.433
15677SOL    HW247056   2.956   5.584  10.464
15678SOL     OW47057   2.632   6.916   9.611
15678SOL    HW147058   2.586   6.829   9.628
15678SOL    HW247059   2.723   6.913   9.652
15679SOL     OW47060   2.480   7.153  10.594
15679SOL    HW147061   2.475   7.235  10.651
15679SOL    HW247062   2.569   7.150  10.549
15680SOL     OW47063   3.214   5.638   9.478
15680SOL    HW147064   3.249   5.597   9.394
15680SOL    HW247065   3.124   5.600   9.498
15681SOL     OW47066   3.162   6.039  10.001
15681SOL    HW147067   3.103   6.119  10.005
15681SOL    HW247068   3.177   6.004  10.094
15682SOL     OW47069   3.455   5.807  10.192
15682SOL    HW147070   3.371   5.806  10.246
15682SOL    HW247071   3.457   5.890  10.136
15683SOL     OW47072   1.901   6.663   9.610
15683SOL    HW147073   2.000   6.652   9.601
15683SOL    HW247074   1.861   6.577   9.642
15684SOL     OW47075   2.737   7.232   9.647
15684SOL    HW147076   2.660   7.197   9.593
15684SOL    HW247077   2.705   7.303   9.709
15685SOL     OW47078   2.092   6.214  11.285
15685SOL    HW147079   1.999   6.212  11.322
15685SOL    HW247080   2.093   6.175  11.193
15686SOL     OW47081   2.087   5.861  12.168
15686SOL    HW147082   2.122   5.844  12.260
15686SOL    HW247083   1.999   5.816  12.156
15687SOL     OW47084   1.881   5.954  11.819
15687SOL    HW147085   1.799   5.997  11.858
15687SOL    HW247086   1.853   5.881  11.756
15688SOL     OW47087   2.431   6.861  12.337
15688SOL    HW147088   2.338   6.854  12.300
15688SOL    HW247089   2.442   6.950  12.381
15689SOL     OW47090   3.417   7.097  11.875
15689SOL    HW147091   3.360   7.081  11.956
15689SOL    HW247092   3.358   7.107  11.795
15690SOL     OW47093   2.997   6.289  11.889
15690SOL    HW147094   3.054   6.367  11.864
15690SOL    HW247095   2.937   6.315  11.965
15691SOL     OW47096   3.617   6.193  11.403
15691SOL    HW147097   3.605   6.180  11.304
15691SOL    HW247098   3.587   6.112  11.452
15692SOL     OW47099   2.630   6.730  12.195
15692SOL    HW147100   2.552   6.747  12.255
15692SOL    HW247101   2.664   6.817  12.159
15693SOL     OW47102   2.547   6.598  11.837
15693SOL    HW147103   2.616   6.582  11.907
15693SOL    HW247104   2.474   6.655  11.875
15694SOL     OW47105   2.197   7.021  12.233
15694SOL    HW147106   2.119   6.990  12.180
15694SOL    HW247107   2.255   7.079  12.176
15695SOL     OW47108   3.322   7.091  12.511
15695SOL    HW147109   3.346   7.185  12.537
15695SOL    HW247110   3.306   7.037  12.593
15696SOL     OW47111   2.300   5.978  12.671
15696SOL    HW147112   2.382   5.922  12.680
15696SOL    HW247113   2.219   5.920  12.675
15697SOL     OW47114   3.465   6.033  11.909
15697SOL    HW147115   3.391   6.079  11.859
15697SOL    HW247116   3.516   6.101  11.962
15698SOL     OW47117   2.093   7.299  11.655
15698SOL    HW147118   2.127   7.376  11.709
15698SOL    HW247119   2.137   7.299  11.565
15699SOL     OW47120   2.092   7.020  11.710
15699SOL    HW147121   2.066   7.116  11.710
15699SOL    HW247122   2.021   6.966  11.755
15700SOL     OW47123   2.102   6.677  12.058
15700SOL    HW147124   2.116   6.593  12.110
15700SOL    HW247125   2.047   6.741  12.113
15701SOL     OW47126   2.482   7.372  12.611
15701SOL    HW147127   2.390   7.355  12.646
15701SOL    HW247128   2.510   7.464  12.637
15702SOL     OW47129   2.468   6.550  11.295
15702SOL    HW147130   2.475   6.634  11.241
15702SOL    HW247131   2.514   6.563  11.383
15703SOL     OW47132   3.456   5.700  12.652
15703SOL    HW147133   3.438   5.767  12.580
15703SOL    HW247134   3.453   5.746  12.741
15704SOL     OW47135   1.984   6.229  11.735
15704SOL    HW147136   1.939   6.141  11.752
15704SOL    HW247137   1.983   6.283  11.819
15705SOL     OW47138   3.704   7.353  11.531
15705SOL    HW147139   3.758   7.324  11.611
15705SOL    HW247140   3.734   7.443  11.502
15706SOL     OW47141   1.889   7.182  11.289
15706SOL    HW147142   1.870   7.086  11.310
15706SOL    HW247143   1.856   7.240  11.364
15707SOL     OW47144   3.551   6.508  11.784
15707SOL    HW147145   3.646   6.479  11.792
15707SOL    HW247146   3.543   6.573  11.709
15708SOL     OW47147   3.503   6.694  11.604
15708SOL    HW147148   3.589   6.696  11.552
15708SOL    HW247149   3.517   6.741  11.692
15709SOL     OW47150   1.975   6.323  12.769
15709SOL    HW147151   2.063   6.310  12.814
15709SOL    HW247152   1.962   6.420  12.747
15710SOL     OW47153   2.475   6.951  11.898
15710SOL    HW147154   2.426   6.864  11.907
15710SOL    HW247155   2.452   6.994  11.811
15711SOL     OW47156   3.155   6.814  12.595
15711SOL    HW147157   3.192   6.741  12.537
15711SOL    HW247158   3.207   6.819  12.680
15712SOL     OW47159   2.671   5.590  11.674
15712SOL    HW147160   2.711   5.681  11.665
15712SOL    HW247161   2.571   5.598  11.680
15713SOL     OW47162   2.059   6.562  12.436
15713SOL    HW147163   2.148   6.517  12.422
15713SOL    HW247164   1.986   6.497  12.417
15714SOL     OW47165   3.387   6.585  11.362
15714SOL    HW147166   3.324   6.509  11.375
15714SOL    HW247167   3.435   6.603  11.448
15715SOL     OW47168   3.328   7.003  12.125
15715SOL    HW147169   3.269   7.009  12.205
15715SOL    HW247170   3.313   6.915  12.079
15716SOL     OW47171   3.529   7.300  11.744
15716SOL    HW147172   3.488   7.277  11.656
15716SOL    HW247173   3.511   7.226  11.809
15717SOL     OW47174   2.460   6.315  11.442
15717SOL    HW147175   2.484   6.384  11.374
15717SOL    HW247176   2.382   6.348  11.496
15718SOL     OW47177   3.143   5.931  12.116
15718SOL    HW147178   3.057   5.881  12.103
15718SOL    HW247179   3.205   5.877  12.172
15719SOL     OW47180   3.438   7.248  11.479
15719SOL    HW147181   3.527   7.294  11.482
15719SOL    HW247182   3.417   7.224  11.384
15720SOL     OW47183   2.669   6.191  12.637
15720SOL    HW147184   2.622   6.188  12.726
15720SOL    HW247185   2.618   6.136  12.571
15721SOL     OW47186   2.835   6.476  12.744
15721SOL    HW147187   2.881   6.392  12.715
15721SOL    HW247188   2.779   6.510  12.669
15722SOL     OW47189   2.853   5.996  12.414
15722SOL    HW147190   2.776   6.030  12.468
15722SOL    HW247191   2.819   5.945  12.335
15723SOL     OW47192   2.903   6.287  11.601
15723SOL    HW147193   2.929   6.283  11.697
15723SOL    HW247194   2.818   6.236  11.587
15724SOL     OW47195   1.938   6.397  11.961
15724SOL    HW147196   2.037   6.385  11.970
15724SOL    HW247197   1.914   6.492  11.982
15725SOL     OW47198   1.992   7.407  12.743
15725SOL    HW147199   1.982   7.392  12.842
15725SOL    HW247200   1.906   7.443  12.707
15726SOL     OW47201   2.727   5.934  11.367
15726SOL    HW147202   2.786   5.997  11.318
15726SOL    HW247203   2.746   5.840  11.338
15727SOL     OW47204   3.224   6.730  11.717
15727SOL    HW147205   3.307   6.701  11.669
15727SOL    HW247206   3.175   6.797  11.661
15728SOL     OW47207   2.412   5.782  12.057
15728SOL    HW147208   2.407   5.777  12.157
15728SOL    HW247209   2.414   5.878  12.028
15729SOL     OW47210   2.870   7.042  11.649
15729SOL    HW147211   2.824   7.114  11.597
15729SOL    HW247212   2.866   7.062  11.747
15730SOL     OW47213   2.213   7.387  12.025
15730SOL    HW147214   2.263   7.301  12.031
15730SOL    HW247215   2.278   7.464  12.022
15731SOL     OW47216   3.657   6.652  12.045
15731SOL    HW147217   3.595   6.637  11.969
15731SOL    HW247218   3.605   6.663  12.130
15732SOL     OW47219   3.089   7.136  12.678
15732SOL    HW147220   3.095   7.059  12.742
15732SOL    HW247221   3.037   7.110  12.598
15733SOL     OW47222   2.183   6.529  11.414
15733SOL    HW147223   2.265   6.568  11.372
15733SOL    HW247224   2.156   6.447  11.365
15734SOL     OW47225   3.320   6.321  11.900
15734SOL    HW147226   3.315   6.256  11.975
15734SOL    HW247227   3.400   6.380  11.913
15735SOL     OW47228   2.973   7.362  11.409
15735SOL    HW147229   2.913   7.300  11.459
15735SOL    HW247230   3.004   7.318  11.324
15736SOL     OW47231   2.064   5.871  12.670
15736SOL    HW147232   1.984   5.931  12.657
15736SOL    HW247233   2.054   5.822  12.756
15737SOL     OW47234   3.494   6.963  11.253
15737SOL    HW147235   3.462   7.057  11.243
15737SOL    HW247236   3.418   6.900  11.241
15738SOL     OW47237   2.326   7.329  11.495
15738SOL    HW147238   2.359   7.368  11.581
15738SOL    HW247239   2.402   7.322  11.430
15739SOL     OW47240   3.262   5.693  11.598
15739SOL    HW147241   3.238   5.656  11.508
15739SOL    HW247242   3.361   5.709  11.602
15740SOL     OW47243   2.111   7.371  12.413
15740SOL    HW147244   2.168   7.306  12.463
15740SOL    HW247245   2.095   7.338  12.320
15741SOL     OW47246   2.802   7.284  12.076
15741SOL    HW147247   2.882   7.227  12.097
15741SOL    HW247248   2.753   7.244  11.999
15742SOL     OW47249   2.244   6.286  11.652
15742SOL    HW147250   2.289   6.196  11.649
15742SOL    HW247251   2.150   6.275  11.685
15743SOL     OW47252   2.476   5.708  11.289
15743SOL    HW147253   2.574   5.686  11.296
15743SOL    HW247254   2.445   5.691  11.196
15744SOL     OW47255   2.750   7.100  12.367
15744SOL    HW147256   2.727   7.075  12.273
15744SOL    HW247257   2.811   7.031  12.406
15745SOL     OW47258   3.213   6.176  12.605
15745SOL    HW147259   3.241   6.133  12.690
15745SOL    HW247260   3.238   6.272  12.606
15746SOL     OW47261   2.665   6.988  12.096
15746SOL    HW147262   2.755   7.002  12.054
15746SOL    HW247263   2.594   6.990  12.025
15747SOL     OW47264   2.784   6.089  12.071
15747SOL    HW147265   2.759   6.080  11.975
15747SOL    HW247266   2.832   6.007  12.102
15748SOL     OW47267   2.401   5.650  11.684
15748SOL    HW147268   2.320   5.651  11.742
15748SOL    HW247269   2.404   5.733  11.629
15749SOL     OW47270   3.296   6.774  11.213
15749SOL    HW147271   3.328   6.698  11.270
15749SOL    HW247272   3.204   6.801  11.243
15750SOL     OW47273   2.159   5.621  11.343
15750SOL    HW147274   2.208   5.705  11.322
15750SOL    HW247275   2.221   5.556  11.388
15751SOL     OW47276   2.797   5.822  11.652
15751SOL    HW147277   2.749   5.863  11.574
15751SOL    HW247278   2.896   5.820  11.633
15752SOL     OW47279   2.938   6.269  12.636
15752SOL    HW147280   2.858   6.208  12.639
15752SOL    HW247281   3.019   6.216  12.612
15753SOL     OW47282   3.089   7.156  11.965
15753SOL    HW147283   3.110   7.230  11.900
15753SOL    HW247284   3.157   7.156  12.038
15754SOL     OW47285   2.321   6.738  11.913
15754SOL    HW147286   2.250   6.711  11.978
15754SOL    HW247287   2.295   6.710  11.820
15755SOL     OW47288   3.133   7.383  11.763
15755SOL    HW147289   3.177   7.447  11.699
15755SOL    HW247290   3.083   7.435  11.833
15756SOL     OW47291   2.894   6.135  11.188
15756SOL    HW147292   2.853   6.217  11.149
15756SOL    HW247293   2.958   6.161  11.261
15757SOL     OW47294   1.940   6.142  12.558
15757SOL    HW147295   2.032   6.141  12.517
15757SOL    HW247296   1.934   6.216  12.625
15758SOL     OW47297   2.423   5.808  12.319
15758SOL    HW147298   2.461   5.724  12.356
15758SOL    HW247299   2.335   5.827  12.363
15759SOL     OW47300   2.728   6.040  11.814
15759SOL    HW147301   2.696   6.112  11.752
15759SOL    HW247302   2.752   5.959  11.761
15760SOL     OW47303   2.879   5.625  11.925
15760SOL    HW147304   2.807   5.630  11.856
15760SOL    HW247305   2.855   5.556  11.994
15761SOL     OW47306   3.291   6.759  12.039
15761SOL    HW147307   3.236   6.675  12.032
15761SOL    HW247308   3.317   6.788  11.947
15762SOL     OW47309   3.328   6.176  12.164
15762SOL    HW147310   3.298   6.081  12.171
15762SOL    HW247311   3.401   6.192  12.230
15763SOL     OW47312   3.719   6.419  11.549
15763SOL    HW147313   3.761   6.355  11.613
15763SOL    HW247314   3.681   6.368  11.471
15764SOL     OW47315   2.350   6.971  11.346
15764SOL    HW147316   2.263   6.956  11.393
15764SOL    HW247317   2.333   6.997  11.251
15765SOL     OW47318   3.526   6.866  11.829
15765SOL    HW147319   3.625   6.874  11.843
15765SOL    HW247320   3.481   6.950  11.860
15766SOL     OW47321   3.252   6.161  11.250
15766SOL    HW147322   3.198   6.140  11.331
15766SOL    HW247323   3.343   6.120  11.259
15767SOL     OW47324   2.389   5.842  11.500
15767SOL    HW147325   2.416   5.783  11.425
15767SOL    HW247326   2.389   5.937  11.469
15768SOL     OW47327   3.616   6.809  12.760
15768SOL    HW147328   3.707   6.770  12.747
15768SOL    HW247329   3.624   6.905  12.784
15769SOL     OW47330   2.926   6.933  12.512
15769SOL    HW147331   2.846   6.910  12.567
15769SOL    HW247332   3.009   6.907  12.561
15770SOL     OW47333   2.973   6.781  12.272
15770SOL    HW147334   2.933   6.825  12.353
15770SOL    HW247335   2.932   6.818  12.189
15771SOL     OW47336   3.500   6.685  12.251
15771SOL    HW147337   3.505   6.766  12.310
15771SOL    HW247338   3.414   6.687  12.200
15772SOL     OW47339   2.777   5.675  12.574
15772SOL    HW147340   2.802   5.655  12.479
15772SOL    HW247341   2.849   5.731  12.616
15773SOL     OW47342   2.567   6.636  11.540
15773SOL    HW147343   2.553   6.643  11.639
15773SOL    HW247344   2.651   6.585  11.522
15774SOL     OW47345   2.272   6.399  12.423
15774SOL    HW147346   2.358   6.411  12.473
15774SOL    HW247347   2.230   6.312  12.450
15775SOL     OW47348   3.136   5.972  12.434
15775SOL    HW147349   3.157   6.046  12.498
15775SOL    HW247350   3.047   5.989  12.391
15776SOL     OW47351   1.926   7.150  12.503
15776SOL    HW147352   1.880   7.232  12.469
15776SOL    HW247353   2.024   7.169  12.512
15777SOL     OW47354   2.229   6.686  11.673
15777SOL    HW147355   2.222   6.769  11.617
15777SOL    HW247356   2.233   6.606  11.613
15778SOL     OW47357   2.428   6.123  12.037
15778SOL    HW147358   2.440   6.189  11.963
15778SOL    HW247359   2.474   6.157  12.120
15779SOL     OW47360   3.114   6.934  11.560
15779SOL    HW147361   3.164   7.011  11.600
15779SOL    HW247362   3.019   6.936  11.592
15780SOL     OW47363   3.134   7.031  12.314
15780SOL    HW147364   3.181   7.044  12.401
15780SOL    HW247365   3.068   6.957  12.323
15781SOL     OW47366   3.444   6.225  11.644
15781SOL    HW147367   3.413   6.286  11.717
15781SOL    HW247368   3.494   6.277  11.575
15782SOL     OW47369   2.216   7.096  12.501
15782SOL    HW147370   2.195   7.052  12.414
15782SOL    HW247371   2.313   7.122  12.504
15783SOL     OW47372   2.264   6.337  12.770
15783SOL    HW147373   2.332   6.392  12.723
15783SOL    HW247374   2.304   6.249  12.797
15784SOL     OW47375   3.449   6.365  12.842
15784SOL    HW147376   3.357   6.403  12.837
15784SOL    HW247377   3.509   6.412  12.777
15785SOL     OW47378   2.435   6.456  12.201
15785SOL    HW147379   2.479   6.545  12.192
15785SOL    HW247380   2.372   6.456  12.278
15786SOL     OW47381   3.222   6.448  12.217
15786SOL    HW147382   3.147   6.448  12.151
15786SOL    HW247383   3.259   6.356  12.226
15787SOL     OW47384   3.071   6.111  11.447
15787SOL    HW147385   3.084   6.027  11.501
15787SOL    HW247386   3.042   6.185  11.507
15788SOL     OW47387   2.169   5.799  12.403
15788SOL    HW147388   2.146   5.836  12.493
15788SOL    HW247389   2.139   5.704  12.397
15789SOL     OW47390   1.899   6.896  12.454
15789SOL    HW147391   1.952   6.847  12.522
15789SOL    HW247392   1.921   6.994  12.459
15790SOL     OW47393   2.594   6.220  12.236
15790SOL    HW147394   2.653   6.194  12.160
15790SOL    HW247395   2.566   6.316  12.225
15791SOL     OW47396   2.169   5.649  11.790
15791SOL    HW147397   2.158   5.743  11.823
15791SOL    HW247398   2.164   5.586  11.867
15792SOL     OW47399   3.484   5.953  11.546
15792SOL    HW147400   3.486   5.877  11.610
15792SOL    HW247401   3.436   6.030  11.586
15793SOL     OW47402   2.885   6.352  12.138
15793SOL    HW147403   2.900   6.373  12.234
15793SOL    HW247404   2.855   6.257  12.129
15794SOL     OW47405   3.402   5.860  11.297
15794SOL    HW147406   3.341   5.785  11.320
15794SOL    HW247407   3.424   5.912  11.380
15795SOL     OW47408   3.165   6.424  11.214
15795SOL    HW147409   3.199   6.331  11.229
15795SOL    HW247410   3.183   6.451  11.119
15796SOL     OW47411   2.930   6.919  12.021
15796SOL    HW147412   2.937   6.835  11.966
15796SOL    HW247413   2.992   6.988  11.985
15797SOL     OW47414   2.181   6.396  12.121
15797SOL    HW147415   2.274   6.432  12.126
15797SOL    HW247416   2.175   6.311  12.173
15798SOL     OW47417   2.201   6.095  12.178
15798SOL    HW147418   2.149   6.012  12.161
15798SOL    HW247419   2.278   6.100  12.114
15799SOL     OW47420   3.022   5.793  12.649
15799SOL    HW147421   3.022   5.857  12.726
15799SOL    HW247422   3.050   5.841  12.566
15800SOL     OW47423   1.870   6.912  11.372
15800SOL    HW147424   1.777   6.933  11.341
15800SOL    HW247425   1.880   6.813  11.385
15801SOL     OW47426   1.950   7.387  12.099
15801SOL    HW147427   1.908   7.301  12.072
15801SOL    HW247428   2.044   7.390  12.065
15802SOL     OW47429   2.366   7.154  12.082
15802SOL    HW147430   2.432   7.228  12.091
15802SOL    HW247431   2.410   7.075  12.040
15803SOL     OW47432   2.864   6.382  12.410
15803SOL    HW147433   2.905   6.350  12.496
15803SOL    HW247434   2.768   6.355  12.407
15804SOL     OW47435   1.902   6.130  12.286
15804SOL    HW147436   1.987   6.097  12.245
15804SOL    HW247437   1.915   6.145  12.384
15805SOL     OW47438   2.677   6.158  11.497
15805SOL    HW147439   2.684   6.069  11.451
15805SOL    HW247440   2.583   6.192  11.489
15806SOL     OW47441   3.519   6.190  12.378
15806SOL    HW147442   3.481   6.121  12.440
15806SOL    HW247443   3.601   6.154  12.334
15807SOL     OW47444   2.114   7.150  12.916
15807SOL    HW147445   2.084   7.207  12.992
15807SOL    HW247446   2.107   7.053  12.942
15808SOL     OW47447   2.533   6.050  12.441
15808SOL    HW147448   2.499   5.961  12.411
15808SOL    HW247449   2.559   6.104  12.361
15809SOL     OW47450   2.792   7.264  12.637
15809SOL    HW147451   2.768   7.246  12.542
15809SOL    HW247452   2.822   7.358  12.647
15810SOL     OW47453   2.335   6.086  11.363
15810SOL    HW147454   2.396   6.166  11.367
15810SOL    HW247455   2.240   6.117  11.370
15811SOL     OW47456   2.021   6.723  12.638
15811SOL    HW147457   2.043   6.662  12.714
15811SOL    HW247458   2.031   6.674  12.552
15812SOL     OW47459   3.209   6.645  12.406
15812SOL    HW147460   3.233   6.582  12.332
15812SOL    HW247461   3.119   6.685  12.388
15813SOL     OW47462   3.164   6.441  11.481
15813SOL    HW147463   3.078   6.410  11.523
15813SOL    HW247464   3.160   6.427  11.382
15814SOL     OW47465   3.621   7.333  12.326
15814SOL    HW147466   3.682   7.363  12.253
15814SOL    HW247467   3.583   7.244  12.304
15815SOL     OW47468   3.114   7.317  12.300
15815SOL    HW147469   3.198   7.322  12.246
15815SOL    HW247470   3.091   7.221  12.318
15816SOL     OW47471   1.945   6.844  12.194
15816SOL    HW147472   1.940   6.843  12.294
15816SOL    HW247473   1.862   6.803  12.156
15817SOL     OW47474   3.588   5.721  11.695
15817SOL    HW147475   3.661   5.704  11.628
15817SOL    HW247476   3.557   5.634  11.733
15818SOL     OW47477   3.250   7.159  11.649
15818SOL    HW147478   3.317   7.171  11.575
15818SOL    HW247479   3.210   7.248  11.672
15819SOL     OW47480   3.142   6.513  11.844
15819SOL    HW147481   3.202   6.432  11.846
15819SOL    HW247482   3.182   6.582  11.784
15820SOL     OW47483   2.692   6.859  12.594
15820SOL    HW147484   2.687   6.892  12.689
15820SOL    HW247485   2.606   6.878  12.548
15821SOL     OW47486   2.534   7.202  11.326
15821SOL    HW147487   2.543   7.212  11.227
15821SOL    HW247488   2.494   7.113  11.347
15822SOL     OW47489   3.512   7.306  12.566
15822SOL    HW147490   3.565   7.316  12.482
15822SOL    HW247491   3.485   7.396  12.600
15823SOL     OW47492   3.703   5.761  12.135
15823SOL    HW147493   3.742   5.676  12.099
15823SOL    HW247494   3.605   5.763  12.116
15824SOL     OW47495   2.125   5.912  11.892
15824SOL    HW147496   2.046   5.963  11.858
15824SOL    HW247497   2.116   5.897  11.990
15825SOL     OW47498   3.056   7.198  11.203
15825SOL    HW147499   3.062   7.105  11.240
15825SOL    HW247500   2.997   7.198  11.123
15826SOL     OW47501   2.684   6.588  12.544
15826SOL    HW147502   2.724   6.587  12.452
15826SOL    HW247503   2.694   6.680  12.584
15827SOL     OW47504   2.778   6.496  11.463
15827SOL    HW147505   2.841   6.534  11.395
15827SOL    HW247506   2.818   6.413  11.502
15828SOL     OW47507   3.366   7.193  11.216
15828SOL    HW147508   3.274   7.230  11.223
15828SOL    HW247509   3.404   7.213  11.126
15829SOL     OW47510   2.234   6.874  12.662
15829SOL    HW147511   2.221   6.967  12.628
15829SOL    HW247512   2.150   6.822  12.649
15830SOL     OW47513   3.476   6.878  12.461
15830SOL    HW147514   3.536   6.881  12.541
15830SOL    HW247515   3.401   6.942  12.474
15831SOL     OW47516   2.901   6.684  11.868
15831SOL    HW147517   2.831   6.637  11.922
15831SOL    HW247518   2.960   6.616  11.825
15832SOL     OW47519   2.876   5.822  12.143
15832SOL    HW147520   2.868   5.786  12.050
15832SOL    HW247521   2.874   5.746  12.208
15833SOL     OW47522   2.452   7.073  11.663
15833SOL    HW147523   2.494   7.015  11.593
15833SOL    HW247524   2.408   7.152  11.619
15834SOL     OW47525   3.571   5.971  12.553
15834SOL    HW147526   3.644   6.040  12.557
15834SOL    HW247527   3.599   5.896  12.494
15835SOL     OW47528   2.117   6.934  11.462
15835SOL    HW147529   2.021   6.935  11.435
15835SOL    HW247530   2.129   6.987  11.546
15836SOL     OW47531   1.967   6.599  12.898
15836SOL    HW147532   1.890   6.566  12.952
15836SOL    HW247533   2.052   6.569  12.940
15837SOL     OW47534   2.534   5.789  12.661
15837SOL    HW147535   2.624   5.773  12.621
15837SOL    HW247536   2.542   5.794  12.760
15838SOL     OW47537   1.937   5.931  11.205
15838SOL    HW147538   1.845   5.903  11.176
15838SOL    HW247539   1.968   6.008  11.149
15839SOL     OW47540   3.302   6.442  12.570
15839SOL    HW147541   3.245   6.494  12.507
15839SOL    HW247542   3.398   6.454  12.546
15840SOL     OW47543   1.934   5.752  11.490
15840SOL    HW147544   1.917   5.835  11.436
15840SOL    HW247545   2.024   5.715  11.468
15841SOL     OW47546   3.045   6.921  11.291
15841SOL    HW147547   2.946   6.910  11.293
15841SOL    HW247548   3.079   6.936  11.384
15842SOL     OW47549   2.475   6.428  12.603
15842SOL    HW147550   2.531   6.509  12.586
15842SOL    HW247551   2.534   6.348  12.606
15843SOL     OW47552   3.355   7.353  12.131
15843SOL    HW147553   3.388   7.417  12.062
15843SOL    HW247554   3.421   7.347  12.206
15844SOL     OW47555   2.578   6.151  12.880
15844SOL    HW147556   2.597   6.216  12.954
15844SOL    HW247557   2.638   6.071  12.889
15845SOL     OW47558   2.252   7.327  12.732
15845SOL    HW147559   2.161   7.368  12.730
15845SOL    HW247560   2.245   7.233  12.764
15846SOL     OW47561   3.536   6.469  12.426
15846SOL    HW147562   3.509   6.380  12.389
15846SOL    HW247563   3.537   6.537  12.353
15847SOL     OW47564   3.087   5.911  11.621
15847SOL    HW147565   3.152   5.837  11.610
15847SOL    HW247566   3.107   5.961  11.705
15848SOL     OW47567   2.456   6.331  11.824
15848SOL    HW147568   2.506   6.416  11.805
15848SOL    HW247569   2.368   6.333  11.776
15849SOL     OW47570   3.639   5.928  12.814
15849SOL    HW147571   3.622   5.959  12.720
15849SOL    HW247572   3.555   5.891  12.852
15850SOL     OW47573   3.592   6.520  12.689
15850SOL    HW147574   3.630   6.611  12.704
15850SOL    HW247575   3.584   6.503  12.590
15851SOL     OW47576   2.721   6.960  11.188
15851SOL    HW147577   2.675   6.975  11.276
15851SOL    HW247578   2.765   7.045  11.158
15852SOL     OW47579   2.523   7.376  12.125
15852SOL    HW147580   2.477   7.464  12.112
15852SOL    HW247581   2.622   7.388  12.118
15853SOL     OW47582   2.721   6.542  12.033
15853SOL    HW147583   2.775   6.473  12.081
15853SOL    HW247584   2.689   6.611  12.099
15854SOL     OW47585   2.945   6.570  11.259
15854SOL    HW147586   2.922   6.623  11.177
15854SOL    HW247587   3.026   6.514  11.240
15855SOL     OW47588   3.723   7.155  12.023
15855SOL    HW147589   3.652   7.143  11.953
15855SOL    HW247590   3.724   7.076  12.083
15856SOL     OW47591   1.941   6.826  11.825
15856SOL    HW147592   1.940   6.779  11.913
15856SOL    HW247593   2.023   6.798  11.774
15857SOL     OW47594   2.534   6.977  12.796
15857SOL    HW147595   2.456   6.927  12.834
15857SOL    HW247596   2.531   7.072  12.827
15858SOL     OW47597   3.686   5.778  12.399
15858SOL    HW147598   3.682   5.688  12.443
15858SOL    HW247599   3.689   5.767  12.300
15859SOL     OW47600   2.290   6.010  11.692
15859SOL    HW147601   2.320   5.938  11.630
15859SOL    HW247602   2.251   5.970  11.775
15860SOL     OW47603   3.567   7.073  12.276
15860SOL    HW147604   3.474   7.048  12.249
15860SOL    HW247605   3.593   7.023  12.358
15861SOL     OW47606   2.179   6.133  12.452
15861SOL    HW147607   2.217   6.074  12.524
15861SOL    HW247608   2.219   6.107  12.364
15862SOL     OW47609   2.674   7.172  11.859
15862SOL    HW147610   2.706   7.182  11.765
15862SOL    HW247611   2.595   7.110  11.861
15863SOL     OW47612   3.286   5.800  12.284
15863SOL    HW147613   3.338   5.735  12.339
15863SOL    HW247614   3.237   5.863  12.345
15864SOL     OW47615   2.863   5.620  12.326
15864SOL    HW147616   2.800   5.548  12.295
15864SOL    HW247617   2.956   5.584  12.326
15865SOL     OW47618   2.632   6.916  11.473
15865SOL    HW147619   2.586   6.829  11.490
15865SOL    HW247620   2.723   6.913  11.514
15866SOL     OW47621   2.480   7.153  12.456
15866SOL    HW147622   2.475   7.235  12.513
15866SOL    HW247623   2.569   7.150  12.411
15867SOL     OW47624   3.214   5.638  11.340
15867SOL    HW147625   3.249   5.597  11.256
15867SOL    HW247626   3.124   5.600  11.360
15868SOL     OW47627   3.162   6.039  11.863
15868SOL    HW147628   3.103   6.119  11.867
15868SOL    HW247629   3.177   6.004  11.956
15869SOL     OW47630   3.455   5.807  12.054
15869SOL    HW147631   3.371   5.806  12.108
15869SOL    HW247632   3.457   5.890  11.998
15870SOL     OW47633   1.901   6.663  11.472
15870SOL    HW147634   2.000   6.652  11.463
15870SOL    HW247635   1.861   6.577  11.504
15871SOL     OW47636   2.737   7.232  11.509
15871SOL    HW147637   2.660   7.197  11.455
15871SOL    HW247638   2.705   7.303  11.571
15872SOL     OW47639   2.092   8.076   0.113
15872SOL    HW147640   1.999   8.074   0.150
15872SOL    HW247641   2.093   8.037   0.021
15873SOL     OW47642   2.087   7.723   0.996
15873SOL    HW147643   2.122   7.706   1.088
15873SOL    HW247644   1.999   7.678   0.984
15874SOL     OW47645   1.881   7.816   0.647
15874SOL    HW147646   1.799   7.859   0.686
15874SOL    HW247647   1.853   7.743   0.584
15875SOL     OW47648   2.431   8.723   1.165
15875SOL    HW147649   2.338   8.716   1.128
15875SOL    HW247650   2.442   8.812   1.209
15876SOL     OW47651   3.417   8.959   0.703
15876SOL    HW147652   3.360   8.943   0.784
15876SOL    HW247653   3.358   8.969   0.623
15877SOL     OW47654   2.997   8.151   0.717
15877SOL    HW147655   3.054   8.229   0.692
15877SOL    HW247656   2.937   8.177   0.793
15878SOL     OW47657   3.617   8.055   0.231
15878SOL    HW147658   3.605   8.042   0.132
15878SOL    HW247659   3.587   7.974   0.280
15879SOL     OW47660   2.630   8.592   1.023
15879SOL    HW147661   2.552   8.609   1.083
15879SOL    HW247662   2.664   8.679   0.987
15880SOL     OW47663   2.712   8.246   1.823
15880SOL    HW147664   2.708   8.322   1.888
15880SOL    HW247665   2.734   8.282   1.732
15881SOL     OW47666   2.547   8.460   0.665
15881SOL    HW147667   2.616   8.444   0.735
15881SOL    HW247668   2.474   8.517   0.703
15882SOL     OW47669   2.548   8.609   1.803
15882SOL    HW147670   2.608   8.688   1.817
15882SOL    HW247671   2.462   8.640   1.762
15883SOL     OW47672   2.197   8.883   1.061
15883SOL    HW147673   2.119   8.852   1.008
15883SOL    HW247674   2.255   8.941   1.004
15884SOL     OW47675   3.322   8.953   1.339
15884SOL    HW147676   3.346   9.047   1.365
15884SOL    HW247677   3.306   8.899   1.421
15885SOL     OW47678   2.300   7.840   1.499
15885SOL    HW147679   2.382   7.784   1.508
15885SOL    HW247680   2.219   7.782   1.503
15886SOL     OW47681   3.465   7.895   0.737
15886SOL    HW147682   3.391   7.941   0.687
15886SOL    HW247683   3.516   7.963   0.790
15887SOL     OW47684   2.093   9.161   0.483
15887SOL    HW147685   2.127   9.238   0.537
15887SOL    HW247686   2.137   9.161   0.393
15888SOL     OW47687   2.989   8.789   1.690
15888SOL    HW147688   3.036   8.789   1.778
15888SOL    HW247689   2.941   8.702   1.679
15889SOL     OW47690   2.092   8.882   0.538
15889SOL    HW147691   2.066   8.978   0.538
15889SOL    HW247692   2.021   8.828   0.583
15890SOL     OW47693   2.102   8.539   0.886
15890SOL    HW147694   2.116   8.455   0.938
15890SOL    HW247695   2.047   8.603   0.941
15891SOL     OW47696   2.482   9.234   1.439
15891SOL    HW147697   2.390   9.217   1.474
15891SOL    HW247698   2.510   9.326   1.465
15892SOL     OW47699   2.468   8.412   0.123
15892SOL    HW147700   2.475   8.496   0.069
15892SOL    HW247701   2.514   8.425   0.211
15893SOL     OW47702   3.456   7.562   1.480
15893SOL    HW147703   3.438   7.629   1.408
15893SOL    HW247704   3.453   7.608   1.569
15894SOL     OW47705   1.984   8.091   0.563
15894SOL    HW147706   1.939   8.003   0.580
15894SOL    HW247707   1.983   8.145   0.647
15895SOL     OW47708   3.704   9.215   0.359
15895SOL    HW147709   3.758   9.186   0.439
15895SOL    HW247710   3.734   9.305   0.330
15896SOL     OW47711   1.889   9.044   0.117
15896SOL    HW147712   1.870   8.948   0.138
15896SOL    HW247713   1.856   9.102   0.192
15897SOL     OW47714   3.551   8.370   0.612
15897SOL    HW147715   3.646   8.341   0.620
15897SOL    HW247716   3.543   8.435   0.537
15898SOL     OW47717   3.503   8.556   0.432
15898SOL    HW147718   3.589   8.558   0.380
15898SOL    HW247719   3.517   8.603   0.520
15899SOL     OW47720   1.975   8.185   1.597
15899SOL    HW147721   2.063   8.172   1.642
15899SOL    HW247722   1.962   8.282   1.575
15900SOL     OW47723   2.475   8.813   0.726
15900SOL    HW147724   2.426   8.726   0.735
15900SOL    HW247725   2.452   8.856   0.639
15901SOL     OW47726   3.155   8.676   1.423
15901SOL    HW147727   3.192   8.603   1.365
15901SOL    HW247728   3.207   8.681   1.508
15902SOL     OW47729   2.671   7.452   0.502
15902SOL    HW147730   2.711   7.543   0.493
15902SOL    HW247731   2.571   7.460   0.508
15903SOL     OW47732   2.059   8.424   1.264
15903SOL    HW147733   2.148   8.379   1.250
15903SOL    HW247734   1.986   8.359   1.245
15904SOL     OW47735   3.387   8.447   0.190
15904SOL    HW147736   3.324   8.371   0.203
15904SOL    HW247737   3.435   8.465   0.276
15905SOL     OW47738   3.049   9.240   1.616
15905SOL    HW147739   3.073   9.300   1.540
15905SOL    HW247740   3.056   9.145   1.586
15906SOL     OW47741   2.179   7.699   1.801
15906SOL    HW147742   2.250   7.770   1.807
15906SOL    HW247743   2.091   7.738   1.829
15907SOL     OW47744   3.328   8.865   0.953
15907SOL    HW147745   3.269   8.871   1.033
15907SOL    HW247746   3.313   8.777   0.907
15908SOL     OW47747   3.529   9.162   0.572
15908SOL    HW147748   3.488   9.139   0.484
15908SOL    HW247749   3.511   9.088   0.637
15909SOL     OW47750   2.460   8.177   0.270
15909SOL    HW147751   2.484   8.246   0.202
15909SOL    HW247752   2.382   8.210   0.324
15910SOL     OW47753   3.143   7.793   0.944
15910SOL    HW147754   3.057   7.743   0.931
15910SOL    HW247755   3.205   7.739   1.000
15911SOL     OW47756   3.438   9.110   0.307
15911SOL    HW147757   3.527   9.156   0.310
15911SOL    HW247758   3.417   9.086   0.212
15912SOL     OW47759   2.669   8.053   1.465
15912SOL    HW147760   2.622   8.050   1.554
15912SOL    HW247761   2.618   7.998   1.399
15913SOL     OW47762   3.256   7.917   1.674
15913SOL    HW147763   3.236   7.960   1.762
15913SOL    HW247764   3.334   7.855   1.683
15914SOL     OW47765   2.835   8.338   1.572
15914SOL    HW147766   2.881   8.254   1.543
15914SOL    HW247767   2.779   8.372   1.497
15915SOL     OW47768   2.853   7.858   1.242
15915SOL    HW147769   2.776   7.892   1.296
15915SOL    HW247770   2.819   7.807   1.163
15916SOL     OW47771   2.903   8.149   0.429
15916SOL    HW147772   2.929   8.145   0.525
15916SOL    HW247773   2.818   8.098   0.415
15917SOL     OW47774   1.938   8.259   0.789
15917SOL    HW147775   2.037   8.247   0.798
15917SOL    HW247776   1.914   8.354   0.810
15918SOL     OW47777   1.992   9.269   1.571
15918SOL    HW147778   1.982   9.254   1.670
15918SOL    HW247779   1.906   9.305   1.535
15919SOL     OW47780   2.727   7.796   0.195
15919SOL    HW147781   2.786   7.859   0.146
15919SOL    HW247782   2.746   7.702   0.166
15920SOL     OW47783   3.581   8.033   1.831
15920SOL    HW147784   3.555   8.122   1.795
15920SOL    HW247785   3.579   7.965   1.758
15921SOL     OW47786   3.224   8.592   0.545
15921SOL    HW147787   3.307   8.563   0.497
15921SOL    HW247788   3.175   8.659   0.489
15922SOL     OW47789   2.412   7.644   0.885
15922SOL    HW147790   2.407   7.639   0.985
15922SOL    HW247791   2.414   7.740   0.856
15923SOL     OW47792   2.870   8.904   0.477
15923SOL    HW147793   2.824   8.976   0.425
15923SOL    HW247794   2.866   8.924   0.575
15924SOL     OW47795   2.213   9.249   0.853
15924SOL    HW147796   2.263   9.163   0.859
15924SOL    HW247797   2.278   9.326   0.850
15925SOL     OW47798   3.657   8.514   0.873
15925SOL    HW147799   3.595   8.499   0.797
15925SOL    HW247800   3.605   8.525   0.958
15926SOL     OW47801   3.089   8.998   1.506
15926SOL    HW147802   3.095   8.921   1.570
15926SOL    HW247803   3.037   8.972   1.426
15927SOL     OW47804   2.183   8.391   0.242
15927SOL    HW147805   2.265   8.430   0.200
15927SOL    HW247806   2.156   8.309   0.193
15928SOL     OW47807   3.320   8.183   0.728
15928SOL    HW147808   3.315   8.118   0.803
15928SOL    HW247809   3.400   8.242   0.741
15929SOL     OW47810   2.323   8.714   1.727
15929SOL    HW147811   2.273   8.715   1.641
15929SOL    HW247812   2.260   8.696   1.803
15930SOL     OW47813   2.973   9.224   0.237
15930SOL    HW147814   2.913   9.162   0.287
15930SOL    HW247815   3.004   9.180   0.152
15931SOL     OW47816   2.064   7.733   1.498
15931SOL    HW147817   1.984   7.793   1.485
15931SOL    HW247818   2.054   7.684   1.584
15932SOL     OW47819   3.494   8.825   0.081
15932SOL    HW147820   3.462   8.919   0.071
15932SOL    HW247821   3.418   8.762   0.069
15933SOL     OW47822   2.326   9.191   0.323
15933SOL    HW147823   2.359   9.230   0.409
15933SOL    HW247824   2.402   9.184   0.258
15934SOL     OW47825   3.262   7.555   0.426
15934SOL    HW147826   3.238   7.518   0.336
15934SOL    HW247827   3.361   7.571   0.430
15935SOL     OW47828   2.111   9.233   1.241
15935SOL    HW147829   2.168   9.168   1.291
15935SOL    HW247830   2.095   9.200   1.148
15936SOL     OW47831   2.802   9.146   0.904
15936SOL    HW147832   2.882   9.089   0.925
15936SOL    HW247833   2.753   9.106   0.827
15937SOL     OW47834   2.244   8.148   0.480
15937SOL    HW147835   2.289   8.058   0.477
15937SOL    HW247836   2.150   8.137   0.513
15938SOL     OW47837   3.409   7.670   1.729
15938SOL    HW147838   3.404   7.707   1.821
15938SOL    HW247839   3.337   7.601   1.717
15939SOL     OW47840   2.476   7.570   0.117
15939SOL    HW147841   2.574   7.548   0.124
15939SOL    HW247842   2.445   7.553   0.024
15940SOL     OW47843   2.643   7.712   1.749
15940SOL    HW147844   2.710   7.651   1.792
15940SOL    HW247845   2.570   7.731   1.814
15941SOL     OW47846   2.750   8.962   1.195
15941SOL    HW147847   2.727   8.937   1.101
15941SOL    HW247848   2.811   8.893   1.234
15942SOL     OW47849   3.213   8.038   1.433
15942SOL    HW147850   3.241   7.995   1.518
15942SOL    HW247851   3.238   8.134   1.434
15943SOL     OW47852   2.665   8.850   0.924
15943SOL    HW147853   2.755   8.864   0.882
15943SOL    HW247854   2.594   8.852   0.853
15944SOL     OW47855   2.784   7.951   0.899
15944SOL    HW147856   2.759   7.942   0.803
15944SOL    HW247857   2.832   7.869   0.930
15945SOL     OW47858   2.401   7.512   0.512
15945SOL    HW147859   2.320   7.513   0.570
15945SOL    HW247860   2.404   7.595   0.457
15946SOL     OW47861   3.296   8.636   0.041
15946SOL    HW147862   3.328   8.560   0.098
15946SOL    HW247863   3.204   8.663   0.071
15947SOL     OW47864   2.159   7.483   0.171
15947SOL    HW147865   2.208   7.567   0.150
15947SOL    HW247866   2.221   7.418   0.216
15948SOL     OW47867   2.797   7.684   0.480
15948SOL    HW147868   2.749   7.725   0.402
15948SOL    HW247869   2.896   7.682   0.461
15949SOL     OW47870   2.938   8.131   1.464
15949SOL    HW147871   2.858   8.070   1.467
15949SOL    HW247872   3.019   8.078   1.440
15950SOL     OW47873   3.089   9.018   0.793
15950SOL    HW147874   3.110   9.092   0.728
15950SOL    HW247875   3.157   9.018   0.866
15951SOL     OW47876   2.321   8.600   0.741
15951SOL    HW147877   2.250   8.573   0.806
15951SOL    HW247878   2.295   8.572   0.648
15952SOL     OW47879   3.133   9.245   0.591
15952SOL    HW147880   3.177   9.309   0.527
15952SOL    HW247881   3.083   9.297   0.661
15953SOL     OW47882   2.894   7.997   0.016
15953SOL    HW147883   2.853   8.079  -0.023
15953SOL    HW247884   2.958   8.023   0.089
15954SOL     OW47885   1.940   8.004   1.386
15954SOL    HW147886   2.032   8.003   1.345
15954SOL    HW247887   1.934   8.078   1.453
15955SOL     OW47888   2.423   7.670   1.147
15955SOL    HW147889   2.461   7.586   1.184
15955SOL    HW247890   2.335   7.689   1.191
15956SOL     OW47891   2.728   7.902   0.642
15956SOL    HW147892   2.696   7.974   0.580
15956SOL    HW247893   2.752   7.821   0.589
15957SOL     OW47894   2.879   7.487   0.753
15957SOL    HW147895   2.807   7.492   0.684
15957SOL    HW247896   2.855   7.418   0.822
15958SOL     OW47897   3.291   8.621   0.867
15958SOL    HW147898   3.236   8.537   0.860
15958SOL    HW247899   3.317   8.650   0.775
15959SOL     OW47900   3.328   8.038   0.992
15959SOL    HW147901   3.298   7.943   0.999
15959SOL    HW247902   3.401   8.054   1.058
15960SOL     OW47903   3.719   8.281   0.377
15960SOL    HW147904   3.761   8.217   0.441
15960SOL    HW247905   3.681   8.230   0.299
15961SOL     OW47906   2.350   8.833   0.174
15961SOL    HW147907   2.263   8.818   0.221
15961SOL    HW247908   2.333   8.859   0.079
15962SOL     OW47909   3.526   8.728   0.657
15962SOL    HW147910   3.625   8.736   0.671
15962SOL    HW247911   3.481   8.812   0.688
15963SOL     OW47912   3.252   8.023   0.078
15963SOL    HW147913   3.198   8.002   0.159
15963SOL    HW247914   3.343   7.982   0.087
15964SOL     OW47915   2.389   7.704   0.328
15964SOL    HW147916   2.416   7.645   0.253
15964SOL    HW247917   2.389   7.799   0.297
15965SOL     OW47918   3.616   8.671   1.588
15965SOL    HW147919   3.707   8.632   1.575
15965SOL    HW247920   3.624   8.767   1.612
15966SOL     OW47921   2.926   8.795   1.340
15966SOL    HW147922   2.846   8.772   1.395
15966SOL    HW247923   3.009   8.769   1.389
15967SOL     OW47924   3.454   9.077   1.625
15967SOL    HW147925   3.481   9.111   1.535
15967SOL    HW247926   3.533   9.039   1.671
15968SOL     OW47927   2.973   8.643   1.100
15968SOL    HW147928   2.933   8.687   1.181
15968SOL    HW247929   2.932   8.680   1.017
15969SOL     OW47930   3.500   8.547   1.079
15969SOL    HW147931   3.505   8.628   1.138
15969SOL    HW247932   3.414   8.549   1.028
15970SOL     OW47933   2.777   7.537   1.402
15970SOL    HW147934   2.802   7.517   1.307
15970SOL    HW247935   2.849   7.593   1.444
15971SOL     OW47936   2.842   8.564   1.719
15971SOL    HW147937   2.743   8.570   1.729
15971SOL    HW247938   2.865   8.484   1.663
15972SOL     OW47939   2.567   8.498   0.368
15972SOL    HW147940   2.553   8.505   0.467
15972SOL    HW247941   2.651   8.447   0.350
15973SOL     OW47942   2.272   8.261   1.251
15973SOL    HW147943   2.358   8.273   1.301
15973SOL    HW247944   2.230   8.174   1.278
15974SOL     OW47945   3.136   7.834   1.262
15974SOL    HW147946   3.157   7.908   1.326
15974SOL    HW247947   3.047   7.851   1.219
15975SOL     OW47948   1.926   9.012   1.331
15975SOL    HW147949   1.880   9.094   1.297
15975SOL    HW247950   2.024   9.031   1.340
15976SOL     OW47951   2.229   8.548   0.501
15976SOL    HW147952   2.222   8.631   0.445
15976SOL    HW247953   2.233   8.468   0.441
15977SOL     OW47954   2.428   7.985   0.865
15977SOL    HW147955   2.440   8.051   0.791
15977SOL    HW247956   2.474   8.019   0.948
15978SOL     OW47957   3.114   8.796   0.388
15978SOL    HW147958   3.164   8.873   0.428
15978SOL    HW247959   3.019   8.798   0.420
15979SOL     OW47960   3.134   8.893   1.142
15979SOL    HW147961   3.181   8.906   1.229
15979SOL    HW247962   3.068   8.819   1.151
15980SOL     OW47963   3.444   8.087   0.472
15980SOL    HW147964   3.413   8.148   0.545
15980SOL    HW247965   3.494   8.139   0.403
15981SOL     OW47966   2.216   8.958   1.329
15981SOL    HW147967   2.195   8.914   1.242
15981SOL    HW247968   2.313   8.984   1.332
15982SOL     OW47969   2.264   8.199   1.598
15982SOL    HW147970   2.332   8.254   1.551
15982SOL    HW247971   2.304   8.111   1.625
15983SOL     OW47972   3.449   8.227   1.670
15983SOL    HW147973   3.357   8.265   1.665
15983SOL    HW247974   3.509   8.274   1.605
15984SOL     OW47975   2.875   7.553   1.770
15984SOL    HW147976   2.881   7.638   1.718
15984SOL    HW247977   2.907   7.477   1.713
15985SOL     OW47978   2.366   7.498   1.740
15985SOL    HW147979   2.324   7.441   1.670
15985SOL    HW247980   2.300   7.567   1.772
15986SOL     OW47981   2.435   8.318   1.029
15986SOL    HW147982   2.479   8.407   1.020
15986SOL    HW247983   2.372   8.318   1.106
15987SOL     OW47984   3.222   8.310   1.045
15987SOL    HW147985   3.147   8.310   0.979
15987SOL    HW247986   3.259   8.218   1.054
15988SOL     OW47987   3.071   7.973   0.275
15988SOL    HW147988   3.084   7.889   0.329
15988SOL    HW247989   3.042   8.047   0.335
15989SOL     OW47990   2.169   7.661   1.231
15989SOL    HW147991   2.146   7.698   1.321
15989SOL    HW247992   2.139   7.566   1.225
15990SOL     OW47993   1.899   8.758   1.282
15990SOL    HW147994   1.952   8.709   1.350
15990SOL    HW247995   1.921   8.856   1.287
15991SOL     OW47996   2.594   8.082   1.064
15991SOL    HW147997   2.653   8.056   0.988
15991SOL    HW247998   2.566   8.178   1.053
15992SOL     OW47999   3.590   8.383   1.854
15992SOL    HW148000   3.544   8.376   1.765
15992SOL    HW248001   3.528   8.427   1.920
15993SOL     OW48002   2.169   7.511   0.618
15993SOL    HW148003   2.158   7.605   0.651
15993SOL    HW248004   2.164   7.448   0.695
15994SOL     OW48005   3.484   7.815   0.374
15994SOL    HW148006   3.486   7.739   0.438
15994SOL    HW248007   3.436   7.892   0.414
15995SOL     OW48008   2.885   8.214   0.966
15995SOL    HW148009   2.900   8.235   1.062
15995SOL    HW248010   2.855   8.119   0.957
15996SOL     OW48011   2.842   9.021   1.700
15996SOL    HW148012   2.822   9.065   1.612
15996SOL    HW248013   2.881   8.930   1.684
15997SOL     OW48014   3.721   8.966   1.605
15997SOL    HW148015   3.735   8.993   1.510
15997SOL    HW248016   3.804   8.988   1.658
15998SOL     OW48017   2.212   8.346   1.804
15998SOL    HW148018   2.288   8.390   1.852
15998SOL    HW248019   2.247   8.299   1.722
15999SOL     OW48020   3.402   7.722   0.125
15999SOL    HW148021   3.341   7.647   0.148
15999SOL    HW248022   3.424   7.774   0.208
16000SOL     OW48023   3.165   8.286   0.042
16000SOL    HW148024   3.199   8.193   0.057
16000SOL    HW248025   3.183   8.313  -0.053
16001SOL     OW48026   2.930   8.781   0.849
16001SOL    HW148027   2.937   8.697   0.794
16001SOL    HW248028   2.992   8.850   0.813
16002SOL     OW48029   2.181   8.258   0.949
16002SOL    HW148030   2.274   8.294   0.954
16002SOL    HW248031   2.175   8.173   1.001
16003SOL     OW48032   2.201   7.957   1.006
16003SOL    HW148033   2.149   7.874   0.989
16003SOL    HW248034   2.278   7.962   0.942
16004SOL     OW48035   3.000   7.828   1.678
16004SOL    HW148036   2.955   7.891   1.742
16004SOL    HW248037   3.093   7.859   1.661
16005SOL     OW48038   3.022   7.655   1.477
16005SOL    HW148039   3.022   7.719   1.554
16005SOL    HW248040   3.050   7.703   1.394
16006SOL     OW48041   1.870   8.774   0.200
16006SOL    HW148042   1.777   8.795   0.169
16006SOL    HW248043   1.880   8.675   0.213
16007SOL     OW48044   1.950   9.249   0.927
16007SOL    HW148045   1.908   9.163   0.900
16007SOL    HW248046   2.044   9.252   0.893
16008SOL     OW48047   2.366   9.016   0.910
16008SOL    HW148048   2.432   9.090   0.919
16008SOL    HW248049   2.410   8.937   0.868
16009SOL     OW48050   2.864   8.244   1.238
16009SOL    HW148051   2.905   8.212   1.324
16009SOL    HW248052   2.768   8.217   1.235
16010SOL     OW48053   1.902   7.992   1.114
16010SOL    HW148054   1.987   7.959   1.073
16010SOL    HW248055   1.915   8.007   1.212
16011SOL     OW48056   2.051   7.968   1.722
16011SOL    HW148057   2.110   7.928   1.652
16011SOL    HW248058   1.993   8.039   1.681
16012SOL     OW48059   3.231   8.398   1.660
16012SOL    HW148060   3.270   8.487   1.680
16012SOL    HW248061   3.241   8.378   1.563
16013SOL     OW48062   2.677   8.020   0.325
16013SOL    HW148063   2.684   7.931   0.279
16013SOL    HW248064   2.583   8.054   0.317
16014SOL     OW48065   3.519   8.052   1.206
16014SOL    HW148066   3.481   7.983   1.268
16014SOL    HW248067   3.601   8.016   1.162
16015SOL     OW48068   2.114   9.012   1.744
16015SOL    HW148069   2.084   9.069   1.820
16015SOL    HW248070   2.107   8.915   1.770
16016SOL     OW48071   2.533   7.912   1.269
16016SOL    HW148072   2.499   7.823   1.239
16016SOL    HW248073   2.559   7.966   1.189
16017SOL     OW48074   2.792   9.126   1.465
16017SOL    HW148075   2.768   9.108   1.370
16017SOL    HW248076   2.822   9.220   1.475
16018SOL     OW48077   2.335   7.948   0.191
16018SOL    HW148078   2.396   8.028   0.195
16018SOL    HW248079   2.240   7.979   0.198
16019SOL     OW48080   2.021   8.585   1.466
16019SOL    HW148081   2.043   8.524   1.542
16019SOL    HW248082   2.031   8.536   1.380
16020SOL     OW48083   3.209   8.507   1.234
16020SOL    HW148084   3.233   8.444   1.160
16020SOL    HW248085   3.119   8.547   1.216
16021SOL     OW48086   3.164   8.303   0.309
16021SOL    HW148087   3.078   8.272   0.351
16021SOL    HW248088   3.160   8.289   0.210
16022SOL     OW48089   3.621   9.195   1.154
16022SOL    HW148090   3.682   9.225   1.081
16022SOL    HW248091   3.583   9.106   1.132
16023SOL     OW48092   3.114   9.179   1.128
16023SOL    HW148093   3.198   9.184   1.074
16023SOL    HW248094   3.091   9.083   1.146
16024SOL     OW48095   1.945   8.706   1.022
16024SOL    HW148096   1.940   8.705   1.122
16024SOL    HW248097   1.862   8.665   0.984
16025SOL     OW48098   2.550   9.110   1.716
16025SOL    HW148099   2.494   9.191   1.725
16025SOL    HW248100   2.602   9.114   1.630
16026SOL     OW48101   2.765   7.534   0.133
16026SOL    HW148102   2.816   7.535   0.047
16026SOL    HW248103   2.821   7.492   0.204
16027SOL     OW48104   3.588   7.583   0.523
16027SOL    HW148105   3.661   7.566   0.456
16027SOL    HW248106   3.557   7.496   0.561
16028SOL     OW48107   3.250   9.021   0.477
16028SOL    HW148108   3.317   9.033   0.403
16028SOL    HW248109   3.210   9.110   0.500
16029SOL     OW48110   1.992   9.242   1.851
16029SOL    HW148111   1.951   9.168   1.904
16029SOL    HW248112   2.056   9.293   1.909
16030SOL     OW48113   3.142   8.375   0.672
16030SOL    HW148114   3.202   8.294   0.674
16030SOL    HW248115   3.182   8.444   0.612
16031SOL     OW48116   2.692   8.721   1.422
16031SOL    HW148117   2.687   8.754   1.517
16031SOL    HW248118   2.606   8.740   1.376
16032SOL     OW48119   2.534   9.064   0.154
16032SOL    HW148120   2.543   9.074   0.055
16032SOL    HW248121   2.494   8.975   0.175
16033SOL     OW48122   3.512   9.168   1.394
16033SOL    HW148123   3.565   9.178   1.310
16033SOL    HW248124   3.485   9.258   1.428
16034SOL     OW48125   3.703   7.623   0.963
16034SOL    HW148126   3.742   7.538   0.927
16034SOL    HW248127   3.605   7.625   0.944
16035SOL     OW48128   2.125   7.774   0.720
16035SOL    HW148129   2.046   7.825   0.686
16035SOL    HW248130   2.116   7.759   0.818
16036SOL     OW48131   3.056   9.060   0.031
16036SOL    HW148132   3.062   8.967   0.068
16036SOL    HW248133   2.997   9.060  -0.049
16037SOL     OW48134   2.684   8.450   1.372
16037SOL    HW148135   2.724   8.449   1.280
16037SOL    HW248136   2.694   8.542   1.412
16038SOL     OW48137   2.778   8.358   0.291
16038SOL    HW148138   2.841   8.396   0.223
16038SOL    HW248139   2.818   8.275   0.330
16039SOL     OW48140   3.366   9.055   0.044
16039SOL    HW148141   3.274   9.092   0.051
16039SOL    HW248142   3.404   9.075  -0.046
16040SOL     OW48143   2.234   8.736   1.490
16040SOL    HW148144   2.221   8.829   1.456
16040SOL    HW248145   2.150   8.684   1.477
16041SOL     OW48146   3.476   8.740   1.289
16041SOL    HW148147   3.536   8.743   1.369
16041SOL    HW248148   3.401   8.804   1.302
16042SOL     OW48149   2.901   8.546   0.696
16042SOL    HW148150   2.831   8.499   0.750
16042SOL    HW248151   2.960   8.478   0.653
16043SOL     OW48152   2.876   7.684   0.971
16043SOL    HW148153   2.868   7.648   0.878
16043SOL    HW248154   2.874   7.608   1.036
16044SOL     OW48155   2.452   8.935   0.491
16044SOL    HW148156   2.494   8.877   0.421
16044SOL    HW248157   2.408   9.014   0.447
16045SOL     OW48158   3.571   7.833   1.381
16045SOL    HW148159   3.644   7.902   1.385
16045SOL    HW248160   3.599   7.758   1.322
16046SOL     OW48161   2.117   8.796   0.290
16046SOL    HW148162   2.021   8.797   0.263
16046SOL    HW248163   2.129   8.849   0.374
16047SOL     OW48164   1.967   8.461   1.726
16047SOL    HW148165   1.890   8.428   1.780
16047SOL    HW248166   2.052   8.431   1.768
16048SOL     OW48167   2.534   7.651   1.489
16048SOL    HW148168   2.624   7.635   1.449
16048SOL    HW248169   2.542   7.656   1.588
16049SOL     OW48170   3.302   8.304   1.398
16049SOL    HW148171   3.245   8.356   1.335
16049SOL    HW248172   3.398   8.316   1.374
16050SOL     OW48173   1.934   7.614   0.318
16050SOL    HW148174   1.917   7.697   0.264
16050SOL    HW248175   2.024   7.577   0.296
16051SOL     OW48176   3.045   8.783   0.119
16051SOL    HW148177   2.946   8.772   0.121
16051SOL    HW248178   3.079   8.798   0.212
16052SOL     OW48179   2.475   8.290   1.431
16052SOL    HW148180   2.531   8.371   1.414
16052SOL    HW248181   2.534   8.210   1.434
16053SOL     OW48182   3.355   9.215   0.959
16053SOL    HW148183   3.388   9.279   0.890
16053SOL    HW248184   3.421   9.209   1.034
16054SOL     OW48185   2.578   8.013   1.708
16054SOL    HW148186   2.597   8.078   1.782
16054SOL    HW248187   2.638   7.933   1.717
16055SOL     OW48188   3.312   8.668   1.633
16055SOL    HW148189   3.303   8.658   1.732
16055SOL    HW248190   3.408   8.661   1.607
16056SOL     OW48191   2.252   9.189   1.560
16056SOL    HW148192   2.161   9.230   1.558
16056SOL    HW248193   2.245   9.095   1.592
16057SOL     OW48194   3.536   8.331   1.254
16057SOL    HW148195   3.509   8.242   1.217
16057SOL    HW248196   3.537   8.399   1.181
16058SOL     OW48197   3.087   7.773   0.449
16058SOL    HW148198   3.152   7.699   0.438
16058SOL    HW248199   3.107   7.823   0.533
16059SOL     OW48200   2.456   8.193   0.652
16059SOL    HW148201   2.506   8.278   0.633
16059SOL    HW248202   2.368   8.195   0.604
16060SOL     OW48203   3.639   7.790   1.642
16060SOL    HW148204   3.622   7.821   1.548
16060SOL    HW248205   3.555   7.753   1.680
16061SOL     OW48206   3.592   8.382   1.517
16061SOL    HW148207   3.630   8.473   1.532
16061SOL    HW248208   3.584   8.365   1.418
16062SOL     OW48209   2.721   8.822   0.016
16062SOL    HW148210   2.675   8.837   0.104
16062SOL    HW248211   2.765   8.907  -0.014
16063SOL     OW48212   2.523   9.238   0.953
16063SOL    HW148213   2.477   9.326   0.940
16063SOL    HW248214   2.622   9.250   0.946
16064SOL     OW48215   2.721   8.404   0.861
16064SOL    HW148216   2.775   8.335   0.909
16064SOL    HW248217   2.689   8.473   0.927
16065SOL     OW48218   2.945   8.432   0.087
16065SOL    HW148219   2.922   8.485   0.005
16065SOL    HW248220   3.026   8.376   0.068
16066SOL     OW48221   3.723   9.017   0.851
16066SOL    HW148222   3.652   9.005   0.781
16066SOL    HW248223   3.724   8.938   0.911
16067SOL     OW48224   2.083   8.762   1.844
16067SOL    HW148225   2.018   8.689   1.823
16067SOL    HW248226   2.087   8.776   1.942
16068SOL     OW48227   1.941   8.688   0.653
16068SOL    HW148228   1.940   8.641   0.741
16068SOL    HW248229   2.023   8.660   0.602
16069SOL     OW48230   2.534   8.839   1.624
16069SOL    HW148231   2.456   8.789   1.662
16069SOL    HW248232   2.531   8.934   1.655
16070SOL     OW48233   3.686   7.640   1.227
16070SOL    HW148234   3.682   7.550   1.271
16070SOL    HW248235   3.689   7.629   1.128
16071SOL     OW48236   2.290   7.872   0.520
16071SOL    HW148237   2.320   7.800   0.458
16071SOL    HW248238   2.251   7.832   0.603
16072SOL     OW48239   3.567   8.935   1.104
16072SOL    HW148240   3.474   8.910   1.077
16072SOL    HW248241   3.593   8.885   1.186
16073SOL     OW48242   2.179   7.995   1.280
16073SOL    HW148243   2.217   7.936   1.352
16073SOL    HW248244   2.219   7.969   1.192
16074SOL     OW48245   2.674   9.034   0.687
16074SOL    HW148246   2.706   9.044   0.593
16074SOL    HW248247   2.595   8.972   0.689
16075SOL     OW48248   3.286   7.662   1.112
16075SOL    HW148249   3.338   7.597   1.167
16075SOL    HW248250   3.237   7.725   1.173
16076SOL     OW48251   2.863   7.482   1.154
16076SOL    HW148252   2.800   7.410   1.123
16076SOL    HW248253   2.956   7.446   1.154
16077SOL     OW48254   2.632   8.778   0.301
16077SOL    HW148255   2.586   8.691   0.318
16077SOL    HW248256   2.723   8.775   0.342
16078SOL     OW48257   2.480   9.015   1.284
16078SOL    HW148258   2.475   9.097   1.341
16078SOL    HW248259   2.569   9.012   1.239
16079SOL     OW48260   3.214   7.500   0.168
16079SOL    HW148261   3.249   7.459   0.084
16079SOL    HW248262   3.124   7.462   0.188
16080SOL     OW48263   3.162   7.901   0.691
16080SOL    HW148264   3.103   7.981   0.695
16080SOL    HW248265   3.177   7.866   0.784
16081SOL     OW48266   3.455   7.669   0.882
16081SOL    HW148267   3.371   7.668   0.936
16081SOL    HW248268   3.457   7.752   0.826
16082SOL     OW48269   1.901   8.525   0.300
16082SOL    HW148270   2.000   8.514   0.291
16082SOL    HW248271   1.861   8.439   0.332
16083SOL     OW48272   2.737   9.094   0.337
16083SOL    HW148273   2.660   9.059   0.283
16083SOL    HW248274   2.705   9.165   0.399
16084SOL     OW48275   2.092   8.076   1.975
16084SOL    HW148276   1.999   8.074   2.012
16084SOL    HW248277   2.093   8.037   1.883
16085SOL     OW48278   2.087   7.723   2.858
16085SOL    HW148279   2.122   7.706   2.950
16085SOL    HW248280   1.999   7.678   2.846
16086SOL     OW48281   1.881   7.816   2.509
16086SOL    HW148282   1.799   7.859   2.548
16086SOL    HW248283   1.853   7.743   2.446
16087SOL     OW48284   2.431   8.723   3.027
16087SOL    HW148285   2.338   8.716   2.990
16087SOL    HW248286   2.442   8.812   3.071
16088SOL     OW48287   3.417   8.959   2.565
16088SOL    HW148288   3.360   8.943   2.646
16088SOL    HW248289   3.358   8.969   2.485
16089SOL     OW48290   2.997   8.151   2.579
16089SOL    HW148291   3.054   8.229   2.554
16089SOL    HW248292   2.937   8.177   2.655
16090SOL     OW48293   3.617   8.055   2.093
16090SOL    HW148294   3.605   8.042   1.994
16090SOL    HW248295   3.587   7.974   2.142
16091SOL     OW48296   2.630   8.592   2.885
16091SOL    HW148297   2.552   8.609   2.945
16091SOL    HW248298   2.664   8.679   2.849
16092SOL     OW48299   2.712   8.246   3.685
16092SOL    HW148300   2.708   8.322   3.750
16092SOL    HW248301   2.734   8.282   3.594
16093SOL     OW48302   2.547   8.460   2.527
16093SOL    HW148303   2.616   8.444   2.597
16093SOL    HW248304   2.474   8.517   2.565
16094SOL     OW48305   2.548   8.609   3.665
16094SOL    HW148306   2.608   8.688   3.679
16094SOL    HW248307   2.462   8.640   3.624
16095SOL     OW48308   2.197   8.883   2.923
16095SOL    HW148309   2.119   8.852   2.870
16095SOL    HW248310   2.255   8.941   2.866
16096SOL     OW48311   3.322   8.953   3.201
16096SOL    HW148312   3.346   9.047   3.227
16096SOL    HW248313   3.306   8.899   3.283
16097SOL     OW48314   2.300   7.840   3.361
16097SOL    HW148315   2.382   7.784   3.370
16097SOL    HW248316   2.219   7.782   3.365
16098SOL     OW48317   3.465   7.895   2.599
16098SOL    HW148318   3.391   7.941   2.549
16098SOL    HW248319   3.516   7.963   2.652
16099SOL     OW48320   2.093   9.161   2.345
16099SOL    HW148321   2.127   9.238   2.399
16099SOL    HW248322   2.137   9.161   2.255
16100SOL     OW48323   2.989   8.789   3.552
16100SOL    HW148324   3.036   8.789   3.640
16100SOL    HW248325   2.941   8.702   3.541
16101SOL     OW48326   2.092   8.882   2.400
16101SOL    HW148327   2.066   8.978   2.400
16101SOL    HW248328   2.021   8.828   2.445
16102SOL     OW48329   2.102   8.539   2.748
16102SOL    HW148330   2.116   8.455   2.800
16102SOL    HW248331   2.047   8.603   2.803
16103SOL     OW48332   2.482   9.234   3.301
16103SOL    HW148333   2.390   9.217   3.336
16103SOL    HW248334   2.510   9.326   3.327
16104SOL     OW48335   2.468   8.412   1.985
16104SOL    HW148336   2.475   8.496   1.931
16104SOL    HW248337   2.514   8.425   2.073
16105SOL     OW48338   3.456   7.562   3.342
16105SOL    HW148339   3.438   7.629   3.270
16105SOL    HW248340   3.453   7.608   3.431
16106SOL     OW48341   1.984   8.091   2.425
16106SOL    HW148342   1.939   8.003   2.442
16106SOL    HW248343   1.983   8.145   2.509
16107SOL     OW48344   3.704   9.215   2.221
16107SOL    HW148345   3.758   9.186   2.301
16107SOL    HW248346   3.734   9.305   2.192
16108SOL     OW48347   1.889   9.044   1.979
16108SOL    HW148348   1.870   8.948   2.000
16108SOL    HW248349   1.856   9.102   2.054
16109SOL     OW48350   3.551   8.370   2.474
16109SOL    HW148351   3.646   8.341   2.482
16109SOL    HW248352   3.543   8.435   2.399
16110SOL     OW48353   3.503   8.556   2.294
16110SOL    HW148354   3.589   8.558   2.242
16110SOL    HW248355   3.517   8.603   2.382
16111SOL     OW48356   1.975   8.185   3.459
16111SOL    HW148357   2.063   8.172   3.504
16111SOL    HW248358   1.962   8.282   3.437
16112SOL     OW48359   2.475   8.813   2.588
16112SOL    HW148360   2.426   8.726   2.597
16112SOL    HW248361   2.452   8.856   2.501
16113SOL     OW48362   3.155   8.676   3.285
16113SOL    HW148363   3.192   8.603   3.227
16113SOL    HW248364   3.207   8.681   3.370
16114SOL     OW48365   2.671   7.452   2.364
16114SOL    HW148366   2.711   7.543   2.355
16114SOL    HW248367   2.571   7.460   2.370
16115SOL     OW48368   2.059   8.424   3.126
16115SOL    HW148369   2.148   8.379   3.112
16115SOL    HW248370   1.986   8.359   3.107
16116SOL     OW48371   3.387   8.447   2.052
16116SOL    HW148372   3.324   8.371   2.065
16116SOL    HW248373   3.435   8.465   2.138
16117SOL     OW48374   3.049   9.240   3.478
16117SOL    HW148375   3.073   9.300   3.402
16117SOL    HW248376   3.056   9.145   3.448
16118SOL     OW48377   2.179   7.699   3.663
16118SOL    HW148378   2.250   7.770   3.669
16118SOL    HW248379   2.091   7.738   3.691
16119SOL     OW48380   3.328   8.865   2.815
16119SOL    HW148381   3.269   8.871   2.895
16119SOL    HW248382   3.313   8.777   2.769
16120SOL     OW48383   3.529   9.162   2.434
16120SOL    HW148384   3.488   9.139   2.346
16120SOL    HW248385   3.511   9.088   2.499
16121SOL     OW48386   2.460   8.177   2.132
16121SOL    HW148387   2.484   8.246   2.064
16121SOL    HW248388   2.382   8.210   2.186
16122SOL     OW48389   3.143   7.793   2.806
16122SOL    HW148390   3.057   7.743   2.793
16122SOL    HW248391   3.205   7.739   2.862
16123SOL     OW48392   3.438   9.110   2.169
16123SOL    HW148393   3.527   9.156   2.172
16123SOL    HW248394   3.417   9.086   2.074
16124SOL     OW48395   2.669   8.053   3.327
16124SOL    HW148396   2.622   8.050   3.416
16124SOL    HW248397   2.618   7.998   3.261
16125SOL     OW48398   3.256   7.917   3.536
16125SOL    HW148399   3.236   7.960   3.624
16125SOL    HW248400   3.334   7.855   3.545
16126SOL     OW48401   2.835   8.338   3.434
16126SOL    HW148402   2.881   8.254   3.405
16126SOL    HW248403   2.779   8.372   3.359
16127SOL     OW48404   2.853   7.858   3.104
16127SOL    HW148405   2.776   7.892   3.158
16127SOL    HW248406   2.819   7.807   3.025
16128SOL     OW48407   2.903   8.149   2.291
16128SOL    HW148408   2.929   8.145   2.387
16128SOL    HW248409   2.818   8.098   2.277
16129SOL     OW48410   1.938   8.259   2.651
16129SOL    HW148411   2.037   8.247   2.660
16129SOL    HW248412   1.914   8.354   2.672
16130SOL     OW48413   1.992   9.269   3.433
16130SOL    HW148414   1.982   9.254   3.532
16130SOL    HW248415   1.906   9.305   3.397
16131SOL     OW48416   2.727   7.796   2.057
16131SOL    HW148417   2.786   7.859   2.008
16131SOL    HW248418   2.746   7.702   2.028
16132SOL     OW48419   3.581   8.033   3.693
16132SOL    HW148420   3.555   8.122   3.657
16132SOL    HW248421   3.579   7.965   3.620
16133SOL     OW48422   3.224   8.592   2.407
16133SOL    HW148423   3.307   8.563   2.359
16133SOL    HW248424   3.175   8.659   2.351
16134SOL     OW48425   2.412   7.644   2.747
16134SOL    HW148426   2.407   7.639   2.847
16134SOL    HW248427   2.414   7.740   2.718
16135SOL     OW48428   2.870   8.904   2.339
16135SOL    HW148429   2.824   8.976   2.287
16135SOL    HW248430   2.866   8.924   2.437
16136SOL     OW48431   2.213   9.249   2.715
16136SOL    HW148432   2.263   9.163   2.721
16136SOL    HW248433   2.278   9.326   2.712
16137SOL     OW48434   3.657   8.514   2.735
16137SOL    HW148435   3.595   8.499   2.659
16137SOL    HW248436   3.605   8.525   2.820
16138SOL     OW48437   3.089   8.998   3.368
16138SOL    HW148438   3.095   8.921   3.432
16138SOL    HW248439   3.037   8.972   3.288
16139SOL     OW48440   2.183   8.391   2.104
16139SOL    HW148441   2.265   8.430   2.062
16139SOL    HW248442   2.156   8.309   2.055
16140SOL     OW48443   3.320   8.183   2.590
16140SOL    HW148444   3.315   8.118   2.665
16140SOL    HW248445   3.400   8.242   2.603
16141SOL     OW48446   2.323   8.714   3.589
16141SOL    HW148447   2.273   8.715   3.503
16141SOL    HW248448   2.260   8.696   3.665
16142SOL     OW48449   2.973   9.224   2.099
16142SOL    HW148450   2.913   9.162   2.149
16142SOL    HW248451   3.004   9.180   2.014
16143SOL     OW48452   2.064   7.733   3.360
16143SOL    HW148453   1.984   7.793   3.347
16143SOL    HW248454   2.054   7.684   3.446
16144SOL     OW48455   3.494   8.825   1.943
16144SOL    HW148456   3.462   8.919   1.933
16144SOL    HW248457   3.418   8.762   1.931
16145SOL     OW48458   2.326   9.191   2.185
16145SOL    HW148459   2.359   9.230   2.271
16145SOL    HW248460   2.402   9.184   2.120
16146SOL     OW48461   3.262   7.555   2.288
16146SOL    HW148462   3.238   7.518   2.198
16146SOL    HW248463   3.361   7.571   2.292
16147SOL     OW48464   2.111   9.233   3.103
16147SOL    HW148465   2.168   9.168   3.153
16147SOL    HW248466   2.095   9.200   3.010
16148SOL     OW48467   2.802   9.146   2.766
16148SOL    HW148468   2.882   9.089   2.787
16148SOL    HW248469   2.753   9.106   2.689
16149SOL     OW48470   2.244   8.148   2.342
16149SOL    HW148471   2.289   8.058   2.339
16149SOL    HW248472   2.150   8.137   2.375
16150SOL     OW48473   3.409   7.670   3.591
16150SOL    HW148474   3.404   7.707   3.683
16150SOL    HW248475   3.337   7.601   3.579
16151SOL     OW48476   2.476   7.570   1.979
16151SOL    HW148477   2.574   7.548   1.986
16151SOL    HW248478   2.445   7.553   1.886
16152SOL     OW48479   2.643   7.712   3.611
16152SOL    HW148480   2.710   7.651   3.654
16152SOL    HW248481   2.570   7.731   3.676
16153SOL     OW48482   2.750   8.962   3.057
16153SOL    HW148483   2.727   8.937   2.963
16153SOL    HW248484   2.811   8.893   3.096
16154SOL     OW48485   3.213   8.038   3.295
16154SOL    HW148486   3.241   7.995   3.380
16154SOL    HW248487   3.238   8.134   3.296
16155SOL     OW48488   2.665   8.850   2.786
16155SOL    HW148489   2.755   8.864   2.744
16155SOL    HW248490   2.594   8.852   2.715
16156SOL     OW48491   2.784   7.951   2.761
16156SOL    HW148492   2.759   7.942   2.665
16156SOL    HW248493   2.832   7.869   2.792
16157SOL     OW48494   2.401   7.512   2.374
16157SOL    HW148495   2.320   7.513   2.432
16157SOL    HW248496   2.404   7.595   2.319
16158SOL     OW48497   3.296   8.636   1.903
16158SOL    HW148498   3.328   8.560   1.960
16158SOL    HW248499   3.204   8.663   1.933
16159SOL     OW48500   2.159   7.483   2.033
16159SOL    HW148501   2.208   7.567   2.012
16159SOL    HW248502   2.221   7.418   2.078
16160SOL     OW48503   2.797   7.684   2.342
16160SOL    HW148504   2.749   7.725   2.264
16160SOL    HW248505   2.896   7.682   2.323
16161SOL     OW48506   2.938   8.131   3.326
16161SOL    HW148507   2.858   8.070   3.329
16161SOL    HW248508   3.019   8.078   3.302
16162SOL     OW48509   3.089   9.018   2.655
16162SOL    HW148510   3.110   9.092   2.590
16162SOL    HW248511   3.157   9.018   2.728
16163SOL     OW48512   2.321   8.600   2.603
16163SOL    HW148513   2.250   8.573   2.668
16163SOL    HW248514   2.295   8.572   2.510
16164SOL     OW48515   3.133   9.245   2.453
16164SOL    HW148516   3.177   9.309   2.389
16164SOL    HW248517   3.083   9.297   2.523
16165SOL     OW48518   2.894   7.997   1.878
16165SOL    HW148519   2.853   8.079   1.839
16165SOL    HW248520   2.958   8.023   1.951
16166SOL     OW48521   1.940   8.004   3.248
16166SOL    HW148522   2.032   8.003   3.207
16166SOL    HW248523   1.934   8.078   3.315
16167SOL     OW48524   2.423   7.670   3.009
16167SOL    HW148525   2.461   7.586   3.046
16167SOL    HW248526   2.335   7.689   3.053
16168SOL     OW48527   2.728   7.902   2.504
16168SOL    HW148528   2.696   7.974   2.442
16168SOL    HW248529   2.752   7.821   2.451
16169SOL     OW48530   2.879   7.487   2.615
16169SOL    HW148531   2.807   7.492   2.546
16169SOL    HW248532   2.855   7.418   2.684
16170SOL     OW48533   3.291   8.621   2.729
16170SOL    HW148534   3.236   8.537   2.722
16170SOL    HW248535   3.317   8.650   2.637
16171SOL     OW48536   3.328   8.038   2.854
16171SOL    HW148537   3.298   7.943   2.861
16171SOL    HW248538   3.401   8.054   2.920
16172SOL     OW48539   3.719   8.281   2.239
16172SOL    HW148540   3.761   8.217   2.303
16172SOL    HW248541   3.681   8.230   2.161
16173SOL     OW48542   2.350   8.833   2.036
16173SOL    HW148543   2.263   8.818   2.083
16173SOL    HW248544   2.333   8.859   1.941
16174SOL     OW48545   3.526   8.728   2.519
16174SOL    HW148546   3.625   8.736   2.533
16174SOL    HW248547   3.481   8.812   2.550
16175SOL     OW48548   3.252   8.023   1.940
16175SOL    HW148549   3.198   8.002   2.021
16175SOL    HW248550   3.343   7.982   1.949
16176SOL     OW48551   2.389   7.704   2.190
16176SOL    HW148552   2.416   7.645   2.115
16176SOL    HW248553   2.389   7.799   2.159
16177SOL     OW48554   3.616   8.671   3.450
16177SOL    HW148555   3.707   8.632   3.437
16177SOL    HW248556   3.624   8.767   3.474
16178SOL     OW48557   2.926   8.795   3.202
16178SOL    HW148558   2.846   8.772   3.257
16178SOL    HW248559   3.009   8.769   3.251
16179SOL     OW48560   3.454   9.077   3.487
16179SOL    HW148561   3.481   9.111   3.397
16179SOL    HW248562   3.533   9.039   3.533
16180SOL     OW48563   2.973   8.643   2.962
16180SOL    HW148564   2.933   8.687   3.043
16180SOL    HW248565   2.932   8.680   2.879
16181SOL     OW48566   3.500   8.547   2.941
16181SOL    HW148567   3.505   8.628   3.000
16181SOL    HW248568   3.414   8.549   2.890
16182SOL     OW48569   2.777   7.537   3.264
16182SOL    HW148570   2.802   7.517   3.169
16182SOL    HW248571   2.849   7.593   3.306
16183SOL     OW48572   2.842   8.564   3.581
16183SOL    HW148573   2.743   8.570   3.591
16183SOL    HW248574   2.865   8.484   3.525
16184SOL     OW48575   2.567   8.498   2.230
16184SOL    HW148576   2.553   8.505   2.329
16184SOL    HW248577   2.651   8.447   2.212
16185SOL     OW48578   2.272   8.261   3.113
16185SOL    HW148579   2.358   8.273   3.163
16185SOL    HW248580   2.230   8.174   3.140
16186SOL     OW48581   3.136   7.834   3.124
16186SOL    HW148582   3.157   7.908   3.188
16186SOL    HW248583   3.047   7.851   3.081
16187SOL     OW48584   1.926   9.012   3.193
16187SOL    HW148585   1.880   9.094   3.159
16187SOL    HW248586   2.024   9.031   3.202
16188SOL     OW48587   2.229   8.548   2.363
16188SOL    HW148588   2.222   8.631   2.307
16188SOL    HW248589   2.233   8.468   2.303
16189SOL     OW48590   2.428   7.985   2.727
16189SOL    HW148591   2.440   8.051   2.653
16189SOL    HW248592   2.474   8.019   2.810
16190SOL     OW48593   3.114   8.796   2.250
16190SOL    HW148594   3.164   8.873   2.290
16190SOL    HW248595   3.019   8.798   2.282
16191SOL     OW48596   3.134   8.893   3.004
16191SOL    HW148597   3.181   8.906   3.091
16191SOL    HW248598   3.068   8.819   3.013
16192SOL     OW48599   3.444   8.087   2.334
16192SOL    HW148600   3.413   8.148   2.407
16192SOL    HW248601   3.494   8.139   2.265
16193SOL     OW48602   2.216   8.958   3.191
16193SOL    HW148603   2.195   8.914   3.104
16193SOL    HW248604   2.313   8.984   3.194
16194SOL     OW48605   2.264   8.199   3.460
16194SOL    HW148606   2.332   8.254   3.413
16194SOL    HW248607   2.304   8.111   3.487
16195SOL     OW48608   3.449   8.227   3.532
16195SOL    HW148609   3.357   8.265   3.527
16195SOL    HW248610   3.509   8.274   3.467
16196SOL     OW48611   2.875   7.553   3.632
16196SOL    HW148612   2.881   7.638   3.580
16196SOL    HW248613   2.907   7.477   3.575
16197SOL     OW48614   2.366   7.498   3.602
16197SOL    HW148615   2.324   7.441   3.532
16197SOL    HW248616   2.300   7.567   3.634
16198SOL     OW48617   2.435   8.318   2.891
16198SOL    HW148618   2.479   8.407   2.882
16198SOL    HW248619   2.372   8.318   2.968
16199SOL     OW48620   3.222   8.310   2.907
16199SOL    HW148621   3.147   8.310   2.841
16199SOL    HW248622   3.259   8.218   2.916
16200SOL     OW48623   3.071   7.973   2.137
16200SOL    HW148624   3.084   7.889   2.191
16200SOL    HW248625   3.042   8.047   2.197
16201SOL     OW48626   2.169   7.661   3.093
16201SOL    HW148627   2.146   7.698   3.183
16201SOL    HW248628   2.139   7.566   3.087
16202SOL     OW48629   1.899   8.758   3.144
16202SOL    HW148630   1.952   8.709   3.212
16202SOL    HW248631   1.921   8.856   3.149
16203SOL     OW48632   2.594   8.082   2.926
16203SOL    HW148633   2.653   8.056   2.850
16203SOL    HW248634   2.566   8.178   2.915
16204SOL     OW48635   3.590   8.383   3.716
16204SOL    HW148636   3.544   8.376   3.627
16204SOL    HW248637   3.528   8.427   3.782
16205SOL     OW48638   2.169   7.511   2.480
16205SOL    HW148639   2.158   7.605   2.513
16205SOL    HW248640   2.164   7.448   2.557
16206SOL     OW48641   3.484   7.815   2.236
16206SOL    HW148642   3.486   7.739   2.300
16206SOL    HW248643   3.436   7.892   2.276
16207SOL     OW48644   2.885   8.214   2.828
16207SOL    HW148645   2.900   8.235   2.924
16207SOL    HW248646   2.855   8.119   2.819
16208SOL     OW48647   2.842   9.021   3.562
16208SOL    HW148648   2.822   9.065   3.474
16208SOL    HW248649   2.881   8.930   3.546
16209SOL     OW48650   3.721   8.966   3.467
16209SOL    HW148651   3.735   8.993   3.372
16209SOL    HW248652   3.804   8.988   3.520
16210SOL     OW48653   2.212   8.346   3.666
16210SOL    HW148654   2.288   8.390   3.714
16210SOL    HW248655   2.247   8.299   3.584
16211SOL     OW48656   3.402   7.722   1.987
16211SOL    HW148657   3.341   7.647   2.010
16211SOL    HW248658   3.424   7.774   2.070
16212SOL     OW48659   3.165   8.286   1.904
16212SOL    HW148660   3.199   8.193   1.919
16212SOL    HW248661   3.183   8.313   1.809
16213SOL     OW48662   2.930   8.781   2.711
16213SOL    HW148663   2.937   8.697   2.656
16213SOL    HW248664   2.992   8.850   2.675
16214SOL     OW48665   2.181   8.258   2.811
16214SOL    HW148666   2.274   8.294   2.816
16214SOL    HW248667   2.175   8.173   2.863
16215SOL     OW48668   2.201   7.957   2.868
16215SOL    HW148669   2.149   7.874   2.851
16215SOL    HW248670   2.278   7.962   2.804
16216SOL     OW48671   3.000   7.828   3.540
16216SOL    HW148672   2.955   7.891   3.604
16216SOL    HW248673   3.093   7.859   3.523
16217SOL     OW48674   3.022   7.655   3.339
16217SOL    HW148675   3.022   7.719   3.416
16217SOL    HW248676   3.050   7.703   3.256
16218SOL     OW48677   1.870   8.774   2.062
16218SOL    HW148678   1.777   8.795   2.031
16218SOL    HW248679   1.880   8.675   2.075
16219SOL     OW48680   1.950   9.249   2.789
16219SOL    HW148681   1.908   9.163   2.762
16219SOL    HW248682   2.044   9.252   2.755
16220SOL     OW48683   2.366   9.016   2.772
16220SOL    HW148684   2.432   9.090   2.781
16220SOL    HW248685   2.410   8.937   2.730
16221SOL     OW48686   2.864   8.244   3.100
16221SOL    HW148687   2.905   8.212   3.186
16221SOL    HW248688   2.768   8.217   3.097
16222SOL     OW48689   1.902   7.992   2.976
16222SOL    HW148690   1.987   7.959   2.935
16222SOL    HW248691   1.915   8.007   3.074
16223SOL     OW48692   2.051   7.968   3.584
16223SOL    HW148693   2.110   7.928   3.514
16223SOL    HW248694   1.993   8.039   3.543
16224SOL     OW48695   3.231   8.398   3.522
16224SOL    HW148696   3.270   8.487   3.542
16224SOL    HW248697   3.241   8.378   3.425
16225SOL     OW48698   2.677   8.020   2.187
16225SOL    HW148699   2.684   7.931   2.141
16225SOL    HW248700   2.583   8.054   2.179
16226SOL     OW48701   3.519   8.052   3.068
16226SOL    HW148702   3.481   7.983   3.130
16226SOL    HW248703   3.601   8.016   3.024
16227SOL     OW48704   2.114   9.012   3.606
16227SOL    HW148705   2.084   9.069   3.682
16227SOL    HW248706   2.107   8.915   3.632
16228SOL     OW48707   2.533   7.912   3.131
16228SOL    HW148708   2.499   7.823   3.101
16228SOL    HW248709   2.559   7.966   3.051
16229SOL     OW48710   2.792   9.126   3.327
16229SOL    HW148711   2.768   9.108   3.232
16229SOL    HW248712   2.822   9.220   3.337
16230SOL     OW48713   2.335   7.948   2.053
16230SOL    HW148714   2.396   8.028   2.057
16230SOL    HW248715   2.240   7.979   2.060
16231SOL     OW48716   2.021   8.585   3.328
16231SOL    HW148717   2.043   8.524   3.404
16231SOL    HW248718   2.031   8.536   3.242
16232SOL     OW48719   3.209   8.507   3.096
16232SOL    HW148720   3.233   8.444   3.022
16232SOL    HW248721   3.119   8.547   3.078
16233SOL     OW48722   3.164   8.303   2.171
16233SOL    HW148723   3.078   8.272   2.213
16233SOL    HW248724   3.160   8.289   2.072
16234SOL     OW48725   3.621   9.195   3.016
16234SOL    HW148726   3.682   9.225   2.943
16234SOL    HW248727   3.583   9.106   2.994
16235SOL     OW48728   3.114   9.179   2.990
16235SOL    HW148729   3.198   9.184   2.936
16235SOL    HW248730   3.091   9.083   3.008
16236SOL     OW48731   1.945   8.706   2.884
16236SOL    HW148732   1.940   8.705   2.984
16236SOL    HW248733   1.862   8.665   2.846
16237SOL     OW48734   2.550   9.110   3.578
16237SOL    HW148735   2.494   9.191   3.587
16237SOL    HW248736   2.602   9.114   3.492
16238SOL     OW48737   3.588   7.583   2.385
16238SOL    HW148738   3.661   7.566   2.318
16238SOL    HW248739   3.557   7.496   2.423
16239SOL     OW48740   3.250   9.021   2.339
16239SOL    HW148741   3.317   9.033   2.265
16239SOL    HW248742   3.210   9.110   2.362
16240SOL     OW48743   1.992   9.242   3.713
16240SOL    HW148744   1.951   9.168   3.766
16240SOL    HW248745   2.056   9.293   3.771
16241SOL     OW48746   3.142   8.375   2.534
16241SOL    HW148747   3.202   8.294   2.536
16241SOL    HW248748   3.182   8.444   2.474
16242SOL     OW48749   2.692   8.721   3.284
16242SOL    HW148750   2.687   8.754   3.379
16242SOL    HW248751   2.606   8.740   3.238
16243SOL     OW48752   2.534   9.064   2.016
16243SOL    HW148753   2.543   9.074   1.917
16243SOL    HW248754   2.494   8.975   2.037
16244SOL     OW48755   3.512   9.168   3.256
16244SOL    HW148756   3.565   9.178   3.172
16244SOL    HW248757   3.485   9.258   3.290
16245SOL     OW48758   3.703   7.623   2.825
16245SOL    HW148759   3.742   7.538   2.789
16245SOL    HW248760   3.605   7.625   2.806
16246SOL     OW48761   2.125   7.774   2.582
16246SOL    HW148762   2.046   7.825   2.548
16246SOL    HW248763   2.116   7.759   2.680
16247SOL     OW48764   3.056   9.060   1.893
16247SOL    HW148765   3.062   8.967   1.930
16247SOL    HW248766   2.997   9.060   1.813
16248SOL     OW48767   2.684   8.450   3.234
16248SOL    HW148768   2.724   8.449   3.142
16248SOL    HW248769   2.694   8.542   3.274
16249SOL     OW48770   2.778   8.358   2.153
16249SOL    HW148771   2.841   8.396   2.085
16249SOL    HW248772   2.818   8.275   2.192
16250SOL     OW48773   3.366   9.055   1.906
16250SOL    HW148774   3.274   9.092   1.913
16250SOL    HW248775   3.404   9.075   1.816
16251SOL     OW48776   2.234   8.736   3.352
16251SOL    HW148777   2.221   8.829   3.318
16251SOL    HW248778   2.150   8.684   3.339
16252SOL     OW48779   3.476   8.740   3.151
16252SOL    HW148780   3.536   8.743   3.231
16252SOL    HW248781   3.401   8.804   3.164
16253SOL     OW48782   2.901   8.546   2.558
16253SOL    HW148783   2.831   8.499   2.612
16253SOL    HW248784   2.960   8.478   2.515
16254SOL     OW48785   2.876   7.684   2.833
16254SOL    HW148786   2.868   7.648   2.740
16254SOL    HW248787   2.874   7.608   2.898
16255SOL     OW48788   2.452   8.935   2.353
16255SOL    HW148789   2.494   8.877   2.283
16255SOL    HW248790   2.408   9.014   2.309
16256SOL     OW48791   3.571   7.833   3.243
16256SOL    HW148792   3.644   7.902   3.247
16256SOL    HW248793   3.599   7.758   3.184
16257SOL     OW48794   2.117   8.796   2.152
16257SOL    HW148795   2.021   8.797   2.125
16257SOL    HW248796   2.129   8.849   2.236
16258SOL     OW48797   1.967   8.461   3.588
16258SOL    HW148798   1.890   8.428   3.642
16258SOL    HW248799   2.052   8.431   3.630
16259SOL     OW48800   2.534   7.651   3.351
16259SOL    HW148801   2.624   7.635   3.311
16259SOL    HW248802   2.542   7.656   3.450
16260SOL     OW48803   1.937   7.793   1.895
16260SOL    HW148804   1.845   7.765   1.866
16260SOL    HW248805   1.968   7.870   1.839
16261SOL     OW48806   3.302   8.304   3.260
16261SOL    HW148807   3.245   8.356   3.197
16261SOL    HW248808   3.398   8.316   3.236
16262SOL     OW48809   1.934   7.614   2.180
16262SOL    HW148810   1.917   7.697   2.126
16262SOL    HW248811   2.024   7.577   2.158
16263SOL     OW48812   3.045   8.783   1.981
16263SOL    HW148813   2.946   8.772   1.983
16263SOL    HW248814   3.079   8.798   2.074
16264SOL     OW48815   2.475   8.290   3.293
16264SOL    HW148816   2.531   8.371   3.276
16264SOL    HW248817   2.534   8.210   3.296
16265SOL     OW48818   3.355   9.215   2.821
16265SOL    HW148819   3.388   9.279   2.752
16265SOL    HW248820   3.421   9.209   2.896
16266SOL     OW48821   2.578   8.013   3.570
16266SOL    HW148822   2.597   8.078   3.644
16266SOL    HW248823   2.638   7.933   3.579
16267SOL     OW48824   3.312   8.668   3.495
16267SOL    HW148825   3.303   8.658   3.594
16267SOL    HW248826   3.408   8.661   3.469
16268SOL     OW48827   2.252   9.189   3.422
16268SOL    HW148828   2.161   9.230   3.420
16268SOL    HW248829   2.245   9.095   3.454
16269SOL     OW48830   3.536   8.331   3.116
16269SOL    HW148831   3.509   8.242   3.079
16269SOL    HW248832   3.537   8.399   3.043
16270SOL     OW48833   3.087   7.773   2.311
16270SOL    HW148834   3.152   7.699   2.300
16270SOL    HW248835   3.107   7.823   2.395
16271SOL     OW48836   2.456   8.193   2.514
16271SOL    HW148837   2.506   8.278   2.495
16271SOL    HW248838   2.368   8.195   2.466
16272SOL     OW48839   3.639   7.790   3.504
16272SOL    HW148840   3.622   7.821   3.410
16272SOL    HW248841   3.555   7.753   3.542
16273SOL     OW48842   3.592   8.382   3.379
16273SOL    HW148843   3.630   8.473   3.394
16273SOL    HW248844   3.584   8.365   3.280
16274SOL     OW48845   2.721   8.822   1.878
16274SOL    HW148846   2.675   8.837   1.966
16274SOL    HW248847   2.765   8.907   1.848
16275SOL     OW48848   2.523   9.238   2.815
16275SOL    HW148849   2.477   9.326   2.802
16275SOL    HW248850   2.622   9.250   2.808
16276SOL     OW48851   2.721   8.404   2.723
16276SOL    HW148852   2.775   8.335   2.771
16276SOL    HW248853   2.689   8.473   2.789
16277SOL     OW48854   2.945   8.432   1.949
16277SOL    HW148855   2.922   8.485   1.867
16277SOL    HW248856   3.026   8.376   1.930
16278SOL     OW48857   3.723   9.017   2.713
16278SOL    HW148858   3.652   9.005   2.643
16278SOL    HW248859   3.724   8.938   2.773
16279SOL     OW48860   2.083   8.762   3.706
16279SOL    HW148861   2.018   8.689   3.685
16279SOL    HW248862   2.087   8.776   3.804
16280SOL     OW48863   1.941   8.688   2.515
16280SOL    HW148864   1.940   8.641   2.603
16280SOL    HW248865   2.023   8.660   2.464
16281SOL     OW48866   2.534   8.839   3.486
16281SOL    HW148867   2.456   8.789   3.524
16281SOL    HW248868   2.531   8.934   3.517
16282SOL     OW48869   3.686   7.640   3.089
16282SOL    HW148870   3.682   7.550   3.133
16282SOL    HW248871   3.689   7.629   2.990
16283SOL     OW48872   2.290   7.872   2.382
16283SOL    HW148873   2.320   7.800   2.320
16283SOL    HW248874   2.251   7.832   2.465
16284SOL     OW48875   3.567   8.935   2.966
16284SOL    HW148876   3.474   8.910   2.939
16284SOL    HW248877   3.593   8.885   3.048
16285SOL     OW48878   2.179   7.995   3.142
16285SOL    HW148879   2.217   7.936   3.214
16285SOL    HW248880   2.219   7.969   3.054
16286SOL     OW48881   2.674   9.034   2.549
16286SOL    HW148882   2.706   9.044   2.455
16286SOL    HW248883   2.595   8.972   2.551
16287SOL     OW48884   3.286   7.662   2.974
16287SOL    HW148885   3.338   7.597   3.029
16287SOL    HW248886   3.237   7.725   3.035
16288SOL     OW48887   2.863   7.482   3.016
16288SOL    HW148888   2.800   7.410   2.985
16288SOL    HW248889   2.956   7.446   3.016
16289SOL     OW48890   2.632   8.778   2.163
16289SOL    HW148891   2.586   8.691   2.180
16289SOL    HW248892   2.723   8.775   2.204
16290SOL     OW48893   2.480   9.015   3.146
16290SOL    HW148894   2.475   9.097   3.203
16290SOL    HW248895   2.569   9.012   3.101
16291SOL     OW48896   3.214   7.500   2.030
16291SOL    HW148897   3.249   7.459   1.946
16291SOL    HW248898   3.124   7.462   2.050
16292SOL     OW48899   3.162   7.901   2.553
16292SOL    HW148900   3.103   7.981   2.557
16292SOL    HW248901   3.177   7.866   2.646
16293SOL     OW48902   3.455   7.669   2.744
16293SOL    HW148903   3.371   7.668   2.798
16293SOL    HW248904   3.457   7.752   2.688
16294SOL     OW48905   1.901   8.525   2.162
16294SOL    HW148906   2.000   8.514   2.153
16294SOL    HW248907   1.861   8.439   2.194
16295SOL     OW48908   2.737   9.094   2.199
16295SOL    HW148909   2.660   9.059   2.145
16295SOL    HW248910   2.705   9.165   2.261
16296SOL     OW48911   2.092   8.076   3.837
16296SOL    HW148912   1.999   8.074   3.874
16296SOL    HW248913   2.093   8.037   3.745
16297SOL     OW48914   2.087   7.723   4.720
16297SOL    HW148915   2.122   7.706   4.812
16297SOL    HW248916   1.999   7.678   4.708
16298SOL     OW48917   1.881   7.816   4.371
16298SOL    HW148918   1.799   7.859   4.410
16298SOL    HW248919   1.853   7.743   4.308
16299SOL     OW48920   2.431   8.723   4.889
16299SOL    HW148921   2.338   8.716   4.852
16299SOL    HW248922   2.442   8.812   4.933
16300SOL     OW48923   3.417   8.959   4.427
16300SOL    HW148924   3.360   8.943   4.508
16300SOL    HW248925   3.358   8.969   4.347
16301SOL     OW48926   2.997   8.151   4.441
16301SOL    HW148927   3.054   8.229   4.416
16301SOL    HW248928   2.937   8.177   4.517
16302SOL     OW48929   3.617   8.055   3.955
16302SOL    HW148930   3.605   8.042   3.856
16302SOL    HW248931   3.587   7.974   4.004
16303SOL     OW48932   2.630   8.592   4.747
16303SOL    HW148933   2.552   8.609   4.807
16303SOL    HW248934   2.664   8.679   4.711
16304SOL     OW48935   2.712   8.246   5.547
16304SOL    HW148936   2.708   8.322   5.612
16304SOL    HW248937   2.734   8.282   5.456
16305SOL     OW48938   2.547   8.460   4.389
16305SOL    HW148939   2.616   8.444   4.459
16305SOL    HW248940   2.474   8.517   4.427
16306SOL     OW48941   2.548   8.609   5.527
16306SOL    HW148942   2.608   8.688   5.541
16306SOL    HW248943   2.462   8.640   5.486
16307SOL     OW48944   2.197   8.883   4.785
16307SOL    HW148945   2.119   8.852   4.732
16307SOL    HW248946   2.255   8.941   4.728
16308SOL     OW48947   3.322   8.953   5.063
16308SOL    HW148948   3.346   9.047   5.089
16308SOL    HW248949   3.306   8.899   5.145
16309SOL     OW48950   2.300   7.840   5.223
16309SOL    HW148951   2.382   7.784   5.232
16309SOL    HW248952   2.219   7.782   5.227
16310SOL     OW48953   3.465   7.895   4.461
16310SOL    HW148954   3.391   7.941   4.411
16310SOL    HW248955   3.516   7.963   4.514
16311SOL     OW48956   2.093   9.161   4.207
16311SOL    HW148957   2.127   9.238   4.261
16311SOL    HW248958   2.137   9.161   4.117
16312SOL     OW48959   2.989   8.789   5.414
16312SOL    HW148960   3.036   8.789   5.502
16312SOL    HW248961   2.941   8.702   5.403
16313SOL     OW48962   2.092   8.882   4.262
16313SOL    HW148963   2.066   8.978   4.262
16313SOL    HW248964   2.021   8.828   4.307
16314SOL     OW48965   2.102   8.539   4.610
16314SOL    HW148966   2.116   8.455   4.662
16314SOL    HW248967   2.047   8.603   4.665
16315SOL     OW48968   2.482   9.234   5.163
16315SOL    HW148969   2.390   9.217   5.198
16315SOL    HW248970   2.510   9.326   5.189
16316SOL     OW48971   2.468   8.412   3.847
16316SOL    HW148972   2.475   8.496   3.793
16316SOL    HW248973   2.514   8.425   3.935
16317SOL     OW48974   3.456   7.562   5.204
16317SOL    HW148975   3.438   7.629   5.132
16317SOL    HW248976   3.453   7.608   5.293
16318SOL     OW48977   1.984   8.091   4.287
16318SOL    HW148978   1.939   8.003   4.304
16318SOL    HW248979   1.983   8.145   4.371
16319SOL     OW48980   3.704   9.215   4.083
16319SOL    HW148981   3.758   9.186   4.163
16319SOL    HW248982   3.734   9.305   4.054
16320SOL     OW48983   1.889   9.044   3.841
16320SOL    HW148984   1.870   8.948   3.862
16320SOL    HW248985   1.856   9.102   3.916
16321SOL     OW48986   3.551   8.370   4.336
16321SOL    HW148987   3.646   8.341   4.344
16321SOL    HW248988   3.543   8.435   4.261
16322SOL     OW48989   3.503   8.556   4.156
16322SOL    HW148990   3.589   8.558   4.104
16322SOL    HW248991   3.517   8.603   4.244
16323SOL     OW48992   1.975   8.185   5.321
16323SOL    HW148993   2.063   8.172   5.366
16323SOL    HW248994   1.962   8.282   5.299
16324SOL     OW48995   2.475   8.813   4.450
16324SOL    HW148996   2.426   8.726   4.459
16324SOL    HW248997   2.452   8.856   4.363
16325SOL     OW48998   3.155   8.676   5.147
16325SOL    HW148999   3.192   8.603   5.089
16325SOL    HW249000   3.207   8.681   5.232
16326SOL     OW49001   2.671   7.452   4.226
16326SOL    HW149002   2.711   7.543   4.217
16326SOL    HW249003   2.571   7.460   4.232
16327SOL     OW49004   2.059   8.424   4.988
16327SOL    HW149005   2.148   8.379   4.974
16327SOL    HW249006   1.986   8.359   4.969
16328SOL     OW49007   3.387   8.447   3.914
16328SOL    HW149008   3.324   8.371   3.927
16328SOL    HW249009   3.435   8.465   4.000
16329SOL     OW49010   3.049   9.240   5.340
16329SOL    HW149011   3.073   9.300   5.264
16329SOL    HW249012   3.056   9.145   5.310
16330SOL     OW49013   2.179   7.699   5.525
16330SOL    HW149014   2.250   7.770   5.531
16330SOL    HW249015   2.091   7.738   5.553
16331SOL     OW49016   3.328   8.865   4.677
16331SOL    HW149017   3.269   8.871   4.757
16331SOL    HW249018   3.313   8.777   4.631
16332SOL     OW49019   3.529   9.162   4.296
16332SOL    HW149020   3.488   9.139   4.208
16332SOL    HW249021   3.511   9.088   4.361
16333SOL     OW49022   2.460   8.177   3.994
16333SOL    HW149023   2.484   8.246   3.926
16333SOL    HW249024   2.382   8.210   4.048
16334SOL     OW49025   3.143   7.793   4.668
16334SOL    HW149026   3.057   7.743   4.655
16334SOL    HW249027   3.205   7.739   4.724
16335SOL     OW49028   3.438   9.110   4.031
16335SOL    HW149029   3.527   9.156   4.034
16335SOL    HW249030   3.417   9.086   3.936
16336SOL     OW49031   2.669   8.053   5.189
16336SOL    HW149032   2.622   8.050   5.278
16336SOL    HW249033   2.618   7.998   5.123
16337SOL     OW49034   3.256   7.917   5.398
16337SOL    HW149035   3.236   7.960   5.486
16337SOL    HW249036   3.334   7.855   5.407
16338SOL     OW49037   2.835   8.338   5.296
16338SOL    HW149038   2.881   8.254   5.267
16338SOL    HW249039   2.779   8.372   5.221
16339SOL     OW49040   2.853   7.858   4.966
16339SOL    HW149041   2.776   7.892   5.020
16339SOL    HW249042   2.819   7.807   4.887
16340SOL     OW49043   2.903   8.149   4.153
16340SOL    HW149044   2.929   8.145   4.249
16340SOL    HW249045   2.818   8.098   4.139
16341SOL     OW49046   1.938   8.259   4.513
16341SOL    HW149047   2.037   8.247   4.522
16341SOL    HW249048   1.914   8.354   4.534
16342SOL     OW49049   1.992   9.269   5.295
16342SOL    HW149050   1.982   9.254   5.394
16342SOL    HW249051   1.906   9.305   5.259
16343SOL     OW49052   2.727   7.796   3.919
16343SOL    HW149053   2.786   7.859   3.870
16343SOL    HW249054   2.746   7.702   3.890
16344SOL     OW49055   3.581   8.033   5.555
16344SOL    HW149056   3.555   8.122   5.519
16344SOL    HW249057   3.579   7.965   5.482
16345SOL     OW49058   3.224   8.592   4.269
16345SOL    HW149059   3.307   8.563   4.221
16345SOL    HW249060   3.175   8.659   4.213
16346SOL     OW49061   2.412   7.644   4.609
16346SOL    HW149062   2.407   7.639   4.709
16346SOL    HW249063   2.414   7.740   4.580
16347SOL     OW49064   2.870   8.904   4.201
16347SOL    HW149065   2.824   8.976   4.149
16347SOL    HW249066   2.866   8.924   4.299
16348SOL     OW49067   2.213   9.249   4.577
16348SOL    HW149068   2.263   9.163   4.583
16348SOL    HW249069   2.278   9.326   4.574
16349SOL     OW49070   3.657   8.514   4.597
16349SOL    HW149071   3.595   8.499   4.521
16349SOL    HW249072   3.605   8.525   4.682
16350SOL     OW49073   3.089   8.998   5.230
16350SOL    HW149074   3.095   8.921   5.294
16350SOL    HW249075   3.037   8.972   5.150
16351SOL     OW49076   2.183   8.391   3.966
16351SOL    HW149077   2.265   8.430   3.924
16351SOL    HW249078   2.156   8.309   3.917
16352SOL     OW49079   3.320   8.183   4.452
16352SOL    HW149080   3.315   8.118   4.527
16352SOL    HW249081   3.400   8.242   4.465
16353SOL     OW49082   2.323   8.714   5.451
16353SOL    HW149083   2.273   8.715   5.365
16353SOL    HW249084   2.260   8.696   5.527
16354SOL     OW49085   2.973   9.224   3.961
16354SOL    HW149086   2.913   9.162   4.011
16354SOL    HW249087   3.004   9.180   3.876
16355SOL     OW49088   2.064   7.733   5.222
16355SOL    HW149089   1.984   7.793   5.209
16355SOL    HW249090   2.054   7.684   5.308
16356SOL     OW49091   3.494   8.825   3.805
16356SOL    HW149092   3.462   8.919   3.795
16356SOL    HW249093   3.418   8.762   3.793
16357SOL     OW49094   2.326   9.191   4.047
16357SOL    HW149095   2.359   9.230   4.133
16357SOL    HW249096   2.402   9.184   3.982
16358SOL     OW49097   3.262   7.555   4.150
16358SOL    HW149098   3.238   7.518   4.060
16358SOL    HW249099   3.361   7.571   4.154
16359SOL     OW49100   2.111   9.233   4.965
16359SOL    HW149101   2.168   9.168   5.015
16359SOL    HW249102   2.095   9.200   4.872
16360SOL     OW49103   2.802   9.146   4.628
16360SOL    HW149104   2.882   9.089   4.649
16360SOL    HW249105   2.753   9.106   4.551
16361SOL     OW49106   2.244   8.148   4.204
16361SOL    HW149107   2.289   8.058   4.201
16361SOL    HW249108   2.150   8.137   4.237
16362SOL     OW49109   3.409   7.670   5.453
16362SOL    HW149110   3.404   7.707   5.545
16362SOL    HW249111   3.337   7.601   5.441
16363SOL     OW49112   2.476   7.570   3.841
16363SOL    HW149113   2.574   7.548   3.848
16363SOL    HW249114   2.445   7.553   3.748
16364SOL     OW49115   2.643   7.712   5.473
16364SOL    HW149116   2.710   7.651   5.516
16364SOL    HW249117   2.570   7.731   5.538
16365SOL     OW49118   2.750   8.962   4.919
16365SOL    HW149119   2.727   8.937   4.825
16365SOL    HW249120   2.811   8.893   4.958
16366SOL     OW49121   3.213   8.038   5.157
16366SOL    HW149122   3.241   7.995   5.242
16366SOL    HW249123   3.238   8.134   5.158
16367SOL     OW49124   2.665   8.850   4.648
16367SOL    HW149125   2.755   8.864   4.606
16367SOL    HW249126   2.594   8.852   4.577
16368SOL     OW49127   2.784   7.951   4.623
16368SOL    HW149128   2.759   7.942   4.527
16368SOL    HW249129   2.832   7.869   4.654
16369SOL     OW49130   2.401   7.512   4.236
16369SOL    HW149131   2.320   7.513   4.294
16369SOL    HW249132   2.404   7.595   4.181
16370SOL     OW49133   3.296   8.636   3.765
16370SOL    HW149134   3.328   8.560   3.822
16370SOL    HW249135   3.204   8.663   3.795
16371SOL     OW49136   2.159   7.483   3.895
16371SOL    HW149137   2.208   7.567   3.874
16371SOL    HW249138   2.221   7.418   3.940
16372SOL     OW49139   2.797   7.684   4.204
16372SOL    HW149140   2.749   7.725   4.126
16372SOL    HW249141   2.896   7.682   4.185
16373SOL     OW49142   2.938   8.131   5.188
16373SOL    HW149143   2.858   8.070   5.191
16373SOL    HW249144   3.019   8.078   5.164
16374SOL     OW49145   3.089   9.018   4.517
16374SOL    HW149146   3.110   9.092   4.452
16374SOL    HW249147   3.157   9.018   4.590
16375SOL     OW49148   2.321   8.600   4.465
16375SOL    HW149149   2.250   8.573   4.530
16375SOL    HW249150   2.295   8.572   4.372
16376SOL     OW49151   3.133   9.245   4.315
16376SOL    HW149152   3.177   9.309   4.251
16376SOL    HW249153   3.083   9.297   4.385
16377SOL     OW49154   2.894   7.997   3.740
16377SOL    HW149155   2.853   8.079   3.701
16377SOL    HW249156   2.958   8.023   3.813
16378SOL     OW49157   1.940   8.004   5.110
16378SOL    HW149158   2.032   8.003   5.069
16378SOL    HW249159   1.934   8.078   5.177
16379SOL     OW49160   2.423   7.670   4.871
16379SOL    HW149161   2.461   7.586   4.908
16379SOL    HW249162   2.335   7.689   4.915
16380SOL     OW49163   2.728   7.902   4.366
16380SOL    HW149164   2.696   7.974   4.304
16380SOL    HW249165   2.752   7.821   4.313
16381SOL     OW49166   2.879   7.487   4.477
16381SOL    HW149167   2.807   7.492   4.408
16381SOL    HW249168   2.855   7.418   4.546
16382SOL     OW49169   3.291   8.621   4.591
16382SOL    HW149170   3.236   8.537   4.584
16382SOL    HW249171   3.317   8.650   4.499
16383SOL     OW49172   3.328   8.038   4.716
16383SOL    HW149173   3.298   7.943   4.723
16383SOL    HW249174   3.401   8.054   4.782
16384SOL     OW49175   3.719   8.281   4.101
16384SOL    HW149176   3.761   8.217   4.165
16384SOL    HW249177   3.681   8.230   4.023
16385SOL     OW49178   2.350   8.833   3.898
16385SOL    HW149179   2.263   8.818   3.945
16385SOL    HW249180   2.333   8.859   3.803
16386SOL     OW49181   3.526   8.728   4.381
16386SOL    HW149182   3.625   8.736   4.395
16386SOL    HW249183   3.481   8.812   4.412
16387SOL     OW49184   3.252   8.023   3.802
16387SOL    HW149185   3.198   8.002   3.883
16387SOL    HW249186   3.343   7.982   3.811
16388SOL     OW49187   2.389   7.704   4.052
16388SOL    HW149188   2.416   7.645   3.977
16388SOL    HW249189   2.389   7.799   4.021
16389SOL     OW49190   3.616   8.671   5.312
16389SOL    HW149191   3.707   8.632   5.299
16389SOL    HW249192   3.624   8.767   5.336
16390SOL     OW49193   2.926   8.795   5.064
16390SOL    HW149194   2.846   8.772   5.119
16390SOL    HW249195   3.009   8.769   5.113
16391SOL     OW49196   3.454   9.077   5.349
16391SOL    HW149197   3.481   9.111   5.259
16391SOL    HW249198   3.533   9.039   5.395
16392SOL     OW49199   2.973   8.643   4.824
16392SOL    HW149200   2.933   8.687   4.905
16392SOL    HW249201   2.932   8.680   4.741
16393SOL     OW49202   3.500   8.547   4.803
16393SOL    HW149203   3.505   8.628   4.862
16393SOL    HW249204   3.414   8.549   4.752
16394SOL     OW49205   2.777   7.537   5.126
16394SOL    HW149206   2.802   7.517   5.031
16394SOL    HW249207   2.849   7.593   5.168
16395SOL     OW49208   2.842   8.564   5.443
16395SOL    HW149209   2.743   8.570   5.453
16395SOL    HW249210   2.865   8.484   5.387
16396SOL     OW49211   2.567   8.498   4.092
16396SOL    HW149212   2.553   8.505   4.191
16396SOL    HW249213   2.651   8.447   4.074
16397SOL     OW49214   2.272   8.261   4.975
16397SOL    HW149215   2.358   8.273   5.025
16397SOL    HW249216   2.230   8.174   5.002
16398SOL     OW49217   3.136   7.834   4.986
16398SOL    HW149218   3.157   7.908   5.050
16398SOL    HW249219   3.047   7.851   4.943
16399SOL     OW49220   1.926   9.012   5.055
16399SOL    HW149221   1.880   9.094   5.021
16399SOL    HW249222   2.024   9.031   5.064
16400SOL     OW49223   2.229   8.548   4.225
16400SOL    HW149224   2.222   8.631   4.169
16400SOL    HW249225   2.233   8.468   4.165
16401SOL     OW49226   2.428   7.985   4.589
16401SOL    HW149227   2.440   8.051   4.515
16401SOL    HW249228   2.474   8.019   4.672
16402SOL     OW49229   3.114   8.796   4.112
16402SOL    HW149230   3.164   8.873   4.152
16402SOL    HW249231   3.019   8.798   4.144
16403SOL     OW49232   3.134   8.893   4.866
16403SOL    HW149233   3.181   8.906   4.953
16403SOL    HW249234   3.068   8.819   4.875
16404SOL     OW49235   3.444   8.087   4.196
16404SOL    HW149236   3.413   8.148   4.269
16404SOL    HW249237   3.494   8.139   4.127
16405SOL     OW49238   2.216   8.958   5.053
16405SOL    HW149239   2.195   8.914   4.966
16405SOL    HW249240   2.313   8.984   5.056
16406SOL     OW49241   2.264   8.199   5.322
16406SOL    HW149242   2.332   8.254   5.275
16406SOL    HW249243   2.304   8.111   5.349
16407SOL     OW49244   3.449   8.227   5.394
16407SOL    HW149245   3.357   8.265   5.389
16407SOL    HW249246   3.509   8.274   5.329
16408SOL     OW49247   2.875   7.553   5.494
16408SOL    HW149248   2.881   7.638   5.442
16408SOL    HW249249   2.907   7.477   5.437
16409SOL     OW49250   2.366   7.498   5.464
16409SOL    HW149251   2.324   7.441   5.394
16409SOL    HW249252   2.300   7.567   5.496
16410SOL     OW49253   2.435   8.318   4.753
16410SOL    HW149254   2.479   8.407   4.744
16410SOL    HW249255   2.372   8.318   4.830
16411SOL     OW49256   3.222   8.310   4.769
16411SOL    HW149257   3.147   8.310   4.703
16411SOL    HW249258   3.259   8.218   4.778
16412SOL     OW49259   3.071   7.973   3.999
16412SOL    HW149260   3.084   7.889   4.053
16412SOL    HW249261   3.042   8.047   4.059
16413SOL     OW49262   2.169   7.661   4.955
16413SOL    HW149263   2.146   7.698   5.045
16413SOL    HW249264   2.139   7.566   4.949
16414SOL     OW49265   1.899   8.758   5.006
16414SOL    HW149266   1.952   8.709   5.074
16414SOL    HW249267   1.921   8.856   5.011
16415SOL     OW49268   2.594   8.082   4.788
16415SOL    HW149269   2.653   8.056   4.712
16415SOL    HW249270   2.566   8.178   4.777
16416SOL     OW49271   3.590   8.383   5.578
16416SOL    HW149272   3.544   8.376   5.489
16416SOL    HW249273   3.528   8.427   5.644
16417SOL     OW49274   2.169   7.511   4.342
16417SOL    HW149275   2.158   7.605   4.375
16417SOL    HW249276   2.164   7.448   4.419
16418SOL     OW49277   3.484   7.815   4.098
16418SOL    HW149278   3.486   7.739   4.162
16418SOL    HW249279   3.436   7.892   4.138
16419SOL     OW49280   2.885   8.214   4.690
16419SOL    HW149281   2.900   8.235   4.786
16419SOL    HW249282   2.855   8.119   4.681
16420SOL     OW49283   2.842   9.021   5.424
16420SOL    HW149284   2.822   9.065   5.336
16420SOL    HW249285   2.881   8.930   5.408
16421SOL     OW49286   3.721   8.966   5.329
16421SOL    HW149287   3.735   8.993   5.234
16421SOL    HW249288   3.804   8.988   5.382
16422SOL     OW49289   2.212   8.346   5.528
16422SOL    HW149290   2.288   8.390   5.576
16422SOL    HW249291   2.247   8.299   5.446
16423SOL     OW49292   3.402   7.722   3.849
16423SOL    HW149293   3.341   7.647   3.872
16423SOL    HW249294   3.424   7.774   3.932
16424SOL     OW49295   3.165   8.286   3.766
16424SOL    HW149296   3.199   8.193   3.781
16424SOL    HW249297   3.183   8.313   3.671
16425SOL     OW49298   2.930   8.781   4.573
16425SOL    HW149299   2.937   8.697   4.518
16425SOL    HW249300   2.992   8.850   4.537
16426SOL     OW49301   2.181   8.258   4.673
16426SOL    HW149302   2.274   8.294   4.678
16426SOL    HW249303   2.175   8.173   4.725
16427SOL     OW49304   2.201   7.957   4.730
16427SOL    HW149305   2.149   7.874   4.713
16427SOL    HW249306   2.278   7.962   4.666
16428SOL     OW49307   3.000   7.828   5.402
16428SOL    HW149308   2.955   7.891   5.466
16428SOL    HW249309   3.093   7.859   5.385
16429SOL     OW49310   3.022   7.655   5.201
16429SOL    HW149311   3.022   7.719   5.278
16429SOL    HW249312   3.050   7.703   5.118
16430SOL     OW49313   1.870   8.774   3.924
16430SOL    HW149314   1.777   8.795   3.893
16430SOL    HW249315   1.880   8.675   3.937
16431SOL     OW49316   1.950   9.249   4.651
16431SOL    HW149317   1.908   9.163   4.624
16431SOL    HW249318   2.044   9.252   4.617
16432SOL     OW49319   2.366   9.016   4.634
16432SOL    HW149320   2.432   9.090   4.643
16432SOL    HW249321   2.410   8.937   4.592
16433SOL     OW49322   2.864   8.244   4.962
16433SOL    HW149323   2.905   8.212   5.048
16433SOL    HW249324   2.768   8.217   4.959
16434SOL     OW49325   1.902   7.992   4.838
16434SOL    HW149326   1.987   7.959   4.797
16434SOL    HW249327   1.915   8.007   4.936
16435SOL     OW49328   2.051   7.968   5.446
16435SOL    HW149329   2.110   7.928   5.376
16435SOL    HW249330   1.993   8.039   5.405
16436SOL     OW49331   3.231   8.398   5.384
16436SOL    HW149332   3.270   8.487   5.404
16436SOL    HW249333   3.241   8.378   5.287
16437SOL     OW49334   2.677   8.020   4.049
16437SOL    HW149335   2.684   7.931   4.003
16437SOL    HW249336   2.583   8.054   4.041
16438SOL     OW49337   3.519   8.052   4.930
16438SOL    HW149338   3.481   7.983   4.992
16438SOL    HW249339   3.601   8.016   4.886
16439SOL     OW49340   2.114   9.012   5.468
16439SOL    HW149341   2.084   9.069   5.544
16439SOL    HW249342   2.107   8.915   5.494
16440SOL     OW49343   2.533   7.912   4.993
16440SOL    HW149344   2.499   7.823   4.963
16440SOL    HW249345   2.559   7.966   4.913
16441SOL     OW49346   2.792   9.126   5.189
16441SOL    HW149347   2.768   9.108   5.094
16441SOL    HW249348   2.822   9.220   5.199
16442SOL     OW49349   2.335   7.948   3.915
16442SOL    HW149350   2.396   8.028   3.919
16442SOL    HW249351   2.240   7.979   3.922
16443SOL     OW49352   2.021   8.585   5.190
16443SOL    HW149353   2.043   8.524   5.266
16443SOL    HW249354   2.031   8.536   5.104
16444SOL     OW49355   3.209   8.507   4.958
16444SOL    HW149356   3.233   8.444   4.884
16444SOL    HW249357   3.119   8.547   4.940
16445SOL     OW49358   3.164   8.303   4.033
16445SOL    HW149359   3.078   8.272   4.075
16445SOL    HW249360   3.160   8.289   3.934
16446SOL     OW49361   3.621   9.195   4.878
16446SOL    HW149362   3.682   9.225   4.805
16446SOL    HW249363   3.583   9.106   4.856
16447SOL     OW49364   3.114   9.179   4.852
16447SOL    HW149365   3.198   9.184   4.798
16447SOL    HW249366   3.091   9.083   4.870
16448SOL     OW49367   1.945   8.706   4.746
16448SOL    HW149368   1.940   8.705   4.846
16448SOL    HW249369   1.862   8.665   4.708
16449SOL     OW49370   2.550   9.110   5.440
16449SOL    HW149371   2.494   9.191   5.449
16449SOL    HW249372   2.602   9.114   5.354
16450SOL     OW49373   3.588   7.583   4.247
16450SOL    HW149374   3.661   7.566   4.180
16450SOL    HW249375   3.557   7.496   4.285
16451SOL     OW49376   3.250   9.021   4.201
16451SOL    HW149377   3.317   9.033   4.127
16451SOL    HW249378   3.210   9.110   4.224
16452SOL     OW49379   1.992   9.242   5.575
16452SOL    HW149380   1.951   9.168   5.628
16452SOL    HW249381   2.056   9.293   5.633
16453SOL     OW49382   3.142   8.375   4.396
16453SOL    HW149383   3.202   8.294   4.398
16453SOL    HW249384   3.182   8.444   4.336
16454SOL     OW49385   2.692   8.721   5.146
16454SOL    HW149386   2.687   8.754   5.241
16454SOL    HW249387   2.606   8.740   5.100
16455SOL     OW49388   2.534   9.064   3.878
16455SOL    HW149389   2.543   9.074   3.779
16455SOL    HW249390   2.494   8.975   3.899
16456SOL     OW49391   3.512   9.168   5.118
16456SOL    HW149392   3.565   9.178   5.034
16456SOL    HW249393   3.485   9.258   5.152
16457SOL     OW49394   3.703   7.623   4.687
16457SOL    HW149395   3.742   7.538   4.651
16457SOL    HW249396   3.605   7.625   4.668
16458SOL     OW49397   2.125   7.774   4.444
16458SOL    HW149398   2.046   7.825   4.410
16458SOL    HW249399   2.116   7.759   4.542
16459SOL     OW49400   3.056   9.060   3.755
16459SOL    HW149401   3.062   8.967   3.792
16459SOL    HW249402   2.997   9.060   3.675
16460SOL     OW49403   2.684   8.450   5.096
16460SOL    HW149404   2.724   8.449   5.004
16460SOL    HW249405   2.694   8.542   5.136
16461SOL     OW49406   2.778   8.358   4.015
16461SOL    HW149407   2.841   8.396   3.947
16461SOL    HW249408   2.818   8.275   4.054
16462SOL     OW49409   3.366   9.055   3.768
16462SOL    HW149410   3.274   9.092   3.775
16462SOL    HW249411   3.404   9.075   3.678
16463SOL     OW49412   2.234   8.736   5.214
16463SOL    HW149413   2.221   8.829   5.180
16463SOL    HW249414   2.150   8.684   5.201
16464SOL     OW49415   3.476   8.740   5.013
16464SOL    HW149416   3.536   8.743   5.093
16464SOL    HW249417   3.401   8.804   5.026
16465SOL     OW49418   2.901   8.546   4.420
16465SOL    HW149419   2.831   8.499   4.474
16465SOL    HW249420   2.960   8.478   4.377
16466SOL     OW49421   2.876   7.684   4.695
16466SOL    HW149422   2.868   7.648   4.602
16466SOL    HW249423   2.874   7.608   4.760
16467SOL     OW49424   2.452   8.935   4.215
16467SOL    HW149425   2.494   8.877   4.145
16467SOL    HW249426   2.408   9.014   4.171
16468SOL     OW49427   3.571   7.833   5.105
16468SOL    HW149428   3.644   7.902   5.109
16468SOL    HW249429   3.599   7.758   5.046
16469SOL     OW49430   2.117   8.796   4.014
16469SOL    HW149431   2.021   8.797   3.987
16469SOL    HW249432   2.129   8.849   4.098
16470SOL     OW49433   1.967   8.461   5.450
16470SOL    HW149434   1.890   8.428   5.504
16470SOL    HW249435   2.052   8.431   5.492
16471SOL     OW49436   2.534   7.651   5.213
16471SOL    HW149437   2.624   7.635   5.173
16471SOL    HW249438   2.542   7.656   5.312
16472SOL     OW49439   1.937   7.793   3.757
16472SOL    HW149440   1.845   7.765   3.728
16472SOL    HW249441   1.968   7.870   3.701
16473SOL     OW49442   3.302   8.304   5.122
16473SOL    HW149443   3.245   8.356   5.059
16473SOL    HW249444   3.398   8.316   5.098
16474SOL     OW49445   1.934   7.614   4.042
16474SOL    HW149446   1.917   7.697   3.988
16474SOL    HW249447   2.024   7.577   4.020
16475SOL     OW49448   3.045   8.783   3.843
16475SOL    HW149449   2.946   8.772   3.845
16475SOL    HW249450   3.079   8.798   3.936
16476SOL     OW49451   2.475   8.290   5.155
16476SOL    HW149452   2.531   8.371   5.138
16476SOL    HW249453   2.534   8.210   5.158
16477SOL     OW49454   3.355   9.215   4.683
16477SOL    HW149455   3.388   9.279   4.614
16477SOL    HW249456   3.421   9.209   4.758
16478SOL     OW49457   2.578   8.013   5.432
16478SOL    HW149458   2.597   8.078   5.506
16478SOL    HW249459   2.638   7.933   5.441
16479SOL     OW49460   3.312   8.668   5.357
16479SOL    HW149461   3.303   8.658   5.456
16479SOL    HW249462   3.408   8.661   5.331
16480SOL     OW49463   2.252   9.189   5.284
16480SOL    HW149464   2.161   9.230   5.282
16480SOL    HW249465   2.245   9.095   5.316
16481SOL     OW49466   3.536   8.331   4.978
16481SOL    HW149467   3.509   8.242   4.941
16481SOL    HW249468   3.537   8.399   4.905
16482SOL     OW49469   3.087   7.773   4.173
16482SOL    HW149470   3.152   7.699   4.162
16482SOL    HW249471   3.107   7.823   4.257
16483SOL     OW49472   2.456   8.193   4.376
16483SOL    HW149473   2.506   8.278   4.357
16483SOL    HW249474   2.368   8.195   4.328
16484SOL     OW49475   3.639   7.790   5.366
16484SOL    HW149476   3.622   7.821   5.272
16484SOL    HW249477   3.555   7.753   5.404
16485SOL     OW49478   3.592   8.382   5.241
16485SOL    HW149479   3.630   8.473   5.256
16485SOL    HW249480   3.584   8.365   5.142
16486SOL     OW49481   2.721   8.822   3.740
16486SOL    HW149482   2.675   8.837   3.828
16486SOL    HW249483   2.765   8.907   3.710
16487SOL     OW49484   2.523   9.238   4.677
16487SOL    HW149485   2.477   9.326   4.664
16487SOL    HW249486   2.622   9.250   4.670
16488SOL     OW49487   2.721   8.404   4.585
16488SOL    HW149488   2.775   8.335   4.633
16488SOL    HW249489   2.689   8.473   4.651
16489SOL     OW49490   2.945   8.432   3.811
16489SOL    HW149491   2.922   8.485   3.729
16489SOL    HW249492   3.026   8.376   3.792
16490SOL     OW49493   3.723   9.017   4.575
16490SOL    HW149494   3.652   9.005   4.505
16490SOL    HW249495   3.724   8.938   4.635
16491SOL     OW49496   2.083   8.762   5.568
16491SOL    HW149497   2.018   8.689   5.547
16491SOL    HW249498   2.087   8.776   5.666
16492SOL     OW49499   1.941   8.688   4.377
16492SOL    HW149500   1.940   8.641   4.465
16492SOL    HW249501   2.023   8.660   4.326
16493SOL     OW49502   2.534   8.839   5.348
16493SOL    HW149503   2.456   8.789   5.386
16493SOL    HW249504   2.531   8.934   5.379
16494SOL     OW49505   3.686   7.640   4.951
16494SOL    HW149506   3.682   7.550   4.995
16494SOL    HW249507   3.689   7.629   4.852
16495SOL     OW49508   2.290   7.872   4.244
16495SOL    HW149509   2.320   7.800   4.182
16495SOL    HW249510   2.251   7.832   4.327
16496SOL     OW49511   3.567   8.935   4.828
16496SOL    HW149512   3.474   8.910   4.801
16496SOL    HW249513   3.593   8.885   4.910
16497SOL     OW49514   2.179   7.995   5.004
16497SOL    HW149515   2.217   7.936   5.076
16497SOL    HW249516   2.219   7.969   4.916
16498SOL     OW49517   2.674   9.034   4.411
16498SOL    HW149518   2.706   9.044   4.317
16498SOL    HW249519   2.595   8.972   4.413
16499SOL     OW49520   3.286   7.662   4.836
16499SOL    HW149521   3.338   7.597   4.891
16499SOL    HW249522   3.237   7.725   4.897
16500SOL     OW49523   2.863   7.482   4.878
16500SOL    HW149524   2.800   7.410   4.847
16500SOL    HW249525   2.956   7.446   4.878
16501SOL     OW49526   2.632   8.778   4.025
16501SOL    HW149527   2.586   8.691   4.042
16501SOL    HW249528   2.723   8.775   4.066
16502SOL     OW49529   2.480   9.015   5.008
16502SOL    HW149530   2.475   9.097   5.065
16502SOL    HW249531   2.569   9.012   4.963
16503SOL     OW49532   3.214   7.500   3.892
16503SOL    HW149533   3.249   7.459   3.808
16503SOL    HW249534   3.124   7.462   3.912
16504SOL     OW49535   3.162   7.901   4.415
16504SOL    HW149536   3.103   7.981   4.419
16504SOL    HW249537   3.177   7.866   4.508
16505SOL     OW49538   3.455   7.669   4.606
16505SOL    HW149539   3.371   7.668   4.660
16505SOL    HW249540   3.457   7.752   4.550
16506SOL     OW49541   1.901   8.525   4.024
16506SOL    HW149542   2.000   8.514   4.015
16506SOL    HW249543   1.861   8.439   4.056
16507SOL     OW49544   2.737   9.094   4.061
16507SOL    HW149545   2.660   9.059   4.007
16507SOL    HW249546   2.705   9.165   4.123
16508SOL     OW49547   2.092   8.076   5.699
16508SOL    HW149548   1.999   8.074   5.736
16508SOL    HW249549   2.093   8.037   5.607
16509SOL     OW49550   2.087   7.723   6.582
16509SOL    HW149551   2.122   7.706   6.674
16509SOL    HW249552   1.999   7.678   6.570
16510SOL     OW49553   1.881   7.816   6.233
16510SOL    HW149554   1.799   7.859   6.272
16510SOL    HW249555   1.853   7.743   6.170
16511SOL     OW49556   2.431   8.723   6.751
16511SOL    HW149557   2.338   8.716   6.714
16511SOL    HW249558   2.442   8.812   6.795
16512SOL     OW49559   3.417   8.959   6.289
16512SOL    HW149560   3.360   8.943   6.370
16512SOL    HW249561   3.358   8.969   6.209
16513SOL     OW49562   2.997   8.151   6.303
16513SOL    HW149563   3.054   8.229   6.278
16513SOL    HW249564   2.937   8.177   6.379
16514SOL     OW49565   3.617   8.055   5.817
16514SOL    HW149566   3.605   8.042   5.718
16514SOL    HW249567   3.587   7.974   5.866
16515SOL     OW49568   2.630   8.592   6.609
16515SOL    HW149569   2.552   8.609   6.669
16515SOL    HW249570   2.664   8.679   6.573
16516SOL     OW49571   2.712   8.246   7.409
16516SOL    HW149572   2.708   8.322   7.474
16516SOL    HW249573   2.734   8.282   7.318
16517SOL     OW49574   2.547   8.460   6.251
16517SOL    HW149575   2.616   8.444   6.321
16517SOL    HW249576   2.474   8.517   6.289
16518SOL     OW49577   2.548   8.609   7.389
16518SOL    HW149578   2.608   8.688   7.403
16518SOL    HW249579   2.462   8.640   7.348
16519SOL     OW49580   2.197   8.883   6.647
16519SOL    HW149581   2.119   8.852   6.594
16519SOL    HW249582   2.255   8.941   6.590
16520SOL     OW49583   3.322   8.953   6.925
16520SOL    HW149584   3.346   9.047   6.951
16520SOL    HW249585   3.306   8.899   7.007
16521SOL     OW49586   2.300   7.840   7.085
16521SOL    HW149587   2.382   7.784   7.094
16521SOL    HW249588   2.219   7.782   7.089
16522SOL     OW49589   3.465   7.895   6.323
16522SOL    HW149590   3.391   7.941   6.273
16522SOL    HW249591   3.516   7.963   6.376
16523SOL     OW49592   2.093   9.161   6.069
16523SOL    HW149593   2.127   9.238   6.123
16523SOL    HW249594   2.137   9.161   5.979
16524SOL     OW49595   2.989   8.789   7.276
16524SOL    HW149596   3.036   8.789   7.364
16524SOL    HW249597   2.941   8.702   7.265
16525SOL     OW49598   2.092   8.882   6.124
16525SOL    HW149599   2.066   8.978   6.124
16525SOL    HW249600   2.021   8.828   6.169
16526SOL     OW49601   2.102   8.539   6.472
16526SOL    HW149602   2.116   8.455   6.524
16526SOL    HW249603   2.047   8.603   6.527
16527SOL     OW49604   2.482   9.234   7.025
16527SOL    HW149605   2.390   9.217   7.060
16527SOL    HW249606   2.510   9.326   7.051
16528SOL     OW49607   2.468   8.412   5.709
16528SOL    HW149608   2.475   8.496   5.655
16528SOL    HW249609   2.514   8.425   5.797
16529SOL     OW49610   3.456   7.562   7.066
16529SOL    HW149611   3.438   7.629   6.994
16529SOL    HW249612   3.453   7.608   7.155
16530SOL     OW49613   1.984   8.091   6.149
16530SOL    HW149614   1.939   8.003   6.166
16530SOL    HW249615   1.983   8.145   6.233
16531SOL     OW49616   3.704   9.215   5.945
16531SOL    HW149617   3.758   9.186   6.025
16531SOL    HW249618   3.734   9.305   5.916
16532SOL     OW49619   1.889   9.044   5.703
16532SOL    HW149620   1.870   8.948   5.724
16532SOL    HW249621   1.856   9.102   5.778
16533SOL     OW49622   3.551   8.370   6.198
16533SOL    HW149623   3.646   8.341   6.206
16533SOL    HW249624   3.543   8.435   6.123
16534SOL     OW49625   3.503   8.556   6.018
16534SOL    HW149626   3.589   8.558   5.966
16534SOL    HW249627   3.517   8.603   6.106
16535SOL     OW49628   1.975   8.185   7.183
16535SOL    HW149629   2.063   8.172   7.228
16535SOL    HW249630   1.962   8.282   7.161
16536SOL     OW49631   2.475   8.813   6.312
16536SOL    HW149632   2.426   8.726   6.321
16536SOL    HW249633   2.452   8.856   6.225
16537SOL     OW49634   3.155   8.676   7.009
16537SOL    HW149635   3.192   8.603   6.951
16537SOL    HW249636   3.207   8.681   7.094
16538SOL     OW49637   2.671   7.452   6.088
16538SOL    HW149638   2.711   7.543   6.079
16538SOL    HW249639   2.571   7.460   6.094
16539SOL     OW49640   2.059   8.424   6.850
16539SOL    HW149641   2.148   8.379   6.836
16539SOL    HW249642   1.986   8.359   6.831
16540SOL     OW49643   3.387   8.447   5.776
16540SOL    HW149644   3.324   8.371   5.789
16540SOL    HW249645   3.435   8.465   5.862
16541SOL     OW49646   3.049   9.240   7.202
16541SOL    HW149647   3.073   9.300   7.126
16541SOL    HW249648   3.056   9.145   7.172
16542SOL     OW49649   2.179   7.699   7.387
16542SOL    HW149650   2.250   7.770   7.393
16542SOL    HW249651   2.091   7.738   7.415
16543SOL     OW49652   3.328   8.865   6.539
16543SOL    HW149653   3.269   8.871   6.619
16543SOL    HW249654   3.313   8.777   6.493
16544SOL     OW49655   3.529   9.162   6.158
16544SOL    HW149656   3.488   9.139   6.070
16544SOL    HW249657   3.511   9.088   6.223
16545SOL     OW49658   2.460   8.177   5.856
16545SOL    HW149659   2.484   8.246   5.788
16545SOL    HW249660   2.382   8.210   5.910
16546SOL     OW49661   3.143   7.793   6.530
16546SOL    HW149662   3.057   7.743   6.517
16546SOL    HW249663   3.205   7.739   6.586
16547SOL     OW49664   3.438   9.110   5.893
16547SOL    HW149665   3.527   9.156   5.896
16547SOL    HW249666   3.417   9.086   5.798
16548SOL     OW49667   2.669   8.053   7.051
16548SOL    HW149668   2.622   8.050   7.140
16548SOL    HW249669   2.618   7.998   6.985
16549SOL     OW49670   3.256   7.917   7.260
16549SOL    HW149671   3.236   7.960   7.348
16549SOL    HW249672   3.334   7.855   7.269
16550SOL     OW49673   2.835   8.338   7.158
16550SOL    HW149674   2.881   8.254   7.129
16550SOL    HW249675   2.779   8.372   7.083
16551SOL     OW49676   2.853   7.858   6.828
16551SOL    HW149677   2.776   7.892   6.882
16551SOL    HW249678   2.819   7.807   6.749
16552SOL     OW49679   2.903   8.149   6.015
16552SOL    HW149680   2.929   8.145   6.111
16552SOL    HW249681   2.818   8.098   6.001
16553SOL     OW49682   1.938   8.259   6.375
16553SOL    HW149683   2.037   8.247   6.384
16553SOL    HW249684   1.914   8.354   6.396
16554SOL     OW49685   1.992   9.269   7.157
16554SOL    HW149686   1.982   9.254   7.256
16554SOL    HW249687   1.906   9.305   7.121
16555SOL     OW49688   2.727   7.796   5.781
16555SOL    HW149689   2.786   7.859   5.732
16555SOL    HW249690   2.746   7.702   5.752
16556SOL     OW49691   3.581   8.033   7.417
16556SOL    HW149692   3.555   8.122   7.381
16556SOL    HW249693   3.579   7.965   7.344
16557SOL     OW49694   3.224   8.592   6.131
16557SOL    HW149695   3.307   8.563   6.083
16557SOL    HW249696   3.175   8.659   6.075
16558SOL     OW49697   2.412   7.644   6.471
16558SOL    HW149698   2.407   7.639   6.571
16558SOL    HW249699   2.414   7.740   6.442
16559SOL     OW49700   2.870   8.904   6.063
16559SOL    HW149701   2.824   8.976   6.011
16559SOL    HW249702   2.866   8.924   6.161
16560SOL     OW49703   2.213   9.249   6.439
16560SOL    HW149704   2.263   9.163   6.445
16560SOL    HW249705   2.278   9.326   6.436
16561SOL     OW49706   3.657   8.514   6.459
16561SOL    HW149707   3.595   8.499   6.383
16561SOL    HW249708   3.605   8.525   6.544
16562SOL     OW49709   3.089   8.998   7.092
16562SOL    HW149710   3.095   8.921   7.156
16562SOL    HW249711   3.037   8.972   7.012
16563SOL     OW49712   2.183   8.391   5.828
16563SOL    HW149713   2.265   8.430   5.786
16563SOL    HW249714   2.156   8.309   5.779
16564SOL     OW49715   3.320   8.183   6.314
16564SOL    HW149716   3.315   8.118   6.389
16564SOL    HW249717   3.400   8.242   6.327
16565SOL     OW49718   2.323   8.714   7.313
16565SOL    HW149719   2.273   8.715   7.227
16565SOL    HW249720   2.260   8.696   7.389
16566SOL     OW49721   2.973   9.224   5.823
16566SOL    HW149722   2.913   9.162   5.873
16566SOL    HW249723   3.004   9.180   5.738
16567SOL     OW49724   2.064   7.733   7.084
16567SOL    HW149725   1.984   7.793   7.071
16567SOL    HW249726   2.054   7.684   7.170
16568SOL     OW49727   3.494   8.825   5.667
16568SOL    HW149728   3.462   8.919   5.657
16568SOL    HW249729   3.418   8.762   5.655
16569SOL     OW49730   2.326   9.191   5.909
16569SOL    HW149731   2.359   9.230   5.995
16569SOL    HW249732   2.402   9.184   5.844
16570SOL     OW49733   3.262   7.555   6.012
16570SOL    HW149734   3.238   7.518   5.922
16570SOL    HW249735   3.361   7.571   6.016
16571SOL     OW49736   2.111   9.233   6.827
16571SOL    HW149737   2.168   9.168   6.877
16571SOL    HW249738   2.095   9.200   6.734
16572SOL     OW49739   2.802   9.146   6.490
16572SOL    HW149740   2.882   9.089   6.511
16572SOL    HW249741   2.753   9.106   6.413
16573SOL     OW49742   2.244   8.148   6.066
16573SOL    HW149743   2.289   8.058   6.063
16573SOL    HW249744   2.150   8.137   6.099
16574SOL     OW49745   3.409   7.670   7.315
16574SOL    HW149746   3.404   7.707   7.407
16574SOL    HW249747   3.337   7.601   7.303
16575SOL     OW49748   2.476   7.570   5.703
16575SOL    HW149749   2.574   7.548   5.710
16575SOL    HW249750   2.445   7.553   5.610
16576SOL     OW49751   2.643   7.712   7.335
16576SOL    HW149752   2.710   7.651   7.378
16576SOL    HW249753   2.570   7.731   7.400
16577SOL     OW49754   2.750   8.962   6.781
16577SOL    HW149755   2.727   8.937   6.687
16577SOL    HW249756   2.811   8.893   6.820
16578SOL     OW49757   3.213   8.038   7.019
16578SOL    HW149758   3.241   7.995   7.104
16578SOL    HW249759   3.238   8.134   7.020
16579SOL     OW49760   2.665   8.850   6.510
16579SOL    HW149761   2.755   8.864   6.468
16579SOL    HW249762   2.594   8.852   6.439
16580SOL     OW49763   2.784   7.951   6.485
16580SOL    HW149764   2.759   7.942   6.389
16580SOL    HW249765   2.832   7.869   6.516
16581SOL     OW49766   2.401   7.512   6.098
16581SOL    HW149767   2.320   7.513   6.156
16581SOL    HW249768   2.404   7.595   6.043
16582SOL     OW49769   3.296   8.636   5.627
16582SOL    HW149770   3.328   8.560   5.684
16582SOL    HW249771   3.204   8.663   5.657
16583SOL     OW49772   2.159   7.483   5.757
16583SOL    HW149773   2.208   7.567   5.736
16583SOL    HW249774   2.221   7.418   5.802
16584SOL     OW49775   2.797   7.684   6.066
16584SOL    HW149776   2.749   7.725   5.988
16584SOL    HW249777   2.896   7.682   6.047
16585SOL     OW49778   2.938   8.131   7.050
16585SOL    HW149779   2.858   8.070   7.053
16585SOL    HW249780   3.019   8.078   7.026
16586SOL     OW49781   3.089   9.018   6.379
16586SOL    HW149782   3.110   9.092   6.314
16586SOL    HW249783   3.157   9.018   6.452
16587SOL     OW49784   2.321   8.600   6.327
16587SOL    HW149785   2.250   8.573   6.392
16587SOL    HW249786   2.295   8.572   6.234
16588SOL     OW49787   3.133   9.245   6.177
16588SOL    HW149788   3.177   9.309   6.113
16588SOL    HW249789   3.083   9.297   6.247
16589SOL     OW49790   2.894   7.997   5.602
16589SOL    HW149791   2.853   8.079   5.563
16589SOL    HW249792   2.958   8.023   5.675
16590SOL     OW49793   1.940   8.004   6.972
16590SOL    HW149794   2.032   8.003   6.931
16590SOL    HW249795   1.934   8.078   7.039
16591SOL     OW49796   2.423   7.670   6.733
16591SOL    HW149797   2.461   7.586   6.770
16591SOL    HW249798   2.335   7.689   6.777
16592SOL     OW49799   2.728   7.902   6.228
16592SOL    HW149800   2.696   7.974   6.166
16592SOL    HW249801   2.752   7.821   6.175
16593SOL     OW49802   2.879   7.487   6.339
16593SOL    HW149803   2.807   7.492   6.270
16593SOL    HW249804   2.855   7.418   6.408
16594SOL     OW49805   3.291   8.621   6.453
16594SOL    HW149806   3.236   8.537   6.446
16594SOL    HW249807   3.317   8.650   6.361
16595SOL     OW49808   3.328   8.038   6.578
16595SOL    HW149809   3.298   7.943   6.585
16595SOL    HW249810   3.401   8.054   6.644
16596SOL     OW49811   3.719   8.281   5.963
16596SOL    HW149812   3.761   8.217   6.027
16596SOL    HW249813   3.681   8.230   5.885
16597SOL     OW49814   2.350   8.833   5.760
16597SOL    HW149815   2.263   8.818   5.807
16597SOL    HW249816   2.333   8.859   5.665
16598SOL     OW49817   3.526   8.728   6.243
16598SOL    HW149818   3.625   8.736   6.257
16598SOL    HW249819   3.481   8.812   6.274
16599SOL     OW49820   3.252   8.023   5.664
16599SOL    HW149821   3.198   8.002   5.745
16599SOL    HW249822   3.343   7.982   5.673
16600SOL     OW49823   2.389   7.704   5.914
16600SOL    HW149824   2.416   7.645   5.839
16600SOL    HW249825   2.389   7.799   5.883
16601SOL     OW49826   3.616   8.671   7.174
16601SOL    HW149827   3.707   8.632   7.161
16601SOL    HW249828   3.624   8.767   7.198
16602SOL     OW49829   2.926   8.795   6.926
16602SOL    HW149830   2.846   8.772   6.981
16602SOL    HW249831   3.009   8.769   6.975
16603SOL     OW49832   3.454   9.077   7.211
16603SOL    HW149833   3.481   9.111   7.121
16603SOL    HW249834   3.533   9.039   7.257
16604SOL     OW49835   2.973   8.643   6.686
16604SOL    HW149836   2.933   8.687   6.767
16604SOL    HW249837   2.932   8.680   6.603
16605SOL     OW49838   3.500   8.547   6.665
16605SOL    HW149839   3.505   8.628   6.724
16605SOL    HW249840   3.414   8.549   6.614
16606SOL     OW49841   2.777   7.537   6.988
16606SOL    HW149842   2.802   7.517   6.893
16606SOL    HW249843   2.849   7.593   7.030
16607SOL     OW49844   2.842   8.564   7.305
16607SOL    HW149845   2.743   8.570   7.315
16607SOL    HW249846   2.865   8.484   7.249
16608SOL     OW49847   2.567   8.498   5.954
16608SOL    HW149848   2.553   8.505   6.053
16608SOL    HW249849   2.651   8.447   5.936
16609SOL     OW49850   2.272   8.261   6.837
16609SOL    HW149851   2.358   8.273   6.887
16609SOL    HW249852   2.230   8.174   6.864
16610SOL     OW49853   3.136   7.834   6.848
16610SOL    HW149854   3.157   7.908   6.912
16610SOL    HW249855   3.047   7.851   6.805
16611SOL     OW49856   1.926   9.012   6.917
16611SOL    HW149857   1.880   9.094   6.883
16611SOL    HW249858   2.024   9.031   6.926
16612SOL     OW49859   2.229   8.548   6.087
16612SOL    HW149860   2.222   8.631   6.031
16612SOL    HW249861   2.233   8.468   6.027
16613SOL     OW49862   2.428   7.985   6.451
16613SOL    HW149863   2.440   8.051   6.377
16613SOL    HW249864   2.474   8.019   6.534
16614SOL     OW49865   3.114   8.796   5.974
16614SOL    HW149866   3.164   8.873   6.014
16614SOL    HW249867   3.019   8.798   6.006
16615SOL     OW49868   3.134   8.893   6.728
16615SOL    HW149869   3.181   8.906   6.815
16615SOL    HW249870   3.068   8.819   6.737
16616SOL     OW49871   3.444   8.087   6.058
16616SOL    HW149872   3.413   8.148   6.131
16616SOL    HW249873   3.494   8.139   5.989
16617SOL     OW49874   2.216   8.958   6.915
16617SOL    HW149875   2.195   8.914   6.828
16617SOL    HW249876   2.313   8.984   6.918
16618SOL     OW49877   2.264   8.199   7.184
16618SOL    HW149878   2.332   8.254   7.137
16618SOL    HW249879   2.304   8.111   7.211
16619SOL     OW49880   3.449   8.227   7.256
16619SOL    HW149881   3.357   8.265   7.251
16619SOL    HW249882   3.509   8.274   7.191
16620SOL     OW49883   2.875   7.553   7.356
16620SOL    HW149884   2.881   7.638   7.304
16620SOL    HW249885   2.907   7.477   7.299
16621SOL     OW49886   2.366   7.498   7.326
16621SOL    HW149887   2.324   7.441   7.256
16621SOL    HW249888   2.300   7.567   7.358
16622SOL     OW49889   2.435   8.318   6.615
16622SOL    HW149890   2.479   8.407   6.606
16622SOL    HW249891   2.372   8.318   6.692
16623SOL     OW49892   3.222   8.310   6.631
16623SOL    HW149893   3.147   8.310   6.565
16623SOL    HW249894   3.259   8.218   6.640
16624SOL     OW49895   3.071   7.973   5.861
16624SOL    HW149896   3.084   7.889   5.915
16624SOL    HW249897   3.042   8.047   5.921
16625SOL     OW49898   2.169   7.661   6.817
16625SOL    HW149899   2.146   7.698   6.907
16625SOL    HW249900   2.139   7.566   6.811
16626SOL     OW49901   1.899   8.758   6.868
16626SOL    HW149902   1.952   8.709   6.936
16626SOL    HW249903   1.921   8.856   6.873
16627SOL     OW49904   2.594   8.082   6.650
16627SOL    HW149905   2.653   8.056   6.574
16627SOL    HW249906   2.566   8.178   6.639
16628SOL     OW49907   3.590   8.383   7.440
16628SOL    HW149908   3.544   8.376   7.351
16628SOL    HW249909   3.528   8.427   7.506
16629SOL     OW49910   2.169   7.511   6.204
16629SOL    HW149911   2.158   7.605   6.237
16629SOL    HW249912   2.164   7.448   6.281
16630SOL     OW49913   3.484   7.815   5.960
16630SOL    HW149914   3.486   7.739   6.024
16630SOL    HW249915   3.436   7.892   6.000
16631SOL     OW49916   2.885   8.214   6.552
16631SOL    HW149917   2.900   8.235   6.648
16631SOL    HW249918   2.855   8.119   6.543
16632SOL     OW49919   2.842   9.021   7.286
16632SOL    HW149920   2.822   9.065   7.198
16632SOL    HW249921   2.881   8.930   7.270
16633SOL     OW49922   3.721   8.966   7.191
16633SOL    HW149923   3.735   8.993   7.096
16633SOL    HW249924   3.804   8.988   7.244
16634SOL     OW49925   2.212   8.346   7.390
16634SOL    HW149926   2.288   8.390   7.438
16634SOL    HW249927   2.247   8.299   7.308
16635SOL     OW49928   3.402   7.722   5.711
16635SOL    HW149929   3.341   7.647   5.734
16635SOL    HW249930   3.424   7.774   5.794
16636SOL     OW49931   3.165   8.286   5.628
16636SOL    HW149932   3.199   8.193   5.643
16636SOL    HW249933   3.183   8.313   5.533
16637SOL     OW49934   2.930   8.781   6.435
16637SOL    HW149935   2.937   8.697   6.380
16637SOL    HW249936   2.992   8.850   6.399
16638SOL     OW49937   2.181   8.258   6.535
16638SOL    HW149938   2.274   8.294   6.540
16638SOL    HW249939   2.175   8.173   6.587
16639SOL     OW49940   2.201   7.957   6.592
16639SOL    HW149941   2.149   7.874   6.575
16639SOL    HW249942   2.278   7.962   6.528
16640SOL     OW49943   3.000   7.828   7.264
16640SOL    HW149944   2.955   7.891   7.328
16640SOL    HW249945   3.093   7.859   7.247
16641SOL     OW49946   3.022   7.655   7.063
16641SOL    HW149947   3.022   7.719   7.140
16641SOL    HW249948   3.050   7.703   6.980
16642SOL     OW49949   1.870   8.774   5.786
16642SOL    HW149950   1.777   8.795   5.755
16642SOL    HW249951   1.880   8.675   5.799
16643SOL     OW49952   1.950   9.249   6.513
16643SOL    HW149953   1.908   9.163   6.486
16643SOL    HW249954   2.044   9.252   6.479
16644SOL     OW49955   2.366   9.016   6.496
16644SOL    HW149956   2.432   9.090   6.505
16644SOL    HW249957   2.410   8.937   6.454
16645SOL     OW49958   2.864   8.244   6.824
16645SOL    HW149959   2.905   8.212   6.910
16645SOL    HW249960   2.768   8.217   6.821
16646SOL     OW49961   1.902   7.992   6.700
16646SOL    HW149962   1.987   7.959   6.659
16646SOL    HW249963   1.915   8.007   6.798
16647SOL     OW49964   2.051   7.968   7.308
16647SOL    HW149965   2.110   7.928   7.238
16647SOL    HW249966   1.993   8.039   7.267
16648SOL     OW49967   3.231   8.398   7.246
16648SOL    HW149968   3.270   8.487   7.266
16648SOL    HW249969   3.241   8.378   7.149
16649SOL     OW49970   2.677   8.020   5.911
16649SOL    HW149971   2.684   7.931   5.865
16649SOL    HW249972   2.583   8.054   5.903
16650SOL     OW49973   3.519   8.052   6.792
16650SOL    HW149974   3.481   7.983   6.854
16650SOL    HW249975   3.601   8.016   6.748
16651SOL     OW49976   2.114   9.012   7.330
16651SOL    HW149977   2.084   9.069   7.406
16651SOL    HW249978   2.107   8.915   7.356
16652SOL     OW49979   2.533   7.912   6.855
16652SOL    HW149980   2.499   7.823   6.825
16652SOL    HW249981   2.559   7.966   6.775
16653SOL     OW49982   2.792   9.126   7.051
16653SOL    HW149983   2.768   9.108   6.956
16653SOL    HW249984   2.822   9.220   7.061
16654SOL     OW49985   2.335   7.948   5.777
16654SOL    HW149986   2.396   8.028   5.781
16654SOL    HW249987   2.240   7.979   5.784
16655SOL     OW49988   2.021   8.585   7.052
16655SOL    HW149989   2.043   8.524   7.128
16655SOL    HW249990   2.031   8.536   6.966
16656SOL     OW49991   3.209   8.507   6.820
16656SOL    HW149992   3.233   8.444   6.746
16656SOL    HW249993   3.119   8.547   6.802
16657SOL     OW49994   3.164   8.303   5.895
16657SOL    HW149995   3.078   8.272   5.937
16657SOL    HW249996   3.160   8.289   5.796
16658SOL     OW49997   3.621   9.195   6.740
16658SOL    HW149998   3.682   9.225   6.667
16658SOL    HW249999   3.583   9.106   6.718
16659SOL     OW50000   3.114   9.179   6.714
16659SOL    HW150001   3.198   9.184   6.660
16659SOL    HW250002   3.091   9.083   6.732
16660SOL     OW50003   1.945   8.706   6.608
16660SOL    HW150004   1.940   8.705   6.708
16660SOL    HW250005   1.862   8.665   6.570
16661SOL     OW50006   2.550   9.110   7.302
16661SOL    HW150007   2.494   9.191   7.311
16661SOL    HW250008   2.602   9.114   7.216
16662SOL     OW50009   3.588   7.583   6.109
16662SOL    HW150010   3.661   7.566   6.042
16662SOL    HW250011   3.557   7.496   6.147
16663SOL     OW50012   3.250   9.021   6.063
16663SOL    HW150013   3.317   9.033   5.989
16663SOL    HW250014   3.210   9.110   6.086
16664SOL     OW50015   1.992   9.242   7.437
16664SOL    HW150016   1.951   9.168   7.490
16664SOL    HW250017   2.056   9.293   7.495
16665SOL     OW50018   3.142   8.375   6.258
16665SOL    HW150019   3.202   8.294   6.260
16665SOL    HW250020   3.182   8.444   6.198
16666SOL     OW50021   2.692   8.721   7.008
16666SOL    HW150022   2.687   8.754   7.103
16666SOL    HW250023   2.606   8.740   6.962
16667SOL     OW50024   2.534   9.064   5.740
16667SOL    HW150025   2.543   9.074   5.641
16667SOL    HW250026   2.494   8.975   5.761
16668SOL     OW50027   3.512   9.168   6.980
16668SOL    HW150028   3.565   9.178   6.896
16668SOL    HW250029   3.485   9.258   7.014
16669SOL     OW50030   3.703   7.623   6.549
16669SOL    HW150031   3.742   7.538   6.513
16669SOL    HW250032   3.605   7.625   6.530
16670SOL     OW50033   2.125   7.774   6.306
16670SOL    HW150034   2.046   7.825   6.272
16670SOL    HW250035   2.116   7.759   6.404
16671SOL     OW50036   3.056   9.060   5.617
16671SOL    HW150037   3.062   8.967   5.654
16671SOL    HW250038   2.997   9.060   5.537
16672SOL     OW50039   2.684   8.450   6.958
16672SOL    HW150040   2.724   8.449   6.866
16672SOL    HW250041   2.694   8.542   6.998
16673SOL     OW50042   2.778   8.358   5.877
16673SOL    HW150043   2.841   8.396   5.809
16673SOL    HW250044   2.818   8.275   5.916
16674SOL     OW50045   3.366   9.055   5.630
16674SOL    HW150046   3.274   9.092   5.637
16674SOL    HW250047   3.404   9.075   5.540
16675SOL     OW50048   2.234   8.736   7.076
16675SOL    HW150049   2.221   8.829   7.042
16675SOL    HW250050   2.150   8.684   7.063
16676SOL     OW50051   3.476   8.740   6.875
16676SOL    HW150052   3.536   8.743   6.955
16676SOL    HW250053   3.401   8.804   6.888
16677SOL     OW50054   2.901   8.546   6.282
16677SOL    HW150055   2.831   8.499   6.336
16677SOL    HW250056   2.960   8.478   6.239
16678SOL     OW50057   2.876   7.684   6.557
16678SOL    HW150058   2.868   7.648   6.464
16678SOL    HW250059   2.874   7.608   6.622
16679SOL     OW50060   2.452   8.935   6.077
16679SOL    HW150061   2.494   8.877   6.007
16679SOL    HW250062   2.408   9.014   6.033
16680SOL     OW50063   3.571   7.833   6.967
16680SOL    HW150064   3.644   7.902   6.971
16680SOL    HW250065   3.599   7.758   6.908
16681SOL     OW50066   2.117   8.796   5.876
16681SOL    HW150067   2.021   8.797   5.849
16681SOL    HW250068   2.129   8.849   5.960
16682SOL     OW50069   1.967   8.461   7.312
16682SOL    HW150070   1.890   8.428   7.366
16682SOL    HW250071   2.052   8.431   7.354
16683SOL     OW50072   2.534   7.651   7.075
16683SOL    HW150073   2.624   7.635   7.035
16683SOL    HW250074   2.542   7.656   7.174
16684SOL     OW50075   1.937   7.793   5.619
16684SOL    HW150076   1.845   7.765   5.590
16684SOL    HW250077   1.968   7.870   5.563
16685SOL     OW50078   3.302   8.304   6.984
16685SOL    HW150079   3.245   8.356   6.921
16685SOL    HW250080   3.398   8.316   6.960
16686SOL     OW50081   1.934   7.614   5.904
16686SOL    HW150082   1.917   7.697   5.850
16686SOL    HW250083   2.024   7.577   5.882
16687SOL     OW50084   3.045   8.783   5.705
16687SOL    HW150085   2.946   8.772   5.707
16687SOL    HW250086   3.079   8.798   5.798
16688SOL     OW50087   2.475   8.290   7.017
16688SOL    HW150088   2.531   8.371   7.000
16688SOL    HW250089   2.534   8.210   7.020
16689SOL     OW50090   3.355   9.215   6.545
16689SOL    HW150091   3.388   9.279   6.476
16689SOL    HW250092   3.421   9.209   6.620
16690SOL     OW50093   2.578   8.013   7.294
16690SOL    HW150094   2.597   8.078   7.368
16690SOL    HW250095   2.638   7.933   7.303
16691SOL     OW50096   3.312   8.668   7.219
16691SOL    HW150097   3.303   8.658   7.318
16691SOL    HW250098   3.408   8.661   7.193
16692SOL     OW50099   2.252   9.189   7.146
16692SOL    HW150100   2.161   9.230   7.144
16692SOL    HW250101   2.245   9.095   7.178
16693SOL     OW50102   3.536   8.331   6.840
16693SOL    HW150103   3.509   8.242   6.803
16693SOL    HW250104   3.537   8.399   6.767
16694SOL     OW50105   3.087   7.773   6.035
16694SOL    HW150106   3.152   7.699   6.024
16694SOL    HW250107   3.107   7.823   6.119
16695SOL     OW50108   2.456   8.193   6.238
16695SOL    HW150109   2.506   8.278   6.219
16695SOL    HW250110   2.368   8.195   6.190
16696SOL     OW50111   3.639   7.790   7.228
16696SOL    HW150112   3.622   7.821   7.134
16696SOL    HW250113   3.555   7.753   7.266
16697SOL     OW50114   3.592   8.382   7.103
16697SOL    HW150115   3.630   8.473   7.118
16697SOL    HW250116   3.584   8.365   7.004
16698SOL     OW50117   2.721   8.822   5.602
16698SOL    HW150118   2.675   8.837   5.690
16698SOL    HW250119   2.765   8.907   5.572
16699SOL     OW50120   2.523   9.238   6.539
16699SOL    HW150121   2.477   9.326   6.526
16699SOL    HW250122   2.622   9.250   6.532
16700SOL     OW50123   2.721   8.404   6.447
16700SOL    HW150124   2.775   8.335   6.495
16700SOL    HW250125   2.689   8.473   6.513
16701SOL     OW50126   2.945   8.432   5.673
16701SOL    HW150127   2.922   8.485   5.591
16701SOL    HW250128   3.026   8.376   5.654
16702SOL     OW50129   3.723   9.017   6.437
16702SOL    HW150130   3.652   9.005   6.367
16702SOL    HW250131   3.724   8.938   6.497
16703SOL     OW50132   2.083   8.762   7.430
16703SOL    HW150133   2.018   8.689   7.409
16703SOL    HW250134   2.087   8.776   7.528
16704SOL     OW50135   1.941   8.688   6.239
16704SOL    HW150136   1.940   8.641   6.327
16704SOL    HW250137   2.023   8.660   6.188
16705SOL     OW50138   2.534   8.839   7.210
16705SOL    HW150139   2.456   8.789   7.248
16705SOL    HW250140   2.531   8.934   7.241
16706SOL     OW50141   3.686   7.640   6.813
16706SOL    HW150142   3.682   7.550   6.857
16706SOL    HW250143   3.689   7.629   6.714
16707SOL     OW50144   2.290   7.872   6.106
16707SOL    HW150145   2.320   7.800   6.044
16707SOL    HW250146   2.251   7.832   6.189
16708SOL     OW50147   3.567   8.935   6.690
16708SOL    HW150148   3.474   8.910   6.663
16708SOL    HW250149   3.593   8.885   6.772
16709SOL     OW50150   2.179   7.995   6.866
16709SOL    HW150151   2.217   7.936   6.938
16709SOL    HW250152   2.219   7.969   6.778
16710SOL     OW50153   2.674   9.034   6.273
16710SOL    HW150154   2.706   9.044   6.179
16710SOL    HW250155   2.595   8.972   6.275
16711SOL     OW50156   3.286   7.662   6.698
16711SOL    HW150157   3.338   7.597   6.753
16711SOL    HW250158   3.237   7.725   6.759
16712SOL     OW50159   2.863   7.482   6.740
16712SOL    HW150160   2.800   7.410   6.709
16712SOL    HW250161   2.956   7.446   6.740
16713SOL     OW50162   2.632   8.778   5.887
16713SOL    HW150163   2.586   8.691   5.904
16713SOL    HW250164   2.723   8.775   5.928
16714SOL     OW50165   2.480   9.015   6.870
16714SOL    HW150166   2.475   9.097   6.927
16714SOL    HW250167   2.569   9.012   6.825
16715SOL     OW50168   3.214   7.500   5.754
16715SOL    HW150169   3.249   7.459   5.670
16715SOL    HW250170   3.124   7.462   5.774
16716SOL     OW50171   3.162   7.901   6.277
16716SOL    HW150172   3.103   7.981   6.281
16716SOL    HW250173   3.177   7.866   6.370
16717SOL     OW50174   3.455   7.669   6.468
16717SOL    HW150175   3.371   7.668   6.522
16717SOL    HW250176   3.457   7.752   6.412
16718SOL     OW50177   1.901   8.525   5.886
16718SOL    HW150178   2.000   8.514   5.877
16718SOL    HW250179   1.861   8.439   5.918
16719SOL     OW50180   2.737   9.094   5.923
16719SOL    HW150181   2.660   9.059   5.869
16719SOL    HW250182   2.705   9.165   5.985
16720SOL     OW50183   2.092   8.076   7.561
16720SOL    HW150184   1.999   8.074   7.598
16720SOL    HW250185   2.093   8.037   7.469
16721SOL     OW50186   2.087   7.723   8.444
16721SOL    HW150187   2.122   7.706   8.536
16721SOL    HW250188   1.999   7.678   8.432
16722SOL     OW50189   1.881   7.816   8.095
16722SOL    HW150190   1.799   7.859   8.134
16722SOL    HW250191   1.853   7.743   8.032
16723SOL     OW50192   2.431   8.723   8.613
16723SOL    HW150193   2.338   8.716   8.576
16723SOL    HW250194   2.442   8.812   8.657
16724SOL     OW50195   3.417   8.959   8.151
16724SOL    HW150196   3.360   8.943   8.232
16724SOL    HW250197   3.358   8.969   8.071
16725SOL     OW50198   2.997   8.151   8.165
16725SOL    HW150199   3.054   8.229   8.140
16725SOL    HW250200   2.937   8.177   8.241
16726SOL     OW50201   3.617   8.055   7.679
16726SOL    HW150202   3.605   8.042   7.580
16726SOL    HW250203   3.587   7.974   7.728
16727SOL     OW50204   2.630   8.592   8.471
16727SOL    HW150205   2.552   8.609   8.531
16727SOL    HW250206   2.664   8.679   8.435
16728SOL     OW50207   2.712   8.246   9.271
16728SOL    HW150208   2.708   8.322   9.336
16728SOL    HW250209   2.734   8.282   9.180
16729SOL     OW50210   2.547   8.460   8.113
16729SOL    HW150211   2.616   8.444   8.183
16729SOL    HW250212   2.474   8.517   8.151
16730SOL     OW50213   2.548   8.609   9.251
16730SOL    HW150214   2.608   8.688   9.265
16730SOL    HW250215   2.462   8.640   9.210
16731SOL     OW50216   2.197   8.883   8.509
16731SOL    HW150217   2.119   8.852   8.456
16731SOL    HW250218   2.255   8.941   8.452
16732SOL     OW50219   3.322   8.953   8.787
16732SOL    HW150220   3.346   9.047   8.813
16732SOL    HW250221   3.306   8.899   8.869
16733SOL     OW50222   2.300   7.840   8.947
16733SOL    HW150223   2.382   7.784   8.956
16733SOL    HW250224   2.219   7.782   8.951
16734SOL     OW50225   3.465   7.895   8.185
16734SOL    HW150226   3.391   7.941   8.135
16734SOL    HW250227   3.516   7.963   8.238
16735SOL     OW50228   2.093   9.161   7.931
16735SOL    HW150229   2.127   9.238   7.985
16735SOL    HW250230   2.137   9.161   7.841
16736SOL     OW50231   2.989   8.789   9.138
16736SOL    HW150232   3.036   8.789   9.226
16736SOL    HW250233   2.941   8.702   9.127
16737SOL     OW50234   2.092   8.882   7.986
16737SOL    HW150235   2.066   8.978   7.986
16737SOL    HW250236   2.021   8.828   8.031
16738SOL     OW50237   2.102   8.539   8.334
16738SOL    HW150238   2.116   8.455   8.386
16738SOL    HW250239   2.047   8.603   8.389
16739SOL     OW50240   2.482   9.234   8.887
16739SOL    HW150241   2.390   9.217   8.922
16739SOL    HW250242   2.510   9.326   8.913
16740SOL     OW50243   2.468   8.412   7.571
16740SOL    HW150244   2.475   8.496   7.517
16740SOL    HW250245   2.514   8.425   7.659
16741SOL     OW50246   3.456   7.562   8.928
16741SOL    HW150247   3.438   7.629   8.856
16741SOL    HW250248   3.453   7.608   9.017
16742SOL     OW50249   1.984   8.091   8.011
16742SOL    HW150250   1.939   8.003   8.028
16742SOL    HW250251   1.983   8.145   8.095
16743SOL     OW50252   3.704   9.215   7.807
16743SOL    HW150253   3.758   9.186   7.887
16743SOL    HW250254   3.734   9.305   7.778
16744SOL     OW50255   1.889   9.044   7.565
16744SOL    HW150256   1.870   8.948   7.586
16744SOL    HW250257   1.856   9.102   7.640
16745SOL     OW50258   3.551   8.370   8.060
16745SOL    HW150259   3.646   8.341   8.068
16745SOL    HW250260   3.543   8.435   7.985
16746SOL     OW50261   3.503   8.556   7.880
16746SOL    HW150262   3.589   8.558   7.828
16746SOL    HW250263   3.517   8.603   7.968
16747SOL     OW50264   1.975   8.185   9.045
16747SOL    HW150265   2.063   8.172   9.090
16747SOL    HW250266   1.962   8.282   9.023
16748SOL     OW50267   2.475   8.813   8.174
16748SOL    HW150268   2.426   8.726   8.183
16748SOL    HW250269   2.452   8.856   8.087
16749SOL     OW50270   3.155   8.676   8.871
16749SOL    HW150271   3.192   8.603   8.813
16749SOL    HW250272   3.207   8.681   8.956
16750SOL     OW50273   2.671   7.452   7.950
16750SOL    HW150274   2.711   7.543   7.941
16750SOL    HW250275   2.571   7.460   7.956
16751SOL     OW50276   2.059   8.424   8.712
16751SOL    HW150277   2.148   8.379   8.698
16751SOL    HW250278   1.986   8.359   8.693
16752SOL     OW50279   3.387   8.447   7.638
16752SOL    HW150280   3.324   8.371   7.651
16752SOL    HW250281   3.435   8.465   7.724
16753SOL     OW50282   3.049   9.240   9.064
16753SOL    HW150283   3.073   9.300   8.988
16753SOL    HW250284   3.056   9.145   9.034
16754SOL     OW50285   2.179   7.699   9.249
16754SOL    HW150286   2.250   7.770   9.255
16754SOL    HW250287   2.091   7.738   9.277
16755SOL     OW50288   3.328   8.865   8.401
16755SOL    HW150289   3.269   8.871   8.481
16755SOL    HW250290   3.313   8.777   8.355
16756SOL     OW50291   3.529   9.162   8.020
16756SOL    HW150292   3.488   9.139   7.932
16756SOL    HW250293   3.511   9.088   8.085
16757SOL     OW50294   2.460   8.177   7.718
16757SOL    HW150295   2.484   8.246   7.650
16757SOL    HW250296   2.382   8.210   7.772
16758SOL     OW50297   3.143   7.793   8.392
16758SOL    HW150298   3.057   7.743   8.379
16758SOL    HW250299   3.205   7.739   8.448
16759SOL     OW50300   3.438   9.110   7.755
16759SOL    HW150301   3.527   9.156   7.758
16759SOL    HW250302   3.417   9.086   7.660
16760SOL     OW50303   2.669   8.053   8.913
16760SOL    HW150304   2.622   8.050   9.002
16760SOL    HW250305   2.618   7.998   8.847
16761SOL     OW50306   3.256   7.917   9.122
16761SOL    HW150307   3.236   7.960   9.210
16761SOL    HW250308   3.334   7.855   9.131
16762SOL     OW50309   2.835   8.338   9.020
16762SOL    HW150310   2.881   8.254   8.991
16762SOL    HW250311   2.779   8.372   8.945
16763SOL     OW50312   2.853   7.858   8.690
16763SOL    HW150313   2.776   7.892   8.744
16763SOL    HW250314   2.819   7.807   8.611
16764SOL     OW50315   2.903   8.149   7.877
16764SOL    HW150316   2.929   8.145   7.973
16764SOL    HW250317   2.818   8.098   7.863
16765SOL     OW50318   1.938   8.259   8.237
16765SOL    HW150319   2.037   8.247   8.246
16765SOL    HW250320   1.914   8.354   8.258
16766SOL     OW50321   1.992   9.269   9.019
16766SOL    HW150322   1.982   9.254   9.118
16766SOL    HW250323   1.906   9.305   8.983
16767SOL     OW50324   2.727   7.796   7.643
16767SOL    HW150325   2.786   7.859   7.594
16767SOL    HW250326   2.746   7.702   7.614
16768SOL     OW50327   3.581   8.033   9.279
16768SOL    HW150328   3.555   8.122   9.243
16768SOL    HW250329   3.579   7.965   9.206
16769SOL     OW50330   3.224   8.592   7.993
16769SOL    HW150331   3.307   8.563   7.945
16769SOL    HW250332   3.175   8.659   7.937
16770SOL     OW50333   2.412   7.644   8.333
16770SOL    HW150334   2.407   7.639   8.433
16770SOL    HW250335   2.414   7.740   8.304
16771SOL     OW50336   2.870   8.904   7.925
16771SOL    HW150337   2.824   8.976   7.873
16771SOL    HW250338   2.866   8.924   8.023
16772SOL     OW50339   2.213   9.249   8.301
16772SOL    HW150340   2.263   9.163   8.307
16772SOL    HW250341   2.278   9.326   8.298
16773SOL     OW50342   3.657   8.514   8.321
16773SOL    HW150343   3.595   8.499   8.245
16773SOL    HW250344   3.605   8.525   8.406
16774SOL     OW50345   3.089   8.998   8.954
16774SOL    HW150346   3.095   8.921   9.018
16774SOL    HW250347   3.037   8.972   8.874
16775SOL     OW50348   2.183   8.391   7.690
16775SOL    HW150349   2.265   8.430   7.648
16775SOL    HW250350   2.156   8.309   7.641
16776SOL     OW50351   3.320   8.183   8.176
16776SOL    HW150352   3.315   8.118   8.251
16776SOL    HW250353   3.400   8.242   8.189
16777SOL     OW50354   2.323   8.714   9.175
16777SOL    HW150355   2.273   8.715   9.089
16777SOL    HW250356   2.260   8.696   9.251
16778SOL     OW50357   2.973   9.224   7.685
16778SOL    HW150358   2.913   9.162   7.735
16778SOL    HW250359   3.004   9.180   7.600
16779SOL     OW50360   2.064   7.733   8.946
16779SOL    HW150361   1.984   7.793   8.933
16779SOL    HW250362   2.054   7.684   9.032
16780SOL     OW50363   3.494   8.825   7.529
16780SOL    HW150364   3.462   8.919   7.519
16780SOL    HW250365   3.418   8.762   7.517
16781SOL     OW50366   2.326   9.191   7.771
16781SOL    HW150367   2.359   9.230   7.857
16781SOL    HW250368   2.402   9.184   7.706
16782SOL     OW50369   3.262   7.555   7.874
16782SOL    HW150370   3.238   7.518   7.784
16782SOL    HW250371   3.361   7.571   7.878
16783SOL     OW50372   2.111   9.233   8.689
16783SOL    HW150373   2.168   9.168   8.739
16783SOL    HW250374   2.095   9.200   8.596
16784SOL     OW50375   2.802   9.146   8.352
16784SOL    HW150376   2.882   9.089   8.373
16784SOL    HW250377   2.753   9.106   8.275
16785SOL     OW50378   2.244   8.148   7.928
16785SOL    HW150379   2.289   8.058   7.925
16785SOL    HW250380   2.150   8.137   7.961
16786SOL     OW50381   3.409   7.670   9.177
16786SOL    HW150382   3.404   7.707   9.269
16786SOL    HW250383   3.337   7.601   9.165
16787SOL     OW50384   2.476   7.570   7.565
16787SOL    HW150385   2.574   7.548   7.572
16787SOL    HW250386   2.445   7.553   7.472
16788SOL     OW50387   2.643   7.712   9.197
16788SOL    HW150388   2.710   7.651   9.240
16788SOL    HW250389   2.570   7.731   9.262
16789SOL     OW50390   2.750   8.962   8.643
16789SOL    HW150391   2.727   8.937   8.549
16789SOL    HW250392   2.811   8.893   8.682
16790SOL     OW50393   3.213   8.038   8.881
16790SOL    HW150394   3.241   7.995   8.966
16790SOL    HW250395   3.238   8.134   8.882
16791SOL     OW50396   2.665   8.850   8.372
16791SOL    HW150397   2.755   8.864   8.330
16791SOL    HW250398   2.594   8.852   8.301
16792SOL     OW50399   2.784   7.951   8.347
16792SOL    HW150400   2.759   7.942   8.251
16792SOL    HW250401   2.832   7.869   8.378
16793SOL     OW50402   2.401   7.512   7.960
16793SOL    HW150403   2.320   7.513   8.018
16793SOL    HW250404   2.404   7.595   7.905
16794SOL     OW50405   3.296   8.636   7.489
16794SOL    HW150406   3.328   8.560   7.546
16794SOL    HW250407   3.204   8.663   7.519
16795SOL     OW50408   2.159   7.483   7.619
16795SOL    HW150409   2.208   7.567   7.598
16795SOL    HW250410   2.221   7.418   7.664
16796SOL     OW50411   2.797   7.684   7.928
16796SOL    HW150412   2.749   7.725   7.850
16796SOL    HW250413   2.896   7.682   7.909
16797SOL     OW50414   2.938   8.131   8.912
16797SOL    HW150415   2.858   8.070   8.915
16797SOL    HW250416   3.019   8.078   8.888
16798SOL     OW50417   3.089   9.018   8.241
16798SOL    HW150418   3.110   9.092   8.176
16798SOL    HW250419   3.157   9.018   8.314
16799SOL     OW50420   2.321   8.600   8.189
16799SOL    HW150421   2.250   8.573   8.254
16799SOL    HW250422   2.295   8.572   8.096
16800SOL     OW50423   3.133   9.245   8.039
16800SOL    HW150424   3.177   9.309   7.975
16800SOL    HW250425   3.083   9.297   8.109
16801SOL     OW50426   2.894   7.997   7.464
16801SOL    HW150427   2.853   8.079   7.425
16801SOL    HW250428   2.958   8.023   7.537
16802SOL     OW50429   1.940   8.004   8.834
16802SOL    HW150430   2.032   8.003   8.793
16802SOL    HW250431   1.934   8.078   8.901
16803SOL     OW50432   2.423   7.670   8.595
16803SOL    HW150433   2.461   7.586   8.632
16803SOL    HW250434   2.335   7.689   8.639
16804SOL     OW50435   2.728   7.902   8.090
16804SOL    HW150436   2.696   7.974   8.028
16804SOL    HW250437   2.752   7.821   8.037
16805SOL     OW50438   2.879   7.487   8.201
16805SOL    HW150439   2.807   7.492   8.132
16805SOL    HW250440   2.855   7.418   8.270
16806SOL     OW50441   3.291   8.621   8.315
16806SOL    HW150442   3.236   8.537   8.308
16806SOL    HW250443   3.317   8.650   8.223
16807SOL     OW50444   3.328   8.038   8.440
16807SOL    HW150445   3.298   7.943   8.447
16807SOL    HW250446   3.401   8.054   8.506
16808SOL     OW50447   3.719   8.281   7.825
16808SOL    HW150448   3.761   8.217   7.889
16808SOL    HW250449   3.681   8.230   7.747
16809SOL     OW50450   2.350   8.833   7.622
16809SOL    HW150451   2.263   8.818   7.669
16809SOL    HW250452   2.333   8.859   7.527
16810SOL     OW50453   3.526   8.728   8.105
16810SOL    HW150454   3.625   8.736   8.119
16810SOL    HW250455   3.481   8.812   8.136
16811SOL     OW50456   3.252   8.023   7.526
16811SOL    HW150457   3.198   8.002   7.607
16811SOL    HW250458   3.343   7.982   7.535
16812SOL     OW50459   2.389   7.704   7.776
16812SOL    HW150460   2.416   7.645   7.701
16812SOL    HW250461   2.389   7.799   7.745
16813SOL     OW50462   3.616   8.671   9.036
16813SOL    HW150463   3.707   8.632   9.023
16813SOL    HW250464   3.624   8.767   9.060
16814SOL     OW50465   2.926   8.795   8.788
16814SOL    HW150466   2.846   8.772   8.843
16814SOL    HW250467   3.009   8.769   8.837
16815SOL     OW50468   3.454   9.077   9.073
16815SOL    HW150469   3.481   9.111   8.983
16815SOL    HW250470   3.533   9.039   9.119
16816SOL     OW50471   2.973   8.643   8.548
16816SOL    HW150472   2.933   8.687   8.629
16816SOL    HW250473   2.932   8.680   8.465
16817SOL     OW50474   3.500   8.547   8.527
16817SOL    HW150475   3.505   8.628   8.586
16817SOL    HW250476   3.414   8.549   8.476
16818SOL     OW50477   2.777   7.537   8.850
16818SOL    HW150478   2.802   7.517   8.755
16818SOL    HW250479   2.849   7.593   8.892
16819SOL     OW50480   2.842   8.564   9.167
16819SOL    HW150481   2.743   8.570   9.177
16819SOL    HW250482   2.865   8.484   9.111
16820SOL     OW50483   2.567   8.498   7.816
16820SOL    HW150484   2.553   8.505   7.915
16820SOL    HW250485   2.651   8.447   7.798
16821SOL     OW50486   2.272   8.261   8.699
16821SOL    HW150487   2.358   8.273   8.749
16821SOL    HW250488   2.230   8.174   8.726
16822SOL     OW50489   3.136   7.834   8.710
16822SOL    HW150490   3.157   7.908   8.774
16822SOL    HW250491   3.047   7.851   8.667
16823SOL     OW50492   1.926   9.012   8.779
16823SOL    HW150493   1.880   9.094   8.745
16823SOL    HW250494   2.024   9.031   8.788
16824SOL     OW50495   2.229   8.548   7.949
16824SOL    HW150496   2.222   8.631   7.893
16824SOL    HW250497   2.233   8.468   7.889
16825SOL     OW50498   2.428   7.985   8.313
16825SOL    HW150499   2.440   8.051   8.239
16825SOL    HW250500   2.474   8.019   8.396
16826SOL     OW50501   3.114   8.796   7.836
16826SOL    HW150502   3.164   8.873   7.876
16826SOL    HW250503   3.019   8.798   7.868
16827SOL     OW50504   3.134   8.893   8.590
16827SOL    HW150505   3.181   8.906   8.677
16827SOL    HW250506   3.068   8.819   8.599
16828SOL     OW50507   3.444   8.087   7.920
16828SOL    HW150508   3.413   8.148   7.993
16828SOL    HW250509   3.494   8.139   7.851
16829SOL     OW50510   2.216   8.958   8.777
16829SOL    HW150511   2.195   8.914   8.690
16829SOL    HW250512   2.313   8.984   8.780
16830SOL     OW50513   2.264   8.199   9.046
16830SOL    HW150514   2.332   8.254   8.999
16830SOL    HW250515   2.304   8.111   9.073
16831SOL     OW50516   3.449   8.227   9.118
16831SOL    HW150517   3.357   8.265   9.113
16831SOL    HW250518   3.509   8.274   9.053
16832SOL     OW50519   2.875   7.553   9.218
16832SOL    HW150520   2.881   7.638   9.166
16832SOL    HW250521   2.907   7.477   9.161
16833SOL     OW50522   2.366   7.498   9.188
16833SOL    HW150523   2.324   7.441   9.118
16833SOL    HW250524   2.300   7.567   9.220
16834SOL     OW50525   2.435   8.318   8.477
16834SOL    HW150526   2.479   8.407   8.468
16834SOL    HW250527   2.372   8.318   8.554
16835SOL     OW50528   3.222   8.310   8.493
16835SOL    HW150529   3.147   8.310   8.427
16835SOL    HW250530   3.259   8.218   8.502
16836SOL     OW50531   3.071   7.973   7.723
16836SOL    HW150532   3.084   7.889   7.777
16836SOL    HW250533   3.042   8.047   7.783
16837SOL     OW50534   2.169   7.661   8.679
16837SOL    HW150535   2.146   7.698   8.769
16837SOL    HW250536   2.139   7.566   8.673
16838SOL     OW50537   1.899   8.758   8.730
16838SOL    HW150538   1.952   8.709   8.798
16838SOL    HW250539   1.921   8.856   8.735
16839SOL     OW50540   2.594   8.082   8.512
16839SOL    HW150541   2.653   8.056   8.436
16839SOL    HW250542   2.566   8.178   8.501
16840SOL     OW50543   3.590   8.383   9.302
16840SOL    HW150544   3.544   8.376   9.213
16840SOL    HW250545   3.528   8.427   9.368
16841SOL     OW50546   2.169   7.511   8.066
16841SOL    HW150547   2.158   7.605   8.099
16841SOL    HW250548   2.164   7.448   8.143
16842SOL     OW50549   3.484   7.815   7.822
16842SOL    HW150550   3.486   7.739   7.886
16842SOL    HW250551   3.436   7.892   7.862
16843SOL     OW50552   2.885   8.214   8.414
16843SOL    HW150553   2.900   8.235   8.510
16843SOL    HW250554   2.855   8.119   8.405
16844SOL     OW50555   2.842   9.021   9.148
16844SOL    HW150556   2.822   9.065   9.060
16844SOL    HW250557   2.881   8.930   9.132
16845SOL     OW50558   3.721   8.966   9.053
16845SOL    HW150559   3.735   8.993   8.958
16845SOL    HW250560   3.804   8.988   9.106
16846SOL     OW50561   2.212   8.346   9.252
16846SOL    HW150562   2.288   8.390   9.300
16846SOL    HW250563   2.247   8.299   9.170
16847SOL     OW50564   3.402   7.722   7.573
16847SOL    HW150565   3.341   7.647   7.596
16847SOL    HW250566   3.424   7.774   7.656
16848SOL     OW50567   3.165   8.286   7.490
16848SOL    HW150568   3.199   8.193   7.505
16848SOL    HW250569   3.183   8.313   7.395
16849SOL     OW50570   2.930   8.781   8.297
16849SOL    HW150571   2.937   8.697   8.242
16849SOL    HW250572   2.992   8.850   8.261
16850SOL     OW50573   2.181   8.258   8.397
16850SOL    HW150574   2.274   8.294   8.402
16850SOL    HW250575   2.175   8.173   8.449
16851SOL     OW50576   2.201   7.957   8.454
16851SOL    HW150577   2.149   7.874   8.437
16851SOL    HW250578   2.278   7.962   8.390
16852SOL     OW50579   3.000   7.828   9.126
16852SOL    HW150580   2.955   7.891   9.190
16852SOL    HW250581   3.093   7.859   9.109
16853SOL     OW50582   3.022   7.655   8.925
16853SOL    HW150583   3.022   7.719   9.002
16853SOL    HW250584   3.050   7.703   8.842
16854SOL     OW50585   1.870   8.774   7.648
16854SOL    HW150586   1.777   8.795   7.617
16854SOL    HW250587   1.880   8.675   7.661
16855SOL     OW50588   1.950   9.249   8.375
16855SOL    HW150589   1.908   9.163   8.348
16855SOL    HW250590   2.044   9.252   8.341
16856SOL     OW50591   2.366   9.016   8.358
16856SOL    HW150592   2.432   9.090   8.367
16856SOL    HW250593   2.410   8.937   8.316
16857SOL     OW50594   2.864   8.244   8.686
16857SOL    HW150595   2.905   8.212   8.772
16857SOL    HW250596   2.768   8.217   8.683
16858SOL     OW50597   1.902   7.992   8.562
16858SOL    HW150598   1.987   7.959   8.521
16858SOL    HW250599   1.915   8.007   8.660
16859SOL     OW50600   2.051   7.968   9.170
16859SOL    HW150601   2.110   7.928   9.100
16859SOL    HW250602   1.993   8.039   9.129
16860SOL     OW50603   3.231   8.398   9.108
16860SOL    HW150604   3.270   8.487   9.128
16860SOL    HW250605   3.241   8.378   9.011
16861SOL     OW50606   2.677   8.020   7.773
16861SOL    HW150607   2.684   7.931   7.727
16861SOL    HW250608   2.583   8.054   7.765
16862SOL     OW50609   3.519   8.052   8.654
16862SOL    HW150610   3.481   7.983   8.716
16862SOL    HW250611   3.601   8.016   8.610
16863SOL     OW50612   2.114   9.012   9.192
16863SOL    HW150613   2.084   9.069   9.268
16863SOL    HW250614   2.107   8.915   9.218
16864SOL     OW50615   2.533   7.912   8.717
16864SOL    HW150616   2.499   7.823   8.687
16864SOL    HW250617   2.559   7.966   8.637
16865SOL     OW50618   2.792   9.126   8.913
16865SOL    HW150619   2.768   9.108   8.818
16865SOL    HW250620   2.822   9.220   8.923
16866SOL     OW50621   2.335   7.948   7.639
16866SOL    HW150622   2.396   8.028   7.643
16866SOL    HW250623   2.240   7.979   7.646
16867SOL     OW50624   2.021   8.585   8.914
16867SOL    HW150625   2.043   8.524   8.990
16867SOL    HW250626   2.031   8.536   8.828
16868SOL     OW50627   3.209   8.507   8.682
16868SOL    HW150628   3.233   8.444   8.608
16868SOL    HW250629   3.119   8.547   8.664
16869SOL     OW50630   3.164   8.303   7.757
16869SOL    HW150631   3.078   8.272   7.799
16869SOL    HW250632   3.160   8.289   7.658
16870SOL     OW50633   3.621   9.195   8.602
16870SOL    HW150634   3.682   9.225   8.529
16870SOL    HW250635   3.583   9.106   8.580
16871SOL     OW50636   3.114   9.179   8.576
16871SOL    HW150637   3.198   9.184   8.522
16871SOL    HW250638   3.091   9.083   8.594
16872SOL     OW50639   1.945   8.706   8.470
16872SOL    HW150640   1.940   8.705   8.570
16872SOL    HW250641   1.862   8.665   8.432
16873SOL     OW50642   2.550   9.110   9.164
16873SOL    HW150643   2.494   9.191   9.173
16873SOL    HW250644   2.602   9.114   9.078
16874SOL     OW50645   3.588   7.583   7.971
16874SOL    HW150646   3.661   7.566   7.904
16874SOL    HW250647   3.557   7.496   8.009
16875SOL     OW50648   3.250   9.021   7.925
16875SOL    HW150649   3.317   9.033   7.851
16875SOL    HW250650   3.210   9.110   7.948
16876SOL     OW50651   1.992   9.242   9.299
16876SOL    HW150652   1.951   9.168   9.352
16876SOL    HW250653   2.056   9.293   9.357
16877SOL     OW50654   3.142   8.375   8.120
16877SOL    HW150655   3.202   8.294   8.122
16877SOL    HW250656   3.182   8.444   8.060
16878SOL     OW50657   2.692   8.721   8.870
16878SOL    HW150658   2.687   8.754   8.965
16878SOL    HW250659   2.606   8.740   8.824
16879SOL     OW50660   2.534   9.064   7.602
16879SOL    HW150661   2.543   9.074   7.503
16879SOL    HW250662   2.494   8.975   7.623
16880SOL     OW50663   3.512   9.168   8.842
16880SOL    HW150664   3.565   9.178   8.758
16880SOL    HW250665   3.485   9.258   8.876
16881SOL     OW50666   3.703   7.623   8.411
16881SOL    HW150667   3.742   7.538   8.375
16881SOL    HW250668   3.605   7.625   8.392
16882SOL     OW50669   2.125   7.774   8.168
16882SOL    HW150670   2.046   7.825   8.134
16882SOL    HW250671   2.116   7.759   8.266
16883SOL     OW50672   3.056   9.060   7.479
16883SOL    HW150673   3.062   8.967   7.516
16883SOL    HW250674   2.997   9.060   7.399
16884SOL     OW50675   2.684   8.450   8.820
16884SOL    HW150676   2.724   8.449   8.728
16884SOL    HW250677   2.694   8.542   8.860
16885SOL     OW50678   2.778   8.358   7.739
16885SOL    HW150679   2.841   8.396   7.671
16885SOL    HW250680   2.818   8.275   7.778
16886SOL     OW50681   3.366   9.055   7.492
16886SOL    HW150682   3.274   9.092   7.499
16886SOL    HW250683   3.404   9.075   7.402
16887SOL     OW50684   2.234   8.736   8.938
16887SOL    HW150685   2.221   8.829   8.904
16887SOL    HW250686   2.150   8.684   8.925
16888SOL     OW50687   3.476   8.740   8.737
16888SOL    HW150688   3.536   8.743   8.817
16888SOL    HW250689   3.401   8.804   8.750
16889SOL     OW50690   2.901   8.546   8.144
16889SOL    HW150691   2.831   8.499   8.198
16889SOL    HW250692   2.960   8.478   8.101
16890SOL     OW50693   2.876   7.684   8.419
16890SOL    HW150694   2.868   7.648   8.326
16890SOL    HW250695   2.874   7.608   8.484
16891SOL     OW50696   2.452   8.935   7.939
16891SOL    HW150697   2.494   8.877   7.869
16891SOL    HW250698   2.408   9.014   7.895
16892SOL     OW50699   3.571   7.833   8.829
16892SOL    HW150700   3.644   7.902   8.833
16892SOL    HW250701   3.599   7.758   8.770
16893SOL     OW50702   2.117   8.796   7.738
16893SOL    HW150703   2.021   8.797   7.711
16893SOL    HW250704   2.129   8.849   7.822
16894SOL     OW50705   1.967   8.461   9.174
16894SOL    HW150706   1.890   8.428   9.228
16894SOL    HW250707   2.052   8.431   9.216
16895SOL     OW50708   2.534   7.651   8.937
16895SOL    HW150709   2.624   7.635   8.897
16895SOL    HW250710   2.542   7.656   9.036
16896SOL     OW50711   1.937   7.793   7.481
16896SOL    HW150712   1.845   7.765   7.452
16896SOL    HW250713   1.968   7.870   7.425
16897SOL     OW50714   3.302   8.304   8.846
16897SOL    HW150715   3.245   8.356   8.783
16897SOL    HW250716   3.398   8.316   8.822
16898SOL     OW50717   1.934   7.614   7.766
16898SOL    HW150718   1.917   7.697   7.712
16898SOL    HW250719   2.024   7.577   7.744
16899SOL     OW50720   3.045   8.783   7.567
16899SOL    HW150721   2.946   8.772   7.569
16899SOL    HW250722   3.079   8.798   7.660
16900SOL     OW50723   2.475   8.290   8.879
16900SOL    HW150724   2.531   8.371   8.862
16900SOL    HW250725   2.534   8.210   8.882
16901SOL     OW50726   3.355   9.215   8.407
16901SOL    HW150727   3.388   9.279   8.338
16901SOL    HW250728   3.421   9.209   8.482
16902SOL     OW50729   2.578   8.013   9.156
16902SOL    HW150730   2.597   8.078   9.230
16902SOL    HW250731   2.638   7.933   9.165
16903SOL     OW50732   3.312   8.668   9.081
16903SOL    HW150733   3.303   8.658   9.180
16903SOL    HW250734   3.408   8.661   9.055
16904SOL     OW50735   2.252   9.189   9.008
16904SOL    HW150736   2.161   9.230   9.006
16904SOL    HW250737   2.245   9.095   9.040
16905SOL     OW50738   3.536   8.331   8.702
16905SOL    HW150739   3.509   8.242   8.665
16905SOL    HW250740   3.537   8.399   8.629
16906SOL     OW50741   3.087   7.773   7.897
16906SOL    HW150742   3.152   7.699   7.886
16906SOL    HW250743   3.107   7.823   7.981
16907SOL     OW50744   2.456   8.193   8.100
16907SOL    HW150745   2.506   8.278   8.081
16907SOL    HW250746   2.368   8.195   8.052
16908SOL     OW50747   3.639   7.790   9.090
16908SOL    HW150748   3.622   7.821   8.996
16908SOL    HW250749   3.555   7.753   9.128
16909SOL     OW50750   3.592   8.382   8.965
16909SOL    HW150751   3.630   8.473   8.980
16909SOL    HW250752   3.584   8.365   8.866
16910SOL     OW50753   2.721   8.822   7.464
16910SOL    HW150754   2.675   8.837   7.552
16910SOL    HW250755   2.765   8.907   7.434
16911SOL     OW50756   2.523   9.238   8.401
16911SOL    HW150757   2.477   9.326   8.388
16911SOL    HW250758   2.622   9.250   8.394
16912SOL     OW50759   2.721   8.404   8.309
16912SOL    HW150760   2.775   8.335   8.357
16912SOL    HW250761   2.689   8.473   8.375
16913SOL     OW50762   2.945   8.432   7.535
16913SOL    HW150763   2.922   8.485   7.453
16913SOL    HW250764   3.026   8.376   7.516
16914SOL     OW50765   3.723   9.017   8.299
16914SOL    HW150766   3.652   9.005   8.229
16914SOL    HW250767   3.724   8.938   8.359
16915SOL     OW50768   2.083   8.762   9.292
16915SOL    HW150769   2.018   8.689   9.271
16915SOL    HW250770   2.087   8.776   9.390
16916SOL     OW50771   1.941   8.688   8.101
16916SOL    HW150772   1.940   8.641   8.189
16916SOL    HW250773   2.023   8.660   8.050
16917SOL     OW50774   2.534   8.839   9.072
16917SOL    HW150775   2.456   8.789   9.110
16917SOL    HW250776   2.531   8.934   9.103
16918SOL     OW50777   3.686   7.640   8.675
16918SOL    HW150778   3.682   7.550   8.719
16918SOL    HW250779   3.689   7.629   8.576
16919SOL     OW50780   2.290   7.872   7.968
16919SOL    HW150781   2.320   7.800   7.906
16919SOL    HW250782   2.251   7.832   8.051
16920SOL     OW50783   3.567   8.935   8.552
16920SOL    HW150784   3.474   8.910   8.525
16920SOL    HW250785   3.593   8.885   8.634
16921SOL     OW50786   2.179   7.995   8.728
16921SOL    HW150787   2.217   7.936   8.800
16921SOL    HW250788   2.219   7.969   8.640
16922SOL     OW50789   2.674   9.034   8.135
16922SOL    HW150790   2.706   9.044   8.041
16922SOL    HW250791   2.595   8.972   8.137
16923SOL     OW50792   3.286   7.662   8.560
16923SOL    HW150793   3.338   7.597   8.615
16923SOL    HW250794   3.237   7.725   8.621
16924SOL     OW50795   2.863   7.482   8.602
16924SOL    HW150796   2.800   7.410   8.571
16924SOL    HW250797   2.956   7.446   8.602
16925SOL     OW50798   2.632   8.778   7.749
16925SOL    HW150799   2.586   8.691   7.766
16925SOL    HW250800   2.723   8.775   7.790
16926SOL     OW50801   2.480   9.015   8.732
16926SOL    HW150802   2.475   9.097   8.789
16926SOL    HW250803   2.569   9.012   8.687
16927SOL     OW50804   3.214   7.500   7.616
16927SOL    HW150805   3.249   7.459   7.532
16927SOL    HW250806   3.124   7.462   7.636
16928SOL     OW50807   3.162   7.901   8.139
16928SOL    HW150808   3.103   7.981   8.143
16928SOL    HW250809   3.177   7.866   8.232
16929SOL     OW50810   3.455   7.669   8.330
16929SOL    HW150811   3.371   7.668   8.384
16929SOL    HW250812   3.457   7.752   8.274
16930SOL     OW50813   1.901   8.525   7.748
16930SOL    HW150814   2.000   8.514   7.739
16930SOL    HW250815   1.861   8.439   7.780
16931SOL     OW50816   2.737   9.094   7.785
16931SOL    HW150817   2.660   9.059   7.731
16931SOL    HW250818   2.705   9.165   7.847
16932SOL     OW50819   2.092   8.076   9.423
16932SOL    HW150820   1.999   8.074   9.460
16932SOL    HW250821   2.093   8.037   9.331
16933SOL     OW50822   2.087   7.723  10.306
16933SOL    HW150823   2.122   7.706  10.398
16933SOL    HW250824   1.999   7.678  10.294
16934SOL     OW50825   1.881   7.816   9.957
16934SOL    HW150826   1.799   7.859   9.996
16934SOL    HW250827   1.853   7.743   9.894
16935SOL     OW50828   2.431   8.723  10.475
16935SOL    HW150829   2.338   8.716  10.438
16935SOL    HW250830   2.442   8.812  10.519
16936SOL     OW50831   3.417   8.959  10.013
16936SOL    HW150832   3.360   8.943  10.094
16936SOL    HW250833   3.358   8.969   9.933
16937SOL     OW50834   2.997   8.151  10.027
16937SOL    HW150835   3.054   8.229  10.002
16937SOL    HW250836   2.937   8.177  10.103
16938SOL     OW50837   3.617   8.055   9.541
16938SOL    HW150838   3.605   8.042   9.442
16938SOL    HW250839   3.587   7.974   9.590
16939SOL     OW50840   2.630   8.592  10.333
16939SOL    HW150841   2.552   8.609  10.393
16939SOL    HW250842   2.664   8.679  10.297
16940SOL     OW50843   2.712   8.246  11.133
16940SOL    HW150844   2.708   8.322  11.198
16940SOL    HW250845   2.734   8.282  11.042
16941SOL     OW50846   2.547   8.460   9.975
16941SOL    HW150847   2.616   8.444  10.045
16941SOL    HW250848   2.474   8.517  10.013
16942SOL     OW50849   2.548   8.609  11.113
16942SOL    HW150850   2.608   8.688  11.127
16942SOL    HW250851   2.462   8.640  11.072
16943SOL     OW50852   2.197   8.883  10.371
16943SOL    HW150853   2.119   8.852  10.318
16943SOL    HW250854   2.255   8.941  10.314
16944SOL     OW50855   3.322   8.953  10.649
16944SOL    HW150856   3.346   9.047  10.675
16944SOL    HW250857   3.306   8.899  10.731
16945SOL     OW50858   2.300   7.840  10.809
16945SOL    HW150859   2.382   7.784  10.818
16945SOL    HW250860   2.219   7.782  10.813
16946SOL     OW50861   3.465   7.895  10.047
16946SOL    HW150862   3.391   7.941   9.997
16946SOL    HW250863   3.516   7.963  10.100
16947SOL     OW50864   2.093   9.161   9.793
16947SOL    HW150865   2.127   9.238   9.847
16947SOL    HW250866   2.137   9.161   9.703
16948SOL     OW50867   2.989   8.789  11.000
16948SOL    HW150868   3.036   8.789  11.088
16948SOL    HW250869   2.941   8.702  10.989
16949SOL     OW50870   2.092   8.882   9.848
16949SOL    HW150871   2.066   8.978   9.848
16949SOL    HW250872   2.021   8.828   9.893
16950SOL     OW50873   2.102   8.539  10.196
16950SOL    HW150874   2.116   8.455  10.248
16950SOL    HW250875   2.047   8.603  10.251
16951SOL     OW50876   2.482   9.234  10.749
16951SOL    HW150877   2.390   9.217  10.784
16951SOL    HW250878   2.510   9.326  10.775
16952SOL     OW50879   2.468   8.412   9.433
16952SOL    HW150880   2.475   8.496   9.379
16952SOL    HW250881   2.514   8.425   9.521
16953SOL     OW50882   3.456   7.562  10.790
16953SOL    HW150883   3.438   7.629  10.718
16953SOL    HW250884   3.453   7.608  10.879
16954SOL     OW50885   1.984   8.091   9.873
16954SOL    HW150886   1.939   8.003   9.890
16954SOL    HW250887   1.983   8.145   9.957
16955SOL     OW50888   3.704   9.215   9.669
16955SOL    HW150889   3.758   9.186   9.749
16955SOL    HW250890   3.734   9.305   9.640
16956SOL     OW50891   1.889   9.044   9.427
16956SOL    HW150892   1.870   8.948   9.448
16956SOL    HW250893   1.856   9.102   9.502
16957SOL     OW50894   3.551   8.370   9.922
16957SOL    HW150895   3.646   8.341   9.930
16957SOL    HW250896   3.543   8.435   9.847
16958SOL     OW50897   3.503   8.556   9.742
16958SOL    HW150898   3.589   8.558   9.690
16958SOL    HW250899   3.517   8.603   9.830
16959SOL     OW50900   1.975   8.185  10.907
16959SOL    HW150901   2.063   8.172  10.952
16959SOL    HW250902   1.962   8.282  10.885
16960SOL     OW50903   2.475   8.813  10.036
16960SOL    HW150904   2.426   8.726  10.045
16960SOL    HW250905   2.452   8.856   9.949
16961SOL     OW50906   3.155   8.676  10.733
16961SOL    HW150907   3.192   8.603  10.675
16961SOL    HW250908   3.207   8.681  10.818
16962SOL     OW50909   2.671   7.452   9.812
16962SOL    HW150910   2.711   7.543   9.803
16962SOL    HW250911   2.571   7.460   9.818
16963SOL     OW50912   2.059   8.424  10.574
16963SOL    HW150913   2.148   8.379  10.560
16963SOL    HW250914   1.986   8.359  10.555
16964SOL     OW50915   3.387   8.447   9.500
16964SOL    HW150916   3.324   8.371   9.513
16964SOL    HW250917   3.435   8.465   9.586
16965SOL     OW50918   3.049   9.240  10.926
16965SOL    HW150919   3.073   9.300  10.850
16965SOL    HW250920   3.056   9.145  10.896
16966SOL     OW50921   2.179   7.699  11.111
16966SOL    HW150922   2.250   7.770  11.117
16966SOL    HW250923   2.091   7.738  11.139
16967SOL     OW50924   3.328   8.865  10.263
16967SOL    HW150925   3.269   8.871  10.343
16967SOL    HW250926   3.313   8.777  10.217
16968SOL     OW50927   3.529   9.162   9.882
16968SOL    HW150928   3.488   9.139   9.794
16968SOL    HW250929   3.511   9.088   9.947
16969SOL     OW50930   2.460   8.177   9.580
16969SOL    HW150931   2.484   8.246   9.512
16969SOL    HW250932   2.382   8.210   9.634
16970SOL     OW50933   3.143   7.793  10.254
16970SOL    HW150934   3.057   7.743  10.241
16970SOL    HW250935   3.205   7.739  10.310
16971SOL     OW50936   3.438   9.110   9.617
16971SOL    HW150937   3.527   9.156   9.620
16971SOL    HW250938   3.417   9.086   9.522
16972SOL     OW50939   2.669   8.053  10.775
16972SOL    HW150940   2.622   8.050  10.864
16972SOL    HW250941   2.618   7.998  10.709
16973SOL     OW50942   3.256   7.917  10.984
16973SOL    HW150943   3.236   7.960  11.072
16973SOL    HW250944   3.334   7.855  10.993
16974SOL     OW50945   2.835   8.338  10.882
16974SOL    HW150946   2.881   8.254  10.853
16974SOL    HW250947   2.779   8.372  10.807
16975SOL     OW50948   2.853   7.858  10.552
16975SOL    HW150949   2.776   7.892  10.606
16975SOL    HW250950   2.819   7.807  10.473
16976SOL     OW50951   2.903   8.149   9.739
16976SOL    HW150952   2.929   8.145   9.835
16976SOL    HW250953   2.818   8.098   9.725
16977SOL     OW50954   1.938   8.259  10.099
16977SOL    HW150955   2.037   8.247  10.108
16977SOL    HW250956   1.914   8.354  10.120
16978SOL     OW50957   1.992   9.269  10.881
16978SOL    HW150958   1.982   9.254  10.980
16978SOL    HW250959   1.906   9.305  10.845
16979SOL     OW50960   2.727   7.796   9.505
16979SOL    HW150961   2.786   7.859   9.456
16979SOL    HW250962   2.746   7.702   9.476
16980SOL     OW50963   3.581   8.033  11.141
16980SOL    HW150964   3.555   8.122  11.105
16980SOL    HW250965   3.579   7.965  11.068
16981SOL     OW50966   3.224   8.592   9.855
16981SOL    HW150967   3.307   8.563   9.807
16981SOL    HW250968   3.175   8.659   9.799
16982SOL     OW50969   2.412   7.644  10.195
16982SOL    HW150970   2.407   7.639  10.295
16982SOL    HW250971   2.414   7.740  10.166
16983SOL     OW50972   2.870   8.904   9.787
16983SOL    HW150973   2.824   8.976   9.735
16983SOL    HW250974   2.866   8.924   9.885
16984SOL     OW50975   2.213   9.249  10.163
16984SOL    HW150976   2.263   9.163  10.169
16984SOL    HW250977   2.278   9.326  10.160
16985SOL     OW50978   3.657   8.514  10.183
16985SOL    HW150979   3.595   8.499  10.107
16985SOL    HW250980   3.605   8.525  10.268
16986SOL     OW50981   3.089   8.998  10.816
16986SOL    HW150982   3.095   8.921  10.880
16986SOL    HW250983   3.037   8.972  10.736
16987SOL     OW50984   2.183   8.391   9.552
16987SOL    HW150985   2.265   8.430   9.510
16987SOL    HW250986   2.156   8.309   9.503
16988SOL     OW50987   3.320   8.183  10.038
16988SOL    HW150988   3.315   8.118  10.113
16988SOL    HW250989   3.400   8.242  10.051
16989SOL     OW50990   2.323   8.714  11.037
16989SOL    HW150991   2.273   8.715  10.951
16989SOL    HW250992   2.260   8.696  11.113
16990SOL     OW50993   2.973   9.224   9.547
16990SOL    HW150994   2.913   9.162   9.597
16990SOL    HW250995   3.004   9.180   9.462
16991SOL     OW50996   2.064   7.733  10.808
16991SOL    HW150997   1.984   7.793  10.795
16991SOL    HW250998   2.054   7.684  10.894
16992SOL     OW50999   3.494   8.825   9.391
16992SOL    HW151000   3.462   8.919   9.381
16992SOL    HW251001   3.418   8.762   9.379
16993SOL     OW51002   2.326   9.191   9.633
16993SOL    HW151003   2.359   9.230   9.719
16993SOL    HW251004   2.402   9.184   9.568
16994SOL     OW51005   3.262   7.555   9.736
16994SOL    HW151006   3.238   7.518   9.646
16994SOL    HW251007   3.361   7.571   9.740
16995SOL     OW51008   2.111   9.233  10.551
16995SOL    HW151009   2.168   9.168  10.601
16995SOL    HW251010   2.095   9.200  10.458
16996SOL     OW51011   2.802   9.146  10.214
16996SOL    HW151012   2.882   9.089  10.235
16996SOL    HW251013   2.753   9.106  10.137
16997SOL     OW51014   2.244   8.148   9.790
16997SOL    HW151015   2.289   8.058   9.787
16997SOL    HW251016   2.150   8.137   9.823
16998SOL     OW51017   3.409   7.670  11.039
16998SOL    HW151018   3.404   7.707  11.131
16998SOL    HW251019   3.337   7.601  11.027
16999SOL     OW51020   2.476   7.570   9.427
16999SOL    HW151021   2.574   7.548   9.434
16999SOL    HW251022   2.445   7.553   9.334
17000SOL     OW51023   2.643   7.712  11.059
17000SOL    HW151024   2.710   7.651  11.102
17000SOL    HW251025   2.570   7.731  11.124
17001SOL     OW51026   2.750   8.962  10.505
17001SOL    HW151027   2.727   8.937  10.411
17001SOL    HW251028   2.811   8.893  10.544
17002SOL     OW51029   3.213   8.038  10.743
17002SOL    HW151030   3.241   7.995  10.828
17002SOL    HW251031   3.238   8.134  10.744
17003SOL     OW51032   2.665   8.850  10.234
17003SOL    HW151033   2.755   8.864  10.192
17003SOL    HW251034   2.594   8.852  10.163
17004SOL     OW51035   2.784   7.951  10.209
17004SOL    HW151036   2.759   7.942  10.113
17004SOL    HW251037   2.832   7.869  10.240
17005SOL     OW51038   2.401   7.512   9.822
17005SOL    HW151039   2.320   7.513   9.880
17005SOL    HW251040   2.404   7.595   9.767
17006SOL     OW51041   3.296   8.636   9.351
17006SOL    HW151042   3.328   8.560   9.408
17006SOL    HW251043   3.204   8.663   9.381
17007SOL     OW51044   2.159   7.483   9.481
17007SOL    HW151045   2.208   7.567   9.460
17007SOL    HW251046   2.221   7.418   9.526
17008SOL     OW51047   2.797   7.684   9.790
17008SOL    HW151048   2.749   7.725   9.712
17008SOL    HW251049   2.896   7.682   9.771
17009SOL     OW51050   2.938   8.131  10.774
17009SOL    HW151051   2.858   8.070  10.777
17009SOL    HW251052   3.019   8.078  10.750
17010SOL     OW51053   3.089   9.018  10.103
17010SOL    HW151054   3.110   9.092  10.038
17010SOL    HW251055   3.157   9.018  10.176
17011SOL     OW51056   2.321   8.600  10.051
17011SOL    HW151057   2.250   8.573  10.116
17011SOL    HW251058   2.295   8.572   9.958
17012SOL     OW51059   3.133   9.245   9.901
17012SOL    HW151060   3.177   9.309   9.837
17012SOL    HW251061   3.083   9.297   9.971
17013SOL     OW51062   2.894   7.997   9.326
17013SOL    HW151063   2.853   8.079   9.287
17013SOL    HW251064   2.958   8.023   9.399
17014SOL     OW51065   1.940   8.004  10.696
17014SOL    HW151066   2.032   8.003  10.655
17014SOL    HW251067   1.934   8.078  10.763
17015SOL     OW51068   2.423   7.670  10.457
17015SOL    HW151069   2.461   7.586  10.494
17015SOL    HW251070   2.335   7.689  10.501
17016SOL     OW51071   2.728   7.902   9.952
17016SOL    HW151072   2.696   7.974   9.890
17016SOL    HW251073   2.752   7.821   9.899
17017SOL     OW51074   2.879   7.487  10.063
17017SOL    HW151075   2.807   7.492   9.994
17017SOL    HW251076   2.855   7.418  10.132
17018SOL     OW51077   3.291   8.621  10.177
17018SOL    HW151078   3.236   8.537  10.170
17018SOL    HW251079   3.317   8.650  10.085
17019SOL     OW51080   3.328   8.038  10.302
17019SOL    HW151081   3.298   7.943  10.309
17019SOL    HW251082   3.401   8.054  10.368
17020SOL     OW51083   3.719   8.281   9.687
17020SOL    HW151084   3.761   8.217   9.751
17020SOL    HW251085   3.681   8.230   9.609
17021SOL     OW51086   2.350   8.833   9.484
17021SOL    HW151087   2.263   8.818   9.531
17021SOL    HW251088   2.333   8.859   9.389
17022SOL     OW51089   3.526   8.728   9.967
17022SOL    HW151090   3.625   8.736   9.981
17022SOL    HW251091   3.481   8.812   9.998
17023SOL     OW51092   3.252   8.023   9.388
17023SOL    HW151093   3.198   8.002   9.469
17023SOL    HW251094   3.343   7.982   9.397
17024SOL     OW51095   2.389   7.704   9.638
17024SOL    HW151096   2.416   7.645   9.563
17024SOL    HW251097   2.389   7.799   9.607
17025SOL     OW51098   3.616   8.671  10.898
17025SOL    HW151099   3.707   8.632  10.885
17025SOL    HW251100   3.624   8.767  10.922
17026SOL     OW51101   2.926   8.795  10.650
17026SOL    HW151102   2.846   8.772  10.705
17026SOL    HW251103   3.009   8.769  10.699
17027SOL     OW51104   3.454   9.077  10.935
17027SOL    HW151105   3.481   9.111  10.845
17027SOL    HW251106   3.533   9.039  10.981
17028SOL     OW51107   2.973   8.643  10.410
17028SOL    HW151108   2.933   8.687  10.491
17028SOL    HW251109   2.932   8.680  10.327
17029SOL     OW51110   3.500   8.547  10.389
17029SOL    HW151111   3.505   8.628  10.448
17029SOL    HW251112   3.414   8.549  10.338
17030SOL     OW51113   2.777   7.537  10.712
17030SOL    HW151114   2.802   7.517  10.617
17030SOL    HW251115   2.849   7.593  10.754
17031SOL     OW51116   2.842   8.564  11.029
17031SOL    HW151117   2.743   8.570  11.039
17031SOL    HW251118   2.865   8.484  10.973
17032SOL     OW51119   2.567   8.498   9.678
17032SOL    HW151120   2.553   8.505   9.777
17032SOL    HW251121   2.651   8.447   9.660
17033SOL     OW51122   2.272   8.261  10.561
17033SOL    HW151123   2.358   8.273  10.611
17033SOL    HW251124   2.230   8.174  10.588
17034SOL     OW51125   3.136   7.834  10.572
17034SOL    HW151126   3.157   7.908  10.636
17034SOL    HW251127   3.047   7.851  10.529
17035SOL     OW51128   1.926   9.012  10.641
17035SOL    HW151129   1.880   9.094  10.607
17035SOL    HW251130   2.024   9.031  10.650
17036SOL     OW51131   2.229   8.548   9.811
17036SOL    HW151132   2.222   8.631   9.755
17036SOL    HW251133   2.233   8.468   9.751
17037SOL     OW51134   2.428   7.985  10.175
17037SOL    HW151135   2.440   8.051  10.101
17037SOL    HW251136   2.474   8.019  10.258
17038SOL     OW51137   3.114   8.796   9.698
17038SOL    HW151138   3.164   8.873   9.738
17038SOL    HW251139   3.019   8.798   9.730
17039SOL     OW51140   3.134   8.893  10.452
17039SOL    HW151141   3.181   8.906  10.539
17039SOL    HW251142   3.068   8.819  10.461
17040SOL     OW51143   3.444   8.087   9.782
17040SOL    HW151144   3.413   8.148   9.855
17040SOL    HW251145   3.494   8.139   9.713
17041SOL     OW51146   2.216   8.958  10.639
17041SOL    HW151147   2.195   8.914  10.552
17041SOL    HW251148   2.313   8.984  10.642
17042SOL     OW51149   2.264   8.199  10.908
17042SOL    HW151150   2.332   8.254  10.861
17042SOL    HW251151   2.304   8.111  10.935
17043SOL     OW51152   3.449   8.227  10.980
17043SOL    HW151153   3.357   8.265  10.975
17043SOL    HW251154   3.509   8.274  10.915
17044SOL     OW51155   2.875   7.553  11.080
17044SOL    HW151156   2.881   7.638  11.028
17044SOL    HW251157   2.907   7.477  11.023
17045SOL     OW51158   2.366   7.498  11.050
17045SOL    HW151159   2.324   7.441  10.980
17045SOL    HW251160   2.300   7.567  11.082
17046SOL     OW51161   2.435   8.318  10.339
17046SOL    HW151162   2.479   8.407  10.330
17046SOL    HW251163   2.372   8.318  10.416
17047SOL     OW51164   3.222   8.310  10.355
17047SOL    HW151165   3.147   8.310  10.289
17047SOL    HW251166   3.259   8.218  10.364
17048SOL     OW51167   3.071   7.973   9.585
17048SOL    HW151168   3.084   7.889   9.639
17048SOL    HW251169   3.042   8.047   9.645
17049SOL     OW51170   2.169   7.661  10.541
17049SOL    HW151171   2.146   7.698  10.631
17049SOL    HW251172   2.139   7.566  10.535
17050SOL     OW51173   1.899   8.758  10.592
17050SOL    HW151174   1.952   8.709  10.660
17050SOL    HW251175   1.921   8.856  10.597
17051SOL     OW51176   2.594   8.082  10.374
17051SOL    HW151177   2.653   8.056  10.298
17051SOL    HW251178   2.566   8.178  10.363
17052SOL     OW51179   3.590   8.383  11.164
17052SOL    HW151180   3.544   8.376  11.075
17052SOL    HW251181   3.528   8.427  11.230
17053SOL     OW51182   2.169   7.511   9.928
17053SOL    HW151183   2.158   7.605   9.961
17053SOL    HW251184   2.164   7.448  10.005
17054SOL     OW51185   3.484   7.815   9.684
17054SOL    HW151186   3.486   7.739   9.748
17054SOL    HW251187   3.436   7.892   9.724
17055SOL     OW51188   2.885   8.214  10.276
17055SOL    HW151189   2.900   8.235  10.372
17055SOL    HW251190   2.855   8.119  10.267
17056SOL     OW51191   2.842   9.021  11.010
17056SOL    HW151192   2.822   9.065  10.922
17056SOL    HW251193   2.881   8.930  10.994
17057SOL     OW51194   3.721   8.966  10.915
17057SOL    HW151195   3.735   8.993  10.820
17057SOL    HW251196   3.804   8.988  10.968
17058SOL     OW51197   2.212   8.346  11.114
17058SOL    HW151198   2.288   8.390  11.162
17058SOL    HW251199   2.247   8.299  11.032
17059SOL     OW51200   3.402   7.722   9.435
17059SOL    HW151201   3.341   7.647   9.458
17059SOL    HW251202   3.424   7.774   9.518
17060SOL     OW51203   3.165   8.286   9.352
17060SOL    HW151204   3.199   8.193   9.367
17060SOL    HW251205   3.183   8.313   9.257
17061SOL     OW51206   2.930   8.781  10.159
17061SOL    HW151207   2.937   8.697  10.104
17061SOL    HW251208   2.992   8.850  10.123
17062SOL     OW51209   2.181   8.258  10.259
17062SOL    HW151210   2.274   8.294  10.264
17062SOL    HW251211   2.175   8.173  10.311
17063SOL     OW51212   2.201   7.957  10.316
17063SOL    HW151213   2.149   7.874  10.299
17063SOL    HW251214   2.278   7.962  10.252
17064SOL     OW51215   3.000   7.828  10.988
17064SOL    HW151216   2.955   7.891  11.052
17064SOL    HW251217   3.093   7.859  10.971
17065SOL     OW51218   3.022   7.655  10.787
17065SOL    HW151219   3.022   7.719  10.864
17065SOL    HW251220   3.050   7.703  10.704
17066SOL     OW51221   1.870   8.774   9.510
17066SOL    HW151222   1.777   8.795   9.479
17066SOL    HW251223   1.880   8.675   9.523
17067SOL     OW51224   1.950   9.249  10.237
17067SOL    HW151225   1.908   9.163  10.210
17067SOL    HW251226   2.044   9.252  10.203
17068SOL     OW51227   2.366   9.016  10.220
17068SOL    HW151228   2.432   9.090  10.229
17068SOL    HW251229   2.410   8.937  10.178
17069SOL     OW51230   2.864   8.244  10.548
17069SOL    HW151231   2.905   8.212  10.634
17069SOL    HW251232   2.768   8.217  10.545
17070SOL     OW51233   1.902   7.992  10.424
17070SOL    HW151234   1.987   7.959  10.383
17070SOL    HW251235   1.915   8.007  10.522
17071SOL     OW51236   2.051   7.968  11.032
17071SOL    HW151237   2.110   7.928  10.962
17071SOL    HW251238   1.993   8.039  10.991
17072SOL     OW51239   3.231   8.398  10.970
17072SOL    HW151240   3.270   8.487  10.990
17072SOL    HW251241   3.241   8.378  10.873
17073SOL     OW51242   2.677   8.020   9.635
17073SOL    HW151243   2.684   7.931   9.589
17073SOL    HW251244   2.583   8.054   9.627
17074SOL     OW51245   3.519   8.052  10.516
17074SOL    HW151246   3.481   7.983  10.578
17074SOL    HW251247   3.601   8.016  10.472
17075SOL     OW51248   2.114   9.012  11.054
17075SOL    HW151249   2.084   9.069  11.130
17075SOL    HW251250   2.107   8.915  11.080
17076SOL     OW51251   2.533   7.912  10.579
17076SOL    HW151252   2.499   7.823  10.549
17076SOL    HW251253   2.559   7.966  10.499
17077SOL     OW51254   2.792   9.126  10.775
17077SOL    HW151255   2.768   9.108  10.680
17077SOL    HW251256   2.822   9.220  10.785
17078SOL     OW51257   2.335   7.948   9.501
17078SOL    HW151258   2.396   8.028   9.505
17078SOL    HW251259   2.240   7.979   9.508
17079SOL     OW51260   2.021   8.585  10.776
17079SOL    HW151261   2.043   8.524  10.852
17079SOL    HW251262   2.031   8.536  10.690
17080SOL     OW51263   3.209   8.507  10.544
17080SOL    HW151264   3.233   8.444  10.470
17080SOL    HW251265   3.119   8.547  10.526
17081SOL     OW51266   3.164   8.303   9.619
17081SOL    HW151267   3.078   8.272   9.661
17081SOL    HW251268   3.160   8.289   9.520
17082SOL     OW51269   3.621   9.195  10.464
17082SOL    HW151270   3.682   9.225  10.391
17082SOL    HW251271   3.583   9.106  10.442
17083SOL     OW51272   3.114   9.179  10.438
17083SOL    HW151273   3.198   9.184  10.384
17083SOL    HW251274   3.091   9.083  10.456
17084SOL     OW51275   1.945   8.706  10.332
17084SOL    HW151276   1.940   8.705  10.432
17084SOL    HW251277   1.862   8.665  10.294
17085SOL     OW51278   2.550   9.110  11.026
17085SOL    HW151279   2.494   9.191  11.035
17085SOL    HW251280   2.602   9.114  10.940
17086SOL     OW51281   3.588   7.583   9.833
17086SOL    HW151282   3.661   7.566   9.766
17086SOL    HW251283   3.557   7.496   9.871
17087SOL     OW51284   3.250   9.021   9.787
17087SOL    HW151285   3.317   9.033   9.713
17087SOL    HW251286   3.210   9.110   9.810
17088SOL     OW51287   1.992   9.242  11.161
17088SOL    HW151288   1.951   9.168  11.214
17088SOL    HW251289   2.056   9.293  11.219
17089SOL     OW51290   3.142   8.375   9.982
17089SOL    HW151291   3.202   8.294   9.984
17089SOL    HW251292   3.182   8.444   9.922
17090SOL     OW51293   2.692   8.721  10.732
17090SOL    HW151294   2.687   8.754  10.827
17090SOL    HW251295   2.606   8.740  10.686
17091SOL     OW51296   2.534   9.064   9.464
17091SOL    HW151297   2.543   9.074   9.365
17091SOL    HW251298   2.494   8.975   9.485
17092SOL     OW51299   3.512   9.168  10.704
17092SOL    HW151300   3.565   9.178  10.620
17092SOL    HW251301   3.485   9.258  10.738
17093SOL     OW51302   3.703   7.623  10.273
17093SOL    HW151303   3.742   7.538  10.237
17093SOL    HW251304   3.605   7.625  10.254
17094SOL     OW51305   2.125   7.774  10.030
17094SOL    HW151306   2.046   7.825   9.996
17094SOL    HW251307   2.116   7.759  10.128
17095SOL     OW51308   3.056   9.060   9.341
17095SOL    HW151309   3.062   8.967   9.378
17095SOL    HW251310   2.997   9.060   9.261
17096SOL     OW51311   2.684   8.450  10.682
17096SOL    HW151312   2.724   8.449  10.590
17096SOL    HW251313   2.694   8.542  10.722
17097SOL     OW51314   2.778   8.358   9.601
17097SOL    HW151315   2.841   8.396   9.533
17097SOL    HW251316   2.818   8.275   9.640
17098SOL     OW51317   3.366   9.055   9.354
17098SOL    HW151318   3.274   9.092   9.361
17098SOL    HW251319   3.404   9.075   9.264
17099SOL     OW51320   2.234   8.736  10.800
17099SOL    HW151321   2.221   8.829  10.766
17099SOL    HW251322   2.150   8.684  10.787
17100SOL     OW51323   3.476   8.740  10.599
17100SOL    HW151324   3.536   8.743  10.679
17100SOL    HW251325   3.401   8.804  10.612
17101SOL     OW51326   2.901   8.546  10.006
17101SOL    HW151327   2.831   8.499  10.060
17101SOL    HW251328   2.960   8.478   9.963
17102SOL     OW51329   2.876   7.684  10.281
17102SOL    HW151330   2.868   7.648  10.188
17102SOL    HW251331   2.874   7.608  10.346
17103SOL     OW51332   2.452   8.935   9.801
17103SOL    HW151333   2.494   8.877   9.731
17103SOL    HW251334   2.408   9.014   9.757
17104SOL     OW51335   3.571   7.833  10.691
17104SOL    HW151336   3.644   7.902  10.695
17104SOL    HW251337   3.599   7.758  10.632
17105SOL     OW51338   2.117   8.796   9.600
17105SOL    HW151339   2.021   8.797   9.573
17105SOL    HW251340   2.129   8.849   9.684
17106SOL     OW51341   1.967   8.461  11.036
17106SOL    HW151342   1.890   8.428  11.090
17106SOL    HW251343   2.052   8.431  11.078
17107SOL     OW51344   2.534   7.651  10.799
17107SOL    HW151345   2.624   7.635  10.759
17107SOL    HW251346   2.542   7.656  10.898
17108SOL     OW51347   1.937   7.793   9.343
17108SOL    HW151348   1.845   7.765   9.314
17108SOL    HW251349   1.968   7.870   9.287
17109SOL     OW51350   3.302   8.304  10.708
17109SOL    HW151351   3.245   8.356  10.645
17109SOL    HW251352   3.398   8.316  10.684
17110SOL     OW51353   1.934   7.614   9.628
17110SOL    HW151354   1.917   7.697   9.574
17110SOL    HW251355   2.024   7.577   9.606
17111SOL     OW51356   3.045   8.783   9.429
17111SOL    HW151357   2.946   8.772   9.431
17111SOL    HW251358   3.079   8.798   9.522
17112SOL     OW51359   2.475   8.290  10.741
17112SOL    HW151360   2.531   8.371  10.724
17112SOL    HW251361   2.534   8.210  10.744
17113SOL     OW51362   3.355   9.215  10.269
17113SOL    HW151363   3.388   9.279  10.200
17113SOL    HW251364   3.421   9.209  10.344
17114SOL     OW51365   2.578   8.013  11.018
17114SOL    HW151366   2.597   8.078  11.092
17114SOL    HW251367   2.638   7.933  11.027
17115SOL     OW51368   3.312   8.668  10.943
17115SOL    HW151369   3.303   8.658  11.042
17115SOL    HW251370   3.408   8.661  10.917
17116SOL     OW51371   2.252   9.189  10.870
17116SOL    HW151372   2.161   9.230  10.868
17116SOL    HW251373   2.245   9.095  10.902
17117SOL     OW51374   3.536   8.331  10.564
17117SOL    HW151375   3.509   8.242  10.527
17117SOL    HW251376   3.537   8.399  10.491
17118SOL     OW51377   3.087   7.773   9.759
17118SOL    HW151378   3.152   7.699   9.748
17118SOL    HW251379   3.107   7.823   9.843
17119SOL     OW51380   2.456   8.193   9.962
17119SOL    HW151381   2.506   8.278   9.943
17119SOL    HW251382   2.368   8.195   9.914
17120SOL     OW51383   3.639   7.790  10.952
17120SOL    HW151384   3.622   7.821  10.858
17120SOL    HW251385   3.555   7.753  10.990
17121SOL     OW51386   3.592   8.382  10.827
17121SOL    HW151387   3.630   8.473  10.842
17121SOL    HW251388   3.584   8.365  10.728
17122SOL     OW51389   2.721   8.822   9.326
17122SOL    HW151390   2.675   8.837   9.414
17122SOL    HW251391   2.765   8.907   9.296
17123SOL     OW51392   2.523   9.238  10.263
17123SOL    HW151393   2.477   9.326  10.250
17123SOL    HW251394   2.622   9.250  10.256
17124SOL     OW51395   2.721   8.404  10.171
17124SOL    HW151396   2.775   8.335  10.219
17124SOL    HW251397   2.689   8.473  10.237
17125SOL     OW51398   2.945   8.432   9.397
17125SOL    HW151399   2.922   8.485   9.315
17125SOL    HW251400   3.026   8.376   9.378
17126SOL     OW51401   3.723   9.017  10.161
17126SOL    HW151402   3.652   9.005  10.091
17126SOL    HW251403   3.724   8.938  10.221
17127SOL     OW51404   2.083   8.762  11.154
17127SOL    HW151405   2.018   8.689  11.133
17127SOL    HW251406   2.087   8.776  11.252
17128SOL     OW51407   1.941   8.688   9.963
17128SOL    HW151408   1.940   8.641  10.051
17128SOL    HW251409   2.023   8.660   9.912
17129SOL     OW51410   2.534   8.839  10.934
17129SOL    HW151411   2.456   8.789  10.972
17129SOL    HW251412   2.531   8.934  10.965
17130SOL     OW51413   3.686   7.640  10.537
17130SOL    HW151414   3.682   7.550  10.581
17130SOL    HW251415   3.689   7.629  10.438
17131SOL     OW51416   2.290   7.872   9.830
17131SOL    HW151417   2.320   7.800   9.768
17131SOL    HW251418   2.251   7.832   9.913
17132SOL     OW51419   3.567   8.935  10.414
17132SOL    HW151420   3.474   8.910  10.387
17132SOL    HW251421   3.593   8.885  10.496
17133SOL     OW51422   2.179   7.995  10.590
17133SOL    HW151423   2.217   7.936  10.662
17133SOL    HW251424   2.219   7.969  10.502
17134SOL     OW51425   2.674   9.034   9.997
17134SOL    HW151426   2.706   9.044   9.903
17134SOL    HW251427   2.595   8.972   9.999
17135SOL     OW51428   3.286   7.662  10.422
17135SOL    HW151429   3.338   7.597  10.477
17135SOL    HW251430   3.237   7.725  10.483
17136SOL     OW51431   2.863   7.482  10.464
17136SOL    HW151432   2.800   7.410  10.433
17136SOL    HW251433   2.956   7.446  10.464
17137SOL     OW51434   2.632   8.778   9.611
17137SOL    HW151435   2.586   8.691   9.628
17137SOL    HW251436   2.723   8.775   9.652
17138SOL     OW51437   2.480   9.015  10.594
17138SOL    HW151438   2.475   9.097  10.651
17138SOL    HW251439   2.569   9.012  10.549
17139SOL     OW51440   3.214   7.500   9.478
17139SOL    HW151441   3.249   7.459   9.394
17139SOL    HW251442   3.124   7.462   9.498
17140SOL     OW51443   3.162   7.901  10.001
17140SOL    HW151444   3.103   7.981  10.005
17140SOL    HW251445   3.177   7.866  10.094
17141SOL     OW51446   3.455   7.669  10.192
17141SOL    HW151447   3.371   7.668  10.246
17141SOL    HW251448   3.457   7.752  10.136
17142SOL     OW51449   1.901   8.525   9.610
17142SOL    HW151450   2.000   8.514   9.601
17142SOL    HW251451   1.861   8.439   9.642
17143SOL     OW51452   2.737   9.094   9.647
17143SOL    HW151453   2.660   9.059   9.593
17143SOL    HW251454   2.705   9.165   9.709
17144SOL     OW51455   2.092   8.076  11.285
17144SOL    HW151456   1.999   8.074  11.322
17144SOL    HW251457   2.093   8.037  11.193
17145SOL     OW51458   2.087   7.723  12.168
17145SOL    HW151459   2.122   7.706  12.260
17145SOL    HW251460   1.999   7.678  12.156
17146SOL     OW51461   1.881   7.816  11.819
17146SOL    HW151462   1.799   7.859  11.858
17146SOL    HW251463   1.853   7.743  11.756
17147SOL     OW51464   2.431   8.723  12.337
17147SOL    HW151465   2.338   8.716  12.300
17147SOL    HW251466   2.442   8.812  12.381
17148SOL     OW51467   3.417   8.959  11.875
17148SOL    HW151468   3.360   8.943  11.956
17148SOL    HW251469   3.358   8.969  11.795
17149SOL     OW51470   2.997   8.151  11.889
17149SOL    HW151471   3.054   8.229  11.864
17149SOL    HW251472   2.937   8.177  11.965
17150SOL     OW51473   3.617   8.055  11.403
17150SOL    HW151474   3.605   8.042  11.304
17150SOL    HW251475   3.587   7.974  11.452
17151SOL     OW51476   2.630   8.592  12.195
17151SOL    HW151477   2.552   8.609  12.255
17151SOL    HW251478   2.664   8.679  12.159
17152SOL     OW51479   2.547   8.460  11.837
17152SOL    HW151480   2.616   8.444  11.907
17152SOL    HW251481   2.474   8.517  11.875
17153SOL     OW51482   2.197   8.883  12.233
17153SOL    HW151483   2.119   8.852  12.180
17153SOL    HW251484   2.255   8.941  12.176
17154SOL     OW51485   3.322   8.953  12.511
17154SOL    HW151486   3.346   9.047  12.537
17154SOL    HW251487   3.306   8.899  12.593
17155SOL     OW51488   2.300   7.840  12.671
17155SOL    HW151489   2.382   7.784  12.680
17155SOL    HW251490   2.219   7.782  12.675
17156SOL     OW51491   3.465   7.895  11.909
17156SOL    HW151492   3.391   7.941  11.859
17156SOL    HW251493   3.516   7.963  11.962
17157SOL     OW51494   2.093   9.161  11.655
17157SOL    HW151495   2.127   9.238  11.709
17157SOL    HW251496   2.137   9.161  11.565
17158SOL     OW51497   2.092   8.882  11.710
17158SOL    HW151498   2.066   8.978  11.710
17158SOL    HW251499   2.021   8.828  11.755
17159SOL     OW51500   2.102   8.539  12.058
17159SOL    HW151501   2.116   8.455  12.110
17159SOL    HW251502   2.047   8.603  12.113
17160SOL     OW51503   2.482   9.234  12.611
17160SOL    HW151504   2.390   9.217  12.646
17160SOL    HW251505   2.510   9.326  12.637
17161SOL     OW51506   2.468   8.412  11.295
17161SOL    HW151507   2.475   8.496  11.241
17161SOL    HW251508   2.514   8.425  11.383
17162SOL     OW51509   3.456   7.562  12.652
17162SOL    HW151510   3.438   7.629  12.580
17162SOL    HW251511   3.453   7.608  12.741
17163SOL     OW51512   1.984   8.091  11.735
17163SOL    HW151513   1.939   8.003  11.752
17163SOL    HW251514   1.983   8.145  11.819
17164SOL     OW51515   3.704   9.215  11.531
17164SOL    HW151516   3.758   9.186  11.611
17164SOL    HW251517   3.734   9.305  11.502
17165SOL     OW51518   1.889   9.044  11.289
17165SOL    HW151519   1.870   8.948  11.310
17165SOL    HW251520   1.856   9.102  11.364
17166SOL     OW51521   3.551   8.370  11.784
17166SOL    HW151522   3.646   8.341  11.792
17166SOL    HW251523   3.543   8.435  11.709
17167SOL     OW51524   3.503   8.556  11.604
17167SOL    HW151525   3.589   8.558  11.552
17167SOL    HW251526   3.517   8.603  11.692
17168SOL     OW51527   1.975   8.185  12.769
17168SOL    HW151528   2.063   8.172  12.814
17168SOL    HW251529   1.962   8.282  12.747
17169SOL     OW51530   2.475   8.813  11.898
17169SOL    HW151531   2.426   8.726  11.907
17169SOL    HW251532   2.452   8.856  11.811
17170SOL     OW51533   3.155   8.676  12.595
17170SOL    HW151534   3.192   8.603  12.537
17170SOL    HW251535   3.207   8.681  12.680
17171SOL     OW51536   2.671   7.452  11.674
17171SOL    HW151537   2.711   7.543  11.665
17171SOL    HW251538   2.571   7.460  11.680
17172SOL     OW51539   2.059   8.424  12.436
17172SOL    HW151540   2.148   8.379  12.422
17172SOL    HW251541   1.986   8.359  12.417
17173SOL     OW51542   3.387   8.447  11.362
17173SOL    HW151543   3.324   8.371  11.375
17173SOL    HW251544   3.435   8.465  11.448
17174SOL     OW51545   3.328   8.865  12.125
17174SOL    HW151546   3.269   8.871  12.205
17174SOL    HW251547   3.313   8.777  12.079
17175SOL     OW51548   3.529   9.162  11.744
17175SOL    HW151549   3.488   9.139  11.656
17175SOL    HW251550   3.511   9.088  11.809
17176SOL     OW51551   2.460   8.177  11.442
17176SOL    HW151552   2.484   8.246  11.374
17176SOL    HW251553   2.382   8.210  11.496
17177SOL     OW51554   3.143   7.793  12.116
17177SOL    HW151555   3.057   7.743  12.103
17177SOL    HW251556   3.205   7.739  12.172
17178SOL     OW51557   3.438   9.110  11.479
17178SOL    HW151558   3.527   9.156  11.482
17178SOL    HW251559   3.417   9.086  11.384
17179SOL     OW51560   2.669   8.053  12.637
17179SOL    HW151561   2.622   8.050  12.726
17179SOL    HW251562   2.618   7.998  12.571
17180SOL     OW51563   2.835   8.338  12.744
17180SOL    HW151564   2.881   8.254  12.715
17180SOL    HW251565   2.779   8.372  12.669
17181SOL     OW51566   2.853   7.858  12.414
17181SOL    HW151567   2.776   7.892  12.468
17181SOL    HW251568   2.819   7.807  12.335
17182SOL     OW51569   2.903   8.149  11.601
17182SOL    HW151570   2.929   8.145  11.697
17182SOL    HW251571   2.818   8.098  11.587
17183SOL     OW51572   1.938   8.259  11.961
17183SOL    HW151573   2.037   8.247  11.970
17183SOL    HW251574   1.914   8.354  11.982
17184SOL     OW51575   1.992   9.269  12.743
17184SOL    HW151576   1.982   9.254  12.842
17184SOL    HW251577   1.906   9.305  12.707
17185SOL     OW51578   2.727   7.796  11.367
17185SOL    HW151579   2.786   7.859  11.318
17185SOL    HW251580   2.746   7.702  11.338
17186SOL     OW51581   3.224   8.592  11.717
17186SOL    HW151582   3.307   8.563  11.669
17186SOL    HW251583   3.175   8.659  11.661
17187SOL     OW51584   2.412   7.644  12.057
17187SOL    HW151585   2.407   7.639  12.157
17187SOL    HW251586   2.414   7.740  12.028
17188SOL     OW51587   2.870   8.904  11.649
17188SOL    HW151588   2.824   8.976  11.597
17188SOL    HW251589   2.866   8.924  11.747
17189SOL     OW51590   2.213   9.249  12.025
17189SOL    HW151591   2.263   9.163  12.031
17189SOL    HW251592   2.278   9.326  12.022
17190SOL     OW51593   3.657   8.514  12.045
17190SOL    HW151594   3.595   8.499  11.969
17190SOL    HW251595   3.605   8.525  12.130
17191SOL     OW51596   3.089   8.998  12.678
17191SOL    HW151597   3.095   8.921  12.742
17191SOL    HW251598   3.037   8.972  12.598
17192SOL     OW51599   2.183   8.391  11.414
17192SOL    HW151600   2.265   8.430  11.372
17192SOL    HW251601   2.156   8.309  11.365
17193SOL     OW51602   3.320   8.183  11.900
17193SOL    HW151603   3.315   8.118  11.975
17193SOL    HW251604   3.400   8.242  11.913
17194SOL     OW51605   2.973   9.224  11.409
17194SOL    HW151606   2.913   9.162  11.459
17194SOL    HW251607   3.004   9.180  11.324
17195SOL     OW51608   2.064   7.733  12.670
17195SOL    HW151609   1.984   7.793  12.657
17195SOL    HW251610   2.054   7.684  12.756
17196SOL     OW51611   3.494   8.825  11.253
17196SOL    HW151612   3.462   8.919  11.243
17196SOL    HW251613   3.418   8.762  11.241
17197SOL     OW51614   2.326   9.191  11.495
17197SOL    HW151615   2.359   9.230  11.581
17197SOL    HW251616   2.402   9.184  11.430
17198SOL     OW51617   3.262   7.555  11.598
17198SOL    HW151618   3.238   7.518  11.508
17198SOL    HW251619   3.361   7.571  11.602
17199SOL     OW51620   2.111   9.233  12.413
17199SOL    HW151621   2.168   9.168  12.463
17199SOL    HW251622   2.095   9.200  12.320
17200SOL     OW51623   2.802   9.146  12.076
17200SOL    HW151624   2.882   9.089  12.097
17200SOL    HW251625   2.753   9.106  11.999
17201SOL     OW51626   2.244   8.148  11.652
17201SOL    HW151627   2.289   8.058  11.649
17201SOL    HW251628   2.150   8.137  11.685
17202SOL     OW51629   2.476   7.570  11.289
17202SOL    HW151630   2.574   7.548  11.296
17202SOL    HW251631   2.445   7.553  11.196
17203SOL     OW51632   2.750   8.962  12.367
17203SOL    HW151633   2.727   8.937  12.273
17203SOL    HW251634   2.811   8.893  12.406
17204SOL     OW51635   3.213   8.038  12.605
17204SOL    HW151636   3.241   7.995  12.690
17204SOL    HW251637   3.238   8.134  12.606
17205SOL     OW51638   2.665   8.850  12.096
17205SOL    HW151639   2.755   8.864  12.054
17205SOL    HW251640   2.594   8.852  12.025
17206SOL     OW51641   2.784   7.951  12.071
17206SOL    HW151642   2.759   7.942  11.975
17206SOL    HW251643   2.832   7.869  12.102
17207SOL     OW51644   2.401   7.512  11.684
17207SOL    HW151645   2.320   7.513  11.742
17207SOL    HW251646   2.404   7.595  11.629
17208SOL     OW51647   3.296   8.636  11.213
17208SOL    HW151648   3.328   8.560  11.270
17208SOL    HW251649   3.204   8.663  11.243
17209SOL     OW51650   2.159   7.483  11.343
17209SOL    HW151651   2.208   7.567  11.322
17209SOL    HW251652   2.221   7.418  11.388
17210SOL     OW51653   2.797   7.684  11.652
17210SOL    HW151654   2.749   7.725  11.574
17210SOL    HW251655   2.896   7.682  11.633
17211SOL     OW51656   2.938   8.131  12.636
17211SOL    HW151657   2.858   8.070  12.639
17211SOL    HW251658   3.019   8.078  12.612
17212SOL     OW51659   3.089   9.018  11.965
17212SOL    HW151660   3.110   9.092  11.900
17212SOL    HW251661   3.157   9.018  12.038
17213SOL     OW51662   2.321   8.600  11.913
17213SOL    HW151663   2.250   8.573  11.978
17213SOL    HW251664   2.295   8.572  11.820
17214SOL     OW51665   3.133   9.245  11.763
17214SOL    HW151666   3.177   9.309  11.699
17214SOL    HW251667   3.083   9.297  11.833
17215SOL     OW51668   2.894   7.997  11.188
17215SOL    HW151669   2.853   8.079  11.149
17215SOL    HW251670   2.958   8.023  11.261
17216SOL     OW51671   1.940   8.004  12.558
17216SOL    HW151672   2.032   8.003  12.517
17216SOL    HW251673   1.934   8.078  12.625
17217SOL     OW51674   2.423   7.670  12.319
17217SOL    HW151675   2.461   7.586  12.356
17217SOL    HW251676   2.335   7.689  12.363
17218SOL     OW51677   2.728   7.902  11.814
17218SOL    HW151678   2.696   7.974  11.752
17218SOL    HW251679   2.752   7.821  11.761
17219SOL     OW51680   2.879   7.487  11.925
17219SOL    HW151681   2.807   7.492  11.856
17219SOL    HW251682   2.855   7.418  11.994
17220SOL     OW51683   3.291   8.621  12.039
17220SOL    HW151684   3.236   8.537  12.032
17220SOL    HW251685   3.317   8.650  11.947
17221SOL     OW51686   3.328   8.038  12.164
17221SOL    HW151687   3.298   7.943  12.171
17221SOL    HW251688   3.401   8.054  12.230
17222SOL     OW51689   3.719   8.281  11.549
17222SOL    HW151690   3.761   8.217  11.613
17222SOL    HW251691   3.681   8.230  11.471
17223SOL     OW51692   2.350   8.833  11.346
17223SOL    HW151693   2.263   8.818  11.393
17223SOL    HW251694   2.333   8.859  11.251
17224SOL     OW51695   3.526   8.728  11.829
17224SOL    HW151696   3.625   8.736  11.843
17224SOL    HW251697   3.481   8.812  11.860
17225SOL     OW51698   3.252   8.023  11.250
17225SOL    HW151699   3.198   8.002  11.331
17225SOL    HW251700   3.343   7.982  11.259
17226SOL     OW51701   2.389   7.704  11.500
17226SOL    HW151702   2.416   7.645  11.425
17226SOL    HW251703   2.389   7.799  11.469
17227SOL     OW51704   3.616   8.671  12.760
17227SOL    HW151705   3.707   8.632  12.747
17227SOL    HW251706   3.624   8.767  12.784
17228SOL     OW51707   2.926   8.795  12.512
17228SOL    HW151708   2.846   8.772  12.567
17228SOL    HW251709   3.009   8.769  12.561
17229SOL     OW51710   2.973   8.643  12.272
17229SOL    HW151711   2.933   8.687  12.353
17229SOL    HW251712   2.932   8.680  12.189
17230SOL     OW51713   3.500   8.547  12.251
17230SOL    HW151714   3.505   8.628  12.310
17230SOL    HW251715   3.414   8.549  12.200
17231SOL     OW51716   2.777   7.537  12.574
17231SOL    HW151717   2.802   7.517  12.479
17231SOL    HW251718   2.849   7.593  12.616
17232SOL     OW51719   2.567   8.498  11.540
17232SOL    HW151720   2.553   8.505  11.639
17232SOL    HW251721   2.651   8.447  11.522
17233SOL     OW51722   2.272   8.261  12.423
17233SOL    HW151723   2.358   8.273  12.473
17233SOL    HW251724   2.230   8.174  12.450
17234SOL     OW51725   3.136   7.834  12.434
17234SOL    HW151726   3.157   7.908  12.498
17234SOL    HW251727   3.047   7.851  12.391
17235SOL     OW51728   1.926   9.012  12.503
17235SOL    HW151729   1.880   9.094  12.469
17235SOL    HW251730   2.024   9.031  12.512
17236SOL     OW51731   2.229   8.548  11.673
17236SOL    HW151732   2.222   8.631  11.617
17236SOL    HW251733   2.233   8.468  11.613
17237SOL     OW51734   2.428   7.985  12.037
17237SOL    HW151735   2.440   8.051  11.963
17237SOL    HW251736   2.474   8.019  12.120
17238SOL     OW51737   3.114   8.796  11.560
17238SOL    HW151738   3.164   8.873  11.600
17238SOL    HW251739   3.019   8.798  11.592
17239SOL     OW51740   3.134   8.893  12.314
17239SOL    HW151741   3.181   8.906  12.401
17239SOL    HW251742   3.068   8.819  12.323
17240SOL     OW51743   3.444   8.087  11.644
17240SOL    HW151744   3.413   8.148  11.717
17240SOL    HW251745   3.494   8.139  11.575
17241SOL     OW51746   2.216   8.958  12.501
17241SOL    HW151747   2.195   8.914  12.414
17241SOL    HW251748   2.313   8.984  12.504
17242SOL     OW51749   2.264   8.199  12.770
17242SOL    HW151750   2.332   8.254  12.723
17242SOL    HW251751   2.304   8.111  12.797
17243SOL     OW51752   3.449   8.227  12.842
17243SOL    HW151753   3.357   8.265  12.837
17243SOL    HW251754   3.509   8.274  12.777
17244SOL     OW51755   2.435   8.318  12.201
17244SOL    HW151756   2.479   8.407  12.192
17244SOL    HW251757   2.372   8.318  12.278
17245SOL     OW51758   3.222   8.310  12.217
17245SOL    HW151759   3.147   8.310  12.151
17245SOL    HW251760   3.259   8.218  12.226
17246SOL     OW51761   3.071   7.973  11.447
17246SOL    HW151762   3.084   7.889  11.501
17246SOL    HW251763   3.042   8.047  11.507
17247SOL     OW51764   2.169   7.661  12.403
17247SOL    HW151765   2.146   7.698  12.493
17247SOL    HW251766   2.139   7.566  12.397
17248SOL     OW51767   1.899   8.758  12.454
17248SOL    HW151768   1.952   8.709  12.522
17248SOL    HW251769   1.921   8.856  12.459
17249SOL     OW51770   2.594   8.082  12.236
17249SOL    HW151771   2.653   8.056  12.160
17249SOL    HW251772   2.566   8.178  12.225
17250SOL     OW51773   2.169   7.511  11.790
17250SOL    HW151774   2.158   7.605  11.823
17250SOL    HW251775   2.164   7.448  11.867
17251SOL     OW51776   3.484   7.815  11.546
17251SOL    HW151777   3.486   7.739  11.610
17251SOL    HW251778   3.436   7.892  11.586
17252SOL     OW51779   2.885   8.214  12.138
17252SOL    HW151780   2.900   8.235  12.234
17252SOL    HW251781   2.855   8.119  12.129
17253SOL     OW51782   3.402   7.722  11.297
17253SOL    HW151783   3.341   7.647  11.320
17253SOL    HW251784   3.424   7.774  11.380
17254SOL     OW51785   3.165   8.286  11.214
17254SOL    HW151786   3.199   8.193  11.229
17254SOL    HW251787   3.183   8.313  11.119
17255SOL     OW51788   2.930   8.781  12.021
17255SOL    HW151789   2.937   8.697  11.966
17255SOL    HW251790   2.992   8.850  11.985
17256SOL     OW51791   2.181   8.258  12.121
17256SOL    HW151792   2.274   8.294  12.126
17256SOL    HW251793   2.175   8.173  12.173
17257SOL     OW51794   2.201   7.957  12.178
17257SOL    HW151795   2.149   7.874  12.161
17257SOL    HW251796   2.278   7.962  12.114
17258SOL     OW51797   3.022   7.655  12.649
17258SOL    HW151798   3.022   7.719  12.726
17258SOL    HW251799   3.050   7.703  12.566
17259SOL     OW51800   1.870   8.774  11.372
17259SOL    HW151801   1.777   8.795  11.341
17259SOL    HW251802   1.880   8.675  11.385
17260SOL     OW51803   1.950   9.249  12.099
17260SOL    HW151804   1.908   9.163  12.072
17260SOL    HW251805   2.044   9.252  12.065
17261SOL     OW51806   2.366   9.016  12.082
17261SOL    HW151807   2.432   9.090  12.091
17261SOL    HW251808   2.410   8.937  12.040
17262SOL     OW51809   2.864   8.244  12.410
17262SOL    HW151810   2.905   8.212  12.496
17262SOL    HW251811   2.768   8.217  12.407
17263SOL     OW51812   1.902   7.992  12.286
17263SOL    HW151813   1.987   7.959  12.245
17263SOL    HW251814   1.915   8.007  12.384
17264SOL     OW51815   2.677   8.020  11.497
17264SOL    HW151816   2.684   7.931  11.451
17264SOL    HW251817   2.583   8.054  11.489
17265SOL     OW51818   3.519   8.052  12.378
17265SOL    HW151819   3.481   7.983  12.440
17265SOL    HW251820   3.601   8.016  12.334
17266SOL     OW51821   2.114   9.012  12.916
17266SOL    HW151822   2.084   9.069  12.992
17266SOL    HW251823   2.107   8.915  12.942
17267SOL     OW51824   2.533   7.912  12.441
17267SOL    HW151825   2.499   7.823  12.411
17267SOL    HW251826   2.559   7.966  12.361
17268SOL     OW51827   2.792   9.126  12.637
17268SOL    HW151828   2.768   9.108  12.542
17268SOL    HW251829   2.822   9.220  12.647
17269SOL     OW51830   2.335   7.948  11.363
17269SOL    HW151831   2.396   8.028  11.367
17269SOL    HW251832   2.240   7.979  11.370
17270SOL     OW51833   2.021   8.585  12.638
17270SOL    HW151834   2.043   8.524  12.714
17270SOL    HW251835   2.031   8.536  12.552
17271SOL     OW51836   3.209   8.507  12.406
17271SOL    HW151837   3.233   8.444  12.332
17271SOL    HW251838   3.119   8.547  12.388
17272SOL     OW51839   3.164   8.303  11.481
17272SOL    HW151840   3.078   8.272  11.523
17272SOL    HW251841   3.160   8.289  11.382
17273SOL     OW51842   3.621   9.195  12.326
17273SOL    HW151843   3.682   9.225  12.253
17273SOL    HW251844   3.583   9.106  12.304
17274SOL     OW51845   3.114   9.179  12.300
17274SOL    HW151846   3.198   9.184  12.246
17274SOL    HW251847   3.091   9.083  12.318
17275SOL     OW51848   1.945   8.706  12.194
17275SOL    HW151849   1.940   8.705  12.294
17275SOL    HW251850   1.862   8.665  12.156
17276SOL     OW51851   3.588   7.583  11.695
17276SOL    HW151852   3.661   7.566  11.628
17276SOL    HW251853   3.557   7.496  11.733
17277SOL     OW51854   3.250   9.021  11.649
17277SOL    HW151855   3.317   9.033  11.575
17277SOL    HW251856   3.210   9.110  11.672
17278SOL     OW51857   3.142   8.375  11.844
17278SOL    HW151858   3.202   8.294  11.846
17278SOL    HW251859   3.182   8.444  11.784
17279SOL     OW51860   2.692   8.721  12.594
17279SOL    HW151861   2.687   8.754  12.689
17279SOL    HW251862   2.606   8.740  12.548
17280SOL     OW51863   2.534   9.064  11.326
17280SOL    HW151864   2.543   9.074  11.227
17280SOL    HW251865   2.494   8.975  11.347
17281SOL     OW51866   3.512   9.168  12.566
17281SOL    HW151867   3.565   9.178  12.482
17281SOL    HW251868   3.485   9.258  12.600
17282SOL     OW51869   3.703   7.623  12.135
17282SOL    HW151870   3.742   7.538  12.099
17282SOL    HW251871   3.605   7.625  12.116
17283SOL     OW51872   2.125   7.774  11.892
17283SOL    HW151873   2.046   7.825  11.858
17283SOL    HW251874   2.116   7.759  11.990
17284SOL     OW51875   3.056   9.060  11.203
17284SOL    HW151876   3.062   8.967  11.240
17284SOL    HW251877   2.997   9.060  11.123
17285SOL     OW51878   2.684   8.450  12.544
17285SOL    HW151879   2.724   8.449  12.452
17285SOL    HW251880   2.694   8.542  12.584
17286SOL     OW51881   2.778   8.358  11.463
17286SOL    HW151882   2.841   8.396  11.395
17286SOL    HW251883   2.818   8.275  11.502
17287SOL     OW51884   3.366   9.055  11.216
17287SOL    HW151885   3.274   9.092  11.223
17287SOL    HW251886   3.404   9.075  11.126
17288SOL     OW51887   2.234   8.736  12.662
17288SOL    HW151888   2.221   8.829  12.628
17288SOL    HW251889   2.150   8.684  12.649
17289SOL     OW51890   3.476   8.740  12.461
17289SOL    HW151891   3.536   8.743  12.541
17289SOL    HW251892   3.401   8.804  12.474
17290SOL     OW51893   2.901   8.546  11.868
17290SOL    HW151894   2.831   8.499  11.922
17290SOL    HW251895   2.960   8.478  11.825
17291SOL     OW51896   2.876   7.684  12.143
17291SOL    HW151897   2.868   7.648  12.050
17291SOL    HW251898   2.874   7.608  12.208
17292SOL     OW51899   2.452   8.935  11.663
17292SOL    HW151900   2.494   8.877  11.593
17292SOL    HW251901   2.408   9.014  11.619
17293SOL     OW51902   3.571   7.833  12.553
17293SOL    HW151903   3.644   7.902  12.557
17293SOL    HW251904   3.599   7.758  12.494
17294SOL     OW51905   2.117   8.796  11.462
17294SOL    HW151906   2.021   8.797  11.435
17294SOL    HW251907   2.129   8.849  11.546
17295SOL     OW51908   1.967   8.461  12.898
17295SOL    HW151909   1.890   8.428  12.952
17295SOL    HW251910   2.052   8.431  12.940
17296SOL     OW51911   2.534   7.651  12.661
17296SOL    HW151912   2.624   7.635  12.621
17296SOL    HW251913   2.542   7.656  12.760
17297SOL     OW51914   1.937   7.793  11.205
17297SOL    HW151915   1.845   7.765  11.176
17297SOL    HW251916   1.968   7.870  11.149
17298SOL     OW51917   3.302   8.304  12.570
17298SOL    HW151918   3.245   8.356  12.507
17298SOL    HW251919   3.398   8.316  12.546
17299SOL     OW51920   1.934   7.614  11.490
17299SOL    HW151921   1.917   7.697  11.436
17299SOL    HW251922   2.024   7.577  11.468
17300SOL     OW51923   3.045   8.783  11.291
17300SOL    HW151924   2.946   8.772  11.293
17300SOL    HW251925   3.079   8.798  11.384
17301SOL     OW51926   2.475   8.290  12.603
17301SOL    HW151927   2.531   8.371  12.586
17301SOL    HW251928   2.534   8.210  12.606
17302SOL     OW51929   3.355   9.215  12.131
17302SOL    HW151930   3.388   9.279  12.062
17302SOL    HW251931   3.421   9.209  12.206
17303SOL     OW51932   2.578   8.013  12.880
17303SOL    HW151933   2.597   8.078  12.954
17303SOL    HW251934   2.638   7.933  12.889
17304SOL     OW51935   2.252   9.189  12.732
17304SOL    HW151936   2.161   9.230  12.730
17304SOL    HW251937   2.245   9.095  12.764
17305SOL     OW51938   3.536   8.331  12.426
17305SOL    HW151939   3.509   8.242  12.389
17305SOL    HW251940   3.537   8.399  12.353
17306SOL     OW51941   3.087   7.773  11.621
17306SOL    HW151942   3.152   7.699  11.610
17306SOL    HW251943   3.107   7.823  11.705
17307SOL     OW51944   2.456   8.193  11.824
17307SOL    HW151945   2.506   8.278  11.805
17307SOL    HW251946   2.368   8.195  11.776
17308SOL     OW51947   3.639   7.790  12.814
17308SOL    HW151948   3.622   7.821  12.720
17308SOL    HW251949   3.555   7.753  12.852
17309SOL     OW51950   3.592   8.382  12.689
17309SOL    HW151951   3.630   8.473  12.704
17309SOL    HW251952   3.584   8.365  12.590
17310SOL     OW51953   2.721   8.822  11.188
17310SOL    HW151954   2.675   8.837  11.276
17310SOL    HW251955   2.765   8.907  11.158
17311SOL     OW51956   2.523   9.238  12.125
17311SOL    HW151957   2.477   9.326  12.112
17311SOL    HW251958   2.622   9.250  12.118
17312SOL     OW51959   2.721   8.404  12.033
17312SOL    HW151960   2.775   8.335  12.081
17312SOL    HW251961   2.689   8.473  12.099
17313SOL     OW51962   2.945   8.432  11.259
17313SOL    HW151963   2.922   8.485  11.177
17313SOL    HW251964   3.026   8.376  11.240
17314SOL     OW51965   3.723   9.017  12.023
17314SOL    HW151966   3.652   9.005  11.953
17314SOL    HW251967   3.724   8.938  12.083
17315SOL     OW51968   1.941   8.688  11.825
17315SOL    HW151969   1.940   8.641  11.913
17315SOL    HW251970   2.023   8.660  11.774
17316SOL     OW51971   2.534   8.839  12.796
17316SOL    HW151972   2.456   8.789  12.834
17316SOL    HW251973   2.531   8.934  12.827
17317SOL     OW51974   3.686   7.640  12.399
17317SOL    HW151975   3.682   7.550  12.443
17317SOL    HW251976   3.689   7.629  12.300
17318SOL     OW51977   2.290   7.872  11.692
17318SOL    HW151978   2.320   7.800  11.630
17318SOL    HW251979   2.251   7.832  11.775
17319SOL     OW51980   3.567   8.935  12.276
17319SOL    HW151981   3.474   8.910  12.249
17319SOL    HW251982   3.593   8.885  12.358
17320SOL     OW51983   2.179   7.995  12.452
17320SOL    HW151984   2.217   7.936  12.524
17320SOL    HW251985   2.219   7.969  12.364
17321SOL     OW51986   2.674   9.034  11.859
17321SOL    HW151987   2.706   9.044  11.765
17321SOL    HW251988   2.595   8.972  11.861
17322SOL     OW51989   3.286   7.662  12.284
17322SOL    HW151990   3.338   7.597  12.339
17322SOL    HW251991   3.237   7.725  12.345
17323SOL     OW51992   2.863   7.482  12.326
17323SOL    HW151993   2.800   7.410  12.295
17323SOL    HW251994   2.956   7.446  12.326
17324SOL     OW51995   2.632   8.778  11.473
17324SOL    HW151996   2.586   8.691  11.490
17324SOL    HW251997   2.723   8.775  11.514
17325SOL     OW51998   2.480   9.015  12.456
17325SOL    HW151999   2.475   9.097  12.513
17325SOL    HW252000   2.569   9.012  12.411
17326SOL     OW52001   3.214   7.500  11.340
17326SOL    HW152002   3.249   7.459  11.256
17326SOL    HW252003   3.124   7.462  11.360
17327SOL     OW52004   3.162   7.901  11.863
17327SOL    HW152005   3.103   7.981  11.867
17327SOL    HW252006   3.177   7.866  11.956
17328SOL     OW52007   3.455   7.669  12.054
17328SOL    HW152008   3.371   7.668  12.108
17328SOL    HW252009   3.457   7.752  11.998
17329SOL     OW52010   1.901   8.525  11.472
17329SOL    HW152011   2.000   8.514  11.463
17329SOL    HW252012   1.861   8.439  11.504
17330SOL     OW52013   2.737   9.094  11.509
17330SOL    HW152014   2.660   9.059  11.455
17330SOL    HW252015   2.705   9.165  11.571
17331SOL     OW52016   2.092   9.938   0.113
17331SOL    HW152017   1.999   9.936   0.150
17331SOL    HW252018   2.093   9.899   0.021
17332SOL     OW52019   2.087   9.585   0.996
17332SOL    HW152020   2.122   9.568   1.088
17332SOL    HW252021   1.999   9.540   0.984
17333SOL     OW52022   1.881   9.678   0.647
17333SOL    HW152023   1.799   9.721   0.686
17333SOL    HW252024   1.853   9.605   0.584
17334SOL     OW52025   2.431  10.585   1.165
17334SOL    HW152026   2.338  10.578   1.128
17334SOL    HW252027   2.442  10.674   1.209
17335SOL     OW52028   3.417  10.821   0.703
17335SOL    HW152029   3.360  10.805   0.784
17335SOL    HW252030   3.358  10.831   0.623
17336SOL     OW52031   2.997  10.013   0.717
17336SOL    HW152032   3.054  10.091   0.692
17336SOL    HW252033   2.937  10.039   0.793
17337SOL     OW52034   3.617   9.917   0.231
17337SOL    HW152035   3.605   9.904   0.132
17337SOL    HW252036   3.587   9.836   0.280
17338SOL     OW52037   2.630  10.454   1.023
17338SOL    HW152038   2.552  10.471   1.083
17338SOL    HW252039   2.664  10.541   0.987
17339SOL     OW52040   2.712  10.108   1.823
17339SOL    HW152041   2.708  10.184   1.888
17339SOL    HW252042   2.734  10.144   1.732
17340SOL     OW52043   2.547  10.322   0.665
17340SOL    HW152044   2.616  10.306   0.735
17340SOL    HW252045   2.474  10.379   0.703
17341SOL     OW52046   2.548  10.471   1.803
17341SOL    HW152047   2.608  10.550   1.817
17341SOL    HW252048   2.462  10.502   1.762
17342SOL     OW52049   2.197  10.745   1.061
17342SOL    HW152050   2.119  10.714   1.008
17342SOL    HW252051   2.255  10.803   1.004
17343SOL     OW52052   3.322  10.815   1.339
17343SOL    HW152053   3.346  10.909   1.365
17343SOL    HW252054   3.306  10.761   1.421
17344SOL     OW52055   2.300   9.702   1.499
17344SOL    HW152056   2.382   9.646   1.508
17344SOL    HW252057   2.219   9.644   1.503
17345SOL     OW52058   3.465   9.757   0.737
17345SOL    HW152059   3.391   9.803   0.687
17345SOL    HW252060   3.516   9.825   0.790
17346SOL     OW52061   2.093  11.023   0.483
17346SOL    HW152062   2.127  11.100   0.537
17346SOL    HW252063   2.137  11.023   0.393
17347SOL     OW52064   2.989  10.651   1.690
17347SOL    HW152065   3.036  10.651   1.778
17347SOL    HW252066   2.941  10.564   1.679
17348SOL     OW52067   2.092  10.744   0.538
17348SOL    HW152068   2.066  10.840   0.538
17348SOL    HW252069   2.021  10.690   0.583
17349SOL     OW52070   2.102  10.401   0.886
17349SOL    HW152071   2.116  10.317   0.938
17349SOL    HW252072   2.047  10.465   0.941
17350SOL     OW52073   2.482  11.096   1.439
17350SOL    HW152074   2.390  11.079   1.474
17350SOL    HW252075   2.510  11.188   1.465
17351SOL     OW52076   2.468  10.274   0.123
17351SOL    HW152077   2.475  10.358   0.069
17351SOL    HW252078   2.514  10.287   0.211
17352SOL     OW52079   3.456   9.424   1.480
17352SOL    HW152080   3.438   9.491   1.408
17352SOL    HW252081   3.453   9.470   1.569
17353SOL     OW52082   1.984   9.953   0.563
17353SOL    HW152083   1.939   9.865   0.580
17353SOL    HW252084   1.983  10.007   0.647
17354SOL     OW52085   3.704  11.077   0.359
17354SOL    HW152086   3.758  11.048   0.439
17354SOL    HW252087   3.734  11.167   0.330
17355SOL     OW52088   1.889  10.906   0.117
17355SOL    HW152089   1.870  10.810   0.138
17355SOL    HW252090   1.856  10.964   0.192
17356SOL     OW52091   3.551  10.232   0.612
17356SOL    HW152092   3.646  10.203   0.620
17356SOL    HW252093   3.543  10.297   0.537
17357SOL     OW52094   3.503  10.418   0.432
17357SOL    HW152095   3.589  10.420   0.380
17357SOL    HW252096   3.517  10.465   0.520
17358SOL     OW52097   1.975  10.047   1.597
17358SOL    HW152098   2.063  10.034   1.642
17358SOL    HW252099   1.962  10.144   1.575
17359SOL     OW52100   2.475  10.675   0.726
17359SOL    HW152101   2.426  10.588   0.735
17359SOL    HW252102   2.452  10.718   0.639
17360SOL     OW52103   3.155  10.538   1.423
17360SOL    HW152104   3.192  10.465   1.365
17360SOL    HW252105   3.207  10.543   1.508
17361SOL     OW52106   2.671   9.314   0.502
17361SOL    HW152107   2.711   9.405   0.493
17361SOL    HW252108   2.571   9.322   0.508
17362SOL     OW52109   2.059  10.286   1.264
17362SOL    HW152110   2.148  10.241   1.250
17362SOL    HW252111   1.986  10.221   1.245
17363SOL     OW52112   3.387  10.309   0.190
17363SOL    HW152113   3.324  10.233   0.203
17363SOL    HW252114   3.435  10.327   0.276
17364SOL     OW52115   3.049  11.102   1.616
17364SOL    HW152116   3.073  11.162   1.540
17364SOL    HW252117   3.056  11.007   1.586
17365SOL     OW52118   2.179   9.561   1.801
17365SOL    HW152119   2.250   9.632   1.807
17365SOL    HW252120   2.091   9.600   1.829
17366SOL     OW52121   3.328  10.727   0.953
17366SOL    HW152122   3.269  10.733   1.033
17366SOL    HW252123   3.313  10.639   0.907
17367SOL     OW52124   3.529  11.024   0.572
17367SOL    HW152125   3.488  11.001   0.484
17367SOL    HW252126   3.511  10.950   0.637
17368SOL     OW52127   2.460  10.039   0.270
17368SOL    HW152128   2.484  10.108   0.202
17368SOL    HW252129   2.382  10.072   0.324
17369SOL     OW52130   3.143   9.655   0.944
17369SOL    HW152131   3.057   9.605   0.931
17369SOL    HW252132   3.205   9.601   1.000
17370SOL     OW52133   3.438  10.972   0.307
17370SOL    HW152134   3.527  11.018   0.310
17370SOL    HW252135   3.417  10.948   0.212
17371SOL     OW52136   2.669   9.915   1.465
17371SOL    HW152137   2.622   9.912   1.554
17371SOL    HW252138   2.618   9.860   1.399
17372SOL     OW52139   3.256   9.779   1.674
17372SOL    HW152140   3.236   9.822   1.762
17372SOL    HW252141   3.334   9.717   1.683
17373SOL     OW52142   2.835  10.200   1.572
17373SOL    HW152143   2.881  10.116   1.543
17373SOL    HW252144   2.779  10.234   1.497
17374SOL     OW52145   2.853   9.720   1.242
17374SOL    HW152146   2.776   9.754   1.296
17374SOL    HW252147   2.819   9.669   1.163
17375SOL     OW52148   2.903  10.011   0.429
17375SOL    HW152149   2.929  10.007   0.525
17375SOL    HW252150   2.818   9.960   0.415
17376SOL     OW52151   1.938  10.121   0.789
17376SOL    HW152152   2.037  10.109   0.798
17376SOL    HW252153   1.914  10.216   0.810
17377SOL     OW52154   1.992  11.131   1.571
17377SOL    HW152155   1.982  11.116   1.670
17377SOL    HW252156   1.906  11.167   1.535
17378SOL     OW52157   2.727   9.658   0.195
17378SOL    HW152158   2.786   9.721   0.146
17378SOL    HW252159   2.746   9.564   0.166
17379SOL     OW52160   3.581   9.895   1.831
17379SOL    HW152161   3.555   9.984   1.795
17379SOL    HW252162   3.579   9.827   1.758
17380SOL     OW52163   3.224  10.454   0.545
17380SOL    HW152164   3.307  10.425   0.497
17380SOL    HW252165   3.175  10.521   0.489
17381SOL     OW52166   2.412   9.506   0.885
17381SOL    HW152167   2.407   9.501   0.985
17381SOL    HW252168   2.414   9.602   0.856
17382SOL     OW52169   2.870  10.766   0.477
17382SOL    HW152170   2.824  10.838   0.425
17382SOL    HW252171   2.866  10.786   0.575
17383SOL     OW52172   2.213  11.111   0.853
17383SOL    HW152173   2.263  11.025   0.859
17383SOL    HW252174   2.278  11.188   0.850
17384SOL     OW52175   3.657  10.376   0.873
17384SOL    HW152176   3.595  10.361   0.797
17384SOL    HW252177   3.605  10.387   0.958
17385SOL     OW52178   3.089  10.860   1.506
17385SOL    HW152179   3.095  10.783   1.570
17385SOL    HW252180   3.037  10.834   1.426
17386SOL     OW52181   2.183  10.253   0.242
17386SOL    HW152182   2.265  10.292   0.200
17386SOL    HW252183   2.156  10.171   0.193
17387SOL     OW52184   3.320  10.045   0.728
17387SOL    HW152185   3.315   9.980   0.803
17387SOL    HW252186   3.400  10.104   0.741
17388SOL     OW52187   2.323  10.576   1.727
17388SOL    HW152188   2.273  10.577   1.641
17388SOL    HW252189   2.260  10.558   1.803
17389SOL     OW52190   2.973  11.086   0.237
17389SOL    HW152191   2.913  11.024   0.287
17389SOL    HW252192   3.004  11.042   0.152
17390SOL     OW52193   2.064   9.595   1.498
17390SOL    HW152194   1.984   9.655   1.485
17390SOL    HW252195   2.054   9.546   1.584
17391SOL     OW52196   3.494  10.687   0.081
17391SOL    HW152197   3.462  10.781   0.071
17391SOL    HW252198   3.418  10.624   0.069
17392SOL     OW52199   2.326  11.053   0.323
17392SOL    HW152200   2.359  11.092   0.409
17392SOL    HW252201   2.402  11.046   0.258
17393SOL     OW52202   3.262   9.417   0.426
17393SOL    HW152203   3.238   9.380   0.336
17393SOL    HW252204   3.361   9.433   0.430
17394SOL     OW52205   2.111  11.095   1.241
17394SOL    HW152206   2.168  11.030   1.291
17394SOL    HW252207   2.095  11.062   1.148
17395SOL     OW52208   2.802  11.008   0.904
17395SOL    HW152209   2.882  10.951   0.925
17395SOL    HW252210   2.753  10.968   0.827
17396SOL     OW52211   2.244  10.010   0.480
17396SOL    HW152212   2.289   9.920   0.477
17396SOL    HW252213   2.150   9.999   0.513
17397SOL     OW52214   3.409   9.532   1.729
17397SOL    HW152215   3.404   9.569   1.821
17397SOL    HW252216   3.337   9.463   1.717
17398SOL     OW52217   2.476   9.432   0.117
17398SOL    HW152218   2.574   9.410   0.124
17398SOL    HW252219   2.445   9.415   0.024
17399SOL     OW52220   2.643   9.574   1.749
17399SOL    HW152221   2.710   9.513   1.792
17399SOL    HW252222   2.570   9.593   1.814
17400SOL     OW52223   2.750  10.824   1.195
17400SOL    HW152224   2.727  10.799   1.101
17400SOL    HW252225   2.811  10.755   1.234
17401SOL     OW52226   3.213   9.900   1.433
17401SOL    HW152227   3.241   9.857   1.518
17401SOL    HW252228   3.238   9.996   1.434
17402SOL     OW52229   2.665  10.712   0.924
17402SOL    HW152230   2.755  10.726   0.882
17402SOL    HW252231   2.594  10.714   0.853
17403SOL     OW52232   2.784   9.813   0.899
17403SOL    HW152233   2.759   9.804   0.803
17403SOL    HW252234   2.832   9.731   0.930
17404SOL     OW52235   2.401   9.374   0.512
17404SOL    HW152236   2.320   9.375   0.570
17404SOL    HW252237   2.404   9.457   0.457
17405SOL     OW52238   3.296  10.498   0.041
17405SOL    HW152239   3.328  10.422   0.098
17405SOL    HW252240   3.204  10.525   0.071
17406SOL     OW52241   2.159   9.345   0.171
17406SOL    HW152242   2.208   9.429   0.150
17406SOL    HW252243   2.221   9.280   0.216
17407SOL     OW52244   2.797   9.546   0.480
17407SOL    HW152245   2.749   9.587   0.402
17407SOL    HW252246   2.896   9.544   0.461
17408SOL     OW52247   2.938   9.993   1.464
17408SOL    HW152248   2.858   9.932   1.467
17408SOL    HW252249   3.019   9.940   1.440
17409SOL     OW52250   3.089  10.880   0.793
17409SOL    HW152251   3.110  10.954   0.728
17409SOL    HW252252   3.157  10.880   0.866
17410SOL     OW52253   2.321  10.462   0.741
17410SOL    HW152254   2.250  10.435   0.806
17410SOL    HW252255   2.295  10.434   0.648
17411SOL     OW52256   3.133  11.107   0.591
17411SOL    HW152257   3.177  11.171   0.527
17411SOL    HW252258   3.083  11.159   0.661
17412SOL     OW52259   2.894   9.859   0.016
17412SOL    HW152260   2.853   9.941  -0.023
17412SOL    HW252261   2.958   9.885   0.089
17413SOL     OW52262   1.940   9.866   1.386
17413SOL    HW152263   2.032   9.865   1.345
17413SOL    HW252264   1.934   9.940   1.453
17414SOL     OW52265   2.423   9.532   1.147
17414SOL    HW152266   2.461   9.448   1.184
17414SOL    HW252267   2.335   9.551   1.191
17415SOL     OW52268   2.728   9.764   0.642
17415SOL    HW152269   2.696   9.836   0.580
17415SOL    HW252270   2.752   9.683   0.589
17416SOL     OW52271   2.879   9.349   0.753
17416SOL    HW152272   2.807   9.354   0.684
17416SOL    HW252273   2.855   9.280   0.822
17417SOL     OW52274   3.291  10.483   0.867
17417SOL    HW152275   3.236  10.399   0.860
17417SOL    HW252276   3.317  10.512   0.775
17418SOL     OW52277   3.328   9.900   0.992
17418SOL    HW152278   3.298   9.805   0.999
17418SOL    HW252279   3.401   9.916   1.058
17419SOL     OW52280   3.719  10.143   0.377
17419SOL    HW152281   3.761  10.079   0.441
17419SOL    HW252282   3.681  10.092   0.299
17420SOL     OW52283   2.350  10.695   0.174
17420SOL    HW152284   2.263  10.680   0.221
17420SOL    HW252285   2.333  10.721   0.079
17421SOL     OW52286   3.526  10.590   0.657
17421SOL    HW152287   3.625  10.598   0.671
17421SOL    HW252288   3.481  10.674   0.688
17422SOL     OW52289   3.252   9.885   0.078
17422SOL    HW152290   3.198   9.864   0.159
17422SOL    HW252291   3.343   9.844   0.087
17423SOL     OW52292   2.389   9.566   0.328
17423SOL    HW152293   2.416   9.507   0.253
17423SOL    HW252294   2.389   9.661   0.297
17424SOL     OW52295   3.616  10.533   1.588
17424SOL    HW152296   3.707  10.494   1.575
17424SOL    HW252297   3.624  10.629   1.612
17425SOL     OW52298   2.926  10.657   1.340
17425SOL    HW152299   2.846  10.634   1.395
17425SOL    HW252300   3.009  10.631   1.389
17426SOL     OW52301   3.454  10.939   1.625
17426SOL    HW152302   3.481  10.973   1.535
17426SOL    HW252303   3.533  10.901   1.671
17427SOL     OW52304   2.973  10.505   1.100
17427SOL    HW152305   2.933  10.549   1.181
17427SOL    HW252306   2.932  10.542   1.017
17428SOL     OW52307   3.500  10.409   1.079
17428SOL    HW152308   3.505  10.490   1.138
17428SOL    HW252309   3.414  10.411   1.028
17429SOL     OW52310   2.777   9.399   1.402
17429SOL    HW152311   2.802   9.379   1.307
17429SOL    HW252312   2.849   9.455   1.444
17430SOL     OW52313   2.842  10.426   1.719
17430SOL    HW152314   2.743  10.432   1.729
17430SOL    HW252315   2.865  10.346   1.663
17431SOL     OW52316   2.567  10.360   0.368
17431SOL    HW152317   2.553  10.367   0.467
17431SOL    HW252318   2.651  10.309   0.350
17432SOL     OW52319   2.272  10.123   1.251
17432SOL    HW152320   2.358  10.135   1.301
17432SOL    HW252321   2.230  10.036   1.278
17433SOL     OW52322   3.136   9.696   1.262
17433SOL    HW152323   3.157   9.770   1.326
17433SOL    HW252324   3.047   9.713   1.219
17434SOL     OW52325   1.926  10.874   1.331
17434SOL    HW152326   1.880  10.956   1.297
17434SOL    HW252327   2.024  10.893   1.340
17435SOL     OW52328   2.229  10.410   0.501
17435SOL    HW152329   2.222  10.493   0.445
17435SOL    HW252330   2.233  10.330   0.441
17436SOL     OW52331   2.428   9.847   0.865
17436SOL    HW152332   2.440   9.913   0.791
17436SOL    HW252333   2.474   9.881   0.948
17437SOL     OW52334   3.114  10.658   0.388
17437SOL    HW152335   3.164  10.735   0.428
17437SOL    HW252336   3.019  10.660   0.420
17438SOL     OW52337   3.134  10.755   1.142
17438SOL    HW152338   3.181  10.768   1.229
17438SOL    HW252339   3.068  10.681   1.151
17439SOL     OW52340   3.444   9.949   0.472
17439SOL    HW152341   3.413  10.010   0.545
17439SOL    HW252342   3.494  10.001   0.403
17440SOL     OW52343   2.216  10.820   1.329
17440SOL    HW152344   2.195  10.776   1.242
17440SOL    HW252345   2.313  10.846   1.332
17441SOL     OW52346   2.264  10.061   1.598
17441SOL    HW152347   2.332  10.116   1.551
17441SOL    HW252348   2.304   9.973   1.625
17442SOL     OW52349   3.449  10.089   1.670
17442SOL    HW152350   3.357  10.127   1.665
17442SOL    HW252351   3.509  10.136   1.605
17443SOL     OW52352   2.875   9.415   1.770
17443SOL    HW152353   2.881   9.500   1.718
17443SOL    HW252354   2.907   9.339   1.713
17444SOL     OW52355   2.366   9.360   1.740
17444SOL    HW152356   2.324   9.303   1.670
17444SOL    HW252357   2.300   9.429   1.772
17445SOL     OW52358   2.435  10.180   1.029
17445SOL    HW152359   2.479  10.269   1.020
17445SOL    HW252360   2.372  10.180   1.106
17446SOL     OW52361   3.222  10.172   1.045
17446SOL    HW152362   3.147  10.172   0.979
17446SOL    HW252363   3.259  10.080   1.054
17447SOL     OW52364   3.071   9.835   0.275
17447SOL    HW152365   3.084   9.751   0.329
17447SOL    HW252366   3.042   9.909   0.335
17448SOL     OW52367   2.169   9.523   1.231
17448SOL    HW152368   2.146   9.560   1.321
17448SOL    HW252369   2.139   9.428   1.225
17449SOL     OW52370   1.899  10.620   1.282
17449SOL    HW152371   1.952  10.571   1.350
17449SOL    HW252372   1.921  10.718   1.287
17450SOL     OW52373   2.594   9.944   1.064
17450SOL    HW152374   2.653   9.918   0.988
17450SOL    HW252375   2.566  10.040   1.053
17451SOL     OW52376   3.590  10.245   1.854
17451SOL    HW152377   3.544  10.238   1.765
17451SOL    HW252378   3.528  10.289   1.920
17452SOL     OW52379   2.169   9.373   0.618
17452SOL    HW152380   2.158   9.467   0.651
17452SOL    HW252381   2.164   9.310   0.695
17453SOL     OW52382   3.484   9.677   0.374
17453SOL    HW152383   3.486   9.601   0.438
17453SOL    HW252384   3.436   9.754   0.414
17454SOL     OW52385   2.885  10.076   0.966
17454SOL    HW152386   2.900  10.097   1.062
17454SOL    HW252387   2.855   9.981   0.957
17455SOL     OW52388   2.842  10.883   1.700
17455SOL    HW152389   2.822  10.927   1.612
17455SOL    HW252390   2.881  10.792   1.684
17456SOL     OW52391   3.721  10.828   1.605
17456SOL    HW152392   3.735  10.855   1.510
17456SOL    HW252393   3.804  10.850   1.658
17457SOL     OW52394   2.212  10.208   1.804
17457SOL    HW152395   2.288  10.252   1.852
17457SOL    HW252396   2.247  10.161   1.722
17458SOL     OW52397   3.402   9.584   0.125
17458SOL    HW152398   3.341   9.509   0.148
17458SOL    HW252399   3.424   9.636   0.208
17459SOL     OW52400   3.165  10.148   0.042
17459SOL    HW152401   3.199  10.055   0.057
17459SOL    HW252402   3.183  10.175  -0.053
17460SOL     OW52403   2.930  10.643   0.849
17460SOL    HW152404   2.937  10.559   0.794
17460SOL    HW252405   2.992  10.712   0.813
17461SOL     OW52406   2.181  10.120   0.949
17461SOL    HW152407   2.274  10.156   0.954
17461SOL    HW252408   2.175  10.035   1.001
17462SOL     OW52409   2.201   9.819   1.006
17462SOL    HW152410   2.149   9.736   0.989
17462SOL    HW252411   2.278   9.824   0.942
17463SOL     OW52412   3.000   9.690   1.678
17463SOL    HW152413   2.955   9.753   1.742
17463SOL    HW252414   3.093   9.721   1.661
17464SOL     OW52415   3.022   9.517   1.477
17464SOL    HW152416   3.022   9.581   1.554
17464SOL    HW252417   3.050   9.565   1.394
17465SOL     OW52418   1.870  10.636   0.200
17465SOL    HW152419   1.777  10.657   0.169
17465SOL    HW252420   1.880  10.537   0.213
17466SOL     OW52421   1.950  11.111   0.927
17466SOL    HW152422   1.908  11.025   0.900
17466SOL    HW252423   2.044  11.114   0.893
17467SOL     OW52424   2.366  10.878   0.910
17467SOL    HW152425   2.432  10.952   0.919
17467SOL    HW252426   2.410  10.799   0.868
17468SOL     OW52427   2.864  10.106   1.238
17468SOL    HW152428   2.905  10.074   1.324
17468SOL    HW252429   2.768  10.079   1.235
17469SOL     OW52430   1.902   9.854   1.114
17469SOL    HW152431   1.987   9.821   1.073
17469SOL    HW252432   1.915   9.869   1.212
17470SOL     OW52433   2.051   9.830   1.722
17470SOL    HW152434   2.110   9.790   1.652
17470SOL    HW252435   1.993   9.901   1.681
17471SOL     OW52436   3.231  10.260   1.660
17471SOL    HW152437   3.270  10.349   1.680
17471SOL    HW252438   3.241  10.240   1.563
17472SOL     OW52439   2.677   9.882   0.325
17472SOL    HW152440   2.684   9.793   0.279
17472SOL    HW252441   2.583   9.916   0.317
17473SOL     OW52442   3.519   9.914   1.206
17473SOL    HW152443   3.481   9.845   1.268
17473SOL    HW252444   3.601   9.878   1.162
17474SOL     OW52445   2.114  10.874   1.744
17474SOL    HW152446   2.084  10.931   1.820
17474SOL    HW252447   2.107  10.777   1.770
17475SOL     OW52448   2.533   9.774   1.269
17475SOL    HW152449   2.499   9.685   1.239
17475SOL    HW252450   2.559   9.828   1.189
17476SOL     OW52451   2.792  10.988   1.465
17476SOL    HW152452   2.768  10.970   1.370
17476SOL    HW252453   2.822  11.082   1.475
17477SOL     OW52454   2.335   9.810   0.191
17477SOL    HW152455   2.396   9.890   0.195
17477SOL    HW252456   2.240   9.841   0.198
17478SOL     OW52457   2.021  10.447   1.466
17478SOL    HW152458   2.043  10.386   1.542
17478SOL    HW252459   2.031  10.398   1.380
17479SOL     OW52460   3.209  10.369   1.234
17479SOL    HW152461   3.233  10.306   1.160
17479SOL    HW252462   3.119  10.409   1.216
17480SOL     OW52463   3.164  10.165   0.309
17480SOL    HW152464   3.078  10.134   0.351
17480SOL    HW252465   3.160  10.151   0.210
17481SOL     OW52466   3.621  11.057   1.154
17481SOL    HW152467   3.682  11.087   1.081
17481SOL    HW252468   3.583  10.968   1.132
17482SOL     OW52469   3.114  11.041   1.128
17482SOL    HW152470   3.198  11.046   1.074
17482SOL    HW252471   3.091  10.945   1.146
17483SOL     OW52472   1.945  10.568   1.022
17483SOL    HW152473   1.940  10.567   1.122
17483SOL    HW252474   1.862  10.527   0.984
17484SOL     OW52475   2.550  10.972   1.716
17484SOL    HW152476   2.494  11.053   1.725
17484SOL    HW252477   2.602  10.976   1.630
17485SOL     OW52478   2.765   9.396   0.133
17485SOL    HW152479   2.816   9.397   0.047
17485SOL    HW252480   2.821   9.354   0.204
17486SOL     OW52481   3.588   9.445   0.523
17486SOL    HW152482   3.661   9.428   0.456
17486SOL    HW252483   3.557   9.358   0.561
17487SOL     OW52484   3.250  10.883   0.477
17487SOL    HW152485   3.317  10.895   0.403
17487SOL    HW252486   3.210  10.972   0.500
17488SOL     OW52487   1.992  11.104   1.851
17488SOL    HW152488   1.951  11.030   1.904
17488SOL    HW252489   2.056  11.155   1.909
17489SOL     OW52490   3.142  10.237   0.672
17489SOL    HW152491   3.202  10.156   0.674
17489SOL    HW252492   3.182  10.306   0.612
17490SOL     OW52493   2.692  10.583   1.422
17490SOL    HW152494   2.687  10.616   1.517
17490SOL    HW252495   2.606  10.602   1.376
17491SOL     OW52496   2.534  10.926   0.154
17491SOL    HW152497   2.543  10.936   0.055
17491SOL    HW252498   2.494  10.837   0.175
17492SOL     OW52499   3.512  11.030   1.394
17492SOL    HW152500   3.565  11.040   1.310
17492SOL    HW252501   3.485  11.120   1.428
17493SOL     OW52502   3.703   9.485   0.963
17493SOL    HW152503   3.742   9.400   0.927
17493SOL    HW252504   3.605   9.487   0.944
17494SOL     OW52505   2.125   9.636   0.720
17494SOL    HW152506   2.046   9.687   0.686
17494SOL    HW252507   2.116   9.621   0.818
17495SOL     OW52508   3.056  10.922   0.031
17495SOL    HW152509   3.062  10.829   0.068
17495SOL    HW252510   2.997  10.922  -0.049
17496SOL     OW52511   2.684  10.312   1.372
17496SOL    HW152512   2.724  10.311   1.280
17496SOL    HW252513   2.694  10.404   1.412
17497SOL     OW52514   2.778  10.220   0.291
17497SOL    HW152515   2.841  10.258   0.223
17497SOL    HW252516   2.818  10.137   0.330
17498SOL     OW52517   3.366  10.917   0.044
17498SOL    HW152518   3.274  10.954   0.051
17498SOL    HW252519   3.404  10.937  -0.046
17499SOL     OW52520   2.234  10.598   1.490
17499SOL    HW152521   2.221  10.691   1.456
17499SOL    HW252522   2.150  10.546   1.477
17500SOL     OW52523   3.476  10.602   1.289
17500SOL    HW152524   3.536  10.605   1.369
17500SOL    HW252525   3.401  10.666   1.302
17501SOL     OW52526   2.901  10.408   0.696
17501SOL    HW152527   2.831  10.361   0.750
17501SOL    HW252528   2.960  10.340   0.653
17502SOL     OW52529   2.876   9.546   0.971
17502SOL    HW152530   2.868   9.510   0.878
17502SOL    HW252531   2.874   9.470   1.036
17503SOL     OW52532   2.452  10.797   0.491
17503SOL    HW152533   2.494  10.739   0.421
17503SOL    HW252534   2.408  10.876   0.447
17504SOL     OW52535   3.571   9.695   1.381
17504SOL    HW152536   3.644   9.764   1.385
17504SOL    HW252537   3.599   9.620   1.322
17505SOL     OW52538   2.117  10.658   0.290
17505SOL    HW152539   2.021  10.659   0.263
17505SOL    HW252540   2.129  10.711   0.374
17506SOL     OW52541   1.967  10.323   1.726
17506SOL    HW152542   1.890  10.290   1.780
17506SOL    HW252543   2.052  10.293   1.768
17507SOL     OW52544   2.534   9.513   1.489
17507SOL    HW152545   2.624   9.497   1.449
17507SOL    HW252546   2.542   9.518   1.588
17508SOL     OW52547   1.937   9.655   0.033
17508SOL    HW152548   1.845   9.627   0.004
17508SOL    HW252549   1.968   9.732  -0.023
17509SOL     OW52550   3.302  10.166   1.398
17509SOL    HW152551   3.245  10.218   1.335
17509SOL    HW252552   3.398  10.178   1.374
17510SOL     OW52553   1.934   9.476   0.318
17510SOL    HW152554   1.917   9.559   0.264
17510SOL    HW252555   2.024   9.439   0.296
17511SOL     OW52556   3.045  10.645   0.119
17511SOL    HW152557   2.946  10.634   0.121
17511SOL    HW252558   3.079  10.660   0.212
17512SOL     OW52559   2.475  10.152   1.431
17512SOL    HW152560   2.531  10.233   1.414
17512SOL    HW252561   2.534  10.072   1.434
17513SOL     OW52562   3.355  11.077   0.959
17513SOL    HW152563   3.388  11.141   0.890
17513SOL    HW252564   3.421  11.071   1.034
17514SOL     OW52565   2.578   9.875   1.708
17514SOL    HW152566   2.597   9.940   1.782
17514SOL    HW252567   2.638   9.795   1.717
17515SOL     OW52568   3.312  10.530   1.633
17515SOL    HW152569   3.303  10.520   1.732
17515SOL    HW252570   3.408  10.523   1.607
17516SOL     OW52571   2.252  11.051   1.560
17516SOL    HW152572   2.161  11.092   1.558
17516SOL    HW252573   2.245  10.957   1.592
17517SOL     OW52574   3.536  10.193   1.254
17517SOL    HW152575   3.509  10.104   1.217
17517SOL    HW252576   3.537  10.261   1.181
17518SOL     OW52577   3.087   9.635   0.449
17518SOL    HW152578   3.152   9.561   0.438
17518SOL    HW252579   3.107   9.685   0.533
17519SOL     OW52580   2.456  10.055   0.652
17519SOL    HW152581   2.506  10.140   0.633
17519SOL    HW252582   2.368  10.057   0.604
17520SOL     OW52583   3.639   9.652   1.642
17520SOL    HW152584   3.622   9.683   1.548
17520SOL    HW252585   3.555   9.615   1.680
17521SOL     OW52586   3.592  10.244   1.517
17521SOL    HW152587   3.630  10.335   1.532
17521SOL    HW252588   3.584  10.227   1.418
17522SOL     OW52589   2.721  10.684   0.016
17522SOL    HW152590   2.675  10.699   0.104
17522SOL    HW252591   2.765  10.769  -0.014
17523SOL     OW52592   2.523  11.100   0.953
17523SOL    HW152593   2.477  11.188   0.940
17523SOL    HW252594   2.622  11.112   0.946
17524SOL     OW52595   2.721  10.266   0.861
17524SOL    HW152596   2.775  10.197   0.909
17524SOL    HW252597   2.689  10.335   0.927
17525SOL     OW52598   2.945  10.294   0.087
17525SOL    HW152599   2.922  10.347   0.005
17525SOL    HW252600   3.026  10.238   0.068
17526SOL     OW52601   3.723  10.879   0.851
17526SOL    HW152602   3.652  10.867   0.781
17526SOL    HW252603   3.724  10.800   0.911
17527SOL     OW52604   2.083  10.624   1.844
17527SOL    HW152605   2.018  10.551   1.823
17527SOL    HW252606   2.087  10.638   1.942
17528SOL     OW52607   1.941  10.550   0.653
17528SOL    HW152608   1.940  10.503   0.741
17528SOL    HW252609   2.023  10.522   0.602
17529SOL     OW52610   2.534  10.701   1.624
17529SOL    HW152611   2.456  10.651   1.662
17529SOL    HW252612   2.531  10.796   1.655
17530SOL     OW52613   3.686   9.502   1.227
17530SOL    HW152614   3.682   9.412   1.271
17530SOL    HW252615   3.689   9.491   1.128
17531SOL     OW52616   2.290   9.734   0.520
17531SOL    HW152617   2.320   9.662   0.458
17531SOL    HW252618   2.251   9.694   0.603
17532SOL     OW52619   3.567  10.797   1.104
17532SOL    HW152620   3.474  10.772   1.077
17532SOL    HW252621   3.593  10.747   1.186
17533SOL     OW52622   2.179   9.857   1.280
17533SOL    HW152623   2.217   9.798   1.352
17533SOL    HW252624   2.219   9.831   1.192
17534SOL     OW52625   2.674  10.896   0.687
17534SOL    HW152626   2.706  10.906   0.593
17534SOL    HW252627   2.595  10.834   0.689
17535SOL     OW52628   3.286   9.524   1.112
17535SOL    HW152629   3.338   9.459   1.167
17535SOL    HW252630   3.237   9.587   1.173
17536SOL     OW52631   2.863   9.344   1.154
17536SOL    HW152632   2.800   9.272   1.123
17536SOL    HW252633   2.956   9.308   1.154
17537SOL     OW52634   2.632  10.640   0.301
17537SOL    HW152635   2.586  10.553   0.318
17537SOL    HW252636   2.723  10.637   0.342
17538SOL     OW52637   2.480  10.877   1.284
17538SOL    HW152638   2.475  10.959   1.341
17538SOL    HW252639   2.569  10.874   1.239
17539SOL     OW52640   3.214   9.362   0.168
17539SOL    HW152641   3.249   9.321   0.084
17539SOL    HW252642   3.124   9.324   0.188
17540SOL     OW52643   3.162   9.763   0.691
17540SOL    HW152644   3.103   9.843   0.695
17540SOL    HW252645   3.177   9.728   0.784
17541SOL     OW52646   3.455   9.531   0.882
17541SOL    HW152647   3.371   9.530   0.936
17541SOL    HW252648   3.457   9.614   0.826
17542SOL     OW52649   1.901  10.387   0.300
17542SOL    HW152650   2.000  10.376   0.291
17542SOL    HW252651   1.861  10.301   0.332
17543SOL     OW52652   2.737  10.956   0.337
17543SOL    HW152653   2.660  10.921   0.283
17543SOL    HW252654   2.705  11.027   0.399
17544SOL     OW52655   2.092   9.938   1.975
17544SOL    HW152656   1.999   9.936   2.012
17544SOL    HW252657   2.093   9.899   1.883
17545SOL     OW52658   2.087   9.585   2.858
17545SOL    HW152659   2.122   9.568   2.950
17545SOL    HW252660   1.999   9.540   2.846
17546SOL     OW52661   1.881   9.678   2.509
17546SOL    HW152662   1.799   9.721   2.548
17546SOL    HW252663   1.853   9.605   2.446
17547SOL     OW52664   2.431  10.585   3.027
17547SOL    HW152665   2.338  10.578   2.990
17547SOL    HW252666   2.442  10.674   3.071
17548SOL     OW52667   3.417  10.821   2.565
17548SOL    HW152668   3.360  10.805   2.646
17548SOL    HW252669   3.358  10.831   2.485
17549SOL     OW52670   2.997  10.013   2.579
17549SOL    HW152671   3.054  10.091   2.554
17549SOL    HW252672   2.937  10.039   2.655
17550SOL     OW52673   3.617   9.917   2.093
17550SOL    HW152674   3.605   9.904   1.994
17550SOL    HW252675   3.587   9.836   2.142
17551SOL     OW52676   2.630  10.454   2.885
17551SOL    HW152677   2.552  10.471   2.945
17551SOL    HW252678   2.664  10.541   2.849
17552SOL     OW52679   2.712  10.108   3.685
17552SOL    HW152680   2.708  10.184   3.750
17552SOL    HW252681   2.734  10.144   3.594
17553SOL     OW52682   2.547  10.322   2.527
17553SOL    HW152683   2.616  10.306   2.597
17553SOL    HW252684   2.474  10.379   2.565
17554SOL     OW52685   2.548  10.471   3.665
17554SOL    HW152686   2.608  10.550   3.679
17554SOL    HW252687   2.462  10.502   3.624
17555SOL     OW52688   2.197  10.745   2.923
17555SOL    HW152689   2.119  10.714   2.870
17555SOL    HW252690   2.255  10.803   2.866
17556SOL     OW52691   3.322  10.815   3.201
17556SOL    HW152692   3.346  10.909   3.227
17556SOL    HW252693   3.306  10.761   3.283
17557SOL     OW52694   2.300   9.702   3.361
17557SOL    HW152695   2.382   9.646   3.370
17557SOL    HW252696   2.219   9.644   3.365
17558SOL     OW52697   3.465   9.757   2.599
17558SOL    HW152698   3.391   9.803   2.549
17558SOL    HW252699   3.516   9.825   2.652
17559SOL     OW52700   2.093  11.023   2.345
17559SOL    HW152701   2.127  11.100   2.399
17559SOL    HW252702   2.137  11.023   2.255
17560SOL     OW52703   2.989  10.651   3.552
17560SOL    HW152704   3.036  10.651   3.640
17560SOL    HW252705   2.941  10.564   3.541
17561SOL     OW52706   2.092  10.744   2.400
17561SOL    HW152707   2.066  10.840   2.400
17561SOL    HW252708   2.021  10.690   2.445
17562SOL     OW52709   2.102  10.401   2.748
17562SOL    HW152710   2.116  10.317   2.800
17562SOL    HW252711   2.047  10.465   2.803
17563SOL     OW52712   2.482  11.096   3.301
17563SOL    HW152713   2.390  11.079   3.336
17563SOL    HW252714   2.510  11.188   3.327
17564SOL     OW52715   2.468  10.274   1.985
17564SOL    HW152716   2.475  10.358   1.931
17564SOL    HW252717   2.514  10.287   2.073
17565SOL     OW52718   3.456   9.424   3.342
17565SOL    HW152719   3.438   9.491   3.270
17565SOL    HW252720   3.453   9.470   3.431
17566SOL     OW52721   1.984   9.953   2.425
17566SOL    HW152722   1.939   9.865   2.442
17566SOL    HW252723   1.983  10.007   2.509
17567SOL     OW52724   3.704  11.077   2.221
17567SOL    HW152725   3.758  11.048   2.301
17567SOL    HW252726   3.734  11.167   2.192
17568SOL     OW52727   1.889  10.906   1.979
17568SOL    HW152728   1.870  10.810   2.000
17568SOL    HW252729   1.856  10.964   2.054
17569SOL     OW52730   3.551  10.232   2.474
17569SOL    HW152731   3.646  10.203   2.482
17569SOL    HW252732   3.543  10.297   2.399
17570SOL     OW52733   3.503  10.418   2.294
17570SOL    HW152734   3.589  10.420   2.242
17570SOL    HW252735   3.517  10.465   2.382
17571SOL     OW52736   1.975  10.047   3.459
17571SOL    HW152737   2.063  10.034   3.504
17571SOL    HW252738   1.962  10.144   3.437
17572SOL     OW52739   2.475  10.675   2.588
17572SOL    HW152740   2.426  10.588   2.597
17572SOL    HW252741   2.452  10.718   2.501
17573SOL     OW52742   3.155  10.538   3.285
17573SOL    HW152743   3.192  10.465   3.227
17573SOL    HW252744   3.207  10.543   3.370
17574SOL     OW52745   2.671   9.314   2.364
17574SOL    HW152746   2.711   9.405   2.355
17574SOL    HW252747   2.571   9.322   2.370
17575SOL     OW52748   2.059  10.286   3.126
17575SOL    HW152749   2.148  10.241   3.112
17575SOL    HW252750   1.986  10.221   3.107
17576SOL     OW52751   3.387  10.309   2.052
17576SOL    HW152752   3.324  10.233   2.065
17576SOL    HW252753   3.435  10.327   2.138
17577SOL     OW52754   3.049  11.102   3.478
17577SOL    HW152755   3.073  11.162   3.402
17577SOL    HW252756   3.056  11.007   3.448
17578SOL     OW52757   2.179   9.561   3.663
17578SOL    HW152758   2.250   9.632   3.669
17578SOL    HW252759   2.091   9.600   3.691
17579SOL     OW52760   3.328  10.727   2.815
17579SOL    HW152761   3.269  10.733   2.895
17579SOL    HW252762   3.313  10.639   2.769
17580SOL     OW52763   3.529  11.024   2.434
17580SOL    HW152764   3.488  11.001   2.346
17580SOL    HW252765   3.511  10.950   2.499
17581SOL     OW52766   2.460  10.039   2.132
17581SOL    HW152767   2.484  10.108   2.064
17581SOL    HW252768   2.382  10.072   2.186
17582SOL     OW52769   3.143   9.655   2.806
17582SOL    HW152770   3.057   9.605   2.793
17582SOL    HW252771   3.205   9.601   2.862
17583SOL     OW52772   3.438  10.972   2.169
17583SOL    HW152773   3.527  11.018   2.172
17583SOL    HW252774   3.417  10.948   2.074
17584SOL     OW52775   2.669   9.915   3.327
17584SOL    HW152776   2.622   9.912   3.416
17584SOL    HW252777   2.618   9.860   3.261
17585SOL     OW52778   3.256   9.779   3.536
17585SOL    HW152779   3.236   9.822   3.624
17585SOL    HW252780   3.334   9.717   3.545
17586SOL     OW52781   2.835  10.200   3.434
17586SOL    HW152782   2.881  10.116   3.405
17586SOL    HW252783   2.779  10.234   3.359
17587SOL     OW52784   2.853   9.720   3.104
17587SOL    HW152785   2.776   9.754   3.158
17587SOL    HW252786   2.819   9.669   3.025
17588SOL     OW52787   2.903  10.011   2.291
17588SOL    HW152788   2.929  10.007   2.387
17588SOL    HW252789   2.818   9.960   2.277
17589SOL     OW52790   1.938  10.121   2.651
17589SOL    HW152791   2.037  10.109   2.660
17589SOL    HW252792   1.914  10.216   2.672
17590SOL     OW52793   1.992  11.131   3.433
17590SOL    HW152794   1.982  11.116   3.532
17590SOL    HW252795   1.906  11.167   3.397
17591SOL     OW52796   2.727   9.658   2.057
17591SOL    HW152797   2.786   9.721   2.008
17591SOL    HW252798   2.746   9.564   2.028
17592SOL     OW52799   3.581   9.895   3.693
17592SOL    HW152800   3.555   9.984   3.657
17592SOL    HW252801   3.579   9.827   3.620
17593SOL     OW52802   3.224  10.454   2.407
17593SOL    HW152803   3.307  10.425   2.359
17593SOL    HW252804   3.175  10.521   2.351
17594SOL     OW52805   2.412   9.506   2.747
17594SOL    HW152806   2.407   9.501   2.847
17594SOL    HW252807   2.414   9.602   2.718
17595SOL     OW52808   2.870  10.766   2.339
17595SOL    HW152809   2.824  10.838   2.287
17595SOL    HW252810   2.866  10.786   2.437
17596SOL     OW52811   2.213  11.111   2.715
17596SOL    HW152812   2.263  11.025   2.721
17596SOL    HW252813   2.278  11.188   2.712
17597SOL     OW52814   3.657  10.376   2.735
17597SOL    HW152815   3.595  10.361   2.659
17597SOL    HW252816   3.605  10.387   2.820
17598SOL     OW52817   3.089  10.860   3.368
17598SOL    HW152818   3.095  10.783   3.432
17598SOL    HW252819   3.037  10.834   3.288
17599SOL     OW52820   2.183  10.253   2.104
17599SOL    HW152821   2.265  10.292   2.062
17599SOL    HW252822   2.156  10.171   2.055
17600SOL     OW52823   3.320  10.045   2.590
17600SOL    HW152824   3.315   9.980   2.665
17600SOL    HW252825   3.400  10.104   2.603
17601SOL     OW52826   2.323  10.576   3.589
17601SOL    HW152827   2.273  10.577   3.503
17601SOL    HW252828   2.260  10.558   3.665
17602SOL     OW52829   2.973  11.086   2.099
17602SOL    HW152830   2.913  11.024   2.149
17602SOL    HW252831   3.004  11.042   2.014
17603SOL     OW52832   2.064   9.595   3.360
17603SOL    HW152833   1.984   9.655   3.347
17603SOL    HW252834   2.054   9.546   3.446
17604SOL     OW52835   3.494  10.687   1.943
17604SOL    HW152836   3.462  10.781   1.933
17604SOL    HW252837   3.418  10.624   1.931
17605SOL     OW52838   2.326  11.053   2.185
17605SOL    HW152839   2.359  11.092   2.271
17605SOL    HW252840   2.402  11.046   2.120
17606SOL     OW52841   3.262   9.417   2.288
17606SOL    HW152842   3.238   9.380   2.198
17606SOL    HW252843   3.361   9.433   2.292
17607SOL     OW52844   2.111  11.095   3.103
17607SOL    HW152845   2.168  11.030   3.153
17607SOL    HW252846   2.095  11.062   3.010
17608SOL     OW52847   2.802  11.008   2.766
17608SOL    HW152848   2.882  10.951   2.787
17608SOL    HW252849   2.753  10.968   2.689
17609SOL     OW52850   2.244  10.010   2.342
17609SOL    HW152851   2.289   9.920   2.339
17609SOL    HW252852   2.150   9.999   2.375
17610SOL     OW52853   3.409   9.532   3.591
17610SOL    HW152854   3.404   9.569   3.683
17610SOL    HW252855   3.337   9.463   3.579
17611SOL     OW52856   2.476   9.432   1.979
17611SOL    HW152857   2.574   9.410   1.986
17611SOL    HW252858   2.445   9.415   1.886
17612SOL     OW52859   2.643   9.574   3.611
17612SOL    HW152860   2.710   9.513   3.654
17612SOL    HW252861   2.570   9.593   3.676
17613SOL     OW52862   2.750  10.824   3.057
17613SOL    HW152863   2.727  10.799   2.963
17613SOL    HW252864   2.811  10.755   3.096
17614SOL     OW52865   3.213   9.900   3.295
17614SOL    HW152866   3.241   9.857   3.380
17614SOL    HW252867   3.238   9.996   3.296
17615SOL     OW52868   2.665  10.712   2.786
17615SOL    HW152869   2.755  10.726   2.744
17615SOL    HW252870   2.594  10.714   2.715
17616SOL     OW52871   2.784   9.813   2.761
17616SOL    HW152872   2.759   9.804   2.665
17616SOL    HW252873   2.832   9.731   2.792
17617SOL     OW52874   2.401   9.374   2.374
17617SOL    HW152875   2.320   9.375   2.432
17617SOL    HW252876   2.404   9.457   2.319
17618SOL     OW52877   3.296  10.498   1.903
17618SOL    HW152878   3.328  10.422   1.960
17618SOL    HW252879   3.204  10.525   1.933
17619SOL     OW52880   2.159   9.345   2.033
17619SOL    HW152881   2.208   9.429   2.012
17619SOL    HW252882   2.221   9.280   2.078
17620SOL     OW52883   2.797   9.546   2.342
17620SOL    HW152884   2.749   9.587   2.264
17620SOL    HW252885   2.896   9.544   2.323
17621SOL     OW52886   2.938   9.993   3.326
17621SOL    HW152887   2.858   9.932   3.329
17621SOL    HW252888   3.019   9.940   3.302
17622SOL     OW52889   3.089  10.880   2.655
17622SOL    HW152890   3.110  10.954   2.590
17622SOL    HW252891   3.157  10.880   2.728
17623SOL     OW52892   2.321  10.462   2.603
17623SOL    HW152893   2.250  10.435   2.668
17623SOL    HW252894   2.295  10.434   2.510
17624SOL     OW52895   3.133  11.107   2.453
17624SOL    HW152896   3.177  11.171   2.389
17624SOL    HW252897   3.083  11.159   2.523
17625SOL     OW52898   2.894   9.859   1.878
17625SOL    HW152899   2.853   9.941   1.839
17625SOL    HW252900   2.958   9.885   1.951
17626SOL     OW52901   1.940   9.866   3.248
17626SOL    HW152902   2.032   9.865   3.207
17626SOL    HW252903   1.934   9.940   3.315
17627SOL     OW52904   2.423   9.532   3.009
17627SOL    HW152905   2.461   9.448   3.046
17627SOL    HW252906   2.335   9.551   3.053
17628SOL     OW52907   2.728   9.764   2.504
17628SOL    HW152908   2.696   9.836   2.442
17628SOL    HW252909   2.752   9.683   2.451
17629SOL     OW52910   2.879   9.349   2.615
17629SOL    HW152911   2.807   9.354   2.546
17629SOL    HW252912   2.855   9.280   2.684
17630SOL     OW52913   3.291  10.483   2.729
17630SOL    HW152914   3.236  10.399   2.722
17630SOL    HW252915   3.317  10.512   2.637
17631SOL     OW52916   3.328   9.900   2.854
17631SOL    HW152917   3.298   9.805   2.861
17631SOL    HW252918   3.401   9.916   2.920
17632SOL     OW52919   3.719  10.143   2.239
17632SOL    HW152920   3.761  10.079   2.303
17632SOL    HW252921   3.681  10.092   2.161
17633SOL     OW52922   2.350  10.695   2.036
17633SOL    HW152923   2.263  10.680   2.083
17633SOL    HW252924   2.333  10.721   1.941
17634SOL     OW52925   3.526  10.590   2.519
17634SOL    HW152926   3.625  10.598   2.533
17634SOL    HW252927   3.481  10.674   2.550
17635SOL     OW52928   3.252   9.885   1.940
17635SOL    HW152929   3.198   9.864   2.021
17635SOL    HW252930   3.343   9.844   1.949
17636SOL     OW52931   2.389   9.566   2.190
17636SOL    HW152932   2.416   9.507   2.115
17636SOL    HW252933   2.389   9.661   2.159
17637SOL     OW52934   3.616  10.533   3.450
17637SOL    HW152935   3.707  10.494   3.437
17637SOL    HW252936   3.624  10.629   3.474
17638SOL     OW52937   2.926  10.657   3.202
17638SOL    HW152938   2.846  10.634   3.257
17638SOL    HW252939   3.009  10.631   3.251
17639SOL     OW52940   3.454  10.939   3.487
17639SOL    HW152941   3.481  10.973   3.397
17639SOL    HW252942   3.533  10.901   3.533
17640SOL     OW52943   2.973  10.505   2.962
17640SOL    HW152944   2.933  10.549   3.043
17640SOL    HW252945   2.932  10.542   2.879
17641SOL     OW52946   3.500  10.409   2.941
17641SOL    HW152947   3.505  10.490   3.000
17641SOL    HW252948   3.414  10.411   2.890
17642SOL     OW52949   2.777   9.399   3.264
17642SOL    HW152950   2.802   9.379   3.169
17642SOL    HW252951   2.849   9.455   3.306
17643SOL     OW52952   2.842  10.426   3.581
17643SOL    HW152953   2.743  10.432   3.591
17643SOL    HW252954   2.865  10.346   3.525
17644SOL     OW52955   2.567  10.360   2.230
17644SOL    HW152956   2.553  10.367   2.329
17644SOL    HW252957   2.651  10.309   2.212
17645SOL     OW52958   2.272  10.123   3.113
17645SOL    HW152959   2.358  10.135   3.163
17645SOL    HW252960   2.230  10.036   3.140
17646SOL     OW52961   3.136   9.696   3.124
17646SOL    HW152962   3.157   9.770   3.188
17646SOL    HW252963   3.047   9.713   3.081
17647SOL     OW52964   1.926  10.874   3.193
17647SOL    HW152965   1.880  10.956   3.159
17647SOL    HW252966   2.024  10.893   3.202
17648SOL     OW52967   2.229  10.410   2.363
17648SOL    HW152968   2.222  10.493   2.307
17648SOL    HW252969   2.233  10.330   2.303
17649SOL     OW52970   2.428   9.847   2.727
17649SOL    HW152971   2.440   9.913   2.653
17649SOL    HW252972   2.474   9.881   2.810
17650SOL     OW52973   3.114  10.658   2.250
17650SOL    HW152974   3.164  10.735   2.290
17650SOL    HW252975   3.019  10.660   2.282
17651SOL     OW52976   3.134  10.755   3.004
17651SOL    HW152977   3.181  10.768   3.091
17651SOL    HW252978   3.068  10.681   3.013
17652SOL     OW52979   3.444   9.949   2.334
17652SOL    HW152980   3.413  10.010   2.407
17652SOL    HW252981   3.494  10.001   2.265
17653SOL     OW52982   2.216  10.820   3.191
17653SOL    HW152983   2.195  10.776   3.104
17653SOL    HW252984   2.313  10.846   3.194
17654SOL     OW52985   2.264  10.061   3.460
17654SOL    HW152986   2.332  10.116   3.413
17654SOL    HW252987   2.304   9.973   3.487
17655SOL     OW52988   3.449  10.089   3.532
17655SOL    HW152989   3.357  10.127   3.527
17655SOL    HW252990   3.509  10.136   3.467
17656SOL     OW52991   2.875   9.415   3.632
17656SOL    HW152992   2.881   9.500   3.580
17656SOL    HW252993   2.907   9.339   3.575
17657SOL     OW52994   2.366   9.360   3.602
17657SOL    HW152995   2.324   9.303   3.532
17657SOL    HW252996   2.300   9.429   3.634
17658SOL     OW52997   2.435  10.180   2.891
17658SOL    HW152998   2.479  10.269   2.882
17658SOL    HW252999   2.372  10.180   2.968
17659SOL     OW53000   3.222  10.172   2.907
17659SOL    HW153001   3.147  10.172   2.841
17659SOL    HW253002   3.259  10.080   2.916
17660SOL     OW53003   3.071   9.835   2.137
17660SOL    HW153004   3.084   9.751   2.191
17660SOL    HW253005   3.042   9.909   2.197
17661SOL     OW53006   2.169   9.523   3.093
17661SOL    HW153007   2.146   9.560   3.183
17661SOL    HW253008   2.139   9.428   3.087
17662SOL     OW53009   1.899  10.620   3.144
17662SOL    HW153010   1.952  10.571   3.212
17662SOL    HW253011   1.921  10.718   3.149
17663SOL     OW53012   2.594   9.944   2.926
17663SOL    HW153013   2.653   9.918   2.850
17663SOL    HW253014   2.566  10.040   2.915
17664SOL     OW53015   3.590  10.245   3.716
17664SOL    HW153016   3.544  10.238   3.627
17664SOL    HW253017   3.528  10.289   3.782
17665SOL     OW53018   2.169   9.373   2.480
17665SOL    HW153019   2.158   9.467   2.513
17665SOL    HW253020   2.164   9.310   2.557
17666SOL     OW53021   3.484   9.677   2.236
17666SOL    HW153022   3.486   9.601   2.300
17666SOL    HW253023   3.436   9.754   2.276
17667SOL     OW53024   2.885  10.076   2.828
17667SOL    HW153025   2.900  10.097   2.924
17667SOL    HW253026   2.855   9.981   2.819
17668SOL     OW53027   2.842  10.883   3.562
17668SOL    HW153028   2.822  10.927   3.474
17668SOL    HW253029   2.881  10.792   3.546
17669SOL     OW53030   3.721  10.828   3.467
17669SOL    HW153031   3.735  10.855   3.372
17669SOL    HW253032   3.804  10.850   3.520
17670SOL     OW53033   2.212  10.208   3.666
17670SOL    HW153034   2.288  10.252   3.714
17670SOL    HW253035   2.247  10.161   3.584
17671SOL     OW53036   3.402   9.584   1.987
17671SOL    HW153037   3.341   9.509   2.010
17671SOL    HW253038   3.424   9.636   2.070
17672SOL     OW53039   3.165  10.148   1.904
17672SOL    HW153040   3.199  10.055   1.919
17672SOL    HW253041   3.183  10.175   1.809
17673SOL     OW53042   2.930  10.643   2.711
17673SOL    HW153043   2.937  10.559   2.656
17673SOL    HW253044   2.992  10.712   2.675
17674SOL     OW53045   2.181  10.120   2.811
17674SOL    HW153046   2.274  10.156   2.816
17674SOL    HW253047   2.175  10.035   2.863
17675SOL     OW53048   2.201   9.819   2.868
17675SOL    HW153049   2.149   9.736   2.851
17675SOL    HW253050   2.278   9.824   2.804
17676SOL     OW53051   3.000   9.690   3.540
17676SOL    HW153052   2.955   9.753   3.604
17676SOL    HW253053   3.093   9.721   3.523
17677SOL     OW53054   3.022   9.517   3.339
17677SOL    HW153055   3.022   9.581   3.416
17677SOL    HW253056   3.050   9.565   3.256
17678SOL     OW53057   1.870  10.636   2.062
17678SOL    HW153058   1.777  10.657   2.031
17678SOL    HW253059   1.880  10.537   2.075
17679SOL     OW53060   1.950  11.111   2.789
17679SOL    HW153061   1.908  11.025   2.762
17679SOL    HW253062   2.044  11.114   2.755
17680SOL     OW53063   2.366  10.878   2.772
17680SOL    HW153064   2.432  10.952   2.781
17680SOL    HW253065   2.410  10.799   2.730
17681SOL     OW53066   2.864  10.106   3.100
17681SOL    HW153067   2.905  10.074   3.186
17681SOL    HW253068   2.768  10.079   3.097
17682SOL     OW53069   1.902   9.854   2.976
17682SOL    HW153070   1.987   9.821   2.935
17682SOL    HW253071   1.915   9.869   3.074
17683SOL     OW53072   2.051   9.830   3.584
17683SOL    HW153073   2.110   9.790   3.514
17683SOL    HW253074   1.993   9.901   3.543
17684SOL     OW53075   3.231  10.260   3.522
17684SOL    HW153076   3.270  10.349   3.542
17684SOL    HW253077   3.241  10.240   3.425
17685SOL     OW53078   2.677   9.882   2.187
17685SOL    HW153079   2.684   9.793   2.141
17685SOL    HW253080   2.583   9.916   2.179
17686SOL     OW53081   3.519   9.914   3.068
17686SOL    HW153082   3.481   9.845   3.130
17686SOL    HW253083   3.601   9.878   3.024
17687SOL     OW53084   2.114  10.874   3.606
17687SOL    HW153085   2.084  10.931   3.682
17687SOL    HW253086   2.107  10.777   3.632
17688SOL     OW53087   2.533   9.774   3.131
17688SOL    HW153088   2.499   9.685   3.101
17688SOL    HW253089   2.559   9.828   3.051
17689SOL     OW53090   2.792  10.988   3.327
17689SOL    HW153091   2.768  10.970   3.232
17689SOL    HW253092   2.822  11.082   3.337
17690SOL     OW53093   2.335   9.810   2.053
17690SOL    HW153094   2.396   9.890   2.057
17690SOL    HW253095   2.240   9.841   2.060
17691SOL     OW53096   2.021  10.447   3.328
17691SOL    HW153097   2.043  10.386   3.404
17691SOL    HW253098   2.031  10.398   3.242
17692SOL     OW53099   3.209  10.369   3.096
17692SOL    HW153100   3.233  10.306   3.022
17692SOL    HW253101   3.119  10.409   3.078
17693SOL     OW53102   3.164  10.165   2.171
17693SOL    HW153103   3.078  10.134   2.213
17693SOL    HW253104   3.160  10.151   2.072
17694SOL     OW53105   3.621  11.057   3.016
17694SOL    HW153106   3.682  11.087   2.943
17694SOL    HW253107   3.583  10.968   2.994
17695SOL     OW53108   3.114  11.041   2.990
17695SOL    HW153109   3.198  11.046   2.936
17695SOL    HW253110   3.091  10.945   3.008
17696SOL     OW53111   1.945  10.568   2.884
17696SOL    HW153112   1.940  10.567   2.984
17696SOL    HW253113   1.862  10.527   2.846
17697SOL     OW53114   2.550  10.972   3.578
17697SOL    HW153115   2.494  11.053   3.587
17697SOL    HW253116   2.602  10.976   3.492
17698SOL     OW53117   3.588   9.445   2.385
17698SOL    HW153118   3.661   9.428   2.318
17698SOL    HW253119   3.557   9.358   2.423
17699SOL     OW53120   3.250  10.883   2.339
17699SOL    HW153121   3.317  10.895   2.265
17699SOL    HW253122   3.210  10.972   2.362
17700SOL     OW53123   1.992  11.104   3.713
17700SOL    HW153124   1.951  11.030   3.766
17700SOL    HW253125   2.056  11.155   3.771
17701SOL     OW53126   3.142  10.237   2.534
17701SOL    HW153127   3.202  10.156   2.536
17701SOL    HW253128   3.182  10.306   2.474
17702SOL     OW53129   2.692  10.583   3.284
17702SOL    HW153130   2.687  10.616   3.379
17702SOL    HW253131   2.606  10.602   3.238
17703SOL     OW53132   2.534  10.926   2.016
17703SOL    HW153133   2.543  10.936   1.917
17703SOL    HW253134   2.494  10.837   2.037
17704SOL     OW53135   3.512  11.030   3.256
17704SOL    HW153136   3.565  11.040   3.172
17704SOL    HW253137   3.485  11.120   3.290
17705SOL     OW53138   3.703   9.485   2.825
17705SOL    HW153139   3.742   9.400   2.789
17705SOL    HW253140   3.605   9.487   2.806
17706SOL     OW53141   2.125   9.636   2.582
17706SOL    HW153142   2.046   9.687   2.548
17706SOL    HW253143   2.116   9.621   2.680
17707SOL     OW53144   3.056  10.922   1.893
17707SOL    HW153145   3.062  10.829   1.930
17707SOL    HW253146   2.997  10.922   1.813
17708SOL     OW53147   2.684  10.312   3.234
17708SOL    HW153148   2.724  10.311   3.142
17708SOL    HW253149   2.694  10.404   3.274
17709SOL     OW53150   2.778  10.220   2.153
17709SOL    HW153151   2.841  10.258   2.085
17709SOL    HW253152   2.818  10.137   2.192
17710SOL     OW53153   3.366  10.917   1.906
17710SOL    HW153154   3.274  10.954   1.913
17710SOL    HW253155   3.404  10.937   1.816
17711SOL     OW53156   2.234  10.598   3.352
17711SOL    HW153157   2.221  10.691   3.318
17711SOL    HW253158   2.150  10.546   3.339
17712SOL     OW53159   3.476  10.602   3.151
17712SOL    HW153160   3.536  10.605   3.231
17712SOL    HW253161   3.401  10.666   3.164
17713SOL     OW53162   2.901  10.408   2.558
17713SOL    HW153163   2.831  10.361   2.612
17713SOL    HW253164   2.960  10.340   2.515
17714SOL     OW53165   2.876   9.546   2.833
17714SOL    HW153166   2.868   9.510   2.740
17714SOL    HW253167   2.874   9.470   2.898
17715SOL     OW53168   2.452  10.797   2.353
17715SOL    HW153169   2.494  10.739   2.283
17715SOL    HW253170   2.408  10.876   2.309
17716SOL     OW53171   3.571   9.695   3.243
17716SOL    HW153172   3.644   9.764   3.247
17716SOL    HW253173   3.599   9.620   3.184
17717SOL     OW53174   2.117  10.658   2.152
17717SOL    HW153175   2.021  10.659   2.125
17717SOL    HW253176   2.129  10.711   2.236
17718SOL     OW53177   1.967  10.323   3.588
17718SOL    HW153178   1.890  10.290   3.642
17718SOL    HW253179   2.052  10.293   3.630
17719SOL     OW53180   2.534   9.513   3.351
17719SOL    HW153181   2.624   9.497   3.311
17719SOL    HW253182   2.542   9.518   3.450
17720SOL     OW53183   1.937   9.655   1.895
17720SOL    HW153184   1.845   9.627   1.866
17720SOL    HW253185   1.968   9.732   1.839
17721SOL     OW53186   3.302  10.166   3.260
17721SOL    HW153187   3.245  10.218   3.197
17721SOL    HW253188   3.398  10.178   3.236
17722SOL     OW53189   1.934   9.476   2.180
17722SOL    HW153190   1.917   9.559   2.126
17722SOL    HW253191   2.024   9.439   2.158
17723SOL     OW53192   3.045  10.645   1.981
17723SOL    HW153193   2.946  10.634   1.983
17723SOL    HW253194   3.079  10.660   2.074
17724SOL     OW53195   2.475  10.152   3.293
17724SOL    HW153196   2.531  10.233   3.276
17724SOL    HW253197   2.534  10.072   3.296
17725SOL     OW53198   3.355  11.077   2.821
17725SOL    HW153199   3.388  11.141   2.752
17725SOL    HW253200   3.421  11.071   2.896
17726SOL     OW53201   2.578   9.875   3.570
17726SOL    HW153202   2.597   9.940   3.644
17726SOL    HW253203   2.638   9.795   3.579
17727SOL     OW53204   3.312  10.530   3.495
17727SOL    HW153205   3.303  10.520   3.594
17727SOL    HW253206   3.408  10.523   3.469
17728SOL     OW53207   2.252  11.051   3.422
17728SOL    HW153208   2.161  11.092   3.420
17728SOL    HW253209   2.245  10.957   3.454
17729SOL     OW53210   3.536  10.193   3.116
17729SOL    HW153211   3.509  10.104   3.079
17729SOL    HW253212   3.537  10.261   3.043
17730SOL     OW53213   3.087   9.635   2.311
17730SOL    HW153214   3.152   9.561   2.300
17730SOL    HW253215   3.107   9.685   2.395
17731SOL     OW53216   2.456  10.055   2.514
17731SOL    HW153217   2.506  10.140   2.495
17731SOL    HW253218   2.368  10.057   2.466
17732SOL     OW53219   3.639   9.652   3.504
17732SOL    HW153220   3.622   9.683   3.410
17732SOL    HW253221   3.555   9.615   3.542
17733SOL     OW53222   3.592  10.244   3.379
17733SOL    HW153223   3.630  10.335   3.394
17733SOL    HW253224   3.584  10.227   3.280
17734SOL     OW53225   2.721  10.684   1.878
17734SOL    HW153226   2.675  10.699   1.966
17734SOL    HW253227   2.765  10.769   1.848
17735SOL     OW53228   2.523  11.100   2.815
17735SOL    HW153229   2.477  11.188   2.802
17735SOL    HW253230   2.622  11.112   2.808
17736SOL     OW53231   2.721  10.266   2.723
17736SOL    HW153232   2.775  10.197   2.771
17736SOL    HW253233   2.689  10.335   2.789
17737SOL     OW53234   2.945  10.294   1.949
17737SOL    HW153235   2.922  10.347   1.867
17737SOL    HW253236   3.026  10.238   1.930
17738SOL     OW53237   3.723  10.879   2.713
17738SOL    HW153238   3.652  10.867   2.643
17738SOL    HW253239   3.724  10.800   2.773
17739SOL     OW53240   2.083  10.624   3.706
17739SOL    HW153241   2.018  10.551   3.685
17739SOL    HW253242   2.087  10.638   3.804
17740SOL     OW53243   1.941  10.550   2.515
17740SOL    HW153244   1.940  10.503   2.603
17740SOL    HW253245   2.023  10.522   2.464
17741SOL     OW53246   2.534  10.701   3.486
17741SOL    HW153247   2.456  10.651   3.524
17741SOL    HW253248   2.531  10.796   3.517
17742SOL     OW53249   3.686   9.502   3.089
17742SOL    HW153250   3.682   9.412   3.133
17742SOL    HW253251   3.689   9.491   2.990
17743SOL     OW53252   2.290   9.734   2.382
17743SOL    HW153253   2.320   9.662   2.320
17743SOL    HW253254   2.251   9.694   2.465
17744SOL     OW53255   3.567  10.797   2.966
17744SOL    HW153256   3.474  10.772   2.939
17744SOL    HW253257   3.593  10.747   3.048
17745SOL     OW53258   2.179   9.857   3.142
17745SOL    HW153259   2.217   9.798   3.214
17745SOL    HW253260   2.219   9.831   3.054
17746SOL     OW53261   2.674  10.896   2.549
17746SOL    HW153262   2.706  10.906   2.455
17746SOL    HW253263   2.595  10.834   2.551
17747SOL     OW53264   3.286   9.524   2.974
17747SOL    HW153265   3.338   9.459   3.029
17747SOL    HW253266   3.237   9.587   3.035
17748SOL     OW53267   2.863   9.344   3.016
17748SOL    HW153268   2.800   9.272   2.985
17748SOL    HW253269   2.956   9.308   3.016
17749SOL     OW53270   2.632  10.640   2.163
17749SOL    HW153271   2.586  10.553   2.180
17749SOL    HW253272   2.723  10.637   2.204
17750SOL     OW53273   2.480  10.877   3.146
17750SOL    HW153274   2.475  10.959   3.203
17750SOL    HW253275   2.569  10.874   3.101
17751SOL     OW53276   3.214   9.362   2.030
17751SOL    HW153277   3.249   9.321   1.946
17751SOL    HW253278   3.124   9.324   2.050
17752SOL     OW53279   3.162   9.763   2.553
17752SOL    HW153280   3.103   9.843   2.557
17752SOL    HW253281   3.177   9.728   2.646
17753SOL     OW53282   3.455   9.531   2.744
17753SOL    HW153283   3.371   9.530   2.798
17753SOL    HW253284   3.457   9.614   2.688
17754SOL     OW53285   1.901  10.387   2.162
17754SOL    HW153286   2.000  10.376   2.153
17754SOL    HW253287   1.861  10.301   2.194
17755SOL     OW53288   2.737  10.956   2.199
17755SOL    HW153289   2.660  10.921   2.145
17755SOL    HW253290   2.705  11.027   2.261
17756SOL     OW53291   2.092   9.938   3.837
17756SOL    HW153292   1.999   9.936   3.874
17756SOL    HW253293   2.093   9.899   3.745
17757SOL     OW53294   2.087   9.585   4.720
17757SOL    HW153295   2.122   9.568   4.812
17757SOL    HW253296   1.999   9.540   4.708
17758SOL     OW53297   1.881   9.678   4.371
17758SOL    HW153298   1.799   9.721   4.410
17758SOL    HW253299   1.853   9.605   4.308
17759SOL     OW53300   2.431  10.585   4.889
17759SOL    HW153301   2.338  10.578   4.852
17759SOL    HW253302   2.442  10.674   4.933
17760SOL     OW53303   3.417  10.821   4.427
17760SOL    HW153304   3.360  10.805   4.508
17760SOL    HW253305   3.358  10.831   4.347
17761SOL     OW53306   2.997  10.013   4.441
17761SOL    HW153307   3.054  10.091   4.416
17761SOL    HW253308   2.937  10.039   4.517
17762SOL     OW53309   3.617   9.917   3.955
17762SOL    HW153310   3.605   9.904   3.856
17762SOL    HW253311   3.587   9.836   4.004
17763SOL     OW53312   2.630  10.454   4.747
17763SOL    HW153313   2.552  10.471   4.807
17763SOL    HW253314   2.664  10.541   4.711
17764SOL     OW53315   2.712  10.108   5.547
17764SOL    HW153316   2.708  10.184   5.612
17764SOL    HW253317   2.734  10.144   5.456
17765SOL     OW53318   2.547  10.322   4.389
17765SOL    HW153319   2.616  10.306   4.459
17765SOL    HW253320   2.474  10.379   4.427
17766SOL     OW53321   2.548  10.471   5.527
17766SOL    HW153322   2.608  10.550   5.541
17766SOL    HW253323   2.462  10.502   5.486
17767SOL     OW53324   2.197  10.745   4.785
17767SOL    HW153325   2.119  10.714   4.732
17767SOL    HW253326   2.255  10.803   4.728
17768SOL     OW53327   3.322  10.815   5.063
17768SOL    HW153328   3.346  10.909   5.089
17768SOL    HW253329   3.306  10.761   5.145
17769SOL     OW53330   2.300   9.702   5.223
17769SOL    HW153331   2.382   9.646   5.232
17769SOL    HW253332   2.219   9.644   5.227
17770SOL     OW53333   3.465   9.757   4.461
17770SOL    HW153334   3.391   9.803   4.411
17770SOL    HW253335   3.516   9.825   4.514
17771SOL     OW53336   2.093  11.023   4.207
17771SOL    HW153337   2.127  11.100   4.261
17771SOL    HW253338   2.137  11.023   4.117
17772SOL     OW53339   2.989  10.651   5.414
17772SOL    HW153340   3.036  10.651   5.502
17772SOL    HW253341   2.941  10.564   5.403
17773SOL     OW53342   2.092  10.744   4.262
17773SOL    HW153343   2.066  10.840   4.262
17773SOL    HW253344   2.021  10.690   4.307
17774SOL     OW53345   2.102  10.401   4.610
17774SOL    HW153346   2.116  10.317   4.662
17774SOL    HW253347   2.047  10.465   4.665
17775SOL     OW53348   2.482  11.096   5.163
17775SOL    HW153349   2.390  11.079   5.198
17775SOL    HW253350   2.510  11.188   5.189
17776SOL     OW53351   2.468  10.274   3.847
17776SOL    HW153352   2.475  10.358   3.793
17776SOL    HW253353   2.514  10.287   3.935
17777SOL     OW53354   3.456   9.424   5.204
17777SOL    HW153355   3.438   9.491   5.132
17777SOL    HW253356   3.453   9.470   5.293
17778SOL     OW53357   1.984   9.953   4.287
17778SOL    HW153358   1.939   9.865   4.304
17778SOL    HW253359   1.983  10.007   4.371
17779SOL     OW53360   3.704  11.077   4.083
17779SOL    HW153361   3.758  11.048   4.163
17779SOL    HW253362   3.734  11.167   4.054
17780SOL     OW53363   1.889  10.906   3.841
17780SOL    HW153364   1.870  10.810   3.862
17780SOL    HW253365   1.856  10.964   3.916
17781SOL     OW53366   3.551  10.232   4.336
17781SOL    HW153367   3.646  10.203   4.344
17781SOL    HW253368   3.543  10.297   4.261
17782SOL     OW53369   3.503  10.418   4.156
17782SOL    HW153370   3.589  10.420   4.104
17782SOL    HW253371   3.517  10.465   4.244
17783SOL     OW53372   1.975  10.047   5.321
17783SOL    HW153373   2.063  10.034   5.366
17783SOL    HW253374   1.962  10.144   5.299
17784SOL     OW53375   2.475  10.675   4.450
17784SOL    HW153376   2.426  10.588   4.459
17784SOL    HW253377   2.452  10.718   4.363
17785SOL     OW53378   3.155  10.538   5.147
17785SOL    HW153379   3.192  10.465   5.089
17785SOL    HW253380   3.207  10.543   5.232
17786SOL     OW53381   2.671   9.314   4.226
17786SOL    HW153382   2.711   9.405   4.217
17786SOL    HW253383   2.571   9.322   4.232
17787SOL     OW53384   2.059  10.286   4.988
17787SOL    HW153385   2.148  10.241   4.974
17787SOL    HW253386   1.986  10.221   4.969
17788SOL     OW53387   3.387  10.309   3.914
17788SOL    HW153388   3.324  10.233   3.927
17788SOL    HW253389   3.435  10.327   4.000
17789SOL     OW53390   3.049  11.102   5.340
17789SOL    HW153391   3.073  11.162   5.264
17789SOL    HW253392   3.056  11.007   5.310
17790SOL     OW53393   2.179   9.561   5.525
17790SOL    HW153394   2.250   9.632   5.531
17790SOL    HW253395   2.091   9.600   5.553
17791SOL     OW53396   3.328  10.727   4.677
17791SOL    HW153397   3.269  10.733   4.757
17791SOL    HW253398   3.313  10.639   4.631
17792SOL     OW53399   3.529  11.024   4.296
17792SOL    HW153400   3.488  11.001   4.208
17792SOL    HW253401   3.511  10.950   4.361
17793SOL     OW53402   2.460  10.039   3.994
17793SOL    HW153403   2.484  10.108   3.926
17793SOL    HW253404   2.382  10.072   4.048
17794SOL     OW53405   3.143   9.655   4.668
17794SOL    HW153406   3.057   9.605   4.655
17794SOL    HW253407   3.205   9.601   4.724
17795SOL     OW53408   3.438  10.972   4.031
17795SOL    HW153409   3.527  11.018   4.034
17795SOL    HW253410   3.417  10.948   3.936
17796SOL     OW53411   2.669   9.915   5.189
17796SOL    HW153412   2.622   9.912   5.278
17796SOL    HW253413   2.618   9.860   5.123
17797SOL     OW53414   3.256   9.779   5.398
17797SOL    HW153415   3.236   9.822   5.486
17797SOL    HW253416   3.334   9.717   5.407
17798SOL     OW53417   2.835  10.200   5.296
17798SOL    HW153418   2.881  10.116   5.267
17798SOL    HW253419   2.779  10.234   5.221
17799SOL     OW53420   2.853   9.720   4.966
17799SOL    HW153421   2.776   9.754   5.020
17799SOL    HW253422   2.819   9.669   4.887
17800SOL     OW53423   2.903  10.011   4.153
17800SOL    HW153424   2.929  10.007   4.249
17800SOL    HW253425   2.818   9.960   4.139
17801SOL     OW53426   1.938  10.121   4.513
17801SOL    HW153427   2.037  10.109   4.522
17801SOL    HW253428   1.914  10.216   4.534
17802SOL     OW53429   1.992  11.131   5.295
17802SOL    HW153430   1.982  11.116   5.394
17802SOL    HW253431   1.906  11.167   5.259
17803SOL     OW53432   2.727   9.658   3.919
17803SOL    HW153433   2.786   9.721   3.870
17803SOL    HW253434   2.746   9.564   3.890
17804SOL     OW53435   3.581   9.895   5.555
17804SOL    HW153436   3.555   9.984   5.519
17804SOL    HW253437   3.579   9.827   5.482
17805SOL     OW53438   3.224  10.454   4.269
17805SOL    HW153439   3.307  10.425   4.221
17805SOL    HW253440   3.175  10.521   4.213
17806SOL     OW53441   2.412   9.506   4.609
17806SOL    HW153442   2.407   9.501   4.709
17806SOL    HW253443   2.414   9.602   4.580
17807SOL     OW53444   2.870  10.766   4.201
17807SOL    HW153445   2.824  10.838   4.149
17807SOL    HW253446   2.866  10.786   4.299
17808SOL     OW53447   2.213  11.111   4.577
17808SOL    HW153448   2.263  11.025   4.583
17808SOL    HW253449   2.278  11.188   4.574
17809SOL     OW53450   3.657  10.376   4.597
17809SOL    HW153451   3.595  10.361   4.521
17809SOL    HW253452   3.605  10.387   4.682
17810SOL     OW53453   3.089  10.860   5.230
17810SOL    HW153454   3.095  10.783   5.294
17810SOL    HW253455   3.037  10.834   5.150
17811SOL     OW53456   2.183  10.253   3.966
17811SOL    HW153457   2.265  10.292   3.924
17811SOL    HW253458   2.156  10.171   3.917
17812SOL     OW53459   3.320  10.045   4.452
17812SOL    HW153460   3.315   9.980   4.527
17812SOL    HW253461   3.400  10.104   4.465
17813SOL     OW53462   2.323  10.576   5.451
17813SOL    HW153463   2.273  10.577   5.365
17813SOL    HW253464   2.260  10.558   5.527
17814SOL     OW53465   2.973  11.086   3.961
17814SOL    HW153466   2.913  11.024   4.011
17814SOL    HW253467   3.004  11.042   3.876
17815SOL     OW53468   2.064   9.595   5.222
17815SOL    HW153469   1.984   9.655   5.209
17815SOL    HW253470   2.054   9.546   5.308
17816SOL     OW53471   3.494  10.687   3.805
17816SOL    HW153472   3.462  10.781   3.795
17816SOL    HW253473   3.418  10.624   3.793
17817SOL     OW53474   2.326  11.053   4.047
17817SOL    HW153475   2.359  11.092   4.133
17817SOL    HW253476   2.402  11.046   3.982
17818SOL     OW53477   3.262   9.417   4.150
17818SOL    HW153478   3.238   9.380   4.060
17818SOL    HW253479   3.361   9.433   4.154
17819SOL     OW53480   2.111  11.095   4.965
17819SOL    HW153481   2.168  11.030   5.015
17819SOL    HW253482   2.095  11.062   4.872
17820SOL     OW53483   2.802  11.008   4.628
17820SOL    HW153484   2.882  10.951   4.649
17820SOL    HW253485   2.753  10.968   4.551
17821SOL     OW53486   2.244  10.010   4.204
17821SOL    HW153487   2.289   9.920   4.201
17821SOL    HW253488   2.150   9.999   4.237
17822SOL     OW53489   3.409   9.532   5.453
17822SOL    HW153490   3.404   9.569   5.545
17822SOL    HW253491   3.337   9.463   5.441
17823SOL     OW53492   2.476   9.432   3.841
17823SOL    HW153493   2.574   9.410   3.848
17823SOL    HW253494   2.445   9.415   3.748
17824SOL     OW53495   2.643   9.574   5.473
17824SOL    HW153496   2.710   9.513   5.516
17824SOL    HW253497   2.570   9.593   5.538
17825SOL     OW53498   2.750  10.824   4.919
17825SOL    HW153499   2.727  10.799   4.825
17825SOL    HW253500   2.811  10.755   4.958
17826SOL     OW53501   3.213   9.900   5.157
17826SOL    HW153502   3.241   9.857   5.242
17826SOL    HW253503   3.238   9.996   5.158
17827SOL     OW53504   2.665  10.712   4.648
17827SOL    HW153505   2.755  10.726   4.606
17827SOL    HW253506   2.594  10.714   4.577
17828SOL     OW53507   2.784   9.813   4.623
17828SOL    HW153508   2.759   9.804   4.527
17828SOL    HW253509   2.832   9.731   4.654
17829SOL     OW53510   2.401   9.374   4.236
17829SOL    HW153511   2.320   9.375   4.294
17829SOL    HW253512   2.404   9.457   4.181
17830SOL     OW53513   3.296  10.498   3.765
17830SOL    HW153514   3.328  10.422   3.822
17830SOL    HW253515   3.204  10.525   3.795
17831SOL     OW53516   2.159   9.345   3.895
17831SOL    HW153517   2.208   9.429   3.874
17831SOL    HW253518   2.221   9.280   3.940
17832SOL     OW53519   2.797   9.546   4.204
17832SOL    HW153520   2.749   9.587   4.126
17832SOL    HW253521   2.896   9.544   4.185
17833SOL     OW53522   2.938   9.993   5.188
17833SOL    HW153523   2.858   9.932   5.191
17833SOL    HW253524   3.019   9.940   5.164
17834SOL     OW53525   3.089  10.880   4.517
17834SOL    HW153526   3.110  10.954   4.452
17834SOL    HW253527   3.157  10.880   4.590
17835SOL     OW53528   2.321  10.462   4.465
17835SOL    HW153529   2.250  10.435   4.530
17835SOL    HW253530   2.295  10.434   4.372
17836SOL     OW53531   3.133  11.107   4.315
17836SOL    HW153532   3.177  11.171   4.251
17836SOL    HW253533   3.083  11.159   4.385
17837SOL     OW53534   2.894   9.859   3.740
17837SOL    HW153535   2.853   9.941   3.701
17837SOL    HW253536   2.958   9.885   3.813
17838SOL     OW53537   1.940   9.866   5.110
17838SOL    HW153538   2.032   9.865   5.069
17838SOL    HW253539   1.934   9.940   5.177
17839SOL     OW53540   2.423   9.532   4.871
17839SOL    HW153541   2.461   9.448   4.908
17839SOL    HW253542   2.335   9.551   4.915
17840SOL     OW53543   2.728   9.764   4.366
17840SOL    HW153544   2.696   9.836   4.304
17840SOL    HW253545   2.752   9.683   4.313
17841SOL     OW53546   2.879   9.349   4.477
17841SOL    HW153547   2.807   9.354   4.408
17841SOL    HW253548   2.855   9.280   4.546
17842SOL     OW53549   3.291  10.483   4.591
17842SOL    HW153550   3.236  10.399   4.584
17842SOL    HW253551   3.317  10.512   4.499
17843SOL     OW53552   3.328   9.900   4.716
17843SOL    HW153553   3.298   9.805   4.723
17843SOL    HW253554   3.401   9.916   4.782
17844SOL     OW53555   3.719  10.143   4.101
17844SOL    HW153556   3.761  10.079   4.165
17844SOL    HW253557   3.681  10.092   4.023
17845SOL     OW53558   2.350  10.695   3.898
17845SOL    HW153559   2.263  10.680   3.945
17845SOL    HW253560   2.333  10.721   3.803
17846SOL     OW53561   3.526  10.590   4.381
17846SOL    HW153562   3.625  10.598   4.395
17846SOL    HW253563   3.481  10.674   4.412
17847SOL     OW53564   3.252   9.885   3.802
17847SOL    HW153565   3.198   9.864   3.883
17847SOL    HW253566   3.343   9.844   3.811
17848SOL     OW53567   2.389   9.566   4.052
17848SOL    HW153568   2.416   9.507   3.977
17848SOL    HW253569   2.389   9.661   4.021
17849SOL     OW53570   3.616  10.533   5.312
17849SOL    HW153571   3.707  10.494   5.299
17849SOL    HW253572   3.624  10.629   5.336
17850SOL     OW53573   2.926  10.657   5.064
17850SOL    HW153574   2.846  10.634   5.119
17850SOL    HW253575   3.009  10.631   5.113
17851SOL     OW53576   3.454  10.939   5.349
17851SOL    HW153577   3.481  10.973   5.259
17851SOL    HW253578   3.533  10.901   5.395
17852SOL     OW53579   2.973  10.505   4.824
17852SOL    HW153580   2.933  10.549   4.905
17852SOL    HW253581   2.932  10.542   4.741
17853SOL     OW53582   3.500  10.409   4.803
17853SOL    HW153583   3.505  10.490   4.862
17853SOL    HW253584   3.414  10.411   4.752
17854SOL     OW53585   2.777   9.399   5.126
17854SOL    HW153586   2.802   9.379   5.031
17854SOL    HW253587   2.849   9.455   5.168
17855SOL     OW53588   2.842  10.426   5.443
17855SOL    HW153589   2.743  10.432   5.453
17855SOL    HW253590   2.865  10.346   5.387
17856SOL     OW53591   2.567  10.360   4.092
17856SOL    HW153592   2.553  10.367   4.191
17856SOL    HW253593   2.651  10.309   4.074
17857SOL     OW53594   2.272  10.123   4.975
17857SOL    HW153595   2.358  10.135   5.025
17857SOL    HW253596   2.230  10.036   5.002
17858SOL     OW53597   3.136   9.696   4.986
17858SOL    HW153598   3.157   9.770   5.050
17858SOL    HW253599   3.047   9.713   4.943
17859SOL     OW53600   1.926  10.874   5.055
17859SOL    HW153601   1.880  10.956   5.021
17859SOL    HW253602   2.024  10.893   5.064
17860SOL     OW53603   2.229  10.410   4.225
17860SOL    HW153604   2.222  10.493   4.169
17860SOL    HW253605   2.233  10.330   4.165
17861SOL     OW53606   2.428   9.847   4.589
17861SOL    HW153607   2.440   9.913   4.515
17861SOL    HW253608   2.474   9.881   4.672
17862SOL     OW53609   3.114  10.658   4.112
17862SOL    HW153610   3.164  10.735   4.152
17862SOL    HW253611   3.019  10.660   4.144
17863SOL     OW53612   3.134  10.755   4.866
17863SOL    HW153613   3.181  10.768   4.953
17863SOL    HW253614   3.068  10.681   4.875
17864SOL     OW53615   3.444   9.949   4.196
17864SOL    HW153616   3.413  10.010   4.269
17864SOL    HW253617   3.494  10.001   4.127
17865SOL     OW53618   2.216  10.820   5.053
17865SOL    HW153619   2.195  10.776   4.966
17865SOL    HW253620   2.313  10.846   5.056
17866SOL     OW53621   2.264  10.061   5.322
17866SOL    HW153622   2.332  10.116   5.275
17866SOL    HW253623   2.304   9.973   5.349
17867SOL     OW53624   3.449  10.089   5.394
17867SOL    HW153625   3.357  10.127   5.389
17867SOL    HW253626   3.509  10.136   5.329
17868SOL     OW53627   2.875   9.415   5.494
17868SOL    HW153628   2.881   9.500   5.442
17868SOL    HW253629   2.907   9.339   5.437
17869SOL     OW53630   2.366   9.360   5.464
17869SOL    HW153631   2.324   9.303   5.394
17869SOL    HW253632   2.300   9.429   5.496
17870SOL     OW53633   2.435  10.180   4.753
17870SOL    HW153634   2.479  10.269   4.744
17870SOL    HW253635   2.372  10.180   4.830
17871SOL     OW53636   3.222  10.172   4.769
17871SOL    HW153637   3.147  10.172   4.703
17871SOL    HW253638   3.259  10.080   4.778
17872SOL     OW53639   3.071   9.835   3.999
17872SOL    HW153640   3.084   9.751   4.053
17872SOL    HW253641   3.042   9.909   4.059
17873SOL     OW53642   2.169   9.523   4.955
17873SOL    HW153643   2.146   9.560   5.045
17873SOL    HW253644   2.139   9.428   4.949
17874SOL     OW53645   1.899  10.620   5.006
17874SOL    HW153646   1.952  10.571   5.074
17874SOL    HW253647   1.921  10.718   5.011
17875SOL     OW53648   2.594   9.944   4.788
17875SOL    HW153649   2.653   9.918   4.712
17875SOL    HW253650   2.566  10.040   4.777
17876SOL     OW53651   3.590  10.245   5.578
17876SOL    HW153652   3.544  10.238   5.489
17876SOL    HW253653   3.528  10.289   5.644
17877SOL     OW53654   2.169   9.373   4.342
17877SOL    HW153655   2.158   9.467   4.375
17877SOL    HW253656   2.164   9.310   4.419
17878SOL     OW53657   3.484   9.677   4.098
17878SOL    HW153658   3.486   9.601   4.162
17878SOL    HW253659   3.436   9.754   4.138
17879SOL     OW53660   2.885  10.076   4.690
17879SOL    HW153661   2.900  10.097   4.786
17879SOL    HW253662   2.855   9.981   4.681
17880SOL     OW53663   2.842  10.883   5.424
17880SOL    HW153664   2.822  10.927   5.336
17880SOL    HW253665   2.881  10.792   5.408
17881SOL     OW53666   3.721  10.828   5.329
17881SOL    HW153667   3.735  10.855   5.234
17881SOL    HW253668   3.804  10.850   5.382
17882SOL     OW53669   2.212  10.208   5.528
17882SOL    HW153670   2.288  10.252   5.576
17882SOL    HW253671   2.247  10.161   5.446
17883SOL     OW53672   3.402   9.584   3.849
17883SOL    HW153673   3.341   9.509   3.872
17883SOL    HW253674   3.424   9.636   3.932
17884SOL     OW53675   3.165  10.148   3.766
17884SOL    HW153676   3.199  10.055   3.781
17884SOL    HW253677   3.183  10.175   3.671
17885SOL     OW53678   2.930  10.643   4.573
17885SOL    HW153679   2.937  10.559   4.518
17885SOL    HW253680   2.992  10.712   4.537
17886SOL     OW53681   2.181  10.120   4.673
17886SOL    HW153682   2.274  10.156   4.678
17886SOL    HW253683   2.175  10.035   4.725
17887SOL     OW53684   2.201   9.819   4.730
17887SOL    HW153685   2.149   9.736   4.713
17887SOL    HW253686   2.278   9.824   4.666
17888SOL     OW53687   3.000   9.690   5.402
17888SOL    HW153688   2.955   9.753   5.466
17888SOL    HW253689   3.093   9.721   5.385
17889SOL     OW53690   3.022   9.517   5.201
17889SOL    HW153691   3.022   9.581   5.278
17889SOL    HW253692   3.050   9.565   5.118
17890SOL     OW53693   1.870  10.636   3.924
17890SOL    HW153694   1.777  10.657   3.893
17890SOL    HW253695   1.880  10.537   3.937
17891SOL     OW53696   1.950  11.111   4.651
17891SOL    HW153697   1.908  11.025   4.624
17891SOL    HW253698   2.044  11.114   4.617
17892SOL     OW53699   2.366  10.878   4.634
17892SOL    HW153700   2.432  10.952   4.643
17892SOL    HW253701   2.410  10.799   4.592
17893SOL     OW53702   2.864  10.106   4.962
17893SOL    HW153703   2.905  10.074   5.048
17893SOL    HW253704   2.768  10.079   4.959
17894SOL     OW53705   1.902   9.854   4.838
17894SOL    HW153706   1.987   9.821   4.797
17894SOL    HW253707   1.915   9.869   4.936
17895SOL     OW53708   2.051   9.830   5.446
17895SOL    HW153709   2.110   9.790   5.376
17895SOL    HW253710   1.993   9.901   5.405
17896SOL     OW53711   3.231  10.260   5.384
17896SOL    HW153712   3.270  10.349   5.404
17896SOL    HW253713   3.241  10.240   5.287
17897SOL     OW53714   2.677   9.882   4.049
17897SOL    HW153715   2.684   9.793   4.003
17897SOL    HW253716   2.583   9.916   4.041
17898SOL     OW53717   3.519   9.914   4.930
17898SOL    HW153718   3.481   9.845   4.992
17898SOL    HW253719   3.601   9.878   4.886
17899SOL     OW53720   2.114  10.874   5.468
17899SOL    HW153721   2.084  10.931   5.544
17899SOL    HW253722   2.107  10.777   5.494
17900SOL     OW53723   2.533   9.774   4.993
17900SOL    HW153724   2.499   9.685   4.963
17900SOL    HW253725   2.559   9.828   4.913
17901SOL     OW53726   2.792  10.988   5.189
17901SOL    HW153727   2.768  10.970   5.094
17901SOL    HW253728   2.822  11.082   5.199
17902SOL     OW53729   2.335   9.810   3.915
17902SOL    HW153730   2.396   9.890   3.919
17902SOL    HW253731   2.240   9.841   3.922
17903SOL     OW53732   2.021  10.447   5.190
17903SOL    HW153733   2.043  10.386   5.266
17903SOL    HW253734   2.031  10.398   5.104
17904SOL     OW53735   3.209  10.369   4.958
17904SOL    HW153736   3.233  10.306   4.884
17904SOL    HW253737   3.119  10.409   4.940
17905SOL     OW53738   3.164  10.165   4.033
17905SOL    HW153739   3.078  10.134   4.075
17905SOL    HW253740   3.160  10.151   3.934
17906SOL     OW53741   3.621  11.057   4.878
17906SOL    HW153742   3.682  11.087   4.805
17906SOL    HW253743   3.583  10.968   4.856
17907SOL     OW53744   3.114  11.041   4.852
17907SOL    HW153745   3.198  11.046   4.798
17907SOL    HW253746   3.091  10.945   4.870
17908SOL     OW53747   1.945  10.568   4.746
17908SOL    HW153748   1.940  10.567   4.846
17908SOL    HW253749   1.862  10.527   4.708
17909SOL     OW53750   2.550  10.972   5.440
17909SOL    HW153751   2.494  11.053   5.449
17909SOL    HW253752   2.602  10.976   5.354
17910SOL     OW53753   3.588   9.445   4.247
17910SOL    HW153754   3.661   9.428   4.180
17910SOL    HW253755   3.557   9.358   4.285
17911SOL     OW53756   3.250  10.883   4.201
17911SOL    HW153757   3.317  10.895   4.127
17911SOL    HW253758   3.210  10.972   4.224
17912SOL     OW53759   1.992  11.104   5.575
17912SOL    HW153760   1.951  11.030   5.628
17912SOL    HW253761   2.056  11.155   5.633
17913SOL     OW53762   3.142  10.237   4.396
17913SOL    HW153763   3.202  10.156   4.398
17913SOL    HW253764   3.182  10.306   4.336
17914SOL     OW53765   2.692  10.583   5.146
17914SOL    HW153766   2.687  10.616   5.241
17914SOL    HW253767   2.606  10.602   5.100
17915SOL     OW53768   2.534  10.926   3.878
17915SOL    HW153769   2.543  10.936   3.779
17915SOL    HW253770   2.494  10.837   3.899
17916SOL     OW53771   3.512  11.030   5.118
17916SOL    HW153772   3.565  11.040   5.034
17916SOL    HW253773   3.485  11.120   5.152
17917SOL     OW53774   3.703   9.485   4.687
17917SOL    HW153775   3.742   9.400   4.651
17917SOL    HW253776   3.605   9.487   4.668
17918SOL     OW53777   2.125   9.636   4.444
17918SOL    HW153778   2.046   9.687   4.410
17918SOL    HW253779   2.116   9.621   4.542
17919SOL     OW53780   3.056  10.922   3.755
17919SOL    HW153781   3.062  10.829   3.792
17919SOL    HW253782   2.997  10.922   3.675
17920SOL     OW53783   2.684  10.312   5.096
17920SOL    HW153784   2.724  10.311   5.004
17920SOL    HW253785   2.694  10.404   5.136
17921SOL     OW53786   2.778  10.220   4.015
17921SOL    HW153787   2.841  10.258   3.947
17921SOL    HW253788   2.818  10.137   4.054
17922SOL     OW53789   3.366  10.917   3.768
17922SOL    HW153790   3.274  10.954   3.775
17922SOL    HW253791   3.404  10.937   3.678
17923SOL     OW53792   2.234  10.598   5.214
17923SOL    HW153793   2.221  10.691   5.180
17923SOL    HW253794   2.150  10.546   5.201
17924SOL     OW53795   3.476  10.602   5.013
17924SOL    HW153796   3.536  10.605   5.093
17924SOL    HW253797   3.401  10.666   5.026
17925SOL     OW53798   2.901  10.408   4.420
17925SOL    HW153799   2.831  10.361   4.474
17925SOL    HW253800   2.960  10.340   4.377
17926SOL     OW53801   2.876   9.546   4.695
17926SOL    HW153802   2.868   9.510   4.602
17926SOL    HW253803   2.874   9.470   4.760
17927SOL     OW53804   2.452  10.797   4.215
17927SOL    HW153805   2.494  10.739   4.145
17927SOL    HW253806   2.408  10.876   4.171
17928SOL     OW53807   3.571   9.695   5.105
17928SOL    HW153808   3.644   9.764   5.109
17928SOL    HW253809   3.599   9.620   5.046
17929SOL     OW53810   2.117  10.658   4.014
17929SOL    HW153811   2.021  10.659   3.987
17929SOL    HW253812   2.129  10.711   4.098
17930SOL     OW53813   1.967  10.323   5.450
17930SOL    HW153814   1.890  10.290   5.504
17930SOL    HW253815   2.052  10.293   5.492
17931SOL     OW53816   2.534   9.513   5.213
17931SOL    HW153817   2.624   9.497   5.173
17931SOL    HW253818   2.542   9.518   5.312
17932SOL     OW53819   1.937   9.655   3.757
17932SOL    HW153820   1.845   9.627   3.728
17932SOL    HW253821   1.968   9.732   3.701
17933SOL     OW53822   3.302  10.166   5.122
17933SOL    HW153823   3.245  10.218   5.059
17933SOL    HW253824   3.398  10.178   5.098
17934SOL     OW53825   1.934   9.476   4.042
17934SOL    HW153826   1.917   9.559   3.988
17934SOL    HW253827   2.024   9.439   4.020
17935SOL     OW53828   3.045  10.645   3.843
17935SOL    HW153829   2.946  10.634   3.845
17935SOL    HW253830   3.079  10.660   3.936
17936SOL     OW53831   2.475  10.152   5.155
17936SOL    HW153832   2.531  10.233   5.138
17936SOL    HW253833   2.534  10.072   5.158
17937SOL     OW53834   3.355  11.077   4.683
17937SOL    HW153835   3.388  11.141   4.614
17937SOL    HW253836   3.421  11.071   4.758
17938SOL     OW53837   2.578   9.875   5.432
17938SOL    HW153838   2.597   9.940   5.506
17938SOL    HW253839   2.638   9.795   5.441
17939SOL     OW53840   3.312  10.530   5.357
17939SOL    HW153841   3.303  10.520   5.456
17939SOL    HW253842   3.408  10.523   5.331
17940SOL     OW53843   2.252  11.051   5.284
17940SOL    HW153844   2.161  11.092   5.282
17940SOL    HW253845   2.245  10.957   5.316
17941SOL     OW53846   3.536  10.193   4.978
17941SOL    HW153847   3.509  10.104   4.941
17941SOL    HW253848   3.537  10.261   4.905
17942SOL     OW53849   3.087   9.635   4.173
17942SOL    HW153850   3.152   9.561   4.162
17942SOL    HW253851   3.107   9.685   4.257
17943SOL     OW53852   2.456  10.055   4.376
17943SOL    HW153853   2.506  10.140   4.357
17943SOL    HW253854   2.368  10.057   4.328
17944SOL     OW53855   3.639   9.652   5.366
17944SOL    HW153856   3.622   9.683   5.272
17944SOL    HW253857   3.555   9.615   5.404
17945SOL     OW53858   3.592  10.244   5.241
17945SOL    HW153859   3.630  10.335   5.256
17945SOL    HW253860   3.584  10.227   5.142
17946SOL     OW53861   2.721  10.684   3.740
17946SOL    HW153862   2.675  10.699   3.828
17946SOL    HW253863   2.765  10.769   3.710
17947SOL     OW53864   2.523  11.100   4.677
17947SOL    HW153865   2.477  11.188   4.664
17947SOL    HW253866   2.622  11.112   4.670
17948SOL     OW53867   2.721  10.266   4.585
17948SOL    HW153868   2.775  10.197   4.633
17948SOL    HW253869   2.689  10.335   4.651
17949SOL     OW53870   2.945  10.294   3.811
17949SOL    HW153871   2.922  10.347   3.729
17949SOL    HW253872   3.026  10.238   3.792
17950SOL     OW53873   3.723  10.879   4.575
17950SOL    HW153874   3.652  10.867   4.505
17950SOL    HW253875   3.724  10.800   4.635
17951SOL     OW53876   2.083  10.624   5.568
17951SOL    HW153877   2.018  10.551   5.547
17951SOL    HW253878   2.087  10.638   5.666
17952SOL     OW53879   1.941  10.550   4.377
17952SOL    HW153880   1.940  10.503   4.465
17952SOL    HW253881   2.023  10.522   4.326
17953SOL     OW53882   2.534  10.701   5.348
17953SOL    HW153883   2.456  10.651   5.386
17953SOL    HW253884   2.531  10.796   5.379
17954SOL     OW53885   3.686   9.502   4.951
17954SOL    HW153886   3.682   9.412   4.995
17954SOL    HW253887   3.689   9.491   4.852
17955SOL     OW53888   2.290   9.734   4.244
17955SOL    HW153889   2.320   9.662   4.182
17955SOL    HW253890   2.251   9.694   4.327
17956SOL     OW53891   3.567  10.797   4.828
17956SOL    HW153892   3.474  10.772   4.801
17956SOL    HW253893   3.593  10.747   4.910
17957SOL     OW53894   2.179   9.857   5.004
17957SOL    HW153895   2.217   9.798   5.076
17957SOL    HW253896   2.219   9.831   4.916
17958SOL     OW53897   2.674  10.896   4.411
17958SOL    HW153898   2.706  10.906   4.317
17958SOL    HW253899   2.595  10.834   4.413
17959SOL     OW53900   3.286   9.524   4.836
17959SOL    HW153901   3.338   9.459   4.891
17959SOL    HW253902   3.237   9.587   4.897
17960SOL     OW53903   2.863   9.344   4.878
17960SOL    HW153904   2.800   9.272   4.847
17960SOL    HW253905   2.956   9.308   4.878
17961SOL     OW53906   2.632  10.640   4.025
17961SOL    HW153907   2.586  10.553   4.042
17961SOL    HW253908   2.723  10.637   4.066
17962SOL     OW53909   2.480  10.877   5.008
17962SOL    HW153910   2.475  10.959   5.065
17962SOL    HW253911   2.569  10.874   4.963
17963SOL     OW53912   3.214   9.362   3.892
17963SOL    HW153913   3.249   9.321   3.808
17963SOL    HW253914   3.124   9.324   3.912
17964SOL     OW53915   3.162   9.763   4.415
17964SOL    HW153916   3.103   9.843   4.419
17964SOL    HW253917   3.177   9.728   4.508
17965SOL     OW53918   3.455   9.531   4.606
17965SOL    HW153919   3.371   9.530   4.660
17965SOL    HW253920   3.457   9.614   4.550
17966SOL     OW53921   1.901  10.387   4.024
17966SOL    HW153922   2.000  10.376   4.015
17966SOL    HW253923   1.861  10.301   4.056
17967SOL     OW53924   2.737  10.956   4.061
17967SOL    HW153925   2.660  10.921   4.007
17967SOL    HW253926   2.705  11.027   4.123
17968SOL     OW53927   2.092   9.938   5.699
17968SOL    HW153928   1.999   9.936   5.736
17968SOL    HW253929   2.093   9.899   5.607
17969SOL     OW53930   2.087   9.585   6.582
17969SOL    HW153931   2.122   9.568   6.674
17969SOL    HW253932   1.999   9.540   6.570
17970SOL     OW53933   1.881   9.678   6.233
17970SOL    HW153934   1.799   9.721   6.272
17970SOL    HW253935   1.853   9.605   6.170
17971SOL     OW53936   2.431  10.585   6.751
17971SOL    HW153937   2.338  10.578   6.714
17971SOL    HW253938   2.442  10.674   6.795
17972SOL     OW53939   3.417  10.821   6.289
17972SOL    HW153940   3.360  10.805   6.370
17972SOL    HW253941   3.358  10.831   6.209
17973SOL     OW53942   2.997  10.013   6.303
17973SOL    HW153943   3.054  10.091   6.278
17973SOL    HW253944   2.937  10.039   6.379
17974SOL     OW53945   3.617   9.917   5.817
17974SOL    HW153946   3.605   9.904   5.718
17974SOL    HW253947   3.587   9.836   5.866
17975SOL     OW53948   2.630  10.454   6.609
17975SOL    HW153949   2.552  10.471   6.669
17975SOL    HW253950   2.664  10.541   6.573
17976SOL     OW53951   2.712  10.108   7.409
17976SOL    HW153952   2.708  10.184   7.474
17976SOL    HW253953   2.734  10.144   7.318
17977SOL     OW53954   2.547  10.322   6.251
17977SOL    HW153955   2.616  10.306   6.321
17977SOL    HW253956   2.474  10.379   6.289
17978SOL     OW53957   2.548  10.471   7.389
17978SOL    HW153958   2.608  10.550   7.403
17978SOL    HW253959   2.462  10.502   7.348
17979SOL     OW53960   2.197  10.745   6.647
17979SOL    HW153961   2.119  10.714   6.594
17979SOL    HW253962   2.255  10.803   6.590
17980SOL     OW53963   3.322  10.815   6.925
17980SOL    HW153964   3.346  10.909   6.951
17980SOL    HW253965   3.306  10.761   7.007
17981SOL     OW53966   2.300   9.702   7.085
17981SOL    HW153967   2.382   9.646   7.094
17981SOL    HW253968   2.219   9.644   7.089
17982SOL     OW53969   3.465   9.757   6.323
17982SOL    HW153970   3.391   9.803   6.273
17982SOL    HW253971   3.516   9.825   6.376
17983SOL     OW53972   2.093  11.023   6.069
17983SOL    HW153973   2.127  11.100   6.123
17983SOL    HW253974   2.137  11.023   5.979
17984SOL     OW53975   2.989  10.651   7.276
17984SOL    HW153976   3.036  10.651   7.364
17984SOL    HW253977   2.941  10.564   7.265
17985SOL     OW53978   2.092  10.744   6.124
17985SOL    HW153979   2.066  10.840   6.124
17985SOL    HW253980   2.021  10.690   6.169
17986SOL     OW53981   2.102  10.401   6.472
17986SOL    HW153982   2.116  10.317   6.524
17986SOL    HW253983   2.047  10.465   6.527
17987SOL     OW53984   2.482  11.096   7.025
17987SOL    HW153985   2.390  11.079   7.060
17987SOL    HW253986   2.510  11.188   7.051
17988SOL     OW53987   2.468  10.274   5.709
17988SOL    HW153988   2.475  10.358   5.655
17988SOL    HW253989   2.514  10.287   5.797
17989SOL     OW53990   3.456   9.424   7.066
17989SOL    HW153991   3.438   9.491   6.994
17989SOL    HW253992   3.453   9.470   7.155
17990SOL     OW53993   1.984   9.953   6.149
17990SOL    HW153994   1.939   9.865   6.166
17990SOL    HW253995   1.983  10.007   6.233
17991SOL     OW53996   3.704  11.077   5.945
17991SOL    HW153997   3.758  11.048   6.025
17991SOL    HW253998   3.734  11.167   5.916
17992SOL     OW53999   1.889  10.906   5.703
17992SOL    HW154000   1.870  10.810   5.724
17992SOL    HW254001   1.856  10.964   5.778
17993SOL     OW54002   3.551  10.232   6.198
17993SOL    HW154003   3.646  10.203   6.206
17993SOL    HW254004   3.543  10.297   6.123
17994SOL     OW54005   3.503  10.418   6.018
17994SOL    HW154006   3.589  10.420   5.966
17994SOL    HW254007   3.517  10.465   6.106
17995SOL     OW54008   1.975  10.047   7.183
17995SOL    HW154009   2.063  10.034   7.228
17995SOL    HW254010   1.962  10.144   7.161
17996SOL     OW54011   2.475  10.675   6.312
17996SOL    HW154012   2.426  10.588   6.321
17996SOL    HW254013   2.452  10.718   6.225
17997SOL     OW54014   3.155  10.538   7.009
17997SOL    HW154015   3.192  10.465   6.951
17997SOL    HW254016   3.207  10.543   7.094
17998SOL     OW54017   2.671   9.314   6.088
17998SOL    HW154018   2.711   9.405   6.079
17998SOL    HW254019   2.571   9.322   6.094
17999SOL     OW54020   2.059  10.286   6.850
17999SOL    HW154021   2.148  10.241   6.836
17999SOL    HW254022   1.986  10.221   6.831
18000SOL     OW54023   3.387  10.309   5.776
18000SOL    HW154024   3.324  10.233   5.789
18000SOL    HW254025   3.435  10.327   5.862
18001SOL     OW54026   3.049  11.102   7.202
18001SOL    HW154027   3.073  11.162   7.126
18001SOL    HW254028   3.056  11.007   7.172
18002SOL     OW54029   2.179   9.561   7.387
18002SOL    HW154030   2.250   9.632   7.393
18002SOL    HW254031   2.091   9.600   7.415
18003SOL     OW54032   3.328  10.727   6.539
18003SOL    HW154033   3.269  10.733   6.619
18003SOL    HW254034   3.313  10.639   6.493
18004SOL     OW54035   3.529  11.024   6.158
18004SOL    HW154036   3.488  11.001   6.070
18004SOL    HW254037   3.511  10.950   6.223
18005SOL     OW54038   2.460  10.039   5.856
18005SOL    HW154039   2.484  10.108   5.788
18005SOL    HW254040   2.382  10.072   5.910
18006SOL     OW54041   3.143   9.655   6.530
18006SOL    HW154042   3.057   9.605   6.517
18006SOL    HW254043   3.205   9.601   6.586
18007SOL     OW54044   3.438  10.972   5.893
18007SOL    HW154045   3.527  11.018   5.896
18007SOL    HW254046   3.417  10.948   5.798
18008SOL     OW54047   2.669   9.915   7.051
18008SOL    HW154048   2.622   9.912   7.140
18008SOL    HW254049   2.618   9.860   6.985
18009SOL     OW54050   3.256   9.779   7.260
18009SOL    HW154051   3.236   9.822   7.348
18009SOL    HW254052   3.334   9.717   7.269
18010SOL     OW54053   2.835  10.200   7.158
18010SOL    HW154054   2.881  10.116   7.129
18010SOL    HW254055   2.779  10.234   7.083
18011SOL     OW54056   2.853   9.720   6.828
18011SOL    HW154057   2.776   9.754   6.882
18011SOL    HW254058   2.819   9.669   6.749
18012SOL     OW54059   2.903  10.011   6.015
18012SOL    HW154060   2.929  10.007   6.111
18012SOL    HW254061   2.818   9.960   6.001
18013SOL     OW54062   1.938  10.121   6.375
18013SOL    HW154063   2.037  10.109   6.384
18013SOL    HW254064   1.914  10.216   6.396
18014SOL     OW54065   1.992  11.131   7.157
18014SOL    HW154066   1.982  11.116   7.256
18014SOL    HW254067   1.906  11.167   7.121
18015SOL     OW54068   2.727   9.658   5.781
18015SOL    HW154069   2.786   9.721   5.732
18015SOL    HW254070   2.746   9.564   5.752
18016SOL     OW54071   3.581   9.895   7.417
18016SOL    HW154072   3.555   9.984   7.381
18016SOL    HW254073   3.579   9.827   7.344
18017SOL     OW54074   3.224  10.454   6.131
18017SOL    HW154075   3.307  10.425   6.083
18017SOL    HW254076   3.175  10.521   6.075
18018SOL     OW54077   2.412   9.506   6.471
18018SOL    HW154078   2.407   9.501   6.571
18018SOL    HW254079   2.414   9.602   6.442
18019SOL     OW54080   2.870  10.766   6.063
18019SOL    HW154081   2.824  10.838   6.011
18019SOL    HW254082   2.866  10.786   6.161
18020SOL     OW54083   2.213  11.111   6.439
18020SOL    HW154084   2.263  11.025   6.445
18020SOL    HW254085   2.278  11.188   6.436
18021SOL     OW54086   3.657  10.376   6.459
18021SOL    HW154087   3.595  10.361   6.383
18021SOL    HW254088   3.605  10.387   6.544
18022SOL     OW54089   3.089  10.860   7.092
18022SOL    HW154090   3.095  10.783   7.156
18022SOL    HW254091   3.037  10.834   7.012
18023SOL     OW54092   2.183  10.253   5.828
18023SOL    HW154093   2.265  10.292   5.786
18023SOL    HW254094   2.156  10.171   5.779
18024SOL     OW54095   3.320  10.045   6.314
18024SOL    HW154096   3.315   9.980   6.389
18024SOL    HW254097   3.400  10.104   6.327
18025SOL     OW54098   2.323  10.576   7.313
18025SOL    HW154099   2.273  10.577   7.227
18025SOL    HW254100   2.260  10.558   7.389
18026SOL     OW54101   2.973  11.086   5.823
18026SOL    HW154102   2.913  11.024   5.873
18026SOL    HW254103   3.004  11.042   5.738
18027SOL     OW54104   2.064   9.595   7.084
18027SOL    HW154105   1.984   9.655   7.071
18027SOL    HW254106   2.054   9.546   7.170
18028SOL     OW54107   3.494  10.687   5.667
18028SOL    HW154108   3.462  10.781   5.657
18028SOL    HW254109   3.418  10.624   5.655
18029SOL     OW54110   2.326  11.053   5.909
18029SOL    HW154111   2.359  11.092   5.995
18029SOL    HW254112   2.402  11.046   5.844
18030SOL     OW54113   3.262   9.417   6.012
18030SOL    HW154114   3.238   9.380   5.922
18030SOL    HW254115   3.361   9.433   6.016
18031SOL     OW54116   2.111  11.095   6.827
18031SOL    HW154117   2.168  11.030   6.877
18031SOL    HW254118   2.095  11.062   6.734
18032SOL     OW54119   2.802  11.008   6.490
18032SOL    HW154120   2.882  10.951   6.511
18032SOL    HW254121   2.753  10.968   6.413
18033SOL     OW54122   2.244  10.010   6.066
18033SOL    HW154123   2.289   9.920   6.063
18033SOL    HW254124   2.150   9.999   6.099
18034SOL     OW54125   3.409   9.532   7.315
18034SOL    HW154126   3.404   9.569   7.407
18034SOL    HW254127   3.337   9.463   7.303
18035SOL     OW54128   2.476   9.432   5.703
18035SOL    HW154129   2.574   9.410   5.710
18035SOL    HW254130   2.445   9.415   5.610
18036SOL     OW54131   2.643   9.574   7.335
18036SOL    HW154132   2.710   9.513   7.378
18036SOL    HW254133   2.570   9.593   7.400
18037SOL     OW54134   2.750  10.824   6.781
18037SOL    HW154135   2.727  10.799   6.687
18037SOL    HW254136   2.811  10.755   6.820
18038SOL     OW54137   3.213   9.900   7.019
18038SOL    HW154138   3.241   9.857   7.104
18038SOL    HW254139   3.238   9.996   7.020
18039SOL     OW54140   2.665  10.712   6.510
18039SOL    HW154141   2.755  10.726   6.468
18039SOL    HW254142   2.594  10.714   6.439
18040SOL     OW54143   2.784   9.813   6.485
18040SOL    HW154144   2.759   9.804   6.389
18040SOL    HW254145   2.832   9.731   6.516
18041SOL     OW54146   2.401   9.374   6.098
18041SOL    HW154147   2.320   9.375   6.156
18041SOL    HW254148   2.404   9.457   6.043
18042SOL     OW54149   3.296  10.498   5.627
18042SOL    HW154150   3.328  10.422   5.684
18042SOL    HW254151   3.204  10.525   5.657
18043SOL     OW54152   2.159   9.345   5.757
18043SOL    HW154153   2.208   9.429   5.736
18043SOL    HW254154   2.221   9.280   5.802
18044SOL     OW54155   2.797   9.546   6.066
18044SOL    HW154156   2.749   9.587   5.988
18044SOL    HW254157   2.896   9.544   6.047
18045SOL     OW54158   2.938   9.993   7.050
18045SOL    HW154159   2.858   9.932   7.053
18045SOL    HW254160   3.019   9.940   7.026
18046SOL     OW54161   3.089  10.880   6.379
18046SOL    HW154162   3.110  10.954   6.314
18046SOL    HW254163   3.157  10.880   6.452
18047SOL     OW54164   2.321  10.462   6.327
18047SOL    HW154165   2.250  10.435   6.392
18047SOL    HW254166   2.295  10.434   6.234
18048SOL     OW54167   3.133  11.107   6.177
18048SOL    HW154168   3.177  11.171   6.113
18048SOL    HW254169   3.083  11.159   6.247
18049SOL     OW54170   2.894   9.859   5.602
18049SOL    HW154171   2.853   9.941   5.563
18049SOL    HW254172   2.958   9.885   5.675
18050SOL     OW54173   1.940   9.866   6.972
18050SOL    HW154174   2.032   9.865   6.931
18050SOL    HW254175   1.934   9.940   7.039
18051SOL     OW54176   2.423   9.532   6.733
18051SOL    HW154177   2.461   9.448   6.770
18051SOL    HW254178   2.335   9.551   6.777
18052SOL     OW54179   2.728   9.764   6.228
18052SOL    HW154180   2.696   9.836   6.166
18052SOL    HW254181   2.752   9.683   6.175
18053SOL     OW54182   2.879   9.349   6.339
18053SOL    HW154183   2.807   9.354   6.270
18053SOL    HW254184   2.855   9.280   6.408
18054SOL     OW54185   3.291  10.483   6.453
18054SOL    HW154186   3.236  10.399   6.446
18054SOL    HW254187   3.317  10.512   6.361
18055SOL     OW54188   3.328   9.900   6.578
18055SOL    HW154189   3.298   9.805   6.585
18055SOL    HW254190   3.401   9.916   6.644
18056SOL     OW54191   3.719  10.143   5.963
18056SOL    HW154192   3.761  10.079   6.027
18056SOL    HW254193   3.681  10.092   5.885
18057SOL     OW54194   2.350  10.695   5.760
18057SOL    HW154195   2.263  10.680   5.807
18057SOL    HW254196   2.333  10.721   5.665
18058SOL     OW54197   3.526  10.590   6.243
18058SOL    HW154198   3.625  10.598   6.257
18058SOL    HW254199   3.481  10.674   6.274
18059SOL     OW54200   3.252   9.885   5.664
18059SOL    HW154201   3.198   9.864   5.745
18059SOL    HW254202   3.343   9.844   5.673
18060SOL     OW54203   2.389   9.566   5.914
18060SOL    HW154204   2.416   9.507   5.839
18060SOL    HW254205   2.389   9.661   5.883
18061SOL     OW54206   3.616  10.533   7.174
18061SOL    HW154207   3.707  10.494   7.161
18061SOL    HW254208   3.624  10.629   7.198
18062SOL     OW54209   2.926  10.657   6.926
18062SOL    HW154210   2.846  10.634   6.981
18062SOL    HW254211   3.009  10.631   6.975
18063SOL     OW54212   3.454  10.939   7.211
18063SOL    HW154213   3.481  10.973   7.121
18063SOL    HW254214   3.533  10.901   7.257
18064SOL     OW54215   2.973  10.505   6.686
18064SOL    HW154216   2.933  10.549   6.767
18064SOL    HW254217   2.932  10.542   6.603
18065SOL     OW54218   3.500  10.409   6.665
18065SOL    HW154219   3.505  10.490   6.724
18065SOL    HW254220   3.414  10.411   6.614
18066SOL     OW54221   2.777   9.399   6.988
18066SOL    HW154222   2.802   9.379   6.893
18066SOL    HW254223   2.849   9.455   7.030
18067SOL     OW54224   2.842  10.426   7.305
18067SOL    HW154225   2.743  10.432   7.315
18067SOL    HW254226   2.865  10.346   7.249
18068SOL     OW54227   2.567  10.360   5.954
18068SOL    HW154228   2.553  10.367   6.053
18068SOL    HW254229   2.651  10.309   5.936
18069SOL     OW54230   2.272  10.123   6.837
18069SOL    HW154231   2.358  10.135   6.887
18069SOL    HW254232   2.230  10.036   6.864
18070SOL     OW54233   3.136   9.696   6.848
18070SOL    HW154234   3.157   9.770   6.912
18070SOL    HW254235   3.047   9.713   6.805
18071SOL     OW54236   1.926  10.874   6.917
18071SOL    HW154237   1.880  10.956   6.883
18071SOL    HW254238   2.024  10.893   6.926
18072SOL     OW54239   2.229  10.410   6.087
18072SOL    HW154240   2.222  10.493   6.031
18072SOL    HW254241   2.233  10.330   6.027
18073SOL     OW54242   2.428   9.847   6.451
18073SOL    HW154243   2.440   9.913   6.377
18073SOL    HW254244   2.474   9.881   6.534
18074SOL     OW54245   3.114  10.658   5.974
18074SOL    HW154246   3.164  10.735   6.014
18074SOL    HW254247   3.019  10.660   6.006
18075SOL     OW54248   3.134  10.755   6.728
18075SOL    HW154249   3.181  10.768   6.815
18075SOL    HW254250   3.068  10.681   6.737
18076SOL     OW54251   3.444   9.949   6.058
18076SOL    HW154252   3.413  10.010   6.131
18076SOL    HW254253   3.494  10.001   5.989
18077SOL     OW54254   2.216  10.820   6.915
18077SOL    HW154255   2.195  10.776   6.828
18077SOL    HW254256   2.313  10.846   6.918
18078SOL     OW54257   2.264  10.061   7.184
18078SOL    HW154258   2.332  10.116   7.137
18078SOL    HW254259   2.304   9.973   7.211
18079SOL     OW54260   3.449  10.089   7.256
18079SOL    HW154261   3.357  10.127   7.251
18079SOL    HW254262   3.509  10.136   7.191
18080SOL     OW54263   2.875   9.415   7.356
18080SOL    HW154264   2.881   9.500   7.304
18080SOL    HW254265   2.907   9.339   7.299
18081SOL     OW54266   2.366   9.360   7.326
18081SOL    HW154267   2.324   9.303   7.256
18081SOL    HW254268   2.300   9.429   7.358
18082SOL     OW54269   2.435  10.180   6.615
18082SOL    HW154270   2.479  10.269   6.606
18082SOL    HW254271   2.372  10.180   6.692
18083SOL     OW54272   3.222  10.172   6.631
18083SOL    HW154273   3.147  10.172   6.565
18083SOL    HW254274   3.259  10.080   6.640
18084SOL     OW54275   3.071   9.835   5.861
18084SOL    HW154276   3.084   9.751   5.915
18084SOL    HW254277   3.042   9.909   5.921
18085SOL     OW54278   2.169   9.523   6.817
18085SOL    HW154279   2.146   9.560   6.907
18085SOL    HW254280   2.139   9.428   6.811
18086SOL     OW54281   1.899  10.620   6.868
18086SOL    HW154282   1.952  10.571   6.936
18086SOL    HW254283   1.921  10.718   6.873
18087SOL     OW54284   2.594   9.944   6.650
18087SOL    HW154285   2.653   9.918   6.574
18087SOL    HW254286   2.566  10.040   6.639
18088SOL     OW54287   3.590  10.245   7.440
18088SOL    HW154288   3.544  10.238   7.351
18088SOL    HW254289   3.528  10.289   7.506
18089SOL     OW54290   2.169   9.373   6.204
18089SOL    HW154291   2.158   9.467   6.237
18089SOL    HW254292   2.164   9.310   6.281
18090SOL     OW54293   3.484   9.677   5.960
18090SOL    HW154294   3.486   9.601   6.024
18090SOL    HW254295   3.436   9.754   6.000
18091SOL     OW54296   2.885  10.076   6.552
18091SOL    HW154297   2.900  10.097   6.648
18091SOL    HW254298   2.855   9.981   6.543
18092SOL     OW54299   2.842  10.883   7.286
18092SOL    HW154300   2.822  10.927   7.198
18092SOL    HW254301   2.881  10.792   7.270
18093SOL     OW54302   3.721  10.828   7.191
18093SOL    HW154303   3.735  10.855   7.096
18093SOL    HW254304   3.804  10.850   7.244
18094SOL     OW54305   2.212  10.208   7.390
18094SOL    HW154306   2.288  10.252   7.438
18094SOL    HW254307   2.247  10.161   7.308
18095SOL     OW54308   3.402   9.584   5.711
18095SOL    HW154309   3.341   9.509   5.734
18095SOL    HW254310   3.424   9.636   5.794
18096SOL     OW54311   3.165  10.148   5.628
18096SOL    HW154312   3.199  10.055   5.643
18096SOL    HW254313   3.183  10.175   5.533
18097SOL     OW54314   2.930  10.643   6.435
18097SOL    HW154315   2.937  10.559   6.380
18097SOL    HW254316   2.992  10.712   6.399
18098SOL     OW54317   2.181  10.120   6.535
18098SOL    HW154318   2.274  10.156   6.540
18098SOL    HW254319   2.175  10.035   6.587
18099SOL     OW54320   2.201   9.819   6.592
18099SOL    HW154321   2.149   9.736   6.575
18099SOL    HW254322   2.278   9.824   6.528
18100SOL     OW54323   3.000   9.690   7.264
18100SOL    HW154324   2.955   9.753   7.328
18100SOL    HW254325   3.093   9.721   7.247
18101SOL     OW54326   3.022   9.517   7.063
18101SOL    HW154327   3.022   9.581   7.140
18101SOL    HW254328   3.050   9.565   6.980
18102SOL     OW54329   1.870  10.636   5.786
18102SOL    HW154330   1.777  10.657   5.755
18102SOL    HW254331   1.880  10.537   5.799
18103SOL     OW54332   1.950  11.111   6.513
18103SOL    HW154333   1.908  11.025   6.486
18103SOL    HW254334   2.044  11.114   6.479
18104SOL     OW54335   2.366  10.878   6.496
18104SOL    HW154336   2.432  10.952   6.505
18104SOL    HW254337   2.410  10.799   6.454
18105SOL     OW54338   2.864  10.106   6.824
18105SOL    HW154339   2.905  10.074   6.910
18105SOL    HW254340   2.768  10.079   6.821
18106SOL     OW54341   1.902   9.854   6.700
18106SOL    HW154342   1.987   9.821   6.659
18106SOL    HW254343   1.915   9.869   6.798
18107SOL     OW54344   2.051   9.830   7.308
18107SOL    HW154345   2.110   9.790   7.238
18107SOL    HW254346   1.993   9.901   7.267
18108SOL     OW54347   3.231  10.260   7.246
18108SOL    HW154348   3.270  10.349   7.266
18108SOL    HW254349   3.241  10.240   7.149
18109SOL     OW54350   2.677   9.882   5.911
18109SOL    HW154351   2.684   9.793   5.865
18109SOL    HW254352   2.583   9.916   5.903
18110SOL     OW54353   3.519   9.914   6.792
18110SOL    HW154354   3.481   9.845   6.854
18110SOL    HW254355   3.601   9.878   6.748
18111SOL     OW54356   2.114  10.874   7.330
18111SOL    HW154357   2.084  10.931   7.406
18111SOL    HW254358   2.107  10.777   7.356
18112SOL     OW54359   2.533   9.774   6.855
18112SOL    HW154360   2.499   9.685   6.825
18112SOL    HW254361   2.559   9.828   6.775
18113SOL     OW54362   2.792  10.988   7.051
18113SOL    HW154363   2.768  10.970   6.956
18113SOL    HW254364   2.822  11.082   7.061
18114SOL     OW54365   2.335   9.810   5.777
18114SOL    HW154366   2.396   9.890   5.781
18114SOL    HW254367   2.240   9.841   5.784
18115SOL     OW54368   2.021  10.447   7.052
18115SOL    HW154369   2.043  10.386   7.128
18115SOL    HW254370   2.031  10.398   6.966
18116SOL     OW54371   3.209  10.369   6.820
18116SOL    HW154372   3.233  10.306   6.746
18116SOL    HW254373   3.119  10.409   6.802
18117SOL     OW54374   3.164  10.165   5.895
18117SOL    HW154375   3.078  10.134   5.937
18117SOL    HW254376   3.160  10.151   5.796
18118SOL     OW54377   3.621  11.057   6.740
18118SOL    HW154378   3.682  11.087   6.667
18118SOL    HW254379   3.583  10.968   6.718
18119SOL     OW54380   3.114  11.041   6.714
18119SOL    HW154381   3.198  11.046   6.660
18119SOL    HW254382   3.091  10.945   6.732
18120SOL     OW54383   1.945  10.568   6.608
18120SOL    HW154384   1.940  10.567   6.708
18120SOL    HW254385   1.862  10.527   6.570
18121SOL     OW54386   2.550  10.972   7.302
18121SOL    HW154387   2.494  11.053   7.311
18121SOL    HW254388   2.602  10.976   7.216
18122SOL     OW54389   3.588   9.445   6.109
18122SOL    HW154390   3.661   9.428   6.042
18122SOL    HW254391   3.557   9.358   6.147
18123SOL     OW54392   3.250  10.883   6.063
18123SOL    HW154393   3.317  10.895   5.989
18123SOL    HW254394   3.210  10.972   6.086
18124SOL     OW54395   1.992  11.104   7.437
18124SOL    HW154396   1.951  11.030   7.490
18124SOL    HW254397   2.056  11.155   7.495
18125SOL     OW54398   3.142  10.237   6.258
18125SOL    HW154399   3.202  10.156   6.260
18125SOL    HW254400   3.182  10.306   6.198
18126SOL     OW54401   2.692  10.583   7.008
18126SOL    HW154402   2.687  10.616   7.103
18126SOL    HW254403   2.606  10.602   6.962
18127SOL     OW54404   2.534  10.926   5.740
18127SOL    HW154405   2.543  10.936   5.641
18127SOL    HW254406   2.494  10.837   5.761
18128SOL     OW54407   3.512  11.030   6.980
18128SOL    HW154408   3.565  11.040   6.896
18128SOL    HW254409   3.485  11.120   7.014
18129SOL     OW54410   3.703   9.485   6.549
18129SOL    HW154411   3.742   9.400   6.513
18129SOL    HW254412   3.605   9.487   6.530
18130SOL     OW54413   2.125   9.636   6.306
18130SOL    HW154414   2.046   9.687   6.272
18130SOL    HW254415   2.116   9.621   6.404
18131SOL     OW54416   3.056  10.922   5.617
18131SOL    HW154417   3.062  10.829   5.654
18131SOL    HW254418   2.997  10.922   5.537
18132SOL     OW54419   2.684  10.312   6.958
18132SOL    HW154420   2.724  10.311   6.866
18132SOL    HW254421   2.694  10.404   6.998
18133SOL     OW54422   2.778  10.220   5.877
18133SOL    HW154423   2.841  10.258   5.809
18133SOL    HW254424   2.818  10.137   5.916
18134SOL     OW54425   3.366  10.917   5.630
18134SOL    HW154426   3.274  10.954   5.637
18134SOL    HW254427   3.404  10.937   5.540
18135SOL     OW54428   2.234  10.598   7.076
18135SOL    HW154429   2.221  10.691   7.042
18135SOL    HW254430   2.150  10.546   7.063
18136SOL     OW54431   3.476  10.602   6.875
18136SOL    HW154432   3.536  10.605   6.955
18136SOL    HW254433   3.401  10.666   6.888
18137SOL     OW54434   2.901  10.408   6.282
18137SOL    HW154435   2.831  10.361   6.336
18137SOL    HW254436   2.960  10.340   6.239
18138SOL     OW54437   2.876   9.546   6.557
18138SOL    HW154438   2.868   9.510   6.464
18138SOL    HW254439   2.874   9.470   6.622
18139SOL     OW54440   2.452  10.797   6.077
18139SOL    HW154441   2.494  10.739   6.007
18139SOL    HW254442   2.408  10.876   6.033
18140SOL     OW54443   3.571   9.695   6.967
18140SOL    HW154444   3.644   9.764   6.971
18140SOL    HW254445   3.599   9.620   6.908
18141SOL     OW54446   2.117  10.658   5.876
18141SOL    HW154447   2.021  10.659   5.849
18141SOL    HW254448   2.129  10.711   5.960
18142SOL     OW54449   1.967  10.323   7.312
18142SOL    HW154450   1.890  10.290   7.366
18142SOL    HW254451   2.052  10.293   7.354
18143SOL     OW54452   2.534   9.513   7.075
18143SOL    HW154453   2.624   9.497   7.035
18143SOL    HW254454   2.542   9.518   7.174
18144SOL     OW54455   1.937   9.655   5.619
18144SOL    HW154456   1.845   9.627   5.590
18144SOL    HW254457   1.968   9.732   5.563
18145SOL     OW54458   3.302  10.166   6.984
18145SOL    HW154459   3.245  10.218   6.921
18145SOL    HW254460   3.398  10.178   6.960
18146SOL     OW54461   1.934   9.476   5.904
18146SOL    HW154462   1.917   9.559   5.850
18146SOL    HW254463   2.024   9.439   5.882
18147SOL     OW54464   3.045  10.645   5.705
18147SOL    HW154465   2.946  10.634   5.707
18147SOL    HW254466   3.079  10.660   5.798
18148SOL     OW54467   2.475  10.152   7.017
18148SOL    HW154468   2.531  10.233   7.000
18148SOL    HW254469   2.534  10.072   7.020
18149SOL     OW54470   3.355  11.077   6.545
18149SOL    HW154471   3.388  11.141   6.476
18149SOL    HW254472   3.421  11.071   6.620
18150SOL     OW54473   2.578   9.875   7.294
18150SOL    HW154474   2.597   9.940   7.368
18150SOL    HW254475   2.638   9.795   7.303
18151SOL     OW54476   3.312  10.530   7.219
18151SOL    HW154477   3.303  10.520   7.318
18151SOL    HW254478   3.408  10.523   7.193
18152SOL     OW54479   2.252  11.051   7.146
18152SOL    HW154480   2.161  11.092   7.144
18152SOL    HW254481   2.245  10.957   7.178
18153SOL     OW54482   3.536  10.193   6.840
18153SOL    HW154483   3.509  10.104   6.803
18153SOL    HW254484   3.537  10.261   6.767
18154SOL     OW54485   3.087   9.635   6.035
18154SOL    HW154486   3.152   9.561   6.024
18154SOL    HW254487   3.107   9.685   6.119
18155SOL     OW54488   2.456  10.055   6.238
18155SOL    HW154489   2.506  10.140   6.219
18155SOL    HW254490   2.368  10.057   6.190
18156SOL     OW54491   3.639   9.652   7.228
18156SOL    HW154492   3.622   9.683   7.134
18156SOL    HW254493   3.555   9.615   7.266
18157SOL     OW54494   3.592  10.244   7.103
18157SOL    HW154495   3.630  10.335   7.118
18157SOL    HW254496   3.584  10.227   7.004
18158SOL     OW54497   2.721  10.684   5.602
18158SOL    HW154498   2.675  10.699   5.690
18158SOL    HW254499   2.765  10.769   5.572
18159SOL     OW54500   2.523  11.100   6.539
18159SOL    HW154501   2.477  11.188   6.526
18159SOL    HW254502   2.622  11.112   6.532
18160SOL     OW54503   2.721  10.266   6.447
18160SOL    HW154504   2.775  10.197   6.495
18160SOL    HW254505   2.689  10.335   6.513
18161SOL     OW54506   2.945  10.294   5.673
18161SOL    HW154507   2.922  10.347   5.591
18161SOL    HW254508   3.026  10.238   5.654
18162SOL     OW54509   3.723  10.879   6.437
18162SOL    HW154510   3.652  10.867   6.367
18162SOL    HW254511   3.724  10.800   6.497
18163SOL     OW54512   2.083  10.624   7.430
18163SOL    HW154513   2.018  10.551   7.409
18163SOL    HW254514   2.087  10.638   7.528
18164SOL     OW54515   1.941  10.550   6.239
18164SOL    HW154516   1.940  10.503   6.327
18164SOL    HW254517   2.023  10.522   6.188
18165SOL     OW54518   2.534  10.701   7.210
18165SOL    HW154519   2.456  10.651   7.248
18165SOL    HW254520   2.531  10.796   7.241
18166SOL     OW54521   3.686   9.502   6.813
18166SOL    HW154522   3.682   9.412   6.857
18166SOL    HW254523   3.689   9.491   6.714
18167SOL     OW54524   2.290   9.734   6.106
18167SOL    HW154525   2.320   9.662   6.044
18167SOL    HW254526   2.251   9.694   6.189
18168SOL     OW54527   3.567  10.797   6.690
18168SOL    HW154528   3.474  10.772   6.663
18168SOL    HW254529   3.593  10.747   6.772
18169SOL     OW54530   2.179   9.857   6.866
18169SOL    HW154531   2.217   9.798   6.938
18169SOL    HW254532   2.219   9.831   6.778
18170SOL     OW54533   2.674  10.896   6.273
18170SOL    HW154534   2.706  10.906   6.179
18170SOL    HW254535   2.595  10.834   6.275
18171SOL     OW54536   3.286   9.524   6.698
18171SOL    HW154537   3.338   9.459   6.753
18171SOL    HW254538   3.237   9.587   6.759
18172SOL     OW54539   2.863   9.344   6.740
18172SOL    HW154540   2.800   9.272   6.709
18172SOL    HW254541   2.956   9.308   6.740
18173SOL     OW54542   2.632  10.640   5.887
18173SOL    HW154543   2.586  10.553   5.904
18173SOL    HW254544   2.723  10.637   5.928
18174SOL     OW54545   2.480  10.877   6.870
18174SOL    HW154546   2.475  10.959   6.927
18174SOL    HW254547   2.569  10.874   6.825
18175SOL     OW54548   3.214   9.362   5.754
18175SOL    HW154549   3.249   9.321   5.670
18175SOL    HW254550   3.124   9.324   5.774
18176SOL     OW54551   3.162   9.763   6.277
18176SOL    HW154552   3.103   9.843   6.281
18176SOL    HW254553   3.177   9.728   6.370
18177SOL     OW54554   3.455   9.531   6.468
18177SOL    HW154555   3.371   9.530   6.522
18177SOL    HW254556   3.457   9.614   6.412
18178SOL     OW54557   1.901  10.387   5.886
18178SOL    HW154558   2.000  10.376   5.877
18178SOL    HW254559   1.861  10.301   5.918
18179SOL     OW54560   2.737  10.956   5.923
18179SOL    HW154561   2.660  10.921   5.869
18179SOL    HW254562   2.705  11.027   5.985
18180SOL     OW54563   2.092   9.938   7.561
18180SOL    HW154564   1.999   9.936   7.598
18180SOL    HW254565   2.093   9.899   7.469
18181SOL     OW54566   2.087   9.585   8.444
18181SOL    HW154567   2.122   9.568   8.536
18181SOL    HW254568   1.999   9.540   8.432
18182SOL     OW54569   1.881   9.678   8.095
18182SOL    HW154570   1.799   9.721   8.134
18182SOL    HW254571   1.853   9.605   8.032
18183SOL     OW54572   2.431  10.585   8.613
18183SOL    HW154573   2.338  10.578   8.576
18183SOL    HW254574   2.442  10.674   8.657
18184SOL     OW54575   3.417  10.821   8.151
18184SOL    HW154576   3.360  10.805   8.232
18184SOL    HW254577   3.358  10.831   8.071
18185SOL     OW54578   2.997  10.013   8.165
18185SOL    HW154579   3.054  10.091   8.140
18185SOL    HW254580   2.937  10.039   8.241
18186SOL     OW54581   3.617   9.917   7.679
18186SOL    HW154582   3.605   9.904   7.580
18186SOL    HW254583   3.587   9.836   7.728
18187SOL     OW54584   2.630  10.454   8.471
18187SOL    HW154585   2.552  10.471   8.531
18187SOL    HW254586   2.664  10.541   8.435
18188SOL     OW54587   2.712  10.108   9.271
18188SOL    HW154588   2.708  10.184   9.336
18188SOL    HW254589   2.734  10.144   9.180
18189SOL     OW54590   2.547  10.322   8.113
18189SOL    HW154591   2.616  10.306   8.183
18189SOL    HW254592   2.474  10.379   8.151
18190SOL     OW54593   2.548  10.471   9.251
18190SOL    HW154594   2.608  10.550   9.265
18190SOL    HW254595   2.462  10.502   9.210
18191SOL     OW54596   2.197  10.745   8.509
18191SOL    HW154597   2.119  10.714   8.456
18191SOL    HW254598   2.255  10.803   8.452
18192SOL     OW54599   3.322  10.815   8.787
18192SOL    HW154600   3.346  10.909   8.813
18192SOL    HW254601   3.306  10.761   8.869
18193SOL     OW54602   2.300   9.702   8.947
18193SOL    HW154603   2.382   9.646   8.956
18193SOL    HW254604   2.219   9.644   8.951
18194SOL     OW54605   3.465   9.757   8.185
18194SOL    HW154606   3.391   9.803   8.135
18194SOL    HW254607   3.516   9.825   8.238
18195SOL     OW54608   2.093  11.023   7.931
18195SOL    HW154609   2.127  11.100   7.985
18195SOL    HW254610   2.137  11.023   7.841
18196SOL     OW54611   2.989  10.651   9.138
18196SOL    HW154612   3.036  10.651   9.226
18196SOL    HW254613   2.941  10.564   9.127
18197SOL     OW54614   2.092  10.744   7.986
18197SOL    HW154615   2.066  10.840   7.986
18197SOL    HW254616   2.021  10.690   8.031
18198SOL     OW54617   2.102  10.401   8.334
18198SOL    HW154618   2.116  10.317   8.386
18198SOL    HW254619   2.047  10.465   8.389
18199SOL     OW54620   2.482  11.096   8.887
18199SOL    HW154621   2.390  11.079   8.922
18199SOL    HW254622   2.510  11.188   8.913
18200SOL     OW54623   2.468  10.274   7.571
18200SOL    HW154624   2.475  10.358   7.517
18200SOL    HW254625   2.514  10.287   7.659
18201SOL     OW54626   3.456   9.424   8.928
18201SOL    HW154627   3.438   9.491   8.856
18201SOL    HW254628   3.453   9.470   9.017
18202SOL     OW54629   1.984   9.953   8.011
18202SOL    HW154630   1.939   9.865   8.028
18202SOL    HW254631   1.983  10.007   8.095
18203SOL     OW54632   3.704  11.077   7.807
18203SOL    HW154633   3.758  11.048   7.887
18203SOL    HW254634   3.734  11.167   7.778
18204SOL     OW54635   1.889  10.906   7.565
18204SOL    HW154636   1.870  10.810   7.586
18204SOL    HW254637   1.856  10.964   7.640
18205SOL     OW54638   3.551  10.232   8.060
18205SOL    HW154639   3.646  10.203   8.068
18205SOL    HW254640   3.543  10.297   7.985
18206SOL     OW54641   3.503  10.418   7.880
18206SOL    HW154642   3.589  10.420   7.828
18206SOL    HW254643   3.517  10.465   7.968
18207SOL     OW54644   1.975  10.047   9.045
18207SOL    HW154645   2.063  10.034   9.090
18207SOL    HW254646   1.962  10.144   9.023
18208SOL     OW54647   2.475  10.675   8.174
18208SOL    HW154648   2.426  10.588   8.183
18208SOL    HW254649   2.452  10.718   8.087
18209SOL     OW54650   3.155  10.538   8.871
18209SOL    HW154651   3.192  10.465   8.813
18209SOL    HW254652   3.207  10.543   8.956
18210SOL     OW54653   2.671   9.314   7.950
18210SOL    HW154654   2.711   9.405   7.941
18210SOL    HW254655   2.571   9.322   7.956
18211SOL     OW54656   2.059  10.286   8.712
18211SOL    HW154657   2.148  10.241   8.698
18211SOL    HW254658   1.986  10.221   8.693
18212SOL     OW54659   3.387  10.309   7.638
18212SOL    HW154660   3.324  10.233   7.651
18212SOL    HW254661   3.435  10.327   7.724
18213SOL     OW54662   3.049  11.102   9.064
18213SOL    HW154663   3.073  11.162   8.988
18213SOL    HW254664   3.056  11.007   9.034
18214SOL     OW54665   2.179   9.561   9.249
18214SOL    HW154666   2.250   9.632   9.255
18214SOL    HW254667   2.091   9.600   9.277
18215SOL     OW54668   3.328  10.727   8.401
18215SOL    HW154669   3.269  10.733   8.481
18215SOL    HW254670   3.313  10.639   8.355
18216SOL     OW54671   3.529  11.024   8.020
18216SOL    HW154672   3.488  11.001   7.932
18216SOL    HW254673   3.511  10.950   8.085
18217SOL     OW54674   2.460  10.039   7.718
18217SOL    HW154675   2.484  10.108   7.650
18217SOL    HW254676   2.382  10.072   7.772
18218SOL     OW54677   3.143   9.655   8.392
18218SOL    HW154678   3.057   9.605   8.379
18218SOL    HW254679   3.205   9.601   8.448
18219SOL     OW54680   3.438  10.972   7.755
18219SOL    HW154681   3.527  11.018   7.758
18219SOL    HW254682   3.417  10.948   7.660
18220SOL     OW54683   2.669   9.915   8.913
18220SOL    HW154684   2.622   9.912   9.002
18220SOL    HW254685   2.618   9.860   8.847
18221SOL     OW54686   3.256   9.779   9.122
18221SOL    HW154687   3.236   9.822   9.210
18221SOL    HW254688   3.334   9.717   9.131
18222SOL     OW54689   2.835  10.200   9.020
18222SOL    HW154690   2.881  10.116   8.991
18222SOL    HW254691   2.779  10.234   8.945
18223SOL     OW54692   2.853   9.720   8.690
18223SOL    HW154693   2.776   9.754   8.744
18223SOL    HW254694   2.819   9.669   8.611
18224SOL     OW54695   2.903  10.011   7.877
18224SOL    HW154696   2.929  10.007   7.973
18224SOL    HW254697   2.818   9.960   7.863
18225SOL     OW54698   1.938  10.121   8.237
18225SOL    HW154699   2.037  10.109   8.246
18225SOL    HW254700   1.914  10.216   8.258
18226SOL     OW54701   1.992  11.131   9.019
18226SOL    HW154702   1.982  11.116   9.118
18226SOL    HW254703   1.906  11.167   8.983
18227SOL     OW54704   2.727   9.658   7.643
18227SOL    HW154705   2.786   9.721   7.594
18227SOL    HW254706   2.746   9.564   7.614
18228SOL     OW54707   3.581   9.895   9.279
18228SOL    HW154708   3.555   9.984   9.243
18228SOL    HW254709   3.579   9.827   9.206
18229SOL     OW54710   3.224  10.454   7.993
18229SOL    HW154711   3.307  10.425   7.945
18229SOL    HW254712   3.175  10.521   7.937
18230SOL     OW54713   2.412   9.506   8.333
18230SOL    HW154714   2.407   9.501   8.433
18230SOL    HW254715   2.414   9.602   8.304
18231SOL     OW54716   2.870  10.766   7.925
18231SOL    HW154717   2.824  10.838   7.873
18231SOL    HW254718   2.866  10.786   8.023
18232SOL     OW54719   2.213  11.111   8.301
18232SOL    HW154720   2.263  11.025   8.307
18232SOL    HW254721   2.278  11.188   8.298
18233SOL     OW54722   3.657  10.376   8.321
18233SOL    HW154723   3.595  10.361   8.245
18233SOL    HW254724   3.605  10.387   8.406
18234SOL     OW54725   3.089  10.860   8.954
18234SOL    HW154726   3.095  10.783   9.018
18234SOL    HW254727   3.037  10.834   8.874
18235SOL     OW54728   2.183  10.253   7.690
18235SOL    HW154729   2.265  10.292   7.648
18235SOL    HW254730   2.156  10.171   7.641
18236SOL     OW54731   3.320  10.045   8.176
18236SOL    HW154732   3.315   9.980   8.251
18236SOL    HW254733   3.400  10.104   8.189
18237SOL     OW54734   2.323  10.576   9.175
18237SOL    HW154735   2.273  10.577   9.089
18237SOL    HW254736   2.260  10.558   9.251
18238SOL     OW54737   2.973  11.086   7.685
18238SOL    HW154738   2.913  11.024   7.735
18238SOL    HW254739   3.004  11.042   7.600
18239SOL     OW54740   2.064   9.595   8.946
18239SOL    HW154741   1.984   9.655   8.933
18239SOL    HW254742   2.054   9.546   9.032
18240SOL     OW54743   3.494  10.687   7.529
18240SOL    HW154744   3.462  10.781   7.519
18240SOL    HW254745   3.418  10.624   7.517
18241SOL     OW54746   2.326  11.053   7.771
18241SOL    HW154747   2.359  11.092   7.857
18241SOL    HW254748   2.402  11.046   7.706
18242SOL     OW54749   3.262   9.417   7.874
18242SOL    HW154750   3.238   9.380   7.784
18242SOL    HW254751   3.361   9.433   7.878
18243SOL     OW54752   2.111  11.095   8.689
18243SOL    HW154753   2.168  11.030   8.739
18243SOL    HW254754   2.095  11.062   8.596
18244SOL     OW54755   2.802  11.008   8.352
18244SOL    HW154756   2.882  10.951   8.373
18244SOL    HW254757   2.753  10.968   8.275
18245SOL     OW54758   2.244  10.010   7.928
18245SOL    HW154759   2.289   9.920   7.925
18245SOL    HW254760   2.150   9.999   7.961
18246SOL     OW54761   3.409   9.532   9.177
18246SOL    HW154762   3.404   9.569   9.269
18246SOL    HW254763   3.337   9.463   9.165
18247SOL     OW54764   2.476   9.432   7.565
18247SOL    HW154765   2.574   9.410   7.572
18247SOL    HW254766   2.445   9.415   7.472
18248SOL     OW54767   2.643   9.574   9.197
18248SOL    HW154768   2.710   9.513   9.240
18248SOL    HW254769   2.570   9.593   9.262
18249SOL     OW54770   2.750  10.824   8.643
18249SOL    HW154771   2.727  10.799   8.549
18249SOL    HW254772   2.811  10.755   8.682
18250SOL     OW54773   3.213   9.900   8.881
18250SOL    HW154774   3.241   9.857   8.966
18250SOL    HW254775   3.238   9.996   8.882
18251SOL     OW54776   2.665  10.712   8.372
18251SOL    HW154777   2.755  10.726   8.330
18251SOL    HW254778   2.594  10.714   8.301
18252SOL     OW54779   2.784   9.813   8.347
18252SOL    HW154780   2.759   9.804   8.251
18252SOL    HW254781   2.832   9.731   8.378
18253SOL     OW54782   2.401   9.374   7.960
18253SOL    HW154783   2.320   9.375   8.018
18253SOL    HW254784   2.404   9.457   7.905
18254SOL     OW54785   3.296  10.498   7.489
18254SOL    HW154786   3.328  10.422   7.546
18254SOL    HW254787   3.204  10.525   7.519
18255SOL     OW54788   2.159   9.345   7.619
18255SOL    HW154789   2.208   9.429   7.598
18255SOL    HW254790   2.221   9.280   7.664
18256SOL     OW54791   2.797   9.546   7.928
18256SOL    HW154792   2.749   9.587   7.850
18256SOL    HW254793   2.896   9.544   7.909
18257SOL     OW54794   2.938   9.993   8.912
18257SOL    HW154795   2.858   9.932   8.915
18257SOL    HW254796   3.019   9.940   8.888
18258SOL     OW54797   3.089  10.880   8.241
18258SOL    HW154798   3.110  10.954   8.176
18258SOL    HW254799   3.157  10.880   8.314
18259SOL     OW54800   2.321  10.462   8.189
18259SOL    HW154801   2.250  10.435   8.254
18259SOL    HW254802   2.295  10.434   8.096
18260SOL     OW54803   3.133  11.107   8.039
18260SOL    HW154804   3.177  11.171   7.975
18260SOL    HW254805   3.083  11.159   8.109
18261SOL     OW54806   2.894   9.859   7.464
18261SOL    HW154807   2.853   9.941   7.425
18261SOL    HW254808   2.958   9.885   7.537
18262SOL     OW54809   1.940   9.866   8.834
18262SOL    HW154810   2.032   9.865   8.793
18262SOL    HW254811   1.934   9.940   8.901
18263SOL     OW54812   2.423   9.532   8.595
18263SOL    HW154813   2.461   9.448   8.632
18263SOL    HW254814   2.335   9.551   8.639
18264SOL     OW54815   2.728   9.764   8.090
18264SOL    HW154816   2.696   9.836   8.028
18264SOL    HW254817   2.752   9.683   8.037
18265SOL     OW54818   2.879   9.349   8.201
18265SOL    HW154819   2.807   9.354   8.132
18265SOL    HW254820   2.855   9.280   8.270
18266SOL     OW54821   3.291  10.483   8.315
18266SOL    HW154822   3.236  10.399   8.308
18266SOL    HW254823   3.317  10.512   8.223
18267SOL     OW54824   3.328   9.900   8.440
18267SOL    HW154825   3.298   9.805   8.447
18267SOL    HW254826   3.401   9.916   8.506
18268SOL     OW54827   3.719  10.143   7.825
18268SOL    HW154828   3.761  10.079   7.889
18268SOL    HW254829   3.681  10.092   7.747
18269SOL     OW54830   2.350  10.695   7.622
18269SOL    HW154831   2.263  10.680   7.669
18269SOL    HW254832   2.333  10.721   7.527
18270SOL     OW54833   3.526  10.590   8.105
18270SOL    HW154834   3.625  10.598   8.119
18270SOL    HW254835   3.481  10.674   8.136
18271SOL     OW54836   3.252   9.885   7.526
18271SOL    HW154837   3.198   9.864   7.607
18271SOL    HW254838   3.343   9.844   7.535
18272SOL     OW54839   2.389   9.566   7.776
18272SOL    HW154840   2.416   9.507   7.701
18272SOL    HW254841   2.389   9.661   7.745
18273SOL     OW54842   3.616  10.533   9.036
18273SOL    HW154843   3.707  10.494   9.023
18273SOL    HW254844   3.624  10.629   9.060
18274SOL     OW54845   2.926  10.657   8.788
18274SOL    HW154846   2.846  10.634   8.843
18274SOL    HW254847   3.009  10.631   8.837
18275SOL     OW54848   3.454  10.939   9.073
18275SOL    HW154849   3.481  10.973   8.983
18275SOL    HW254850   3.533  10.901   9.119
18276SOL     OW54851   2.973  10.505   8.548
18276SOL    HW154852   2.933  10.549   8.629
18276SOL    HW254853   2.932  10.542   8.465
18277SOL     OW54854   3.500  10.409   8.527
18277SOL    HW154855   3.505  10.490   8.586
18277SOL    HW254856   3.414  10.411   8.476
18278SOL     OW54857   2.777   9.399   8.850
18278SOL    HW154858   2.802   9.379   8.755
18278SOL    HW254859   2.849   9.455   8.892
18279SOL     OW54860   2.842  10.426   9.167
18279SOL    HW154861   2.743  10.432   9.177
18279SOL    HW254862   2.865  10.346   9.111
18280SOL     OW54863   2.567  10.360   7.816
18280SOL    HW154864   2.553  10.367   7.915
18280SOL    HW254865   2.651  10.309   7.798
18281SOL     OW54866   2.272  10.123   8.699
18281SOL    HW154867   2.358  10.135   8.749
18281SOL    HW254868   2.230  10.036   8.726
18282SOL     OW54869   3.136   9.696   8.710
18282SOL    HW154870   3.157   9.770   8.774
18282SOL    HW254871   3.047   9.713   8.667
18283SOL     OW54872   1.926  10.874   8.779
18283SOL    HW154873   1.880  10.956   8.745
18283SOL    HW254874   2.024  10.893   8.788
18284SOL     OW54875   2.229  10.410   7.949
18284SOL    HW154876   2.222  10.493   7.893
18284SOL    HW254877   2.233  10.330   7.889
18285SOL     OW54878   2.428   9.847   8.313
18285SOL    HW154879   2.440   9.913   8.239
18285SOL    HW254880   2.474   9.881   8.396
18286SOL     OW54881   3.114  10.658   7.836
18286SOL    HW154882   3.164  10.735   7.876
18286SOL    HW254883   3.019  10.660   7.868
18287SOL     OW54884   3.134  10.755   8.590
18287SOL    HW154885   3.181  10.768   8.677
18287SOL    HW254886   3.068  10.681   8.599
18288SOL     OW54887   3.444   9.949   7.920
18288SOL    HW154888   3.413  10.010   7.993
18288SOL    HW254889   3.494  10.001   7.851
18289SOL     OW54890   2.216  10.820   8.777
18289SOL    HW154891   2.195  10.776   8.690
18289SOL    HW254892   2.313  10.846   8.780
18290SOL     OW54893   2.264  10.061   9.046
18290SOL    HW154894   2.332  10.116   8.999
18290SOL    HW254895   2.304   9.973   9.073
18291SOL     OW54896   3.449  10.089   9.118
18291SOL    HW154897   3.357  10.127   9.113
18291SOL    HW254898   3.509  10.136   9.053
18292SOL     OW54899   2.875   9.415   9.218
18292SOL    HW154900   2.881   9.500   9.166
18292SOL    HW254901   2.907   9.339   9.161
18293SOL     OW54902   2.366   9.360   9.188
18293SOL    HW154903   2.324   9.303   9.118
18293SOL    HW254904   2.300   9.429   9.220
18294SOL     OW54905   2.435  10.180   8.477
18294SOL    HW154906   2.479  10.269   8.468
18294SOL    HW254907   2.372  10.180   8.554
18295SOL     OW54908   3.222  10.172   8.493
18295SOL    HW154909   3.147  10.172   8.427
18295SOL    HW254910   3.259  10.080   8.502
18296SOL     OW54911   3.071   9.835   7.723
18296SOL    HW154912   3.084   9.751   7.777
18296SOL    HW254913   3.042   9.909   7.783
18297SOL     OW54914   2.169   9.523   8.679
18297SOL    HW154915   2.146   9.560   8.769
18297SOL    HW254916   2.139   9.428   8.673
18298SOL     OW54917   1.899  10.620   8.730
18298SOL    HW154918   1.952  10.571   8.798
18298SOL    HW254919   1.921  10.718   8.735
18299SOL     OW54920   2.594   9.944   8.512
18299SOL    HW154921   2.653   9.918   8.436
18299SOL    HW254922   2.566  10.040   8.501
18300SOL     OW54923   3.590  10.245   9.302
18300SOL    HW154924   3.544  10.238   9.213
18300SOL    HW254925   3.528  10.289   9.368
18301SOL     OW54926   2.169   9.373   8.066
18301SOL    HW154927   2.158   9.467   8.099
18301SOL    HW254928   2.164   9.310   8.143
18302SOL     OW54929   3.484   9.677   7.822
18302SOL    HW154930   3.486   9.601   7.886
18302SOL    HW254931   3.436   9.754   7.862
18303SOL     OW54932   2.885  10.076   8.414
18303SOL    HW154933   2.900  10.097   8.510
18303SOL    HW254934   2.855   9.981   8.405
18304SOL     OW54935   2.842  10.883   9.148
18304SOL    HW154936   2.822  10.927   9.060
18304SOL    HW254937   2.881  10.792   9.132
18305SOL     OW54938   3.721  10.828   9.053
18305SOL    HW154939   3.735  10.855   8.958
18305SOL    HW254940   3.804  10.850   9.106
18306SOL     OW54941   2.212  10.208   9.252
18306SOL    HW154942   2.288  10.252   9.300
18306SOL    HW254943   2.247  10.161   9.170
18307SOL     OW54944   3.402   9.584   7.573
18307SOL    HW154945   3.341   9.509   7.596
18307SOL    HW254946   3.424   9.636   7.656
18308SOL     OW54947   3.165  10.148   7.490
18308SOL    HW154948   3.199  10.055   7.505
18308SOL    HW254949   3.183  10.175   7.395
18309SOL     OW54950   2.930  10.643   8.297
18309SOL    HW154951   2.937  10.559   8.242
18309SOL    HW254952   2.992  10.712   8.261
18310SOL     OW54953   2.181  10.120   8.397
18310SOL    HW154954   2.274  10.156   8.402
18310SOL    HW254955   2.175  10.035   8.449
18311SOL     OW54956   2.201   9.819   8.454
18311SOL    HW154957   2.149   9.736   8.437
18311SOL    HW254958   2.278   9.824   8.390
18312SOL     OW54959   3.000   9.690   9.126
18312SOL    HW154960   2.955   9.753   9.190
18312SOL    HW254961   3.093   9.721   9.109
18313SOL     OW54962   3.022   9.517   8.925
18313SOL    HW154963   3.022   9.581   9.002
18313SOL    HW254964   3.050   9.565   8.842
18314SOL     OW54965   1.870  10.636   7.648
18314SOL    HW154966   1.777  10.657   7.617
18314SOL    HW254967   1.880  10.537   7.661
18315SOL     OW54968   1.950  11.111   8.375
18315SOL    HW154969   1.908  11.025   8.348
18315SOL    HW254970   2.044  11.114   8.341
18316SOL     OW54971   2.366  10.878   8.358
18316SOL    HW154972   2.432  10.952   8.367
18316SOL    HW254973   2.410  10.799   8.316
18317SOL     OW54974   2.864  10.106   8.686
18317SOL    HW154975   2.905  10.074   8.772
18317SOL    HW254976   2.768  10.079   8.683
18318SOL     OW54977   1.902   9.854   8.562
18318SOL    HW154978   1.987   9.821   8.521
18318SOL    HW254979   1.915   9.869   8.660
18319SOL     OW54980   2.051   9.830   9.170
18319SOL    HW154981   2.110   9.790   9.100
18319SOL    HW254982   1.993   9.901   9.129
18320SOL     OW54983   3.231  10.260   9.108
18320SOL    HW154984   3.270  10.349   9.128
18320SOL    HW254985   3.241  10.240   9.011
18321SOL     OW54986   2.677   9.882   7.773
18321SOL    HW154987   2.684   9.793   7.727
18321SOL    HW254988   2.583   9.916   7.765
18322SOL     OW54989   3.519   9.914   8.654
18322SOL    HW154990   3.481   9.845   8.716
18322SOL    HW254991   3.601   9.878   8.610
18323SOL     OW54992   2.114  10.874   9.192
18323SOL    HW154993   2.084  10.931   9.268
18323SOL    HW254994   2.107  10.777   9.218
18324SOL     OW54995   2.533   9.774   8.717
18324SOL    HW154996   2.499   9.685   8.687
18324SOL    HW254997   2.559   9.828   8.637
18325SOL     OW54998   2.792  10.988   8.913
18325SOL    HW154999   2.768  10.970   8.818
18325SOL    HW255000   2.822  11.082   8.923
18326SOL     OW55001   2.335   9.810   7.639
18326SOL    HW155002   2.396   9.890   7.643
18326SOL    HW255003   2.240   9.841   7.646
18327SOL     OW55004   2.021  10.447   8.914
18327SOL    HW155005   2.043  10.386   8.990
18327SOL    HW255006   2.031  10.398   8.828
18328SOL     OW55007   3.209  10.369   8.682
18328SOL    HW155008   3.233  10.306   8.608
18328SOL    HW255009   3.119  10.409   8.664
18329SOL     OW55010   3.164  10.165   7.757
18329SOL    HW155011   3.078  10.134   7.799
18329SOL    HW255012   3.160  10.151   7.658
18330SOL     OW55013   3.621  11.057   8.602
18330SOL    HW155014   3.682  11.087   8.529
18330SOL    HW255015   3.583  10.968   8.580
18331SOL     OW55016   3.114  11.041   8.576
18331SOL    HW155017   3.198  11.046   8.522
18331SOL    HW255018   3.091  10.945   8.594
18332SOL     OW55019   1.945  10.568   8.470
18332SOL    HW155020   1.940  10.567   8.570
18332SOL    HW255021   1.862  10.527   8.432
18333SOL     OW55022   2.550  10.972   9.164
18333SOL    HW155023   2.494  11.053   9.173
18333SOL    HW255024   2.602  10.976   9.078
18334SOL     OW55025   3.588   9.445   7.971
18334SOL    HW155026   3.661   9.428   7.904
18334SOL    HW255027   3.557   9.358   8.009
18335SOL     OW55028   3.250  10.883   7.925
18335SOL    HW155029   3.317  10.895   7.851
18335SOL    HW255030   3.210  10.972   7.948
18336SOL     OW55031   1.992  11.104   9.299
18336SOL    HW155032   1.951  11.030   9.352
18336SOL    HW255033   2.056  11.155   9.357
18337SOL     OW55034   3.142  10.237   8.120
18337SOL    HW155035   3.202  10.156   8.122
18337SOL    HW255036   3.182  10.306   8.060
18338SOL     OW55037   2.692  10.583   8.870
18338SOL    HW155038   2.687  10.616   8.965
18338SOL    HW255039   2.606  10.602   8.824
18339SOL     OW55040   2.534  10.926   7.602
18339SOL    HW155041   2.543  10.936   7.503
18339SOL    HW255042   2.494  10.837   7.623
18340SOL     OW55043   3.512  11.030   8.842
18340SOL    HW155044   3.565  11.040   8.758
18340SOL    HW255045   3.485  11.120   8.876
18341SOL     OW55046   3.703   9.485   8.411
18341SOL    HW155047   3.742   9.400   8.375
18341SOL    HW255048   3.605   9.487   8.392
18342SOL     OW55049   2.125   9.636   8.168
18342SOL    HW155050   2.046   9.687   8.134
18342SOL    HW255051   2.116   9.621   8.266
18343SOL     OW55052   3.056  10.922   7.479
18343SOL    HW155053   3.062  10.829   7.516
18343SOL    HW255054   2.997  10.922   7.399
18344SOL     OW55055   2.684  10.312   8.820
18344SOL    HW155056   2.724  10.311   8.728
18344SOL    HW255057   2.694  10.404   8.860
18345SOL     OW55058   2.778  10.220   7.739
18345SOL    HW155059   2.841  10.258   7.671
18345SOL    HW255060   2.818  10.137   7.778
18346SOL     OW55061   3.366  10.917   7.492
18346SOL    HW155062   3.274  10.954   7.499
18346SOL    HW255063   3.404  10.937   7.402
18347SOL     OW55064   2.234  10.598   8.938
18347SOL    HW155065   2.221  10.691   8.904
18347SOL    HW255066   2.150  10.546   8.925
18348SOL     OW55067   3.476  10.602   8.737
18348SOL    HW155068   3.536  10.605   8.817
18348SOL    HW255069   3.401  10.666   8.750
18349SOL     OW55070   2.901  10.408   8.144
18349SOL    HW155071   2.831  10.361   8.198
18349SOL    HW255072   2.960  10.340   8.101
18350SOL     OW55073   2.876   9.546   8.419
18350SOL    HW155074   2.868   9.510   8.326
18350SOL    HW255075   2.874   9.470   8.484
18351SOL     OW55076   2.452  10.797   7.939
18351SOL    HW155077   2.494  10.739   7.869
18351SOL    HW255078   2.408  10.876   7.895
18352SOL     OW55079   3.571   9.695   8.829
18352SOL    HW155080   3.644   9.764   8.833
18352SOL    HW255081   3.599   9.620   8.770
18353SOL     OW55082   2.117  10.658   7.738
18353SOL    HW155083   2.021  10.659   7.711
18353SOL    HW255084   2.129  10.711   7.822
18354SOL     OW55085   1.967  10.323   9.174
18354SOL    HW155086   1.890  10.290   9.228
18354SOL    HW255087   2.052  10.293   9.216
18355SOL     OW55088   2.534   9.513   8.937
18355SOL    HW155089   2.624   9.497   8.897
18355SOL    HW255090   2.542   9.518   9.036
18356SOL     OW55091   1.937   9.655   7.481
18356SOL    HW155092   1.845   9.627   7.452
18356SOL    HW255093   1.968   9.732   7.425
18357SOL     OW55094   3.302  10.166   8.846
18357SOL    HW155095   3.245  10.218   8.783
18357SOL    HW255096   3.398  10.178   8.822
18358SOL     OW55097   1.934   9.476   7.766
18358SOL    HW155098   1.917   9.559   7.712
18358SOL    HW255099   2.024   9.439   7.744
18359SOL     OW55100   3.045  10.645   7.567
18359SOL    HW155101   2.946  10.634   7.569
18359SOL    HW255102   3.079  10.660   7.660
18360SOL     OW55103   2.475  10.152   8.879
18360SOL    HW155104   2.531  10.233   8.862
18360SOL    HW255105   2.534  10.072   8.882
18361SOL     OW55106   3.355  11.077   8.407
18361SOL    HW155107   3.388  11.141   8.338
18361SOL    HW255108   3.421  11.071   8.482
18362SOL     OW55109   2.578   9.875   9.156
18362SOL    HW155110   2.597   9.940   9.230
18362SOL    HW255111   2.638   9.795   9.165
18363SOL     OW55112   3.312  10.530   9.081
18363SOL    HW155113   3.303  10.520   9.180
18363SOL    HW255114   3.408  10.523   9.055
18364SOL     OW55115   2.252  11.051   9.008
18364SOL    HW155116   2.161  11.092   9.006
18364SOL    HW255117   2.245  10.957   9.040
18365SOL     OW55118   3.536  10.193   8.702
18365SOL    HW155119   3.509  10.104   8.665
18365SOL    HW255120   3.537  10.261   8.629
18366SOL     OW55121   3.087   9.635   7.897
18366SOL    HW155122   3.152   9.561   7.886
18366SOL    HW255123   3.107   9.685   7.981
18367SOL     OW55124   2.456  10.055   8.100
18367SOL    HW155125   2.506  10.140   8.081
18367SOL    HW255126   2.368  10.057   8.052
18368SOL     OW55127   3.639   9.652   9.090
18368SOL    HW155128   3.622   9.683   8.996
18368SOL    HW255129   3.555   9.615   9.128
18369SOL     OW55130   3.592  10.244   8.965
18369SOL    HW155131   3.630  10.335   8.980
18369SOL    HW255132   3.584  10.227   8.866
18370SOL     OW55133   2.721  10.684   7.464
18370SOL    HW155134   2.675  10.699   7.552
18370SOL    HW255135   2.765  10.769   7.434
18371SOL     OW55136   2.523  11.100   8.401
18371SOL    HW155137   2.477  11.188   8.388
18371SOL    HW255138   2.622  11.112   8.394
18372SOL     OW55139   2.721  10.266   8.309
18372SOL    HW155140   2.775  10.197   8.357
18372SOL    HW255141   2.689  10.335   8.375
18373SOL     OW55142   2.945  10.294   7.535
18373SOL    HW155143   2.922  10.347   7.453
18373SOL    HW255144   3.026  10.238   7.516
18374SOL     OW55145   3.723  10.879   8.299
18374SOL    HW155146   3.652  10.867   8.229
18374SOL    HW255147   3.724  10.800   8.359
18375SOL     OW55148   2.083  10.624   9.292
18375SOL    HW155149   2.018  10.551   9.271
18375SOL    HW255150   2.087  10.638   9.390
18376SOL     OW55151   1.941  10.550   8.101
18376SOL    HW155152   1.940  10.503   8.189
18376SOL    HW255153   2.023  10.522   8.050
18377SOL     OW55154   2.534  10.701   9.072
18377SOL    HW155155   2.456  10.651   9.110
18377SOL    HW255156   2.531  10.796   9.103
18378SOL     OW55157   3.686   9.502   8.675
18378SOL    HW155158   3.682   9.412   8.719
18378SOL    HW255159   3.689   9.491   8.576
18379SOL     OW55160   2.290   9.734   7.968
18379SOL    HW155161   2.320   9.662   7.906
18379SOL    HW255162   2.251   9.694   8.051
18380SOL     OW55163   3.567  10.797   8.552
18380SOL    HW155164   3.474  10.772   8.525
18380SOL    HW255165   3.593  10.747   8.634
18381SOL     OW55166   2.179   9.857   8.728
18381SOL    HW155167   2.217   9.798   8.800
18381SOL    HW255168   2.219   9.831   8.640
18382SOL     OW55169   2.674  10.896   8.135
18382SOL    HW155170   2.706  10.906   8.041
18382SOL    HW255171   2.595  10.834   8.137
18383SOL     OW55172   3.286   9.524   8.560
18383SOL    HW155173   3.338   9.459   8.615
18383SOL    HW255174   3.237   9.587   8.621
18384SOL     OW55175   2.863   9.344   8.602
18384SOL    HW155176   2.800   9.272   8.571
18384SOL    HW255177   2.956   9.308   8.602
18385SOL     OW55178   2.632  10.640   7.749
18385SOL    HW155179   2.586  10.553   7.766
18385SOL    HW255180   2.723  10.637   7.790
18386SOL     OW55181   2.480  10.877   8.732
18386SOL    HW155182   2.475  10.959   8.789
18386SOL    HW255183   2.569  10.874   8.687
18387SOL     OW55184   3.214   9.362   7.616
18387SOL    HW155185   3.249   9.321   7.532
18387SOL    HW255186   3.124   9.324   7.636
18388SOL     OW55187   3.162   9.763   8.139
18388SOL    HW155188   3.103   9.843   8.143
18388SOL    HW255189   3.177   9.728   8.232
18389SOL     OW55190   3.455   9.531   8.330
18389SOL    HW155191   3.371   9.530   8.384
18389SOL    HW255192   3.457   9.614   8.274
18390SOL     OW55193   1.901  10.387   7.748
18390SOL    HW155194   2.000  10.376   7.739
18390SOL    HW255195   1.861  10.301   7.780
18391SOL     OW55196   2.737  10.956   7.785
18391SOL    HW155197   2.660  10.921   7.731
18391SOL    HW255198   2.705  11.027   7.847
18392SOL     OW55199   2.092   9.938   9.423
18392SOL    HW155200   1.999   9.936   9.460
18392SOL    HW255201   2.093   9.899   9.331
18393SOL     OW55202   2.087   9.585  10.306
18393SOL    HW155203   2.122   9.568  10.398
18393SOL    HW255204   1.999   9.540  10.294
18394SOL     OW55205   1.881   9.678   9.957
18394SOL    HW155206   1.799   9.721   9.996
18394SOL    HW255207   1.853   9.605   9.894
18395SOL     OW55208   2.431  10.585  10.475
18395SOL    HW155209   2.338  10.578  10.438
18395SOL    HW255210   2.442  10.674  10.519
18396SOL     OW55211   3.417  10.821  10.013
18396SOL    HW155212   3.360  10.805  10.094
18396SOL    HW255213   3.358  10.831   9.933
18397SOL     OW55214   2.997  10.013  10.027
18397SOL    HW155215   3.054  10.091  10.002
18397SOL    HW255216   2.937  10.039  10.103
18398SOL     OW55217   3.617   9.917   9.541
18398SOL    HW155218   3.605   9.904   9.442
18398SOL    HW255219   3.587   9.836   9.590
18399SOL     OW55220   2.630  10.454  10.333
18399SOL    HW155221   2.552  10.471  10.393
18399SOL    HW255222   2.664  10.541  10.297
18400SOL     OW55223   2.712  10.108  11.133
18400SOL    HW155224   2.708  10.184  11.198
18400SOL    HW255225   2.734  10.144  11.042
18401SOL     OW55226   2.547  10.322   9.975
18401SOL    HW155227   2.616  10.306  10.045
18401SOL    HW255228   2.474  10.379  10.013
18402SOL     OW55229   2.548  10.471  11.113
18402SOL    HW155230   2.608  10.550  11.127
18402SOL    HW255231   2.462  10.502  11.072
18403SOL     OW55232   2.197  10.745  10.371
18403SOL    HW155233   2.119  10.714  10.318
18403SOL    HW255234   2.255  10.803  10.314
18404SOL     OW55235   3.322  10.815  10.649
18404SOL    HW155236   3.346  10.909  10.675
18404SOL    HW255237   3.306  10.761  10.731
18405SOL     OW55238   2.300   9.702  10.809
18405SOL    HW155239   2.382   9.646  10.818
18405SOL    HW255240   2.219   9.644  10.813
18406SOL     OW55241   3.465   9.757  10.047
18406SOL    HW155242   3.391   9.803   9.997
18406SOL    HW255243   3.516   9.825  10.100
18407SOL     OW55244   2.093  11.023   9.793
18407SOL    HW155245   2.127  11.100   9.847
18407SOL    HW255246   2.137  11.023   9.703
18408SOL     OW55247   2.989  10.651  11.000
18408SOL    HW155248   3.036  10.651  11.088
18408SOL    HW255249   2.941  10.564  10.989
18409SOL     OW55250   2.092  10.744   9.848
18409SOL    HW155251   2.066  10.840   9.848
18409SOL    HW255252   2.021  10.690   9.893
18410SOL     OW55253   2.102  10.401  10.196
18410SOL    HW155254   2.116  10.317  10.248
18410SOL    HW255255   2.047  10.465  10.251
18411SOL     OW55256   2.482  11.096  10.749
18411SOL    HW155257   2.390  11.079  10.784
18411SOL    HW255258   2.510  11.188  10.775
18412SOL     OW55259   2.468  10.274   9.433
18412SOL    HW155260   2.475  10.358   9.379
18412SOL    HW255261   2.514  10.287   9.521
18413SOL     OW55262   3.456   9.424  10.790
18413SOL    HW155263   3.438   9.491  10.718
18413SOL    HW255264   3.453   9.470  10.879
18414SOL     OW55265   1.984   9.953   9.873
18414SOL    HW155266   1.939   9.865   9.890
18414SOL    HW255267   1.983  10.007   9.957
18415SOL     OW55268   3.704  11.077   9.669
18415SOL    HW155269   3.758  11.048   9.749
18415SOL    HW255270   3.734  11.167   9.640
18416SOL     OW55271   1.889  10.906   9.427
18416SOL    HW155272   1.870  10.810   9.448
18416SOL    HW255273   1.856  10.964   9.502
18417SOL     OW55274   3.551  10.232   9.922
18417SOL    HW155275   3.646  10.203   9.930
18417SOL    HW255276   3.543  10.297   9.847
18418SOL     OW55277   3.503  10.418   9.742
18418SOL    HW155278   3.589  10.420   9.690
18418SOL    HW255279   3.517  10.465   9.830
18419SOL     OW55280   1.975  10.047  10.907
18419SOL    HW155281   2.063  10.034  10.952
18419SOL    HW255282   1.962  10.144  10.885
18420SOL     OW55283   2.475  10.675  10.036
18420SOL    HW155284   2.426  10.588  10.045
18420SOL    HW255285   2.452  10.718   9.949
18421SOL     OW55286   3.155  10.538  10.733
18421SOL    HW155287   3.192  10.465  10.675
18421SOL    HW255288   3.207  10.543  10.818
18422SOL     OW55289   2.671   9.314   9.812
18422SOL    HW155290   2.711   9.405   9.803
18422SOL    HW255291   2.571   9.322   9.818
18423SOL     OW55292   2.059  10.286  10.574
18423SOL    HW155293   2.148  10.241  10.560
18423SOL    HW255294   1.986  10.221  10.555
18424SOL     OW55295   3.387  10.309   9.500
18424SOL    HW155296   3.324  10.233   9.513
18424SOL    HW255297   3.435  10.327   9.586
18425SOL     OW55298   3.049  11.102  10.926
18425SOL    HW155299   3.073  11.162  10.850
18425SOL    HW255300   3.056  11.007  10.896
18426SOL     OW55301   2.179   9.561  11.111
18426SOL    HW155302   2.250   9.632  11.117
18426SOL    HW255303   2.091   9.600  11.139
18427SOL     OW55304   3.328  10.727  10.263
18427SOL    HW155305   3.269  10.733  10.343
18427SOL    HW255306   3.313  10.639  10.217
18428SOL     OW55307   3.529  11.024   9.882
18428SOL    HW155308   3.488  11.001   9.794
18428SOL    HW255309   3.511  10.950   9.947
18429SOL     OW55310   2.460  10.039   9.580
18429SOL    HW155311   2.484  10.108   9.512
18429SOL    HW255312   2.382  10.072   9.634
18430SOL     OW55313   3.143   9.655  10.254
18430SOL    HW155314   3.057   9.605  10.241
18430SOL    HW255315   3.205   9.601  10.310
18431SOL     OW55316   3.438  10.972   9.617
18431SOL    HW155317   3.527  11.018   9.620
18431SOL    HW255318   3.417  10.948   9.522
18432SOL     OW55319   2.669   9.915  10.775
18432SOL    HW155320   2.622   9.912  10.864
18432SOL    HW255321   2.618   9.860  10.709
18433SOL     OW55322   3.256   9.779  10.984
18433SOL    HW155323   3.236   9.822  11.072
18433SOL    HW255324   3.334   9.717  10.993
18434SOL     OW55325   2.835  10.200  10.882
18434SOL    HW155326   2.881  10.116  10.853
18434SOL    HW255327   2.779  10.234  10.807
18435SOL     OW55328   2.853   9.720  10.552
18435SOL    HW155329   2.776   9.754  10.606
18435SOL    HW255330   2.819   9.669  10.473
18436SOL     OW55331   2.903  10.011   9.739
18436SOL    HW155332   2.929  10.007   9.835
18436SOL    HW255333   2.818   9.960   9.725
18437SOL     OW55334   1.938  10.121  10.099
18437SOL    HW155335   2.037  10.109  10.108
18437SOL    HW255336   1.914  10.216  10.120
18438SOL     OW55337   1.992  11.131  10.881
18438SOL    HW155338   1.982  11.116  10.980
18438SOL    HW255339   1.906  11.167  10.845
18439SOL     OW55340   2.727   9.658   9.505
18439SOL    HW155341   2.786   9.721   9.456
18439SOL    HW255342   2.746   9.564   9.476
18440SOL     OW55343   3.581   9.895  11.141
18440SOL    HW155344   3.555   9.984  11.105
18440SOL    HW255345   3.579   9.827  11.068
18441SOL     OW55346   3.224  10.454   9.855
18441SOL    HW155347   3.307  10.425   9.807
18441SOL    HW255348   3.175  10.521   9.799
18442SOL     OW55349   2.412   9.506  10.195
18442SOL    HW155350   2.407   9.501  10.295
18442SOL    HW255351   2.414   9.602  10.166
18443SOL     OW55352   2.870  10.766   9.787
18443SOL    HW155353   2.824  10.838   9.735
18443SOL    HW255354   2.866  10.786   9.885
18444SOL     OW55355   2.213  11.111  10.163
18444SOL    HW155356   2.263  11.025  10.169
18444SOL    HW255357   2.278  11.188  10.160
18445SOL     OW55358   3.657  10.376  10.183
18445SOL    HW155359   3.595  10.361  10.107
18445SOL    HW255360   3.605  10.387  10.268
18446SOL     OW55361   3.089  10.860  10.816
18446SOL    HW155362   3.095  10.783  10.880
18446SOL    HW255363   3.037  10.834  10.736
18447SOL     OW55364   2.183  10.253   9.552
18447SOL    HW155365   2.265  10.292   9.510
18447SOL    HW255366   2.156  10.171   9.503
18448SOL     OW55367   3.320  10.045  10.038
18448SOL    HW155368   3.315   9.980  10.113
18448SOL    HW255369   3.400  10.104  10.051
18449SOL     OW55370   2.323  10.576  11.037
18449SOL    HW155371   2.273  10.577  10.951
18449SOL    HW255372   2.260  10.558  11.113
18450SOL     OW55373   2.973  11.086   9.547
18450SOL    HW155374   2.913  11.024   9.597
18450SOL    HW255375   3.004  11.042   9.462
18451SOL     OW55376   2.064   9.595  10.808
18451SOL    HW155377   1.984   9.655  10.795
18451SOL    HW255378   2.054   9.546  10.894
18452SOL     OW55379   3.494  10.687   9.391
18452SOL    HW155380   3.462  10.781   9.381
18452SOL    HW255381   3.418  10.624   9.379
18453SOL     OW55382   2.326  11.053   9.633
18453SOL    HW155383   2.359  11.092   9.719
18453SOL    HW255384   2.402  11.046   9.568
18454SOL     OW55385   3.262   9.417   9.736
18454SOL    HW155386   3.238   9.380   9.646
18454SOL    HW255387   3.361   9.433   9.740
18455SOL     OW55388   2.111  11.095  10.551
18455SOL    HW155389   2.168  11.030  10.601
18455SOL    HW255390   2.095  11.062  10.458
18456SOL     OW55391   2.802  11.008  10.214
18456SOL    HW155392   2.882  10.951  10.235
18456SOL    HW255393   2.753  10.968  10.137
18457SOL     OW55394   2.244  10.010   9.790
18457SOL    HW155395   2.289   9.920   9.787
18457SOL    HW255396   2.150   9.999   9.823
18458SOL     OW55397   3.409   9.532  11.039
18458SOL    HW155398   3.404   9.569  11.131
18458SOL    HW255399   3.337   9.463  11.027
18459SOL     OW55400   2.476   9.432   9.427
18459SOL    HW155401   2.574   9.410   9.434
18459SOL    HW255402   2.445   9.415   9.334
18460SOL     OW55403   2.643   9.574  11.059
18460SOL    HW155404   2.710   9.513  11.102
18460SOL    HW255405   2.570   9.593  11.124
18461SOL     OW55406   2.750  10.824  10.505
18461SOL    HW155407   2.727  10.799  10.411
18461SOL    HW255408   2.811  10.755  10.544
18462SOL     OW55409   3.213   9.900  10.743
18462SOL    HW155410   3.241   9.857  10.828
18462SOL    HW255411   3.238   9.996  10.744
18463SOL     OW55412   2.665  10.712  10.234
18463SOL    HW155413   2.755  10.726  10.192
18463SOL    HW255414   2.594  10.714  10.163
18464SOL     OW55415   2.784   9.813  10.209
18464SOL    HW155416   2.759   9.804  10.113
18464SOL    HW255417   2.832   9.731  10.240
18465SOL     OW55418   2.401   9.374   9.822
18465SOL    HW155419   2.320   9.375   9.880
18465SOL    HW255420   2.404   9.457   9.767
18466SOL     OW55421   3.296  10.498   9.351
18466SOL    HW155422   3.328  10.422   9.408
18466SOL    HW255423   3.204  10.525   9.381
18467SOL     OW55424   2.159   9.345   9.481
18467SOL    HW155425   2.208   9.429   9.460
18467SOL    HW255426   2.221   9.280   9.526
18468SOL     OW55427   2.797   9.546   9.790
18468SOL    HW155428   2.749   9.587   9.712
18468SOL    HW255429   2.896   9.544   9.771
18469SOL     OW55430   2.938   9.993  10.774
18469SOL    HW155431   2.858   9.932  10.777
18469SOL    HW255432   3.019   9.940  10.750
18470SOL     OW55433   3.089  10.880  10.103
18470SOL    HW155434   3.110  10.954  10.038
18470SOL    HW255435   3.157  10.880  10.176
18471SOL     OW55436   2.321  10.462  10.051
18471SOL    HW155437   2.250  10.435  10.116
18471SOL    HW255438   2.295  10.434   9.958
18472SOL     OW55439   3.133  11.107   9.901
18472SOL    HW155440   3.177  11.171   9.837
18472SOL    HW255441   3.083  11.159   9.971
18473SOL     OW55442   2.894   9.859   9.326
18473SOL    HW155443   2.853   9.941   9.287
18473SOL    HW255444   2.958   9.885   9.399
18474SOL     OW55445   1.940   9.866  10.696
18474SOL    HW155446   2.032   9.865  10.655
18474SOL    HW255447   1.934   9.940  10.763
18475SOL     OW55448   2.423   9.532  10.457
18475SOL    HW155449   2.461   9.448  10.494
18475SOL    HW255450   2.335   9.551  10.501
18476SOL     OW55451   2.728   9.764   9.952
18476SOL    HW155452   2.696   9.836   9.890
18476SOL    HW255453   2.752   9.683   9.899
18477SOL     OW55454   2.879   9.349  10.063
18477SOL    HW155455   2.807   9.354   9.994
18477SOL    HW255456   2.855   9.280  10.132
18478SOL     OW55457   3.291  10.483  10.177
18478SOL    HW155458   3.236  10.399  10.170
18478SOL    HW255459   3.317  10.512  10.085
18479SOL     OW55460   3.328   9.900  10.302
18479SOL    HW155461   3.298   9.805  10.309
18479SOL    HW255462   3.401   9.916  10.368
18480SOL     OW55463   3.719  10.143   9.687
18480SOL    HW155464   3.761  10.079   9.751
18480SOL    HW255465   3.681  10.092   9.609
18481SOL     OW55466   2.350  10.695   9.484
18481SOL    HW155467   2.263  10.680   9.531
18481SOL    HW255468   2.333  10.721   9.389
18482SOL     OW55469   3.526  10.590   9.967
18482SOL    HW155470   3.625  10.598   9.981
18482SOL    HW255471   3.481  10.674   9.998
18483SOL     OW55472   3.252   9.885   9.388
18483SOL    HW155473   3.198   9.864   9.469
18483SOL    HW255474   3.343   9.844   9.397
18484SOL     OW55475   2.389   9.566   9.638
18484SOL    HW155476   2.416   9.507   9.563
18484SOL    HW255477   2.389   9.661   9.607
18485SOL     OW55478   3.616  10.533  10.898
18485SOL    HW155479   3.707  10.494  10.885
18485SOL    HW255480   3.624  10.629  10.922
18486SOL     OW55481   2.926  10.657  10.650
18486SOL    HW155482   2.846  10.634  10.705
18486SOL    HW255483   3.009  10.631  10.699
18487SOL     OW55484   3.454  10.939  10.935
18487SOL    HW155485   3.481  10.973  10.845
18487SOL    HW255486   3.533  10.901  10.981
18488SOL     OW55487   2.973  10.505  10.410
18488SOL    HW155488   2.933  10.549  10.491
18488SOL    HW255489   2.932  10.542  10.327
18489SOL     OW55490   3.500  10.409  10.389
18489SOL    HW155491   3.505  10.490  10.448
18489SOL    HW255492   3.414  10.411  10.338
18490SOL     OW55493   2.777   9.399  10.712
18490SOL    HW155494   2.802   9.379  10.617
18490SOL    HW255495   2.849   9.455  10.754
18491SOL     OW55496   2.842  10.426  11.029
18491SOL    HW155497   2.743  10.432  11.039
18491SOL    HW255498   2.865  10.346  10.973
18492SOL     OW55499   2.567  10.360   9.678
18492SOL    HW155500   2.553  10.367   9.777
18492SOL    HW255501   2.651  10.309   9.660
18493SOL     OW55502   2.272  10.123  10.561
18493SOL    HW155503   2.358  10.135  10.611
18493SOL    HW255504   2.230  10.036  10.588
18494SOL     OW55505   3.136   9.696  10.572
18494SOL    HW155506   3.157   9.770  10.636
18494SOL    HW255507   3.047   9.713  10.529
18495SOL     OW55508   1.926  10.874  10.641
18495SOL    HW155509   1.880  10.956  10.607
18495SOL    HW255510   2.024  10.893  10.650
18496SOL     OW55511   2.229  10.410   9.811
18496SOL    HW155512   2.222  10.493   9.755
18496SOL    HW255513   2.233  10.330   9.751
18497SOL     OW55514   2.428   9.847  10.175
18497SOL    HW155515   2.440   9.913  10.101
18497SOL    HW255516   2.474   9.881  10.258
18498SOL     OW55517   3.114  10.658   9.698
18498SOL    HW155518   3.164  10.735   9.738
18498SOL    HW255519   3.019  10.660   9.730
18499SOL     OW55520   3.134  10.755  10.452
18499SOL    HW155521   3.181  10.768  10.539
18499SOL    HW255522   3.068  10.681  10.461
18500SOL     OW55523   3.444   9.949   9.782
18500SOL    HW155524   3.413  10.010   9.855
18500SOL    HW255525   3.494  10.001   9.713
18501SOL     OW55526   2.216  10.820  10.639
18501SOL    HW155527   2.195  10.776  10.552
18501SOL    HW255528   2.313  10.846  10.642
18502SOL     OW55529   2.264  10.061  10.908
18502SOL    HW155530   2.332  10.116  10.861
18502SOL    HW255531   2.304   9.973  10.935
18503SOL     OW55532   3.449  10.089  10.980
18503SOL    HW155533   3.357  10.127  10.975
18503SOL    HW255534   3.509  10.136  10.915
18504SOL     OW55535   2.875   9.415  11.080
18504SOL    HW155536   2.881   9.500  11.028
18504SOL    HW255537   2.907   9.339  11.023
18505SOL     OW55538   2.366   9.360  11.050
18505SOL    HW155539   2.324   9.303  10.980
18505SOL    HW255540   2.300   9.429  11.082
18506SOL     OW55541   2.435  10.180  10.339
18506SOL    HW155542   2.479  10.269  10.330
18506SOL    HW255543   2.372  10.180  10.416
18507SOL     OW55544   3.222  10.172  10.355
18507SOL    HW155545   3.147  10.172  10.289
18507SOL    HW255546   3.259  10.080  10.364
18508SOL     OW55547   3.071   9.835   9.585
18508SOL    HW155548   3.084   9.751   9.639
18508SOL    HW255549   3.042   9.909   9.645
18509SOL     OW55550   2.169   9.523  10.541
18509SOL    HW155551   2.146   9.560  10.631
18509SOL    HW255552   2.139   9.428  10.535
18510SOL     OW55553   1.899  10.620  10.592
18510SOL    HW155554   1.952  10.571  10.660
18510SOL    HW255555   1.921  10.718  10.597
18511SOL     OW55556   2.594   9.944  10.374
18511SOL    HW155557   2.653   9.918  10.298
18511SOL    HW255558   2.566  10.040  10.363
18512SOL     OW55559   3.590  10.245  11.164
18512SOL    HW155560   3.544  10.238  11.075
18512SOL    HW255561   3.528  10.289  11.230
18513SOL     OW55562   2.169   9.373   9.928
18513SOL    HW155563   2.158   9.467   9.961
18513SOL    HW255564   2.164   9.310  10.005
18514SOL     OW55565   3.484   9.677   9.684
18514SOL    HW155566   3.486   9.601   9.748
18514SOL    HW255567   3.436   9.754   9.724
18515SOL     OW55568   2.885  10.076  10.276
18515SOL    HW155569   2.900  10.097  10.372
18515SOL    HW255570   2.855   9.981  10.267
18516SOL     OW55571   2.842  10.883  11.010
18516SOL    HW155572   2.822  10.927  10.922
18516SOL    HW255573   2.881  10.792  10.994
18517SOL     OW55574   3.721  10.828  10.915
18517SOL    HW155575   3.735  10.855  10.820
18517SOL    HW255576   3.804  10.850  10.968
18518SOL     OW55577   2.212  10.208  11.114
18518SOL    HW155578   2.288  10.252  11.162
18518SOL    HW255579   2.247  10.161  11.032
18519SOL     OW55580   3.402   9.584   9.435
18519SOL    HW155581   3.341   9.509   9.458
18519SOL    HW255582   3.424   9.636   9.518
18520SOL     OW55583   3.165  10.148   9.352
18520SOL    HW155584   3.199  10.055   9.367
18520SOL    HW255585   3.183  10.175   9.257
18521SOL     OW55586   2.930  10.643  10.159
18521SOL    HW155587   2.937  10.559  10.104
18521SOL    HW255588   2.992  10.712  10.123
18522SOL     OW55589   2.181  10.120  10.259
18522SOL    HW155590   2.274  10.156  10.264
18522SOL    HW255591   2.175  10.035  10.311
18523SOL     OW55592   2.201   9.819  10.316
18523SOL    HW155593   2.149   9.736  10.299
18523SOL    HW255594   2.278   9.824  10.252
18524SOL     OW55595   3.000   9.690  10.988
18524SOL    HW155596   2.955   9.753  11.052
18524SOL    HW255597   3.093   9.721  10.971
18525SOL     OW55598   3.022   9.517  10.787
18525SOL    HW155599   3.022   9.581  10.864
18525SOL    HW255600   3.050   9.565  10.704
18526SOL     OW55601   1.870  10.636   9.510
18526SOL    HW155602   1.777  10.657   9.479
18526SOL    HW255603   1.880  10.537   9.523
18527SOL     OW55604   1.950  11.111  10.237
18527SOL    HW155605   1.908  11.025  10.210
18527SOL    HW255606   2.044  11.114  10.203
18528SOL     OW55607   2.366  10.878  10.220
18528SOL    HW155608   2.432  10.952  10.229
18528SOL    HW255609   2.410  10.799  10.178
18529SOL     OW55610   2.864  10.106  10.548
18529SOL    HW155611   2.905  10.074  10.634
18529SOL    HW255612   2.768  10.079  10.545
18530SOL     OW55613   1.902   9.854  10.424
18530SOL    HW155614   1.987   9.821  10.383
18530SOL    HW255615   1.915   9.869  10.522
18531SOL     OW55616   2.051   9.830  11.032
18531SOL    HW155617   2.110   9.790  10.962
18531SOL    HW255618   1.993   9.901  10.991
18532SOL     OW55619   3.231  10.260  10.970
18532SOL    HW155620   3.270  10.349  10.990
18532SOL    HW255621   3.241  10.240  10.873
18533SOL     OW55622   2.677   9.882   9.635
18533SOL    HW155623   2.684   9.793   9.589
18533SOL    HW255624   2.583   9.916   9.627
18534SOL     OW55625   3.519   9.914  10.516
18534SOL    HW155626   3.481   9.845  10.578
18534SOL    HW255627   3.601   9.878  10.472
18535SOL     OW55628   2.114  10.874  11.054
18535SOL    HW155629   2.084  10.931  11.130
18535SOL    HW255630   2.107  10.777  11.080
18536SOL     OW55631   2.533   9.774  10.579
18536SOL    HW155632   2.499   9.685  10.549
18536SOL    HW255633   2.559   9.828  10.499
18537SOL     OW55634   2.792  10.988  10.775
18537SOL    HW155635   2.768  10.970  10.680
18537SOL    HW255636   2.822  11.082  10.785
18538SOL     OW55637   2.335   9.810   9.501
18538SOL    HW155638   2.396   9.890   9.505
18538SOL    HW255639   2.240   9.841   9.508
18539SOL     OW55640   2.021  10.447  10.776
18539SOL    HW155641   2.043  10.386  10.852
18539SOL    HW255642   2.031  10.398  10.690
18540SOL     OW55643   3.209  10.369  10.544
18540SOL    HW155644   3.233  10.306  10.470
18540SOL    HW255645   3.119  10.409  10.526
18541SOL     OW55646   3.164  10.165   9.619
18541SOL    HW155647   3.078  10.134   9.661
18541SOL    HW255648   3.160  10.151   9.520
18542SOL     OW55649   3.621  11.057  10.464
18542SOL    HW155650   3.682  11.087  10.391
18542SOL    HW255651   3.583  10.968  10.442
18543SOL     OW55652   3.114  11.041  10.438
18543SOL    HW155653   3.198  11.046  10.384
18543SOL    HW255654   3.091  10.945  10.456
18544SOL     OW55655   1.945  10.568  10.332
18544SOL    HW155656   1.940  10.567  10.432
18544SOL    HW255657   1.862  10.527  10.294
18545SOL     OW55658   2.550  10.972  11.026
18545SOL    HW155659   2.494  11.053  11.035
18545SOL    HW255660   2.602  10.976  10.940
18546SOL     OW55661   3.588   9.445   9.833
18546SOL    HW155662   3.661   9.428   9.766
18546SOL    HW255663   3.557   9.358   9.871
18547SOL     OW55664   3.250  10.883   9.787
18547SOL    HW155665   3.317  10.895   9.713
18547SOL    HW255666   3.210  10.972   9.810
18548SOL     OW55667   1.992  11.104  11.161
18548SOL    HW155668   1.951  11.030  11.214
18548SOL    HW255669   2.056  11.155  11.219
18549SOL     OW55670   3.142  10.237   9.982
18549SOL    HW155671   3.202  10.156   9.984
18549SOL    HW255672   3.182  10.306   9.922
18550SOL     OW55673   2.692  10.583  10.732
18550SOL    HW155674   2.687  10.616  10.827
18550SOL    HW255675   2.606  10.602  10.686
18551SOL     OW55676   2.534  10.926   9.464
18551SOL    HW155677   2.543  10.936   9.365
18551SOL    HW255678   2.494  10.837   9.485
18552SOL     OW55679   3.512  11.030  10.704
18552SOL    HW155680   3.565  11.040  10.620
18552SOL    HW255681   3.485  11.120  10.738
18553SOL     OW55682   3.703   9.485  10.273
18553SOL    HW155683   3.742   9.400  10.237
18553SOL    HW255684   3.605   9.487  10.254
18554SOL     OW55685   2.125   9.636  10.030
18554SOL    HW155686   2.046   9.687   9.996
18554SOL    HW255687   2.116   9.621  10.128
18555SOL     OW55688   3.056  10.922   9.341
18555SOL    HW155689   3.062  10.829   9.378
18555SOL    HW255690   2.997  10.922   9.261
18556SOL     OW55691   2.684  10.312  10.682
18556SOL    HW155692   2.724  10.311  10.590
18556SOL    HW255693   2.694  10.404  10.722
18557SOL     OW55694   2.778  10.220   9.601
18557SOL    HW155695   2.841  10.258   9.533
18557SOL    HW255696   2.818  10.137   9.640
18558SOL     OW55697   3.366  10.917   9.354
18558SOL    HW155698   3.274  10.954   9.361
18558SOL    HW255699   3.404  10.937   9.264
18559SOL     OW55700   2.234  10.598  10.800
18559SOL    HW155701   2.221  10.691  10.766
18559SOL    HW255702   2.150  10.546  10.787
18560SOL     OW55703   3.476  10.602  10.599
18560SOL    HW155704   3.536  10.605  10.679
18560SOL    HW255705   3.401  10.666  10.612
18561SOL     OW55706   2.901  10.408  10.006
18561SOL    HW155707   2.831  10.361  10.060
18561SOL    HW255708   2.960  10.340   9.963
18562SOL     OW55709   2.876   9.546  10.281
18562SOL    HW155710   2.868   9.510  10.188
18562SOL    HW255711   2.874   9.470  10.346
18563SOL     OW55712   2.452  10.797   9.801
18563SOL    HW155713   2.494  10.739   9.731
18563SOL    HW255714   2.408  10.876   9.757
18564SOL     OW55715   3.571   9.695  10.691
18564SOL    HW155716   3.644   9.764  10.695
18564SOL    HW255717   3.599   9.620  10.632
18565SOL     OW55718   2.117  10.658   9.600
18565SOL    HW155719   2.021  10.659   9.573
18565SOL    HW255720   2.129  10.711   9.684
18566SOL     OW55721   1.967  10.323  11.036
18566SOL    HW155722   1.890  10.290  11.090
18566SOL    HW255723   2.052  10.293  11.078
18567SOL     OW55724   2.534   9.513  10.799
18567SOL    HW155725   2.624   9.497  10.759
18567SOL    HW255726   2.542   9.518  10.898
18568SOL     OW55727   1.937   9.655   9.343
18568SOL    HW155728   1.845   9.627   9.314
18568SOL    HW255729   1.968   9.732   9.287
18569SOL     OW55730   3.302  10.166  10.708
18569SOL    HW155731   3.245  10.218  10.645
18569SOL    HW255732   3.398  10.178  10.684
18570SOL     OW55733   1.934   9.476   9.628
18570SOL    HW155734   1.917   9.559   9.574
18570SOL    HW255735   2.024   9.439   9.606
18571SOL     OW55736   3.045  10.645   9.429
18571SOL    HW155737   2.946  10.634   9.431
18571SOL    HW255738   3.079  10.660   9.522
18572SOL     OW55739   2.475  10.152  10.741
18572SOL    HW155740   2.531  10.233  10.724
18572SOL    HW255741   2.534  10.072  10.744
18573SOL     OW55742   3.355  11.077  10.269
18573SOL    HW155743   3.388  11.141  10.200
18573SOL    HW255744   3.421  11.071  10.344
18574SOL     OW55745   2.578   9.875  11.018
18574SOL    HW155746   2.597   9.940  11.092
18574SOL    HW255747   2.638   9.795  11.027
18575SOL     OW55748   3.312  10.530  10.943
18575SOL    HW155749   3.303  10.520  11.042
18575SOL    HW255750   3.408  10.523  10.917
18576SOL     OW55751   2.252  11.051  10.870
18576SOL    HW155752   2.161  11.092  10.868
18576SOL    HW255753   2.245  10.957  10.902
18577SOL     OW55754   3.536  10.193  10.564
18577SOL    HW155755   3.509  10.104  10.527
18577SOL    HW255756   3.537  10.261  10.491
18578SOL     OW55757   3.087   9.635   9.759
18578SOL    HW155758   3.152   9.561   9.748
18578SOL    HW255759   3.107   9.685   9.843
18579SOL     OW55760   2.456  10.055   9.962
18579SOL    HW155761   2.506  10.140   9.943
18579SOL    HW255762   2.368  10.057   9.914
18580SOL     OW55763   3.639   9.652  10.952
18580SOL    HW155764   3.622   9.683  10.858
18580SOL    HW255765   3.555   9.615  10.990
18581SOL     OW55766   3.592  10.244  10.827
18581SOL    HW155767   3.630  10.335  10.842
18581SOL    HW255768   3.584  10.227  10.728
18582SOL     OW55769   2.721  10.684   9.326
18582SOL    HW155770   2.675  10.699   9.414
18582SOL    HW255771   2.765  10.769   9.296
18583SOL     OW55772   2.523  11.100  10.263
18583SOL    HW155773   2.477  11.188  10.250
18583SOL    HW255774   2.622  11.112  10.256
18584SOL     OW55775   2.721  10.266  10.171
18584SOL    HW155776   2.775  10.197  10.219
18584SOL    HW255777   2.689  10.335  10.237
18585SOL     OW55778   2.945  10.294   9.397
18585SOL    HW155779   2.922  10.347   9.315
18585SOL    HW255780   3.026  10.238   9.378
18586SOL     OW55781   3.723  10.879  10.161
18586SOL    HW155782   3.652  10.867  10.091
18586SOL    HW255783   3.724  10.800  10.221
18587SOL     OW55784   2.083  10.624  11.154
18587SOL    HW155785   2.018  10.551  11.133
18587SOL    HW255786   2.087  10.638  11.252
18588SOL     OW55787   1.941  10.550   9.963
18588SOL    HW155788   1.940  10.503  10.051
18588SOL    HW255789   2.023  10.522   9.912
18589SOL     OW55790   2.534  10.701  10.934
18589SOL    HW155791   2.456  10.651  10.972
18589SOL    HW255792   2.531  10.796  10.965
18590SOL     OW55793   3.686   9.502  10.537
18590SOL    HW155794   3.682   9.412  10.581
18590SOL    HW255795   3.689   9.491  10.438
18591SOL     OW55796   2.290   9.734   9.830
18591SOL    HW155797   2.320   9.662   9.768
18591SOL    HW255798   2.251   9.694   9.913
18592SOL     OW55799   3.567  10.797  10.414
18592SOL    HW155800   3.474  10.772  10.387
18592SOL    HW255801   3.593  10.747  10.496
18593SOL     OW55802   2.179   9.857  10.590
18593SOL    HW155803   2.217   9.798  10.662
18593SOL    HW255804   2.219   9.831  10.502
18594SOL     OW55805   2.674  10.896   9.997
18594SOL    HW155806   2.706  10.906   9.903
18594SOL    HW255807   2.595  10.834   9.999
18595SOL     OW55808   3.286   9.524  10.422
18595SOL    HW155809   3.338   9.459  10.477
18595SOL    HW255810   3.237   9.587  10.483
18596SOL     OW55811   2.863   9.344  10.464
18596SOL    HW155812   2.800   9.272  10.433
18596SOL    HW255813   2.956   9.308  10.464
18597SOL     OW55814   2.632  10.640   9.611
18597SOL    HW155815   2.586  10.553   9.628
18597SOL    HW255816   2.723  10.637   9.652
18598SOL     OW55817   2.480  10.877  10.594
18598SOL    HW155818   2.475  10.959  10.651
18598SOL    HW255819   2.569  10.874  10.549
18599SOL     OW55820   3.214   9.362   9.478
18599SOL    HW155821   3.249   9.321   9.394
18599SOL    HW255822   3.124   9.324   9.498
18600SOL     OW55823   3.162   9.763  10.001
18600SOL    HW155824   3.103   9.843  10.005
18600SOL    HW255825   3.177   9.728  10.094
18601SOL     OW55826   3.455   9.531  10.192
18601SOL    HW155827   3.371   9.530  10.246
18601SOL    HW255828   3.457   9.614  10.136
18602SOL     OW55829   1.901  10.387   9.610
18602SOL    HW155830   2.000  10.376   9.601
18602SOL    HW255831   1.861  10.301   9.642
18603SOL     OW55832   2.737  10.956   9.647
18603SOL    HW155833   2.660  10.921   9.593
18603SOL    HW255834   2.705  11.027   9.709
18604SOL     OW55835   2.092   9.938  11.285
18604SOL    HW155836   1.999   9.936  11.322
18604SOL    HW255837   2.093   9.899  11.193
18605SOL     OW55838   2.087   9.585  12.168
18605SOL    HW155839   2.122   9.568  12.260
18605SOL    HW255840   1.999   9.540  12.156
18606SOL     OW55841   1.881   9.678  11.819
18606SOL    HW155842   1.799   9.721  11.858
18606SOL    HW255843   1.853   9.605  11.756
18607SOL     OW55844   2.431  10.585  12.337
18607SOL    HW155845   2.338  10.578  12.300
18607SOL    HW255846   2.442  10.674  12.381
18608SOL     OW55847   3.417  10.821  11.875
18608SOL    HW155848   3.360  10.805  11.956
18608SOL    HW255849   3.358  10.831  11.795
18609SOL     OW55850   2.997  10.013  11.889
18609SOL    HW155851   3.054  10.091  11.864
18609SOL    HW255852   2.937  10.039  11.965
18610SOL     OW55853   3.617   9.917  11.403
18610SOL    HW155854   3.605   9.904  11.304
18610SOL    HW255855   3.587   9.836  11.452
18611SOL     OW55856   2.630  10.454  12.195
18611SOL    HW155857   2.552  10.471  12.255
18611SOL    HW255858   2.664  10.541  12.159
18612SOL     OW55859   2.547  10.322  11.837
18612SOL    HW155860   2.616  10.306  11.907
18612SOL    HW255861   2.474  10.379  11.875
18613SOL     OW55862   2.197  10.745  12.233
18613SOL    HW155863   2.119  10.714  12.180
18613SOL    HW255864   2.255  10.803  12.176
18614SOL     OW55865   3.322  10.815  12.511
18614SOL    HW155866   3.346  10.909  12.537
18614SOL    HW255867   3.306  10.761  12.593
18615SOL     OW55868   2.300   9.702  12.671
18615SOL    HW155869   2.382   9.646  12.680
18615SOL    HW255870   2.219   9.644  12.675
18616SOL     OW55871   3.465   9.757  11.909
18616SOL    HW155872   3.391   9.803  11.859
18616SOL    HW255873   3.516   9.825  11.962
18617SOL     OW55874   2.093  11.023  11.655
18617SOL    HW155875   2.127  11.100  11.709
18617SOL    HW255876   2.137  11.023  11.565
18618SOL     OW55877   2.092  10.744  11.710
18618SOL    HW155878   2.066  10.840  11.710
18618SOL    HW255879   2.021  10.690  11.755
18619SOL     OW55880   2.102  10.401  12.058
18619SOL    HW155881   2.116  10.317  12.110
18619SOL    HW255882   2.047  10.465  12.113
18620SOL     OW55883   2.482  11.096  12.611
18620SOL    HW155884   2.390  11.079  12.646
18620SOL    HW255885   2.510  11.188  12.637
18621SOL     OW55886   2.468  10.274  11.295
18621SOL    HW155887   2.475  10.358  11.241
18621SOL    HW255888   2.514  10.287  11.383
18622SOL     OW55889   3.456   9.424  12.652
18622SOL    HW155890   3.438   9.491  12.580
18622SOL    HW255891   3.453   9.470  12.741
18623SOL     OW55892   1.984   9.953  11.735
18623SOL    HW155893   1.939   9.865  11.752
18623SOL    HW255894   1.983  10.007  11.819
18624SOL     OW55895   3.704  11.077  11.531
18624SOL    HW155896   3.758  11.048  11.611
18624SOL    HW255897   3.734  11.167  11.502
18625SOL     OW55898   1.889  10.906  11.289
18625SOL    HW155899   1.870  10.810  11.310
18625SOL    HW255900   1.856  10.964  11.364
18626SOL     OW55901   3.551  10.232  11.784
18626SOL    HW155902   3.646  10.203  11.792
18626SOL    HW255903   3.543  10.297  11.709
18627SOL     OW55904   3.503  10.418  11.604
18627SOL    HW155905   3.589  10.420  11.552
18627SOL    HW255906   3.517  10.465  11.692
18628SOL     OW55907   1.975  10.047  12.769
18628SOL    HW155908   2.063  10.034  12.814
18628SOL    HW255909   1.962  10.144  12.747
18629SOL     OW55910   2.475  10.675  11.898
18629SOL    HW155911   2.426  10.588  11.907
18629SOL    HW255912   2.452  10.718  11.811
18630SOL     OW55913   3.155  10.538  12.595
18630SOL    HW155914   3.192  10.465  12.537
18630SOL    HW255915   3.207  10.543  12.680
18631SOL     OW55916   2.671   9.314  11.674
18631SOL    HW155917   2.711   9.405  11.665
18631SOL    HW255918   2.571   9.322  11.680
18632SOL     OW55919   2.059  10.286  12.436
18632SOL    HW155920   2.148  10.241  12.422
18632SOL    HW255921   1.986  10.221  12.417
18633SOL     OW55922   3.387  10.309  11.362
18633SOL    HW155923   3.324  10.233  11.375
18633SOL    HW255924   3.435  10.327  11.448
18634SOL     OW55925   3.328  10.727  12.125
18634SOL    HW155926   3.269  10.733  12.205
18634SOL    HW255927   3.313  10.639  12.079
18635SOL     OW55928   3.529  11.024  11.744
18635SOL    HW155929   3.488  11.001  11.656
18635SOL    HW255930   3.511  10.950  11.809
18636SOL     OW55931   2.460  10.039  11.442
18636SOL    HW155932   2.484  10.108  11.374
18636SOL    HW255933   2.382  10.072  11.496
18637SOL     OW55934   3.143   9.655  12.116
18637SOL    HW155935   3.057   9.605  12.103
18637SOL    HW255936   3.205   9.601  12.172
18638SOL     OW55937   3.438  10.972  11.479
18638SOL    HW155938   3.527  11.018  11.482
18638SOL    HW255939   3.417  10.948  11.384
18639SOL     OW55940   2.669   9.915  12.637
18639SOL    HW155941   2.622   9.912  12.726
18639SOL    HW255942   2.618   9.860  12.571
18640SOL     OW55943   2.835  10.200  12.744
18640SOL    HW155944   2.881  10.116  12.715
18640SOL    HW255945   2.779  10.234  12.669
18641SOL     OW55946   2.853   9.720  12.414
18641SOL    HW155947   2.776   9.754  12.468
18641SOL    HW255948   2.819   9.669  12.335
18642SOL     OW55949   2.903  10.011  11.601
18642SOL    HW155950   2.929  10.007  11.697
18642SOL    HW255951   2.818   9.960  11.587
18643SOL     OW55952   1.938  10.121  11.961
18643SOL    HW155953   2.037  10.109  11.970
18643SOL    HW255954   1.914  10.216  11.982
18644SOL     OW55955   1.992  11.131  12.743
18644SOL    HW155956   1.982  11.116  12.842
18644SOL    HW255957   1.906  11.167  12.707
18645SOL     OW55958   2.727   9.658  11.367
18645SOL    HW155959   2.786   9.721  11.318
18645SOL    HW255960   2.746   9.564  11.338
18646SOL     OW55961   3.224  10.454  11.717
18646SOL    HW155962   3.307  10.425  11.669
18646SOL    HW255963   3.175  10.521  11.661
18647SOL     OW55964   2.412   9.506  12.057
18647SOL    HW155965   2.407   9.501  12.157
18647SOL    HW255966   2.414   9.602  12.028
18648SOL     OW55967   2.870  10.766  11.649
18648SOL    HW155968   2.824  10.838  11.597
18648SOL    HW255969   2.866  10.786  11.747
18649SOL     OW55970   2.213  11.111  12.025
18649SOL    HW155971   2.263  11.025  12.031
18649SOL    HW255972   2.278  11.188  12.022
18650SOL     OW55973   3.657  10.376  12.045
18650SOL    HW155974   3.595  10.361  11.969
18650SOL    HW255975   3.605  10.387  12.130
18651SOL     OW55976   3.089  10.860  12.678
18651SOL    HW155977   3.095  10.783  12.742
18651SOL    HW255978   3.037  10.834  12.598
18652SOL     OW55979   2.183  10.253  11.414
18652SOL    HW155980   2.265  10.292  11.372
18652SOL    HW255981   2.156  10.171  11.365
18653SOL     OW55982   3.320  10.045  11.900
18653SOL    HW155983   3.315   9.980  11.975
18653SOL    HW255984   3.400  10.104  11.913
18654SOL     OW55985   2.973  11.086  11.409
18654SOL    HW155986   2.913  11.024  11.459
18654SOL    HW255987   3.004  11.042  11.324
18655SOL     OW55988   2.064   9.595  12.670
18655SOL    HW155989   1.984   9.655  12.657
18655SOL    HW255990   2.054   9.546  12.756
18656SOL     OW55991   3.494  10.687  11.253
18656SOL    HW155992   3.462  10.781  11.243
18656SOL    HW255993   3.418  10.624  11.241
18657SOL     OW55994   2.326  11.053  11.495
18657SOL    HW155995   2.359  11.092  11.581
18657SOL    HW255996   2.402  11.046  11.430
18658SOL     OW55997   3.262   9.417  11.598
18658SOL    HW155998   3.238   9.380  11.508
18658SOL    HW255999   3.361   9.433  11.602
18659SOL     OW56000   2.111  11.095  12.413
18659SOL    HW156001   2.168  11.030  12.463
18659SOL    HW256002   2.095  11.062  12.320
18660SOL     OW56003   2.802  11.008  12.076
18660SOL    HW156004   2.882  10.951  12.097
18660SOL    HW256005   2.753  10.968  11.999
18661SOL     OW56006   2.244  10.010  11.652
18661SOL    HW156007   2.289   9.920  11.649
18661SOL    HW256008   2.150   9.999  11.685
18662SOL     OW56009   2.476   9.432  11.289
18662SOL    HW156010   2.574   9.410  11.296
18662SOL    HW256011   2.445   9.415  11.196
18663SOL     OW56012   2.750  10.824  12.367
18663SOL    HW156013   2.727  10.799  12.273
18663SOL    HW256014   2.811  10.755  12.406
18664SOL     OW56015   3.213   9.900  12.605
18664SOL    HW156016   3.241   9.857  12.690
18664SOL    HW256017   3.238   9.996  12.606
18665SOL     OW56018   2.665  10.712  12.096
18665SOL    HW156019   2.755  10.726  12.054
18665SOL    HW256020   2.594  10.714  12.025
18666SOL     OW56021   2.784   9.813  12.071
18666SOL    HW156022   2.759   9.804  11.975
18666SOL    HW256023   2.832   9.731  12.102
18667SOL     OW56024   2.401   9.374  11.684
18667SOL    HW156025   2.320   9.375  11.742
18667SOL    HW256026   2.404   9.457  11.629
18668SOL     OW56027   3.296  10.498  11.213
18668SOL    HW156028   3.328  10.422  11.270
18668SOL    HW256029   3.204  10.525  11.243
18669SOL     OW56030   2.159   9.345  11.343
18669SOL    HW156031   2.208   9.429  11.322
18669SOL    HW256032   2.221   9.280  11.388
18670SOL     OW56033   2.797   9.546  11.652
18670SOL    HW156034   2.749   9.587  11.574
18670SOL    HW256035   2.896   9.544  11.633
18671SOL     OW56036   2.938   9.993  12.636
18671SOL    HW156037   2.858   9.932  12.639
18671SOL    HW256038   3.019   9.940  12.612
18672SOL     OW56039   3.089  10.880  11.965
18672SOL    HW156040   3.110  10.954  11.900
18672SOL    HW256041   3.157  10.880  12.038
18673SOL     OW56042   2.321  10.462  11.913
18673SOL    HW156043   2.250  10.435  11.978
18673SOL    HW256044   2.295  10.434  11.820
18674SOL     OW56045   3.133  11.107  11.763
18674SOL    HW156046   3.177  11.171  11.699
18674SOL    HW256047   3.083  11.159  11.833
18675SOL     OW56048   2.894   9.859  11.188
18675SOL    HW156049   2.853   9.941  11.149
18675SOL    HW256050   2.958   9.885  11.261
18676SOL     OW56051   1.940   9.866  12.558
18676SOL    HW156052   2.032   9.865  12.517
18676SOL    HW256053   1.934   9.940  12.625
18677SOL     OW56054   2.423   9.532  12.319
18677SOL    HW156055   2.461   9.448  12.356
18677SOL    HW256056   2.335   9.551  12.363
18678SOL     OW56057   2.728   9.764  11.814
18678SOL    HW156058   2.696   9.836  11.752
18678SOL    HW256059   2.752   9.683  11.761
18679SOL     OW56060   2.879   9.349  11.925
18679SOL    HW156061   2.807   9.354  11.856
18679SOL    HW256062   2.855   9.280  11.994
18680SOL     OW56063   3.291  10.483  12.039
18680SOL    HW156064   3.236  10.399  12.032
18680SOL    HW256065   3.317  10.512  11.947
18681SOL     OW56066   3.328   9.900  12.164
18681SOL    HW156067   3.298   9.805  12.171
18681SOL    HW256068   3.401   9.916  12.230
18682SOL     OW56069   3.719  10.143  11.549
18682SOL    HW156070   3.761  10.079  11.613
18682SOL    HW256071   3.681  10.092  11.471
18683SOL     OW56072   2.350  10.695  11.346
18683SOL    HW156073   2.263  10.680  11.393
18683SOL    HW256074   2.333  10.721  11.251
18684SOL     OW56075   3.526  10.590  11.829
18684SOL    HW156076   3.625  10.598  11.843
18684SOL    HW256077   3.481  10.674  11.860
18685SOL     OW56078   3.252   9.885  11.250
18685SOL    HW156079   3.198   9.864  11.331
18685SOL    HW256080   3.343   9.844  11.259
18686SOL     OW56081   2.389   9.566  11.500
18686SOL    HW156082   2.416   9.507  11.425
18686SOL    HW256083   2.389   9.661  11.469
18687SOL     OW56084   3.616  10.533  12.760
18687SOL    HW156085   3.707  10.494  12.747
18687SOL    HW256086   3.624  10.629  12.784
18688SOL     OW56087   2.926  10.657  12.512
18688SOL    HW156088   2.846  10.634  12.567
18688SOL    HW256089   3.009  10.631  12.561
18689SOL     OW56090   2.973  10.505  12.272
18689SOL    HW156091   2.933  10.549  12.353
18689SOL    HW256092   2.932  10.542  12.189
18690SOL     OW56093   3.500  10.409  12.251
18690SOL    HW156094   3.505  10.490  12.310
18690SOL    HW256095   3.414  10.411  12.200
18691SOL     OW56096   2.777   9.399  12.574
18691SOL    HW156097   2.802   9.379  12.479
18691SOL    HW256098   2.849   9.455  12.616
18692SOL     OW56099   2.567  10.360  11.540
18692SOL    HW156100   2.553  10.367  11.639
18692SOL    HW256101   2.651  10.309  11.522
18693SOL     OW56102   2.272  10.123  12.423
18693SOL    HW156103   2.358  10.135  12.473
18693SOL    HW256104   2.230  10.036  12.450
18694SOL     OW56105   3.136   9.696  12.434
18694SOL    HW156106   3.157   9.770  12.498
18694SOL    HW256107   3.047   9.713  12.391
18695SOL     OW56108   1.926  10.874  12.503
18695SOL    HW156109   1.880  10.956  12.469
18695SOL    HW256110   2.024  10.893  12.512
18696SOL     OW56111   2.229  10.410  11.673
18696SOL    HW156112   2.222  10.493  11.617
18696SOL    HW256113   2.233  10.330  11.613
18697SOL     OW56114   2.428   9.847  12.037
18697SOL    HW156115   2.440   9.913  11.963
18697SOL    HW256116   2.474   9.881  12.120
18698SOL     OW56117   3.114  10.658  11.560
18698SOL    HW156118   3.164  10.735  11.600
18698SOL    HW256119   3.019  10.660  11.592
18699SOL     OW56120   3.134  10.755  12.314
18699SOL    HW156121   3.181  10.768  12.401
18699SOL    HW256122   3.068  10.681  12.323
18700SOL     OW56123   3.444   9.949  11.644
18700SOL    HW156124   3.413  10.010  11.717
18700SOL    HW256125   3.494  10.001  11.575
18701SOL     OW56126   2.216  10.820  12.501
18701SOL    HW156127   2.195  10.776  12.414
18701SOL    HW256128   2.313  10.846  12.504
18702SOL     OW56129   2.264  10.061  12.770
18702SOL    HW156130   2.332  10.116  12.723
18702SOL    HW256131   2.304   9.973  12.797
18703SOL     OW56132   3.449  10.089  12.842
18703SOL    HW156133   3.357  10.127  12.837
18703SOL    HW256134   3.509  10.136  12.777
18704SOL     OW56135   2.435  10.180  12.201
18704SOL    HW156136   2.479  10.269  12.192
18704SOL    HW256137   2.372  10.180  12.278
18705SOL     OW56138   3.222  10.172  12.217
18705SOL    HW156139   3.147  10.172  12.151
18705SOL    HW256140   3.259  10.080  12.226
18706SOL     OW56141   3.071   9.835  11.447
18706SOL    HW156142   3.084   9.751  11.501
18706SOL    HW256143   3.042   9.909  11.507
18707SOL     OW56144   2.169   9.523  12.403
18707SOL    HW156145   2.146   9.560  12.493
18707SOL    HW256146   2.139   9.428  12.397
18708SOL     OW56147   1.899  10.620  12.454
18708SOL    HW156148   1.952  10.571  12.522
18708SOL    HW256149   1.921  10.718  12.459
18709SOL     OW56150   2.594   9.944  12.236
18709SOL    HW156151   2.653   9.918  12.160
18709SOL    HW256152   2.566  10.040  12.225
18710SOL     OW56153   2.169   9.373  11.790
18710SOL    HW156154   2.158   9.467  11.823
18710SOL    HW256155   2.164   9.310  11.867
18711SOL     OW56156   3.484   9.677  11.546
18711SOL    HW156157   3.486   9.601  11.610
18711SOL    HW256158   3.436   9.754  11.586
18712SOL     OW56159   2.885  10.076  12.138
18712SOL    HW156160   2.900  10.097  12.234
18712SOL    HW256161   2.855   9.981  12.129
18713SOL     OW56162   3.402   9.584  11.297
18713SOL    HW156163   3.341   9.509  11.320
18713SOL    HW256164   3.424   9.636  11.380
18714SOL     OW56165   3.165  10.148  11.214
18714SOL    HW156166   3.199  10.055  11.229
18714SOL    HW256167   3.183  10.175  11.119
18715SOL     OW56168   2.930  10.643  12.021
18715SOL    HW156169   2.937  10.559  11.966
18715SOL    HW256170   2.992  10.712  11.985
18716SOL     OW56171   2.181  10.120  12.121
18716SOL    HW156172   2.274  10.156  12.126
18716SOL    HW256173   2.175  10.035  12.173
18717SOL     OW56174   2.201   9.819  12.178
18717SOL    HW156175   2.149   9.736  12.161
18717SOL    HW256176   2.278   9.824  12.114
18718SOL     OW56177   3.022   9.517  12.649
18718SOL    HW156178   3.022   9.581  12.726
18718SOL    HW256179   3.050   9.565  12.566
18719SOL     OW56180   1.870  10.636  11.372
18719SOL    HW156181   1.777  10.657  11.341
18719SOL    HW256182   1.880  10.537  11.385
18720SOL     OW56183   1.950  11.111  12.099
18720SOL    HW156184   1.908  11.025  12.072
18720SOL    HW256185   2.044  11.114  12.065
18721SOL     OW56186   2.366  10.878  12.082
18721SOL    HW156187   2.432  10.952  12.091
18721SOL    HW256188   2.410  10.799  12.040
18722SOL     OW56189   2.864  10.106  12.410
18722SOL    HW156190   2.905  10.074  12.496
18722SOL    HW256191   2.768  10.079  12.407
18723SOL     OW56192   1.902   9.854  12.286
18723SOL    HW156193   1.987   9.821  12.245
18723SOL    HW256194   1.915   9.869  12.384
18724SOL     OW56195   2.677   9.882  11.497
18724SOL    HW156196   2.684   9.793  11.451
18724SOL    HW256197   2.583   9.916  11.489
18725SOL     OW56198   3.519   9.914  12.378
18725SOL    HW156199   3.481   9.845  12.440
18725SOL    HW256200   3.601   9.878  12.334
18726SOL     OW56201   2.114  10.874  12.916
18726SOL    HW156202   2.084  10.931  12.992
18726SOL    HW256203   2.107  10.777  12.942
18727SOL     OW56204   2.533   9.774  12.441
18727SOL    HW156205   2.499   9.685  12.411
18727SOL    HW256206   2.559   9.828  12.361
18728SOL     OW56207   2.792  10.988  12.637
18728SOL    HW156208   2.768  10.970  12.542
18728SOL    HW256209   2.822  11.082  12.647
18729SOL     OW56210   2.335   9.810  11.363
18729SOL    HW156211   2.396   9.890  11.367
18729SOL    HW256212   2.240   9.841  11.370
18730SOL     OW56213   2.021  10.447  12.638
18730SOL    HW156214   2.043  10.386  12.714
18730SOL    HW256215   2.031  10.398  12.552
18731SOL     OW56216   3.209  10.369  12.406
18731SOL    HW156217   3.233  10.306  12.332
18731SOL    HW256218   3.119  10.409  12.388
18732SOL     OW56219   3.164  10.165  11.481
18732SOL    HW156220   3.078  10.134  11.523
18732SOL    HW256221   3.160  10.151  11.382
18733SOL     OW56222   3.621  11.057  12.326
18733SOL    HW156223   3.682  11.087  12.253
18733SOL    HW256224   3.583  10.968  12.304
18734SOL     OW56225   3.114  11.041  12.300
18734SOL    HW156226   3.198  11.046  12.246
18734SOL    HW256227   3.091  10.945  12.318
18735SOL     OW56228   1.945  10.568  12.194
18735SOL    HW156229   1.940  10.567  12.294
18735SOL    HW256230   1.862  10.527  12.156
18736SOL     OW56231   3.588   9.445  11.695
18736SOL    HW156232   3.661   9.428  11.628
18736SOL    HW256233   3.557   9.358  11.733
18737SOL     OW56234   3.250  10.883  11.649
18737SOL    HW156235   3.317  10.895  11.575
18737SOL    HW256236   3.210  10.972  11.672
18738SOL     OW56237   3.142  10.237  11.844
18738SOL    HW156238   3.202  10.156  11.846
18738SOL    HW256239   3.182  10.306  11.784
18739SOL     OW56240   2.692  10.583  12.594
18739SOL    HW156241   2.687  10.616  12.689
18739SOL    HW256242   2.606  10.602  12.548
18740SOL     OW56243   2.534  10.926  11.326
18740SOL    HW156244   2.543  10.936  11.227
18740SOL    HW256245   2.494  10.837  11.347
18741SOL     OW56246   3.512  11.030  12.566
18741SOL    HW156247   3.565  11.040  12.482
18741SOL    HW256248   3.485  11.120  12.600
18742SOL     OW56249   3.703   9.485  12.135
18742SOL    HW156250   3.742   9.400  12.099
18742SOL    HW256251   3.605   9.487  12.116
18743SOL     OW56252   2.125   9.636  11.892
18743SOL    HW156253   2.046   9.687  11.858
18743SOL    HW256254   2.116   9.621  11.990
18744SOL     OW56255   3.056  10.922  11.203
18744SOL    HW156256   3.062  10.829  11.240
18744SOL    HW256257   2.997  10.922  11.123
18745SOL     OW56258   2.684  10.312  12.544
18745SOL    HW156259   2.724  10.311  12.452
18745SOL    HW256260   2.694  10.404  12.584
18746SOL     OW56261   2.778  10.220  11.463
18746SOL    HW156262   2.841  10.258  11.395
18746SOL    HW256263   2.818  10.137  11.502
18747SOL     OW56264   3.366  10.917  11.216
18747SOL    HW156265   3.274  10.954  11.223
18747SOL    HW256266   3.404  10.937  11.126
18748SOL     OW56267   2.234  10.598  12.662
18748SOL    HW156268   2.221  10.691  12.628
18748SOL    HW256269   2.150  10.546  12.649
18749SOL     OW56270   3.476  10.602  12.461
18749SOL    HW156271   3.536  10.605  12.541
18749SOL    HW256272   3.401  10.666  12.474
18750SOL     OW56273   2.901  10.408  11.868
18750SOL    HW156274   2.831  10.361  11.922
18750SOL    HW256275   2.960  10.340  11.825
18751SOL     OW56276   2.876   9.546  12.143
18751SOL    HW156277   2.868   9.510  12.050
18751SOL    HW256278   2.874   9.470  12.208
18752SOL     OW56279   2.452  10.797  11.663
18752SOL    HW156280   2.494  10.739  11.593
18752SOL    HW256281   2.408  10.876  11.619
18753SOL     OW56282   3.571   9.695  12.553
18753SOL    HW156283   3.644   9.764  12.557
18753SOL    HW256284   3.599   9.620  12.494
18754SOL     OW56285   2.117  10.658  11.462
18754SOL    HW156286   2.021  10.659  11.435
18754SOL    HW256287   2.129  10.711  11.546
18755SOL     OW56288   1.967  10.323  12.898
18755SOL    HW156289   1.890  10.290  12.952
18755SOL    HW256290   2.052  10.293  12.940
18756SOL     OW56291   2.534   9.513  12.661
18756SOL    HW156292   2.624   9.497  12.621
18756SOL    HW256293   2.542   9.518  12.760
18757SOL     OW56294   1.937   9.655  11.205
18757SOL    HW156295   1.845   9.627  11.176
18757SOL    HW256296   1.968   9.732  11.149
18758SOL     OW56297   3.302  10.166  12.570
18758SOL    HW156298   3.245  10.218  12.507
18758SOL    HW256299   3.398  10.178  12.546
18759SOL     OW56300   1.934   9.476  11.490
18759SOL    HW156301   1.917   9.559  11.436
18759SOL    HW256302   2.024   9.439  11.468
18760SOL     OW56303   3.045  10.645  11.291
18760SOL    HW156304   2.946  10.634  11.293
18760SOL    HW256305   3.079  10.660  11.384
18761SOL     OW56306   2.475  10.152  12.603
18761SOL    HW156307   2.531  10.233  12.586
18761SOL    HW256308   2.534  10.072  12.606
18762SOL     OW56309   3.355  11.077  12.131
18762SOL    HW156310   3.388  11.141  12.062
18762SOL    HW256311   3.421  11.071  12.206
18763SOL     OW56312   2.578   9.875  12.880
18763SOL    HW156313   2.597   9.940  12.954
18763SOL    HW256314   2.638   9.795  12.889
18764SOL     OW56315   2.252  11.051  12.732
18764SOL    HW156316   2.161  11.092  12.730
18764SOL    HW256317   2.245  10.957  12.764
18765SOL     OW56318   3.536  10.193  12.426
18765SOL    HW156319   3.509  10.104  12.389
18765SOL    HW256320   3.537  10.261  12.353
18766SOL     OW56321   3.087   9.635  11.621
18766SOL    HW156322   3.152   9.561  11.610
18766SOL    HW256323   3.107   9.685  11.705
18767SOL     OW56324   2.456  10.055  11.824
18767SOL    HW156325   2.506  10.140  11.805
18767SOL    HW256326   2.368  10.057  11.776
18768SOL     OW56327   3.592  10.244  12.689
18768SOL    HW156328   3.630  10.335  12.704
18768SOL    HW256329   3.584  10.227  12.590
18769SOL     OW56330   2.721  10.684  11.188
18769SOL    HW156331   2.675  10.699  11.276
18769SOL    HW256332   2.765  10.769  11.158
18770SOL     OW56333   2.523  11.100  12.125
18770SOL    HW156334   2.477  11.188  12.112
18770SOL    HW256335   2.622  11.112  12.118
18771SOL     OW56336   2.721  10.266  12.033
18771SOL    HW156337   2.775  10.197  12.081
18771SOL    HW256338   2.689  10.335  12.099
18772SOL     OW56339   2.945  10.294  11.259
18772SOL    HW156340   2.922  10.347  11.177
18772SOL    HW256341   3.026  10.238  11.240
18773SOL     OW56342   3.723  10.879  12.023
18773SOL    HW156343   3.652  10.867  11.953
18773SOL    HW256344   3.724  10.800  12.083
18774SOL     OW56345   1.941  10.550  11.825
18774SOL    HW156346   1.940  10.503  11.913
18774SOL    HW256347   2.023  10.522  11.774
18775SOL     OW56348   2.534  10.701  12.796
18775SOL    HW156349   2.456  10.651  12.834
18775SOL    HW256350   2.531  10.796  12.827
18776SOL     OW56351   3.686   9.502  12.399
18776SOL    HW156352   3.682   9.412  12.443
18776SOL    HW256353   3.689   9.491  12.300
18777SOL     OW56354   2.290   9.734  11.692
18777SOL    HW156355   2.320   9.662  11.630
18777SOL    HW256356   2.251   9.694  11.775
18778SOL     OW56357   3.567  10.797  12.276
18778SOL    HW156358   3.474  10.772  12.249
18778SOL    HW256359   3.593  10.747  12.358
18779SOL     OW56360   2.179   9.857  12.452
18779SOL    HW156361   2.217   9.798  12.524
18779SOL    HW256362   2.219   9.831  12.364
18780SOL     OW56363   2.674  10.896  11.859
18780SOL    HW156364   2.706  10.906  11.765
18780SOL    HW256365   2.595  10.834  11.861
18781SOL     OW56366   3.286   9.524  12.284
18781SOL    HW156367   3.338   9.459  12.339
18781SOL    HW256368   3.237   9.587  12.345
18782SOL     OW56369   2.863   9.344  12.326
18782SOL    HW156370   2.800   9.272  12.295
18782SOL    HW256371   2.956   9.308  12.326
18783SOL     OW56372   2.632  10.640  11.473
18783SOL    HW156373   2.586  10.553  11.490
18783SOL    HW256374   2.723  10.637  11.514
18784SOL     OW56375   2.480  10.877  12.456
18784SOL    HW156376   2.475  10.959  12.513
18784SOL    HW256377   2.569  10.874  12.411
18785SOL     OW56378   3.214   9.362  11.340
18785SOL    HW156379   3.249   9.321  11.256
18785SOL    HW256380   3.124   9.324  11.360
18786SOL     OW56381   3.162   9.763  11.863
18786SOL    HW156382   3.103   9.843  11.867
18786SOL    HW256383   3.177   9.728  11.956
18787SOL     OW56384   3.455   9.531  12.054
18787SOL    HW156385   3.371   9.530  12.108
18787SOL    HW256386   3.457   9.614  11.998
18788SOL     OW56387   1.901  10.387  11.472
18788SOL    HW156388   2.000  10.376  11.463
18788SOL    HW256389   1.861  10.301  11.504
18789SOL     OW56390   2.737  10.956  11.509
18789SOL    HW156391   2.660  10.921  11.455
18789SOL    HW256392   2.705  11.027  11.571
18790SOL     OW56393   2.092  11.800   0.113
18790SOL    HW156394   1.999  11.798   0.150
18790SOL    HW256395   2.093  11.761   0.021
18791SOL     OW56396   2.087  11.447   0.996
18791SOL    HW156397   2.122  11.430   1.088
18791SOL    HW256398   1.999  11.402   0.984
18792SOL     OW56399   1.881  11.540   0.647
18792SOL    HW156400   1.799  11.583   0.686
18792SOL    HW256401   1.853  11.467   0.584
18793SOL     OW56402   2.431  12.447   1.165
18793SOL    HW156403   2.338  12.440   1.128
18793SOL    HW256404   2.442  12.536   1.209
18794SOL     OW56405   3.417  12.683   0.703
18794SOL    HW156406   3.360  12.667   0.784
18794SOL    HW256407   3.358  12.693   0.623
18795SOL     OW56408   2.997  11.875   0.717
18795SOL    HW156409   3.054  11.953   0.692
18795SOL    HW256410   2.937  11.901   0.793
18796SOL     OW56411   3.617  11.779   0.231
18796SOL    HW156412   3.605  11.766   0.132
18796SOL    HW256413   3.587  11.698   0.280
18797SOL     OW56414   2.630  12.316   1.023
18797SOL    HW156415   2.552  12.333   1.083
18797SOL    HW256416   2.664  12.403   0.987
18798SOL     OW56417   2.712  11.970   1.823
18798SOL    HW156418   2.708  12.046   1.888
18798SOL    HW256419   2.734  12.006   1.732
18799SOL     OW56420   2.547  12.184   0.665
18799SOL    HW156421   2.616  12.168   0.735
18799SOL    HW256422   2.474  12.241   0.703
18800SOL     OW56423   2.548  12.333   1.803
18800SOL    HW156424   2.608  12.412   1.817
18800SOL    HW256425   2.462  12.364   1.762
18801SOL     OW56426   2.197  12.607   1.061
18801SOL    HW156427   2.119  12.576   1.008
18801SOL    HW256428   2.255  12.665   1.004
18802SOL     OW56429   3.322  12.677   1.339
18802SOL    HW156430   3.346  12.771   1.365
18802SOL    HW256431   3.306  12.623   1.421
18803SOL     OW56432   2.300  11.564   1.499
18803SOL    HW156433   2.382  11.508   1.508
18803SOL    HW256434   2.219  11.506   1.503
18804SOL     OW56435   3.465  11.619   0.737
18804SOL    HW156436   3.391  11.665   0.687
18804SOL    HW256437   3.516  11.687   0.790
18805SOL     OW56438   2.989  12.513   1.690
18805SOL    HW156439   3.036  12.513   1.778
18805SOL    HW256440   2.941  12.426   1.679
18806SOL     OW56441   2.092  12.606   0.538
18806SOL    HW156442   2.066  12.702   0.538
18806SOL    HW256443   2.021  12.552   0.583
18807SOL     OW56444   2.102  12.263   0.886
18807SOL    HW156445   2.116  12.179   0.938
18807SOL    HW256446   2.047  12.327   0.941
18808SOL     OW56447   2.468  12.136   0.123
18808SOL    HW156448   2.475  12.220   0.069
18808SOL    HW256449   2.514  12.149   0.211
18809SOL     OW56450   3.456  11.286   1.480
18809SOL    HW156451   3.438  11.353   1.408
18809SOL    HW256452   3.453  11.332   1.569
18810SOL     OW56453   1.984  11.815   0.563
18810SOL    HW156454   1.939  11.727   0.580
18810SOL    HW256455   1.983  11.869   0.647
18811SOL     OW56456   1.889  12.768   0.117
18811SOL    HW156457   1.870  12.672   0.138
18811SOL    HW256458   1.856  12.826   0.192
18812SOL     OW56459   3.551  12.094   0.612
18812SOL    HW156460   3.646  12.065   0.620
18812SOL    HW256461   3.543  12.159   0.537
18813SOL     OW56462   3.503  12.280   0.432
18813SOL    HW156463   3.589  12.282   0.380
18813SOL    HW256464   3.517  12.327   0.520
18814SOL     OW56465   1.975  11.909   1.597
18814SOL    HW156466   2.063  11.896   1.642
18814SOL    HW256467   1.962  12.006   1.575
18815SOL     OW56468   2.475  12.537   0.726
18815SOL    HW156469   2.426  12.450   0.735
18815SOL    HW256470   2.452  12.580   0.639
18816SOL     OW56471   3.155  12.400   1.423
18816SOL    HW156472   3.192  12.327   1.365
18816SOL    HW256473   3.207  12.405   1.508
18817SOL     OW56474   2.671  11.176   0.502
18817SOL    HW156475   2.711  11.267   0.493
18817SOL    HW256476   2.571  11.184   0.508
18818SOL     OW56477   2.059  12.148   1.264
18818SOL    HW156478   2.148  12.103   1.250
18818SOL    HW256479   1.986  12.083   1.245
18819SOL     OW56480   3.387  12.171   0.190
18819SOL    HW156481   3.324  12.095   0.203
18819SOL    HW256482   3.435  12.189   0.276
18820SOL     OW56483   2.179  11.423   1.801
18820SOL    HW156484   2.250  11.494   1.807
18820SOL    HW256485   2.091  11.462   1.829
18821SOL     OW56486   3.328  12.589   0.953
18821SOL    HW156487   3.269  12.595   1.033
18821SOL    HW256488   3.313  12.501   0.907
18822SOL     OW56489   2.460  11.901   0.270
18822SOL    HW156490   2.484  11.970   0.202
18822SOL    HW256491   2.382  11.934   0.324
18823SOL     OW56492   3.143  11.517   0.944
18823SOL    HW156493   3.057  11.467   0.931
18823SOL    HW256494   3.205  11.463   1.000
18824SOL     OW56495   3.438  12.834   0.307
18824SOL    HW156496   3.527  12.880   0.310
18824SOL    HW256497   3.417  12.810   0.212
18825SOL     OW56498   2.669  11.777   1.465
18825SOL    HW156499   2.622  11.774   1.554
18825SOL    HW256500   2.618  11.722   1.399
18826SOL     OW56501   3.256  11.641   1.674
18826SOL    HW156502   3.236  11.684   1.762
18826SOL    HW256503   3.334  11.579   1.683
18827SOL     OW56504   2.835  12.062   1.572
18827SOL    HW156505   2.881  11.978   1.543
18827SOL    HW256506   2.779  12.096   1.497
18828SOL     OW56507   2.853  11.582   1.242
18828SOL    HW156508   2.776  11.616   1.296
18828SOL    HW256509   2.819  11.531   1.163
18829SOL     OW56510   2.903  11.873   0.429
18829SOL    HW156511   2.929  11.869   0.525
18829SOL    HW256512   2.818  11.822   0.415
18830SOL     OW56513   1.938  11.983   0.789
18830SOL    HW156514   2.037  11.971   0.798
18830SOL    HW256515   1.914  12.078   0.810
18831SOL     OW56516   2.727  11.520   0.195
18831SOL    HW156517   2.786  11.583   0.146
18831SOL    HW256518   2.746  11.426   0.166
18832SOL     OW56519   3.581  11.757   1.831
18832SOL    HW156520   3.555  11.846   1.795
18832SOL    HW256521   3.579  11.689   1.758
18833SOL     OW56522   3.224  12.316   0.545
18833SOL    HW156523   3.307  12.287   0.497
18833SOL    HW256524   3.175  12.383   0.489
18834SOL     OW56525   2.412  11.368   0.885
18834SOL    HW156526   2.407  11.363   0.985
18834SOL    HW256527   2.414  11.464   0.856
18835SOL     OW56528   2.870  12.628   0.477
18835SOL    HW156529   2.824  12.700   0.425
18835SOL    HW256530   2.866  12.648   0.575
18836SOL     OW56531   3.657  12.238   0.873
18836SOL    HW156532   3.595  12.223   0.797
18836SOL    HW256533   3.605  12.249   0.958
18837SOL     OW56534   3.089  12.722   1.506
18837SOL    HW156535   3.095  12.645   1.570
18837SOL    HW256536   3.037  12.696   1.426
18838SOL     OW56537   2.183  12.115   0.242
18838SOL    HW156538   2.265  12.154   0.200
18838SOL    HW256539   2.156  12.033   0.193
18839SOL     OW56540   3.320  11.907   0.728
18839SOL    HW156541   3.315  11.842   0.803
18839SOL    HW256542   3.400  11.966   0.741
18840SOL     OW56543   2.323  12.438   1.727
18840SOL    HW156544   2.273  12.439   1.641
18840SOL    HW256545   2.260  12.420   1.803
18841SOL     OW56546   2.064  11.457   1.498
18841SOL    HW156547   1.984  11.517   1.485
18841SOL    HW256548   2.054  11.408   1.584
18842SOL     OW56549   3.494  12.549   0.081
18842SOL    HW156550   3.462  12.643   0.071
18842SOL    HW256551   3.418  12.486   0.069
18843SOL     OW56552   3.262  11.279   0.426
18843SOL    HW156553   3.238  11.242   0.336
18843SOL    HW256554   3.361  11.295   0.430
18844SOL     OW56555   2.244  11.872   0.480
18844SOL    HW156556   2.289  11.782   0.477
18844SOL    HW256557   2.150  11.861   0.513
18845SOL     OW56558   3.409  11.394   1.729
18845SOL    HW156559   3.404  11.431   1.821
18845SOL    HW256560   3.337  11.325   1.717
18846SOL     OW56561   2.476  11.294   0.117
18846SOL    HW156562   2.574  11.272   0.124
18846SOL    HW256563   2.445  11.277   0.024
18847SOL     OW56564   2.643  11.436   1.749
18847SOL    HW156565   2.710  11.375   1.792
18847SOL    HW256566   2.570  11.455   1.814
18848SOL     OW56567   3.213  11.762   1.433
18848SOL    HW156568   3.241  11.719   1.518
18848SOL    HW256569   3.238  11.858   1.434
18849SOL     OW56570   2.665  12.574   0.924
18849SOL    HW156571   2.755  12.588   0.882
18849SOL    HW256572   2.594  12.576   0.853
18850SOL     OW56573   2.784  11.675   0.899
18850SOL    HW156574   2.759  11.666   0.803
18850SOL    HW256575   2.832  11.593   0.930
18851SOL     OW56576   2.401  11.236   0.512
18851SOL    HW156577   2.320  11.237   0.570
18851SOL    HW256578   2.404  11.319   0.457
18852SOL     OW56579   3.296  12.360   0.041
18852SOL    HW156580   3.328  12.284   0.098
18852SOL    HW256581   3.204  12.387   0.071
18853SOL     OW56582   2.159  11.207   0.171
18853SOL    HW156583   2.208  11.291   0.150
18853SOL    HW256584   2.221  11.142   0.216
18854SOL     OW56585   2.797  11.408   0.480
18854SOL    HW156586   2.749  11.449   0.402
18854SOL    HW256587   2.896  11.406   0.461
18855SOL     OW56588   2.938  11.855   1.464
18855SOL    HW156589   2.858  11.794   1.467
18855SOL    HW256590   3.019  11.802   1.440
18856SOL     OW56591   3.089  12.742   0.793
18856SOL    HW156592   3.110  12.816   0.728
18856SOL    HW256593   3.157  12.742   0.866
18857SOL     OW56594   2.321  12.324   0.741
18857SOL    HW156595   2.250  12.297   0.806
18857SOL    HW256596   2.295  12.296   0.648
18858SOL     OW56597   2.894  11.721   0.016
18858SOL    HW156598   2.853  11.803  -0.023
18858SOL    HW256599   2.958  11.747   0.089
18859SOL     OW56600   1.940  11.728   1.386
18859SOL    HW156601   2.032  11.727   1.345
18859SOL    HW256602   1.934  11.802   1.453
18860SOL     OW56603   2.423  11.394   1.147
18860SOL    HW156604   2.461  11.310   1.184
18860SOL    HW256605   2.335  11.413   1.191
18861SOL     OW56606   2.728  11.626   0.642
18861SOL    HW156607   2.696  11.698   0.580
18861SOL    HW256608   2.752  11.545   0.589
18862SOL     OW56609   2.879  11.211   0.753
18862SOL    HW156610   2.807  11.216   0.684
18862SOL    HW256611   2.855  11.142   0.822
18863SOL     OW56612   3.291  12.345   0.867
18863SOL    HW156613   3.236  12.261   0.860
18863SOL    HW256614   3.317  12.374   0.775
18864SOL     OW56615   3.328  11.762   0.992
18864SOL    HW156616   3.298  11.667   0.999
18864SOL    HW256617   3.401  11.778   1.058
18865SOL     OW56618   3.719  12.005   0.377
18865SOL    HW156619   3.761  11.941   0.441
18865SOL    HW256620   3.681  11.954   0.299
18866SOL     OW56621   2.350  12.557   0.174
18866SOL    HW156622   2.263  12.542   0.221
18866SOL    HW256623   2.333  12.583   0.079
18867SOL     OW56624   3.526  12.452   0.657
18867SOL    HW156625   3.625  12.460   0.671
18867SOL    HW256626   3.481  12.536   0.688
18868SOL     OW56627   3.252  11.747   0.078
18868SOL    HW156628   3.198  11.726   0.159
18868SOL    HW256629   3.343  11.706   0.087
18869SOL     OW56630   2.389  11.428   0.328
18869SOL    HW156631   2.416  11.369   0.253
18869SOL    HW256632   2.389  11.523   0.297
18870SOL     OW56633   3.616  12.395   1.588
18870SOL    HW156634   3.707  12.356   1.575
18870SOL    HW256635   3.624  12.491   1.612
18871SOL     OW56636   2.926  12.519   1.340
18871SOL    HW156637   2.846  12.496   1.395
18871SOL    HW256638   3.009  12.493   1.389
18872SOL     OW56639   2.973  12.367   1.100
18872SOL    HW156640   2.933  12.411   1.181
18872SOL    HW256641   2.932  12.404   1.017
18873SOL     OW56642   3.500  12.271   1.079
18873SOL    HW156643   3.505  12.352   1.138
18873SOL    HW256644   3.414  12.273   1.028
18874SOL     OW56645   2.777  11.261   1.402
18874SOL    HW156646   2.802  11.241   1.307
18874SOL    HW256647   2.849  11.317   1.444
18875SOL     OW56648   2.842  12.288   1.719
18875SOL    HW156649   2.743  12.294   1.729
18875SOL    HW256650   2.865  12.208   1.663
18876SOL     OW56651   2.567  12.222   0.368
18876SOL    HW156652   2.553  12.229   0.467
18876SOL    HW256653   2.651  12.171   0.350
18877SOL     OW56654   2.272  11.985   1.251
18877SOL    HW156655   2.358  11.997   1.301
18877SOL    HW256656   2.230  11.898   1.278
18878SOL     OW56657   3.136  11.558   1.262
18878SOL    HW156658   3.157  11.632   1.326
18878SOL    HW256659   3.047  11.575   1.219
18879SOL     OW56660   1.926  12.736   1.331
18879SOL    HW156661   1.880  12.818   1.297
18879SOL    HW256662   2.024  12.755   1.340
18880SOL     OW56663   2.229  12.272   0.501
18880SOL    HW156664   2.222  12.355   0.445
18880SOL    HW256665   2.233  12.192   0.441
18881SOL     OW56666   2.428  11.709   0.865
18881SOL    HW156667   2.440  11.775   0.791
18881SOL    HW256668   2.474  11.743   0.948
18882SOL     OW56669   3.114  12.520   0.388
18882SOL    HW156670   3.164  12.597   0.428
18882SOL    HW256671   3.019  12.522   0.420
18883SOL     OW56672   3.134  12.617   1.142
18883SOL    HW156673   3.181  12.630   1.229
18883SOL    HW256674   3.068  12.543   1.151
18884SOL     OW56675   3.444  11.811   0.472
18884SOL    HW156676   3.413  11.872   0.545
18884SOL    HW256677   3.494  11.863   0.403
18885SOL     OW56678   2.216  12.682   1.329
18885SOL    HW156679   2.195  12.638   1.242
18885SOL    HW256680   2.313  12.708   1.332
18886SOL     OW56681   2.264  11.923   1.598
18886SOL    HW156682   2.332  11.978   1.551
18886SOL    HW256683   2.304  11.835   1.625
18887SOL     OW56684   3.449  11.951   1.670
18887SOL    HW156685   3.357  11.989   1.665
18887SOL    HW256686   3.509  11.998   1.605
18888SOL     OW56687   2.875  11.277   1.770
18888SOL    HW156688   2.881  11.362   1.718
18888SOL    HW256689   2.907  11.201   1.713
18889SOL     OW56690   2.366  11.222   1.740
18889SOL    HW156691   2.324  11.165   1.670
18889SOL    HW256692   2.300  11.291   1.772
18890SOL     OW56693   2.435  12.042   1.029
18890SOL    HW156694   2.479  12.131   1.020
18890SOL    HW256695   2.372  12.042   1.106
18891SOL     OW56696   3.222  12.034   1.045
18891SOL    HW156697   3.147  12.034   0.979
18891SOL    HW256698   3.259  11.942   1.054
18892SOL     OW56699   3.071  11.697   0.275
18892SOL    HW156700   3.084  11.613   0.329
18892SOL    HW256701   3.042  11.771   0.335
18893SOL     OW56702   2.169  11.385   1.231
18893SOL    HW156703   2.146  11.422   1.321
18893SOL    HW256704   2.139  11.290   1.225
18894SOL     OW56705   1.899  12.482   1.282
18894SOL    HW156706   1.952  12.433   1.350
18894SOL    HW256707   1.921  12.580   1.287
18895SOL     OW56708   2.594  11.806   1.064
18895SOL    HW156709   2.653  11.780   0.988
18895SOL    HW256710   2.566  11.902   1.053
18896SOL     OW56711   3.590  12.107   1.854
18896SOL    HW156712   3.544  12.100   1.765
18896SOL    HW256713   3.528  12.151   1.920
18897SOL     OW56714   2.169  11.235   0.618
18897SOL    HW156715   2.158  11.329   0.651
18897SOL    HW256716   2.164  11.172   0.695
18898SOL     OW56717   3.484  11.539   0.374
18898SOL    HW156718   3.486  11.463   0.438
18898SOL    HW256719   3.436  11.616   0.414
18899SOL     OW56720   2.885  11.938   0.966
18899SOL    HW156721   2.900  11.959   1.062
18899SOL    HW256722   2.855  11.843   0.957
18900SOL     OW56723   3.721  12.690   1.605
18900SOL    HW156724   3.735  12.717   1.510
18900SOL    HW256725   3.804  12.712   1.658
18901SOL     OW56726   2.212  12.070   1.804
18901SOL    HW156727   2.288  12.114   1.852
18901SOL    HW256728   2.247  12.023   1.722
18902SOL     OW56729   3.402  11.446   0.125
18902SOL    HW156730   3.341  11.371   0.148
18902SOL    HW256731   3.424  11.498   0.208
18903SOL     OW56732   3.165  12.010   0.042
18903SOL    HW156733   3.199  11.917   0.057
18903SOL    HW256734   3.183  12.037  -0.053
18904SOL     OW56735   2.930  12.505   0.849
18904SOL    HW156736   2.937  12.421   0.794
18904SOL    HW256737   2.992  12.574   0.813
18905SOL     OW56738   2.181  11.982   0.949
18905SOL    HW156739   2.274  12.018   0.954
18905SOL    HW256740   2.175  11.897   1.001
18906SOL     OW56741   2.201  11.681   1.006
18906SOL    HW156742   2.149  11.598   0.989
18906SOL    HW256743   2.278  11.686   0.942
18907SOL     OW56744   3.000  11.552   1.678
18907SOL    HW156745   2.955  11.615   1.742
18907SOL    HW256746   3.093  11.583   1.661
18908SOL     OW56747   3.022  11.379   1.477
18908SOL    HW156748   3.022  11.443   1.554
18908SOL    HW256749   3.050  11.427   1.394
18909SOL     OW56750   1.870  12.498   0.200
18909SOL    HW156751   1.777  12.519   0.169
18909SOL    HW256752   1.880  12.399   0.213
18910SOL     OW56753   2.366  12.740   0.910
18910SOL    HW156754   2.432  12.814   0.919
18910SOL    HW256755   2.410  12.661   0.868
18911SOL     OW56756   2.864  11.968   1.238
18911SOL    HW156757   2.905  11.936   1.324
18911SOL    HW256758   2.768  11.941   1.235
18912SOL     OW56759   1.902  11.716   1.114
18912SOL    HW156760   1.987  11.683   1.073
18912SOL    HW256761   1.915  11.731   1.212
18913SOL     OW56762   2.051  11.692   1.722
18913SOL    HW156763   2.110  11.652   1.652
18913SOL    HW256764   1.993  11.763   1.681
18914SOL     OW56765   3.231  12.122   1.660
18914SOL    HW156766   3.270  12.211   1.680
18914SOL    HW256767   3.241  12.102   1.563
18915SOL     OW56768   2.677  11.744   0.325
18915SOL    HW156769   2.684  11.655   0.279
18915SOL    HW256770   2.583  11.778   0.317
18916SOL     OW56771   3.519  11.776   1.206
18916SOL    HW156772   3.481  11.707   1.268
18916SOL    HW256773   3.601  11.740   1.162
18917SOL     OW56774   2.114  12.736   1.744
18917SOL    HW156775   2.084  12.793   1.820
18917SOL    HW256776   2.107  12.639   1.770
18918SOL     OW56777   2.533  11.636   1.269
18918SOL    HW156778   2.499  11.547   1.239
18918SOL    HW256779   2.559  11.690   1.189
18919SOL     OW56780   2.335  11.672   0.191
18919SOL    HW156781   2.396  11.752   0.195
18919SOL    HW256782   2.240  11.703   0.198
18920SOL     OW56783   2.021  12.309   1.466
18920SOL    HW156784   2.043  12.248   1.542
18920SOL    HW256785   2.031  12.260   1.380
18921SOL     OW56786   3.209  12.231   1.234
18921SOL    HW156787   3.233  12.168   1.160
18921SOL    HW256788   3.119  12.271   1.216
18922SOL     OW56789   3.164  12.027   0.309
18922SOL    HW156790   3.078  11.996   0.351
18922SOL    HW256791   3.160  12.013   0.210
18923SOL     OW56792   3.114  12.903   1.128
18923SOL    HW156793   3.198  12.908   1.074
18923SOL    HW256794   3.091  12.807   1.146
18924SOL     OW56795   1.945  12.430   1.022
18924SOL    HW156796   1.940  12.429   1.122
18924SOL    HW256797   1.862  12.389   0.984
18925SOL     OW56798   2.765  11.258   0.133
18925SOL    HW156799   2.816  11.259   0.047
18925SOL    HW256800   2.821  11.216   0.204
18926SOL     OW56801   3.588  11.307   0.523
18926SOL    HW156802   3.661  11.290   0.456
18926SOL    HW256803   3.557  11.220   0.561
18927SOL     OW56804   1.992  12.966   1.851
18927SOL    HW156805   1.951  12.892   1.904
18927SOL    HW256806   2.056  13.017   1.909
18928SOL     OW56807   3.142  12.099   0.672
18928SOL    HW156808   3.202  12.018   0.674
18928SOL    HW256809   3.182  12.168   0.612
18929SOL     OW56810   2.692  12.445   1.422
18929SOL    HW156811   2.687  12.478   1.517
18929SOL    HW256812   2.606  12.464   1.376
18930SOL     OW56813   2.534  12.788   0.154
18930SOL    HW156814   2.543  12.798   0.055
18930SOL    HW256815   2.494  12.699   0.175
18931SOL     OW56816   3.703  11.347   0.963
18931SOL    HW156817   3.742  11.262   0.927
18931SOL    HW256818   3.605  11.349   0.944
18932SOL     OW56819   2.125  11.498   0.720
18932SOL    HW156820   2.046  11.549   0.686
18932SOL    HW256821   2.116  11.483   0.818
18933SOL     OW56822   3.056  12.784   0.031
18933SOL    HW156823   3.062  12.691   0.068
18933SOL    HW256824   2.997  12.784  -0.049
18934SOL     OW56825   2.684  12.174   1.372
18934SOL    HW156826   2.724  12.173   1.280
18934SOL    HW256827   2.694  12.266   1.412
18935SOL     OW56828   2.778  12.082   0.291
18935SOL    HW156829   2.841  12.120   0.223
18935SOL    HW256830   2.818  11.999   0.330
18936SOL     OW56831   2.234  12.460   1.490
18936SOL    HW156832   2.221  12.553   1.456
18936SOL    HW256833   2.150  12.408   1.477
18937SOL     OW56834   3.476  12.464   1.289
18937SOL    HW156835   3.536  12.467   1.369
18937SOL    HW256836   3.401  12.528   1.302
18938SOL     OW56837   2.901  12.270   0.696
18938SOL    HW156838   2.831  12.223   0.750
18938SOL    HW256839   2.960  12.202   0.653
18939SOL     OW56840   2.876  11.408   0.971
18939SOL    HW156841   2.868  11.372   0.878
18939SOL    HW256842   2.874  11.332   1.036
18940SOL     OW56843   2.452  12.659   0.491
18940SOL    HW156844   2.494  12.601   0.421
18940SOL    HW256845   2.408  12.738   0.447
18941SOL     OW56846   3.571  11.557   1.381
18941SOL    HW156847   3.644  11.626   1.385
18941SOL    HW256848   3.599  11.482   1.322
18942SOL     OW56849   2.117  12.520   0.290
18942SOL    HW156850   2.021  12.521   0.263
18942SOL    HW256851   2.129  12.573   0.374
18943SOL     OW56852   1.967  12.185   1.726
18943SOL    HW156853   1.890  12.152   1.780
18943SOL    HW256854   2.052  12.155   1.768
18944SOL     OW56855   2.534  11.375   1.489
18944SOL    HW156856   2.624  11.359   1.449
18944SOL    HW256857   2.542  11.380   1.588
18945SOL     OW56858   3.302  12.028   1.398
18945SOL    HW156859   3.245  12.080   1.335
18945SOL    HW256860   3.398  12.040   1.374
18946SOL     OW56861   1.934  11.338   0.318
18946SOL    HW156862   1.917  11.421   0.264
18946SOL    HW256863   2.024  11.301   0.296
18947SOL     OW56864   3.045  12.507   0.119
18947SOL    HW156865   2.946  12.496   0.121
18947SOL    HW256866   3.079  12.522   0.212
18948SOL     OW56867   2.475  12.014   1.431
18948SOL    HW156868   2.531  12.095   1.414
18948SOL    HW256869   2.534  11.934   1.434
18949SOL     OW56870   2.578  11.737   1.708
18949SOL    HW156871   2.597  11.802   1.782
18949SOL    HW256872   2.638  11.657   1.717
18950SOL     OW56873   3.312  12.392   1.633
18950SOL    HW156874   3.303  12.382   1.732
18950SOL    HW256875   3.408  12.385   1.607
18951SOL     OW56876   3.536  12.055   1.254
18951SOL    HW156877   3.509  11.966   1.217
18951SOL    HW256878   3.537  12.123   1.181
18952SOL     OW56879   3.087  11.497   0.449
18952SOL    HW156880   3.152  11.423   0.438
18952SOL    HW256881   3.107  11.547   0.533
18953SOL     OW56882   2.456  11.917   0.652
18953SOL    HW156883   2.506  12.002   0.633
18953SOL    HW256884   2.368  11.919   0.604
18954SOL     OW56885   3.639  11.514   1.642
18954SOL    HW156886   3.622  11.545   1.548
18954SOL    HW256887   3.555  11.477   1.680
18955SOL     OW56888   3.592  12.106   1.517
18955SOL    HW156889   3.630  12.197   1.532
18955SOL    HW256890   3.584  12.089   1.418
18956SOL     OW56891   2.721  12.546   0.016
18956SOL    HW156892   2.675  12.561   0.104
18956SOL    HW256893   2.765  12.631  -0.014
18957SOL     OW56894   2.721  12.128   0.861
18957SOL    HW156895   2.775  12.059   0.909
18957SOL    HW256896   2.689  12.197   0.927
18958SOL     OW56897   2.945  12.156   0.087
18958SOL    HW156898   2.922  12.209   0.005
18958SOL    HW256899   3.026  12.100   0.068
18959SOL     OW56900   3.723  12.741   0.851
18959SOL    HW156901   3.652  12.729   0.781
18959SOL    HW256902   3.724  12.662   0.911
18960SOL     OW56903   2.083  12.486   1.844
18960SOL    HW156904   2.018  12.413   1.823
18960SOL    HW256905   2.087  12.500   1.942
18961SOL     OW56906   1.941  12.412   0.653
18961SOL    HW156907   1.940  12.365   0.741
18961SOL    HW256908   2.023  12.384   0.602
18962SOL     OW56909   2.534  12.563   1.624
18962SOL    HW156910   2.456  12.513   1.662
18962SOL    HW256911   2.531  12.658   1.655
18963SOL     OW56912   3.686  11.364   1.227
18963SOL    HW156913   3.682  11.274   1.271
18963SOL    HW256914   3.689  11.353   1.128
18964SOL     OW56915   2.290  11.596   0.520
18964SOL    HW156916   2.320  11.524   0.458
18964SOL    HW256917   2.251  11.556   0.603
18965SOL     OW56918   3.567  12.659   1.104
18965SOL    HW156919   3.474  12.634   1.077
18965SOL    HW256920   3.593  12.609   1.186
18966SOL     OW56921   2.179  11.719   1.280
18966SOL    HW156922   2.217  11.660   1.352
18966SOL    HW256923   2.219  11.693   1.192
18967SOL     OW56924   3.286  11.386   1.112
18967SOL    HW156925   3.338  11.321   1.167
18967SOL    HW256926   3.237  11.449   1.173
18968SOL     OW56927   2.863  11.206   1.154
18968SOL    HW156928   2.800  11.134   1.123
18968SOL    HW256929   2.956  11.170   1.154
18969SOL     OW56930   2.632  12.502   0.301
18969SOL    HW156931   2.586  12.415   0.318
18969SOL    HW256932   2.723  12.499   0.342
18970SOL     OW56933   2.480  12.739   1.284
18970SOL    HW156934   2.475  12.821   1.341
18970SOL    HW256935   2.569  12.736   1.239
18971SOL     OW56936   3.214  11.224   0.168
18971SOL    HW156937   3.249  11.183   0.084
18971SOL    HW256938   3.124  11.186   0.188
18972SOL     OW56939   3.162  11.625   0.691
18972SOL    HW156940   3.103  11.705   0.695
18972SOL    HW256941   3.177  11.590   0.784
18973SOL     OW56942   3.455  11.393   0.882
18973SOL    HW156943   3.371  11.392   0.936
18973SOL    HW256944   3.457  11.476   0.826
18974SOL     OW56945   1.901  12.249   0.300
18974SOL    HW156946   2.000  12.238   0.291
18974SOL    HW256947   1.861  12.163   0.332
18975SOL     OW56948   2.092  11.800   1.975
18975SOL    HW156949   1.999  11.798   2.012
18975SOL    HW256950   2.093  11.761   1.883
18976SOL     OW56951   2.087  11.447   2.858
18976SOL    HW156952   2.122  11.430   2.950
18976SOL    HW256953   1.999  11.402   2.846
18977SOL     OW56954   1.881  11.540   2.509
18977SOL    HW156955   1.799  11.583   2.548
18977SOL    HW256956   1.853  11.467   2.446
18978SOL     OW56957   2.431  12.447   3.027
18978SOL    HW156958   2.338  12.440   2.990
18978SOL    HW256959   2.442  12.536   3.071
18979SOL     OW56960   3.417  12.683   2.565
18979SOL    HW156961   3.360  12.667   2.646
18979SOL    HW256962   3.358  12.693   2.485
18980SOL     OW56963   2.997  11.875   2.579
18980SOL    HW156964   3.054  11.953   2.554
18980SOL    HW256965   2.937  11.901   2.655
18981SOL     OW56966   3.617  11.779   2.093
18981SOL    HW156967   3.605  11.766   1.994
18981SOL    HW256968   3.587  11.698   2.142
18982SOL     OW56969   2.630  12.316   2.885
18982SOL    HW156970   2.552  12.333   2.945
18982SOL    HW256971   2.664  12.403   2.849
18983SOL     OW56972   2.712  11.970   3.685
18983SOL    HW156973   2.708  12.046   3.750
18983SOL    HW256974   2.734  12.006   3.594
18984SOL     OW56975   2.547  12.184   2.527
18984SOL    HW156976   2.616  12.168   2.597
18984SOL    HW256977   2.474  12.241   2.565
18985SOL     OW56978   2.548  12.333   3.665
18985SOL    HW156979   2.608  12.412   3.679
18985SOL    HW256980   2.462  12.364   3.624
18986SOL     OW56981   2.197  12.607   2.923
18986SOL    HW156982   2.119  12.576   2.870
18986SOL    HW256983   2.255  12.665   2.866
18987SOL     OW56984   3.322  12.677   3.201
18987SOL    HW156985   3.346  12.771   3.227
18987SOL    HW256986   3.306  12.623   3.283
18988SOL     OW56987   2.300  11.564   3.361
18988SOL    HW156988   2.382  11.508   3.370
18988SOL    HW256989   2.219  11.506   3.365
18989SOL     OW56990   3.465  11.619   2.599
18989SOL    HW156991   3.391  11.665   2.549
18989SOL    HW256992   3.516  11.687   2.652
18990SOL     OW56993   2.989  12.513   3.552
18990SOL    HW156994   3.036  12.513   3.640
18990SOL    HW256995   2.941  12.426   3.541
18991SOL     OW56996   2.092  12.606   2.400
18991SOL    HW156997   2.066  12.702   2.400
18991SOL    HW256998   2.021  12.552   2.445
18992SOL     OW56999   2.102  12.263   2.748
18992SOL    HW157000   2.116  12.179   2.800
18992SOL    HW257001   2.047  12.327   2.803
18993SOL     OW57002   2.468  12.136   1.985
18993SOL    HW157003   2.475  12.220   1.931
18993SOL    HW257004   2.514  12.149   2.073
18994SOL     OW57005   3.456  11.286   3.342
18994SOL    HW157006   3.438  11.353   3.270
18994SOL    HW257007   3.453  11.332   3.431
18995SOL     OW57008   1.984  11.815   2.425
18995SOL    HW157009   1.939  11.727   2.442
18995SOL    HW257010   1.983  11.869   2.509
18996SOL     OW57011   1.889  12.768   1.979
18996SOL    HW157012   1.870  12.672   2.000
18996SOL    HW257013   1.856  12.826   2.054
18997SOL     OW57014   3.551  12.094   2.474
18997SOL    HW157015   3.646  12.065   2.482
18997SOL    HW257016   3.543  12.159   2.399
18998SOL     OW57017   3.503  12.280   2.294
18998SOL    HW157018   3.589  12.282   2.242
18998SOL    HW257019   3.517  12.327   2.382
18999SOL     OW57020   1.975  11.909   3.459
18999SOL    HW157021   2.063  11.896   3.504
18999SOL    HW257022   1.962  12.006   3.437
19000SOL     OW57023   2.475  12.537   2.588
19000SOL    HW157024   2.426  12.450   2.597
19000SOL    HW257025   2.452  12.580   2.501
19001SOL     OW57026   3.155  12.400   3.285
19001SOL    HW157027   3.192  12.327   3.227
19001SOL    HW257028   3.207  12.405   3.370
19002SOL     OW57029   2.671  11.176   2.364
19002SOL    HW157030   2.711  11.267   2.355
19002SOL    HW257031   2.571  11.184   2.370
19003SOL     OW57032   2.059  12.148   3.126
19003SOL    HW157033   2.148  12.103   3.112
19003SOL    HW257034   1.986  12.083   3.107
19004SOL     OW57035   3.387  12.171   2.052
19004SOL    HW157036   3.324  12.095   2.065
19004SOL    HW257037   3.435  12.189   2.138
19005SOL     OW57038   2.179  11.423   3.663
19005SOL    HW157039   2.250  11.494   3.669
19005SOL    HW257040   2.091  11.462   3.691
19006SOL     OW57041   3.328  12.589   2.815
19006SOL    HW157042   3.269  12.595   2.895
19006SOL    HW257043   3.313  12.501   2.769
19007SOL     OW57044   2.460  11.901   2.132
19007SOL    HW157045   2.484  11.970   2.064
19007SOL    HW257046   2.382  11.934   2.186
19008SOL     OW57047   3.143  11.517   2.806
19008SOL    HW157048   3.057  11.467   2.793
19008SOL    HW257049   3.205  11.463   2.862
19009SOL     OW57050   3.438  12.834   2.169
19009SOL    HW157051   3.527  12.880   2.172
19009SOL    HW257052   3.417  12.810   2.074
19010SOL     OW57053   2.669  11.777   3.327
19010SOL    HW157054   2.622  11.774   3.416
19010SOL    HW257055   2.618  11.722   3.261
19011SOL     OW57056   3.256  11.641   3.536
19011SOL    HW157057   3.236  11.684   3.624
19011SOL    HW257058   3.334  11.579   3.545
19012SOL     OW57059   2.835  12.062   3.434
19012SOL    HW157060   2.881  11.978   3.405
19012SOL    HW257061   2.779  12.096   3.359
19013SOL     OW57062   2.853  11.582   3.104
19013SOL    HW157063   2.776  11.616   3.158
19013SOL    HW257064   2.819  11.531   3.025
19014SOL     OW57065   2.903  11.873   2.291
19014SOL    HW157066   2.929  11.869   2.387
19014SOL    HW257067   2.818  11.822   2.277
19015SOL     OW57068   1.938  11.983   2.651
19015SOL    HW157069   2.037  11.971   2.660
19015SOL    HW257070   1.914  12.078   2.672
19016SOL     OW57071   2.727  11.520   2.057
19016SOL    HW157072   2.786  11.583   2.008
19016SOL    HW257073   2.746  11.426   2.028
19017SOL     OW57074   3.581  11.757   3.693
19017SOL    HW157075   3.555  11.846   3.657
19017SOL    HW257076   3.579  11.689   3.620
19018SOL     OW57077   3.224  12.316   2.407
19018SOL    HW157078   3.307  12.287   2.359
19018SOL    HW257079   3.175  12.383   2.351
19019SOL     OW57080   2.412  11.368   2.747
19019SOL    HW157081   2.407  11.363   2.847
19019SOL    HW257082   2.414  11.464   2.718
19020SOL     OW57083   2.870  12.628   2.339
19020SOL    HW157084   2.824  12.700   2.287
19020SOL    HW257085   2.866  12.648   2.437
19021SOL     OW57086   3.657  12.238   2.735
19021SOL    HW157087   3.595  12.223   2.659
19021SOL    HW257088   3.605  12.249   2.820
19022SOL     OW57089   3.089  12.722   3.368
19022SOL    HW157090   3.095  12.645   3.432
19022SOL    HW257091   3.037  12.696   3.288
19023SOL     OW57092   2.183  12.115   2.104
19023SOL    HW157093   2.265  12.154   2.062
19023SOL    HW257094   2.156  12.033   2.055
19024SOL     OW57095   3.320  11.907   2.590
19024SOL    HW157096   3.315  11.842   2.665
19024SOL    HW257097   3.400  11.966   2.603
19025SOL     OW57098   2.323  12.438   3.589
19025SOL    HW157099   2.273  12.439   3.503
19025SOL    HW257100   2.260  12.420   3.665
19026SOL     OW57101   2.064  11.457   3.360
19026SOL    HW157102   1.984  11.517   3.347
19026SOL    HW257103   2.054  11.408   3.446
19027SOL     OW57104   3.494  12.549   1.943
19027SOL    HW157105   3.462  12.643   1.933
19027SOL    HW257106   3.418  12.486   1.931
19028SOL     OW57107   3.262  11.279   2.288
19028SOL    HW157108   3.238  11.242   2.198
19028SOL    HW257109   3.361  11.295   2.292
19029SOL     OW57110   2.244  11.872   2.342
19029SOL    HW157111   2.289  11.782   2.339
19029SOL    HW257112   2.150  11.861   2.375
19030SOL     OW57113   3.409  11.394   3.591
19030SOL    HW157114   3.404  11.431   3.683
19030SOL    HW257115   3.337  11.325   3.579
19031SOL     OW57116   2.476  11.294   1.979
19031SOL    HW157117   2.574  11.272   1.986
19031SOL    HW257118   2.445  11.277   1.886
19032SOL     OW57119   2.643  11.436   3.611
19032SOL    HW157120   2.710  11.375   3.654
19032SOL    HW257121   2.570  11.455   3.676
19033SOL     OW57122   3.213  11.762   3.295
19033SOL    HW157123   3.241  11.719   3.380
19033SOL    HW257124   3.238  11.858   3.296
19034SOL     OW57125   2.665  12.574   2.786
19034SOL    HW157126   2.755  12.588   2.744
19034SOL    HW257127   2.594  12.576   2.715
19035SOL     OW57128   2.784  11.675   2.761
19035SOL    HW157129   2.759  11.666   2.665
19035SOL    HW257130   2.832  11.593   2.792
19036SOL     OW57131   2.401  11.236   2.374
19036SOL    HW157132   2.320  11.237   2.432
19036SOL    HW257133   2.404  11.319   2.319
19037SOL     OW57134   3.296  12.360   1.903
19037SOL    HW157135   3.328  12.284   1.960
19037SOL    HW257136   3.204  12.387   1.933
19038SOL     OW57137   2.159  11.207   2.033
19038SOL    HW157138   2.208  11.291   2.012
19038SOL    HW257139   2.221  11.142   2.078
19039SOL     OW57140   2.797  11.408   2.342
19039SOL    HW157141   2.749  11.449   2.264
19039SOL    HW257142   2.896  11.406   2.323
19040SOL     OW57143   2.938  11.855   3.326
19040SOL    HW157144   2.858  11.794   3.329
19040SOL    HW257145   3.019  11.802   3.302
19041SOL     OW57146   3.089  12.742   2.655
19041SOL    HW157147   3.110  12.816   2.590
19041SOL    HW257148   3.157  12.742   2.728
19042SOL     OW57149   2.321  12.324   2.603
19042SOL    HW157150   2.250  12.297   2.668
19042SOL    HW257151   2.295  12.296   2.510
19043SOL     OW57152   2.894  11.721   1.878
19043SOL    HW157153   2.853  11.803   1.839
19043SOL    HW257154   2.958  11.747   1.951
19044SOL     OW57155   1.940  11.728   3.248
19044SOL    HW157156   2.032  11.727   3.207
19044SOL    HW257157   1.934  11.802   3.315
19045SOL     OW57158   2.423  11.394   3.009
19045SOL    HW157159   2.461  11.310   3.046
19045SOL    HW257160   2.335  11.413   3.053
19046SOL     OW57161   2.728  11.626   2.504
19046SOL    HW157162   2.696  11.698   2.442
19046SOL    HW257163   2.752  11.545   2.451
19047SOL     OW57164   2.879  11.211   2.615
19047SOL    HW157165   2.807  11.216   2.546
19047SOL    HW257166   2.855  11.142   2.684
19048SOL     OW57167   3.291  12.345   2.729
19048SOL    HW157168   3.236  12.261   2.722
19048SOL    HW257169   3.317  12.374   2.637
19049SOL     OW57170   3.328  11.762   2.854
19049SOL    HW157171   3.298  11.667   2.861
19049SOL    HW257172   3.401  11.778   2.920
19050SOL     OW57173   3.719  12.005   2.239
19050SOL    HW157174   3.761  11.941   2.303
19050SOL    HW257175   3.681  11.954   2.161
19051SOL     OW57176   2.350  12.557   2.036
19051SOL    HW157177   2.263  12.542   2.083
19051SOL    HW257178   2.333  12.583   1.941
19052SOL     OW57179   3.526  12.452   2.519
19052SOL    HW157180   3.625  12.460   2.533
19052SOL    HW257181   3.481  12.536   2.550
19053SOL     OW57182   3.252  11.747   1.940
19053SOL    HW157183   3.198  11.726   2.021
19053SOL    HW257184   3.343  11.706   1.949
19054SOL     OW57185   2.389  11.428   2.190
19054SOL    HW157186   2.416  11.369   2.115
19054SOL    HW257187   2.389  11.523   2.159
19055SOL     OW57188   3.616  12.395   3.450
19055SOL    HW157189   3.707  12.356   3.437
19055SOL    HW257190   3.624  12.491   3.474
19056SOL     OW57191   2.926  12.519   3.202
19056SOL    HW157192   2.846  12.496   3.257
19056SOL    HW257193   3.009  12.493   3.251
19057SOL     OW57194   2.973  12.367   2.962
19057SOL    HW157195   2.933  12.411   3.043
19057SOL    HW257196   2.932  12.404   2.879
19058SOL     OW57197   3.500  12.271   2.941
19058SOL    HW157198   3.505  12.352   3.000
19058SOL    HW257199   3.414  12.273   2.890
19059SOL     OW57200   2.777  11.261   3.264
19059SOL    HW157201   2.802  11.241   3.169
19059SOL    HW257202   2.849  11.317   3.306
19060SOL     OW57203   2.842  12.288   3.581
19060SOL    HW157204   2.743  12.294   3.591
19060SOL    HW257205   2.865  12.208   3.525
19061SOL     OW57206   2.567  12.222   2.230
19061SOL    HW157207   2.553  12.229   2.329
19061SOL    HW257208   2.651  12.171   2.212
19062SOL     OW57209   2.272  11.985   3.113
19062SOL    HW157210   2.358  11.997   3.163
19062SOL    HW257211   2.230  11.898   3.140
19063SOL     OW57212   3.136  11.558   3.124
19063SOL    HW157213   3.157  11.632   3.188
19063SOL    HW257214   3.047  11.575   3.081
19064SOL     OW57215   1.926  12.736   3.193
19064SOL    HW157216   1.880  12.818   3.159
19064SOL    HW257217   2.024  12.755   3.202
19065SOL     OW57218   2.229  12.272   2.363
19065SOL    HW157219   2.222  12.355   2.307
19065SOL    HW257220   2.233  12.192   2.303
19066SOL     OW57221   2.428  11.709   2.727
19066SOL    HW157222   2.440  11.775   2.653
19066SOL    HW257223   2.474  11.743   2.810
19067SOL     OW57224   3.114  12.520   2.250
19067SOL    HW157225   3.164  12.597   2.290
19067SOL    HW257226   3.019  12.522   2.282
19068SOL     OW57227   3.134  12.617   3.004
19068SOL    HW157228   3.181  12.630   3.091
19068SOL    HW257229   3.068  12.543   3.013
19069SOL     OW57230   3.444  11.811   2.334
19069SOL    HW157231   3.413  11.872   2.407
19069SOL    HW257232   3.494  11.863   2.265
19070SOL     OW57233   2.216  12.682   3.191
19070SOL    HW157234   2.195  12.638   3.104
19070SOL    HW257235   2.313  12.708   3.194
19071SOL     OW57236   2.264  11.923   3.460
19071SOL    HW157237   2.332  11.978   3.413
19071SOL    HW257238   2.304  11.835   3.487
19072SOL     OW57239   3.449  11.951   3.532
19072SOL    HW157240   3.357  11.989   3.527
19072SOL    HW257241   3.509  11.998   3.467
19073SOL     OW57242   2.875  11.277   3.632
19073SOL    HW157243   2.881  11.362   3.580
19073SOL    HW257244   2.907  11.201   3.575
19074SOL     OW57245   2.366  11.222   3.602
19074SOL    HW157246   2.324  11.165   3.532
19074SOL    HW257247   2.300  11.291   3.634
19075SOL     OW57248   2.435  12.042   2.891
19075SOL    HW157249   2.479  12.131   2.882
19075SOL    HW257250   2.372  12.042   2.968
19076SOL     OW57251   3.222  12.034   2.907
19076SOL    HW157252   3.147  12.034   2.841
19076SOL    HW257253   3.259  11.942   2.916
19077SOL     OW57254   3.071  11.697   2.137
19077SOL    HW157255   3.084  11.613   2.191
19077SOL    HW257256   3.042  11.771   2.197
19078SOL     OW57257   2.169  11.385   3.093
19078SOL    HW157258   2.146  11.422   3.183
19078SOL    HW257259   2.139  11.290   3.087
19079SOL     OW57260   1.899  12.482   3.144
19079SOL    HW157261   1.952  12.433   3.212
19079SOL    HW257262   1.921  12.580   3.149
19080SOL     OW57263   2.594  11.806   2.926
19080SOL    HW157264   2.653  11.780   2.850
19080SOL    HW257265   2.566  11.902   2.915
19081SOL     OW57266   3.590  12.107   3.716
19081SOL    HW157267   3.544  12.100   3.627
19081SOL    HW257268   3.528  12.151   3.782
19082SOL     OW57269   2.169  11.235   2.480
19082SOL    HW157270   2.158  11.329   2.513
19082SOL    HW257271   2.164  11.172   2.557
19083SOL     OW57272   3.484  11.539   2.236
19083SOL    HW157273   3.486  11.463   2.300
19083SOL    HW257274   3.436  11.616   2.276
19084SOL     OW57275   2.885  11.938   2.828
19084SOL    HW157276   2.900  11.959   2.924
19084SOL    HW257277   2.855  11.843   2.819
19085SOL     OW57278   3.721  12.690   3.467
19085SOL    HW157279   3.735  12.717   3.372
19085SOL    HW257280   3.804  12.712   3.520
19086SOL     OW57281   2.212  12.070   3.666
19086SOL    HW157282   2.288  12.114   3.714
19086SOL    HW257283   2.247  12.023   3.584
19087SOL     OW57284   3.402  11.446   1.987
19087SOL    HW157285   3.341  11.371   2.010
19087SOL    HW257286   3.424  11.498   2.070
19088SOL     OW57287   3.165  12.010   1.904
19088SOL    HW157288   3.199  11.917   1.919
19088SOL    HW257289   3.183  12.037   1.809
19089SOL     OW57290   2.930  12.505   2.711
19089SOL    HW157291   2.937  12.421   2.656
19089SOL    HW257292   2.992  12.574   2.675
19090SOL     OW57293   2.181  11.982   2.811
19090SOL    HW157294   2.274  12.018   2.816
19090SOL    HW257295   2.175  11.897   2.863
19091SOL     OW57296   2.201  11.681   2.868
19091SOL    HW157297   2.149  11.598   2.851
19091SOL    HW257298   2.278  11.686   2.804
19092SOL     OW57299   3.000  11.552   3.540
19092SOL    HW157300   2.955  11.615   3.604
19092SOL    HW257301   3.093  11.583   3.523
19093SOL     OW57302   3.022  11.379   3.339
19093SOL    HW157303   3.022  11.443   3.416
19093SOL    HW257304   3.050  11.427   3.256
19094SOL     OW57305   1.870  12.498   2.062
19094SOL    HW157306   1.777  12.519   2.031
19094SOL    HW257307   1.880  12.399   2.075
19095SOL     OW57308   2.366  12.740   2.772
19095SOL    HW157309   2.432  12.814   2.781
19095SOL    HW257310   2.410  12.661   2.730
19096SOL     OW57311   2.864  11.968   3.100
19096SOL    HW157312   2.905  11.936   3.186
19096SOL    HW257313   2.768  11.941   3.097
19097SOL     OW57314   1.902  11.716   2.976
19097SOL    HW157315   1.987  11.683   2.935
19097SOL    HW257316   1.915  11.731   3.074
19098SOL     OW57317   2.051  11.692   3.584
19098SOL    HW157318   2.110  11.652   3.514
19098SOL    HW257319   1.993  11.763   3.543
19099SOL     OW57320   3.231  12.122   3.522
19099SOL    HW157321   3.270  12.211   3.542
19099SOL    HW257322   3.241  12.102   3.425
19100SOL     OW57323   2.677  11.744   2.187
19100SOL    HW157324   2.684  11.655   2.141
19100SOL    HW257325   2.583  11.778   2.179
19101SOL     OW57326   3.519  11.776   3.068
19101SOL    HW157327   3.481  11.707   3.130
19101SOL    HW257328   3.601  11.740   3.024
19102SOL     OW57329   2.114  12.736   3.606
19102SOL    HW157330   2.084  12.793   3.682
19102SOL    HW257331   2.107  12.639   3.632
19103SOL     OW57332   2.533  11.636   3.131
19103SOL    HW157333   2.499  11.547   3.101
19103SOL    HW257334   2.559  11.690   3.051
19104SOL     OW57335   2.335  11.672   2.053
19104SOL    HW157336   2.396  11.752   2.057
19104SOL    HW257337   2.240  11.703   2.060
19105SOL     OW57338   2.021  12.309   3.328
19105SOL    HW157339   2.043  12.248   3.404
19105SOL    HW257340   2.031  12.260   3.242
19106SOL     OW57341   3.209  12.231   3.096
19106SOL    HW157342   3.233  12.168   3.022
19106SOL    HW257343   3.119  12.271   3.078
19107SOL     OW57344   3.164  12.027   2.171
19107SOL    HW157345   3.078  11.996   2.213
19107SOL    HW257346   3.160  12.013   2.072
19108SOL     OW57347   3.114  12.903   2.990
19108SOL    HW157348   3.198  12.908   2.936
19108SOL    HW257349   3.091  12.807   3.008
19109SOL     OW57350   1.945  12.430   2.884
19109SOL    HW157351   1.940  12.429   2.984
19109SOL    HW257352   1.862  12.389   2.846
19110SOL     OW57353   3.588  11.307   2.385
19110SOL    HW157354   3.661  11.290   2.318
19110SOL    HW257355   3.557  11.220   2.423
19111SOL     OW57356   1.992  12.966   3.713
19111SOL    HW157357   1.951  12.892   3.766
19111SOL    HW257358   2.056  13.017   3.771
19112SOL     OW57359   3.142  12.099   2.534
19112SOL    HW157360   3.202  12.018   2.536
19112SOL    HW257361   3.182  12.168   2.474
19113SOL     OW57362   2.692  12.445   3.284
19113SOL    HW157363   2.687  12.478   3.379
19113SOL    HW257364   2.606  12.464   3.238
19114SOL     OW57365   2.534  12.788   2.016
19114SOL    HW157366   2.543  12.798   1.917
19114SOL    HW257367   2.494  12.699   2.037
19115SOL     OW57368   3.703  11.347   2.825
19115SOL    HW157369   3.742  11.262   2.789
19115SOL    HW257370   3.605  11.349   2.806
19116SOL     OW57371   2.125  11.498   2.582
19116SOL    HW157372   2.046  11.549   2.548
19116SOL    HW257373   2.116  11.483   2.680
19117SOL     OW57374   3.056  12.784   1.893
19117SOL    HW157375   3.062  12.691   1.930
19117SOL    HW257376   2.997  12.784   1.813
19118SOL     OW57377   2.684  12.174   3.234
19118SOL    HW157378   2.724  12.173   3.142
19118SOL    HW257379   2.694  12.266   3.274
19119SOL     OW57380   2.778  12.082   2.153
19119SOL    HW157381   2.841  12.120   2.085
19119SOL    HW257382   2.818  11.999   2.192
19120SOL     OW57383   2.234  12.460   3.352
19120SOL    HW157384   2.221  12.553   3.318
19120SOL    HW257385   2.150  12.408   3.339
19121SOL     OW57386   3.476  12.464   3.151
19121SOL    HW157387   3.536  12.467   3.231
19121SOL    HW257388   3.401  12.528   3.164
19122SOL     OW57389   2.901  12.270   2.558
19122SOL    HW157390   2.831  12.223   2.612
19122SOL    HW257391   2.960  12.202   2.515
19123SOL     OW57392   2.876  11.408   2.833
19123SOL    HW157393   2.868  11.372   2.740
19123SOL    HW257394   2.874  11.332   2.898
19124SOL     OW57395   2.452  12.659   2.353
19124SOL    HW157396   2.494  12.601   2.283
19124SOL    HW257397   2.408  12.738   2.309
19125SOL     OW57398   3.571  11.557   3.243
19125SOL    HW157399   3.644  11.626   3.247
19125SOL    HW257400   3.599  11.482   3.184
19126SOL     OW57401   2.117  12.520   2.152
19126SOL    HW157402   2.021  12.521   2.125
19126SOL    HW257403   2.129  12.573   2.236
19127SOL     OW57404   1.967  12.185   3.588
19127SOL    HW157405   1.890  12.152   3.642
19127SOL    HW257406   2.052  12.155   3.630
19128SOL     OW57407   2.534  11.375   3.351
19128SOL    HW157408   2.624  11.359   3.311
19128SOL    HW257409   2.542  11.380   3.450
19129SOL     OW57410   1.937  11.517   1.895
19129SOL    HW157411   1.845  11.489   1.866
19129SOL    HW257412   1.968  11.594   1.839
19130SOL     OW57413   3.302  12.028   3.260
19130SOL    HW157414   3.245  12.080   3.197
19130SOL    HW257415   3.398  12.040   3.236
19131SOL     OW57416   1.934  11.338   2.180
19131SOL    HW157417   1.917  11.421   2.126
19131SOL    HW257418   2.024  11.301   2.158
19132SOL     OW57419   3.045  12.507   1.981
19132SOL    HW157420   2.946  12.496   1.983
19132SOL    HW257421   3.079  12.522   2.074
19133SOL     OW57422   2.475  12.014   3.293
19133SOL    HW157423   2.531  12.095   3.276
19133SOL    HW257424   2.534  11.934   3.296
19134SOL     OW57425   2.578  11.737   3.570
19134SOL    HW157426   2.597  11.802   3.644
19134SOL    HW257427   2.638  11.657   3.579
19135SOL     OW57428   3.312  12.392   3.495
19135SOL    HW157429   3.303  12.382   3.594
19135SOL    HW257430   3.408  12.385   3.469
19136SOL     OW57431   3.536  12.055   3.116
19136SOL    HW157432   3.509  11.966   3.079
19136SOL    HW257433   3.537  12.123   3.043
19137SOL     OW57434   3.087  11.497   2.311
19137SOL    HW157435   3.152  11.423   2.300
19137SOL    HW257436   3.107  11.547   2.395
19138SOL     OW57437   2.456  11.917   2.514
19138SOL    HW157438   2.506  12.002   2.495
19138SOL    HW257439   2.368  11.919   2.466
19139SOL     OW57440   3.639  11.514   3.504
19139SOL    HW157441   3.622  11.545   3.410
19139SOL    HW257442   3.555  11.477   3.542
19140SOL     OW57443   3.592  12.106   3.379
19140SOL    HW157444   3.630  12.197   3.394
19140SOL    HW257445   3.584  12.089   3.280
19141SOL     OW57446   2.721  12.546   1.878
19141SOL    HW157447   2.675  12.561   1.966
19141SOL    HW257448   2.765  12.631   1.848
19142SOL     OW57449   2.721  12.128   2.723
19142SOL    HW157450   2.775  12.059   2.771
19142SOL    HW257451   2.689  12.197   2.789
19143SOL     OW57452   2.945  12.156   1.949
19143SOL    HW157453   2.922  12.209   1.867
19143SOL    HW257454   3.026  12.100   1.930
19144SOL     OW57455   3.723  12.741   2.713
19144SOL    HW157456   3.652  12.729   2.643
19144SOL    HW257457   3.724  12.662   2.773
19145SOL     OW57458   2.083  12.486   3.706
19145SOL    HW157459   2.018  12.413   3.685
19145SOL    HW257460   2.087  12.500   3.804
19146SOL     OW57461   1.941  12.412   2.515
19146SOL    HW157462   1.940  12.365   2.603
19146SOL    HW257463   2.023  12.384   2.464
19147SOL     OW57464   2.534  12.563   3.486
19147SOL    HW157465   2.456  12.513   3.524
19147SOL    HW257466   2.531  12.658   3.517
19148SOL     OW57467   3.686  11.364   3.089
19148SOL    HW157468   3.682  11.274   3.133
19148SOL    HW257469   3.689  11.353   2.990
19149SOL     OW57470   2.290  11.596   2.382
19149SOL    HW157471   2.320  11.524   2.320
19149SOL    HW257472   2.251  11.556   2.465
19150SOL     OW57473   3.567  12.659   2.966
19150SOL    HW157474   3.474  12.634   2.939
19150SOL    HW257475   3.593  12.609   3.048
19151SOL     OW57476   2.179  11.719   3.142
19151SOL    HW157477   2.217  11.660   3.214
19151SOL    HW257478   2.219  11.693   3.054
19152SOL     OW57479   3.286  11.386   2.974
19152SOL    HW157480   3.338  11.321   3.029
19152SOL    HW257481   3.237  11.449   3.035
19153SOL     OW57482   2.863  11.206   3.016
19153SOL    HW157483   2.800  11.134   2.985
19153SOL    HW257484   2.956  11.170   3.016
19154SOL     OW57485   2.632  12.502   2.163
19154SOL    HW157486   2.586  12.415   2.180
19154SOL    HW257487   2.723  12.499   2.204
19155SOL     OW57488   2.480  12.739   3.146
19155SOL    HW157489   2.475  12.821   3.203
19155SOL    HW257490   2.569  12.736   3.101
19156SOL     OW57491   3.214  11.224   2.030
19156SOL    HW157492   3.249  11.183   1.946
19156SOL    HW257493   3.124  11.186   2.050
19157SOL     OW57494   3.162  11.625   2.553
19157SOL    HW157495   3.103  11.705   2.557
19157SOL    HW257496   3.177  11.590   2.646
19158SOL     OW57497   3.455  11.393   2.744
19158SOL    HW157498   3.371  11.392   2.798
19158SOL    HW257499   3.457  11.476   2.688
19159SOL     OW57500   1.901  12.249   2.162
19159SOL    HW157501   2.000  12.238   2.153
19159SOL    HW257502   1.861  12.163   2.194
19160SOL     OW57503   2.092  11.800   3.837
19160SOL    HW157504   1.999  11.798   3.874
19160SOL    HW257505   2.093  11.761   3.745
19161SOL     OW57506   2.087  11.447   4.720
19161SOL    HW157507   2.122  11.430   4.812
19161SOL    HW257508   1.999  11.402   4.708
19162SOL     OW57509   1.881  11.540   4.371
19162SOL    HW157510   1.799  11.583   4.410
19162SOL    HW257511   1.853  11.467   4.308
19163SOL     OW57512   2.431  12.447   4.889
19163SOL    HW157513   2.338  12.440   4.852
19163SOL    HW257514   2.442  12.536   4.933
19164SOL     OW57515   3.417  12.683   4.427
19164SOL    HW157516   3.360  12.667   4.508
19164SOL    HW257517   3.358  12.693   4.347
19165SOL     OW57518   2.997  11.875   4.441
19165SOL    HW157519   3.054  11.953   4.416
19165SOL    HW257520   2.937  11.901   4.517
19166SOL     OW57521   3.617  11.779   3.955
19166SOL    HW157522   3.605  11.766   3.856
19166SOL    HW257523   3.587  11.698   4.004
19167SOL     OW57524   2.630  12.316   4.747
19167SOL    HW157525   2.552  12.333   4.807
19167SOL    HW257526   2.664  12.403   4.711
19168SOL     OW57527   2.712  11.970   5.547
19168SOL    HW157528   2.708  12.046   5.612
19168SOL    HW257529   2.734  12.006   5.456
19169SOL     OW57530   2.547  12.184   4.389
19169SOL    HW157531   2.616  12.168   4.459
19169SOL    HW257532   2.474  12.241   4.427
19170SOL     OW57533   2.548  12.333   5.527
19170SOL    HW157534   2.608  12.412   5.541
19170SOL    HW257535   2.462  12.364   5.486
19171SOL     OW57536   2.197  12.607   4.785
19171SOL    HW157537   2.119  12.576   4.732
19171SOL    HW257538   2.255  12.665   4.728
19172SOL     OW57539   3.322  12.677   5.063
19172SOL    HW157540   3.346  12.771   5.089
19172SOL    HW257541   3.306  12.623   5.145
19173SOL     OW57542   2.300  11.564   5.223
19173SOL    HW157543   2.382  11.508   5.232
19173SOL    HW257544   2.219  11.506   5.227
19174SOL     OW57545   3.465  11.619   4.461
19174SOL    HW157546   3.391  11.665   4.411
19174SOL    HW257547   3.516  11.687   4.514
19175SOL     OW57548   2.989  12.513   5.414
19175SOL    HW157549   3.036  12.513   5.502
19175SOL    HW257550   2.941  12.426   5.403
19176SOL     OW57551   2.092  12.606   4.262
19176SOL    HW157552   2.066  12.702   4.262
19176SOL    HW257553   2.021  12.552   4.307
19177SOL     OW57554   2.102  12.263   4.610
19177SOL    HW157555   2.116  12.179   4.662
19177SOL    HW257556   2.047  12.327   4.665
19178SOL     OW57557   2.468  12.136   3.847
19178SOL    HW157558   2.475  12.220   3.793
19178SOL    HW257559   2.514  12.149   3.935
19179SOL     OW57560   3.456  11.286   5.204
19179SOL    HW157561   3.438  11.353   5.132
19179SOL    HW257562   3.453  11.332   5.293
19180SOL     OW57563   1.984  11.815   4.287
19180SOL    HW157564   1.939  11.727   4.304
19180SOL    HW257565   1.983  11.869   4.371
19181SOL     OW57566   1.889  12.768   3.841
19181SOL    HW157567   1.870  12.672   3.862
19181SOL    HW257568   1.856  12.826   3.916
19182SOL     OW57569   3.551  12.094   4.336
19182SOL    HW157570   3.646  12.065   4.344
19182SOL    HW257571   3.543  12.159   4.261
19183SOL     OW57572   3.503  12.280   4.156
19183SOL    HW157573   3.589  12.282   4.104
19183SOL    HW257574   3.517  12.327   4.244
19184SOL     OW57575   1.975  11.909   5.321
19184SOL    HW157576   2.063  11.896   5.366
19184SOL    HW257577   1.962  12.006   5.299
19185SOL     OW57578   2.475  12.537   4.450
19185SOL    HW157579   2.426  12.450   4.459
19185SOL    HW257580   2.452  12.580   4.363
19186SOL     OW57581   3.155  12.400   5.147
19186SOL    HW157582   3.192  12.327   5.089
19186SOL    HW257583   3.207  12.405   5.232
19187SOL     OW57584   2.671  11.176   4.226
19187SOL    HW157585   2.711  11.267   4.217
19187SOL    HW257586   2.571  11.184   4.232
19188SOL     OW57587   2.059  12.148   4.988
19188SOL    HW157588   2.148  12.103   4.974
19188SOL    HW257589   1.986  12.083   4.969
19189SOL     OW57590   3.387  12.171   3.914
19189SOL    HW157591   3.324  12.095   3.927
19189SOL    HW257592   3.435  12.189   4.000
19190SOL     OW57593   2.179  11.423   5.525
19190SOL    HW157594   2.250  11.494   5.531
19190SOL    HW257595   2.091  11.462   5.553
19191SOL     OW57596   3.328  12.589   4.677
19191SOL    HW157597   3.269  12.595   4.757
19191SOL    HW257598   3.313  12.501   4.631
19192SOL     OW57599   2.460  11.901   3.994
19192SOL    HW157600   2.484  11.970   3.926
19192SOL    HW257601   2.382  11.934   4.048
19193SOL     OW57602   3.143  11.517   4.668
19193SOL    HW157603   3.057  11.467   4.655
19193SOL    HW257604   3.205  11.463   4.724
19194SOL     OW57605   3.438  12.834   4.031
19194SOL    HW157606   3.527  12.880   4.034
19194SOL    HW257607   3.417  12.810   3.936
19195SOL     OW57608   2.669  11.777   5.189
19195SOL    HW157609   2.622  11.774   5.278
19195SOL    HW257610   2.618  11.722   5.123
19196SOL     OW57611   3.256  11.641   5.398
19196SOL    HW157612   3.236  11.684   5.486
19196SOL    HW257613   3.334  11.579   5.407
19197SOL     OW57614   2.835  12.062   5.296
19197SOL    HW157615   2.881  11.978   5.267
19197SOL    HW257616   2.779  12.096   5.221
19198SOL     OW57617   2.853  11.582   4.966
19198SOL    HW157618   2.776  11.616   5.020
19198SOL    HW257619   2.819  11.531   4.887
19199SOL     OW57620   2.903  11.873   4.153
19199SOL    HW157621   2.929  11.869   4.249
19199SOL    HW257622   2.818  11.822   4.139
19200SOL     OW57623   1.938  11.983   4.513
19200SOL    HW157624   2.037  11.971   4.522
19200SOL    HW257625   1.914  12.078   4.534
19201SOL     OW57626   2.727  11.520   3.919
19201SOL    HW157627   2.786  11.583   3.870
19201SOL    HW257628   2.746  11.426   3.890
19202SOL     OW57629   3.581  11.757   5.555
19202SOL    HW157630   3.555  11.846   5.519
19202SOL    HW257631   3.579  11.689   5.482
19203SOL     OW57632   3.224  12.316   4.269
19203SOL    HW157633   3.307  12.287   4.221
19203SOL    HW257634   3.175  12.383   4.213
19204SOL     OW57635   2.412  11.368   4.609
19204SOL    HW157636   2.407  11.363   4.709
19204SOL    HW257637   2.414  11.464   4.580
19205SOL     OW57638   2.870  12.628   4.201
19205SOL    HW157639   2.824  12.700   4.149
19205SOL    HW257640   2.866  12.648   4.299
19206SOL     OW57641   3.657  12.238   4.597
19206SOL    HW157642   3.595  12.223   4.521
19206SOL    HW257643   3.605  12.249   4.682
19207SOL     OW57644   3.089  12.722   5.230
19207SOL    HW157645   3.095  12.645   5.294
19207SOL    HW257646   3.037  12.696   5.150
19208SOL     OW57647   2.183  12.115   3.966
19208SOL    HW157648   2.265  12.154   3.924
19208SOL    HW257649   2.156  12.033   3.917
19209SOL     OW57650   3.320  11.907   4.452
19209SOL    HW157651   3.315  11.842   4.527
19209SOL    HW257652   3.400  11.966   4.465
19210SOL     OW57653   2.323  12.438   5.451
19210SOL    HW157654   2.273  12.439   5.365
19210SOL    HW257655   2.260  12.420   5.527
19211SOL     OW57656   2.064  11.457   5.222
19211SOL    HW157657   1.984  11.517   5.209
19211SOL    HW257658   2.054  11.408   5.308
19212SOL     OW57659   3.494  12.549   3.805
19212SOL    HW157660   3.462  12.643   3.795
19212SOL    HW257661   3.418  12.486   3.793
19213SOL     OW57662   3.262  11.279   4.150
19213SOL    HW157663   3.238  11.242   4.060
19213SOL    HW257664   3.361  11.295   4.154
19214SOL     OW57665   2.244  11.872   4.204
19214SOL    HW157666   2.289  11.782   4.201
19214SOL    HW257667   2.150  11.861   4.237
19215SOL     OW57668   3.409  11.394   5.453
19215SOL    HW157669   3.404  11.431   5.545
19215SOL    HW257670   3.337  11.325   5.441
19216SOL     OW57671   2.476  11.294   3.841
19216SOL    HW157672   2.574  11.272   3.848
19216SOL    HW257673   2.445  11.277   3.748
19217SOL     OW57674   2.643  11.436   5.473
19217SOL    HW157675   2.710  11.375   5.516
19217SOL    HW257676   2.570  11.455   5.538
19218SOL     OW57677   3.213  11.762   5.157
19218SOL    HW157678   3.241  11.719   5.242
19218SOL    HW257679   3.238  11.858   5.158
19219SOL     OW57680   2.665  12.574   4.648
19219SOL    HW157681   2.755  12.588   4.606
19219SOL    HW257682   2.594  12.576   4.577
19220SOL     OW57683   2.784  11.675   4.623
19220SOL    HW157684   2.759  11.666   4.527
19220SOL    HW257685   2.832  11.593   4.654
19221SOL     OW57686   2.401  11.236   4.236
19221SOL    HW157687   2.320  11.237   4.294
19221SOL    HW257688   2.404  11.319   4.181
19222SOL     OW57689   3.296  12.360   3.765
19222SOL    HW157690   3.328  12.284   3.822
19222SOL    HW257691   3.204  12.387   3.795
19223SOL     OW57692   2.159  11.207   3.895
19223SOL    HW157693   2.208  11.291   3.874
19223SOL    HW257694   2.221  11.142   3.940
19224SOL     OW57695   2.797  11.408   4.204
19224SOL    HW157696   2.749  11.449   4.126
19224SOL    HW257697   2.896  11.406   4.185
19225SOL     OW57698   2.938  11.855   5.188
19225SOL    HW157699   2.858  11.794   5.191
19225SOL    HW257700   3.019  11.802   5.164
19226SOL     OW57701   3.089  12.742   4.517
19226SOL    HW157702   3.110  12.816   4.452
19226SOL    HW257703   3.157  12.742   4.590
19227SOL     OW57704   2.321  12.324   4.465
19227SOL    HW157705   2.250  12.297   4.530
19227SOL    HW257706   2.295  12.296   4.372
19228SOL     OW57707   2.894  11.721   3.740
19228SOL    HW157708   2.853  11.803   3.701
19228SOL    HW257709   2.958  11.747   3.813
19229SOL     OW57710   1.940  11.728   5.110
19229SOL    HW157711   2.032  11.727   5.069
19229SOL    HW257712   1.934  11.802   5.177
19230SOL     OW57713   2.423  11.394   4.871
19230SOL    HW157714   2.461  11.310   4.908
19230SOL    HW257715   2.335  11.413   4.915
19231SOL     OW57716   2.728  11.626   4.366
19231SOL    HW157717   2.696  11.698   4.304
19231SOL    HW257718   2.752  11.545   4.313
19232SOL     OW57719   2.879  11.211   4.477
19232SOL    HW157720   2.807  11.216   4.408
19232SOL    HW257721   2.855  11.142   4.546
19233SOL     OW57722   3.291  12.345   4.591
19233SOL    HW157723   3.236  12.261   4.584
19233SOL    HW257724   3.317  12.374   4.499
19234SOL     OW57725   3.328  11.762   4.716
19234SOL    HW157726   3.298  11.667   4.723
19234SOL    HW257727   3.401  11.778   4.782
19235SOL     OW57728   3.719  12.005   4.101
19235SOL    HW157729   3.761  11.941   4.165
19235SOL    HW257730   3.681  11.954   4.023
19236SOL     OW57731   2.350  12.557   3.898
19236SOL    HW157732   2.263  12.542   3.945
19236SOL    HW257733   2.333  12.583   3.803
19237SOL     OW57734   3.526  12.452   4.381
19237SOL    HW157735   3.625  12.460   4.395
19237SOL    HW257736   3.481  12.536   4.412
19238SOL     OW57737   3.252  11.747   3.802
19238SOL    HW157738   3.198  11.726   3.883
19238SOL    HW257739   3.343  11.706   3.811
19239SOL     OW57740   2.389  11.428   4.052
19239SOL    HW157741   2.416  11.369   3.977
19239SOL    HW257742   2.389  11.523   4.021
19240SOL     OW57743   3.616  12.395   5.312
19240SOL    HW157744   3.707  12.356   5.299
19240SOL    HW257745   3.624  12.491   5.336
19241SOL     OW57746   2.926  12.519   5.064
19241SOL    HW157747   2.846  12.496   5.119
19241SOL    HW257748   3.009  12.493   5.113
19242SOL     OW57749   2.973  12.367   4.824
19242SOL    HW157750   2.933  12.411   4.905
19242SOL    HW257751   2.932  12.404   4.741
19243SOL     OW57752   3.500  12.271   4.803
19243SOL    HW157753   3.505  12.352   4.862
19243SOL    HW257754   3.414  12.273   4.752
19244SOL     OW57755   2.777  11.261   5.126
19244SOL    HW157756   2.802  11.241   5.031
19244SOL    HW257757   2.849  11.317   5.168
19245SOL     OW57758   2.842  12.288   5.443
19245SOL    HW157759   2.743  12.294   5.453
19245SOL    HW257760   2.865  12.208   5.387
19246SOL     OW57761   2.567  12.222   4.092
19246SOL    HW157762   2.553  12.229   4.191
19246SOL    HW257763   2.651  12.171   4.074
19247SOL     OW57764   2.272  11.985   4.975
19247SOL    HW157765   2.358  11.997   5.025
19247SOL    HW257766   2.230  11.898   5.002
19248SOL     OW57767   3.136  11.558   4.986
19248SOL    HW157768   3.157  11.632   5.050
19248SOL    HW257769   3.047  11.575   4.943
19249SOL     OW57770   1.926  12.736   5.055
19249SOL    HW157771   1.880  12.818   5.021
19249SOL    HW257772   2.024  12.755   5.064
19250SOL     OW57773   2.229  12.272   4.225
19250SOL    HW157774   2.222  12.355   4.169
19250SOL    HW257775   2.233  12.192   4.165
19251SOL     OW57776   2.428  11.709   4.589
19251SOL    HW157777   2.440  11.775   4.515
19251SOL    HW257778   2.474  11.743   4.672
19252SOL     OW57779   3.114  12.520   4.112
19252SOL    HW157780   3.164  12.597   4.152
19252SOL    HW257781   3.019  12.522   4.144
19253SOL     OW57782   3.134  12.617   4.866
19253SOL    HW157783   3.181  12.630   4.953
19253SOL    HW257784   3.068  12.543   4.875
19254SOL     OW57785   3.444  11.811   4.196
19254SOL    HW157786   3.413  11.872   4.269
19254SOL    HW257787   3.494  11.863   4.127
19255SOL     OW57788   2.216  12.682   5.053
19255SOL    HW157789   2.195  12.638   4.966
19255SOL    HW257790   2.313  12.708   5.056
19256SOL     OW57791   2.264  11.923   5.322
19256SOL    HW157792   2.332  11.978   5.275
19256SOL    HW257793   2.304  11.835   5.349
19257SOL     OW57794   3.449  11.951   5.394
19257SOL    HW157795   3.357  11.989   5.389
19257SOL    HW257796   3.509  11.998   5.329
19258SOL     OW57797   2.875  11.277   5.494
19258SOL    HW157798   2.881  11.362   5.442
19258SOL    HW257799   2.907  11.201   5.437
19259SOL     OW57800   2.366  11.222   5.464
19259SOL    HW157801   2.324  11.165   5.394
19259SOL    HW257802   2.300  11.291   5.496
19260SOL     OW57803   2.435  12.042   4.753
19260SOL    HW157804   2.479  12.131   4.744
19260SOL    HW257805   2.372  12.042   4.830
19261SOL     OW57806   3.222  12.034   4.769
19261SOL    HW157807   3.147  12.034   4.703
19261SOL    HW257808   3.259  11.942   4.778
19262SOL     OW57809   3.071  11.697   3.999
19262SOL    HW157810   3.084  11.613   4.053
19262SOL    HW257811   3.042  11.771   4.059
19263SOL     OW57812   2.169  11.385   4.955
19263SOL    HW157813   2.146  11.422   5.045
19263SOL    HW257814   2.139  11.290   4.949
19264SOL     OW57815   1.899  12.482   5.006
19264SOL    HW157816   1.952  12.433   5.074
19264SOL    HW257817   1.921  12.580   5.011
19265SOL     OW57818   2.594  11.806   4.788
19265SOL    HW157819   2.653  11.780   4.712
19265SOL    HW257820   2.566  11.902   4.777
19266SOL     OW57821   3.590  12.107   5.578
19266SOL    HW157822   3.544  12.100   5.489
19266SOL    HW257823   3.528  12.151   5.644
19267SOL     OW57824   2.169  11.235   4.342
19267SOL    HW157825   2.158  11.329   4.375
19267SOL    HW257826   2.164  11.172   4.419
19268SOL     OW57827   3.484  11.539   4.098
19268SOL    HW157828   3.486  11.463   4.162
19268SOL    HW257829   3.436  11.616   4.138
19269SOL     OW57830   2.885  11.938   4.690
19269SOL    HW157831   2.900  11.959   4.786
19269SOL    HW257832   2.855  11.843   4.681
19270SOL     OW57833   3.721  12.690   5.329
19270SOL    HW157834   3.735  12.717   5.234
19270SOL    HW257835   3.804  12.712   5.382
19271SOL     OW57836   2.212  12.070   5.528
19271SOL    HW157837   2.288  12.114   5.576
19271SOL    HW257838   2.247  12.023   5.446
19272SOL     OW57839   3.402  11.446   3.849
19272SOL    HW157840   3.341  11.371   3.872
19272SOL    HW257841   3.424  11.498   3.932
19273SOL     OW57842   3.165  12.010   3.766
19273SOL    HW157843   3.199  11.917   3.781
19273SOL    HW257844   3.183  12.037   3.671
19274SOL     OW57845   2.930  12.505   4.573
19274SOL    HW157846   2.937  12.421   4.518
19274SOL    HW257847   2.992  12.574   4.537
19275SOL     OW57848   2.181  11.982   4.673
19275SOL    HW157849   2.274  12.018   4.678
19275SOL    HW257850   2.175  11.897   4.725
19276SOL     OW57851   2.201  11.681   4.730
19276SOL    HW157852   2.149  11.598   4.713
19276SOL    HW257853   2.278  11.686   4.666
19277SOL     OW57854   3.000  11.552   5.402
19277SOL    HW157855   2.955  11.615   5.466
19277SOL    HW257856   3.093  11.583   5.385
19278SOL     OW57857   3.022  11.379   5.201
19278SOL    HW157858   3.022  11.443   5.278
19278SOL    HW257859   3.050  11.427   5.118
19279SOL     OW57860   1.870  12.498   3.924
19279SOL    HW157861   1.777  12.519   3.893
19279SOL    HW257862   1.880  12.399   3.937
19280SOL     OW57863   2.366  12.740   4.634
19280SOL    HW157864   2.432  12.814   4.643
19280SOL    HW257865   2.410  12.661   4.592
19281SOL     OW57866   2.864  11.968   4.962
19281SOL    HW157867   2.905  11.936   5.048
19281SOL    HW257868   2.768  11.941   4.959
19282SOL     OW57869   1.902  11.716   4.838
19282SOL    HW157870   1.987  11.683   4.797
19282SOL    HW257871   1.915  11.731   4.936
19283SOL     OW57872   2.051  11.692   5.446
19283SOL    HW157873   2.110  11.652   5.376
19283SOL    HW257874   1.993  11.763   5.405
19284SOL     OW57875   3.231  12.122   5.384
19284SOL    HW157876   3.270  12.211   5.404
19284SOL    HW257877   3.241  12.102   5.287
19285SOL     OW57878   2.677  11.744   4.049
19285SOL    HW157879   2.684  11.655   4.003
19285SOL    HW257880   2.583  11.778   4.041
19286SOL     OW57881   3.519  11.776   4.930
19286SOL    HW157882   3.481  11.707   4.992
19286SOL    HW257883   3.601  11.740   4.886
19287SOL     OW57884   2.114  12.736   5.468
19287SOL    HW157885   2.084  12.793   5.544
19287SOL    HW257886   2.107  12.639   5.494
19288SOL     OW57887   2.533  11.636   4.993
19288SOL    HW157888   2.499  11.547   4.963
19288SOL    HW257889   2.559  11.690   4.913
19289SOL     OW57890   2.335  11.672   3.915
19289SOL    HW157891   2.396  11.752   3.919
19289SOL    HW257892   2.240  11.703   3.922
19290SOL     OW57893   2.021  12.309   5.190
19290SOL    HW157894   2.043  12.248   5.266
19290SOL    HW257895   2.031  12.260   5.104
19291SOL     OW57896   3.209  12.231   4.958
19291SOL    HW157897   3.233  12.168   4.884
19291SOL    HW257898   3.119  12.271   4.940
19292SOL     OW57899   3.164  12.027   4.033
19292SOL    HW157900   3.078  11.996   4.075
19292SOL    HW257901   3.160  12.013   3.934
19293SOL     OW57902   3.114  12.903   4.852
19293SOL    HW157903   3.198  12.908   4.798
19293SOL    HW257904   3.091  12.807   4.870
19294SOL     OW57905   1.945  12.430   4.746
19294SOL    HW157906   1.940  12.429   4.846
19294SOL    HW257907   1.862  12.389   4.708
19295SOL     OW57908   3.588  11.307   4.247
19295SOL    HW157909   3.661  11.290   4.180
19295SOL    HW257910   3.557  11.220   4.285
19296SOL     OW57911   1.992  12.966   5.575
19296SOL    HW157912   1.951  12.892   5.628
19296SOL    HW257913   2.056  13.017   5.633
19297SOL     OW57914   3.142  12.099   4.396
19297SOL    HW157915   3.202  12.018   4.398
19297SOL    HW257916   3.182  12.168   4.336
19298SOL     OW57917   2.692  12.445   5.146
19298SOL    HW157918   2.687  12.478   5.241
19298SOL    HW257919   2.606  12.464   5.100
19299SOL     OW57920   2.534  12.788   3.878
19299SOL    HW157921   2.543  12.798   3.779
19299SOL    HW257922   2.494  12.699   3.899
19300SOL     OW57923   3.703  11.347   4.687
19300SOL    HW157924   3.742  11.262   4.651
19300SOL    HW257925   3.605  11.349   4.668
19301SOL     OW57926   2.125  11.498   4.444
19301SOL    HW157927   2.046  11.549   4.410
19301SOL    HW257928   2.116  11.483   4.542
19302SOL     OW57929   3.056  12.784   3.755
19302SOL    HW157930   3.062  12.691   3.792
19302SOL    HW257931   2.997  12.784   3.675
19303SOL     OW57932   2.684  12.174   5.096
19303SOL    HW157933   2.724  12.173   5.004
19303SOL    HW257934   2.694  12.266   5.136
19304SOL     OW57935   2.778  12.082   4.015
19304SOL    HW157936   2.841  12.120   3.947
19304SOL    HW257937   2.818  11.999   4.054
19305SOL     OW57938   2.234  12.460   5.214
19305SOL    HW157939   2.221  12.553   5.180
19305SOL    HW257940   2.150  12.408   5.201
19306SOL     OW57941   3.476  12.464   5.013
19306SOL    HW157942   3.536  12.467   5.093
19306SOL    HW257943   3.401  12.528   5.026
19307SOL     OW57944   2.901  12.270   4.420
19307SOL    HW157945   2.831  12.223   4.474
19307SOL    HW257946   2.960  12.202   4.377
19308SOL     OW57947   2.876  11.408   4.695
19308SOL    HW157948   2.868  11.372   4.602
19308SOL    HW257949   2.874  11.332   4.760
19309SOL     OW57950   2.452  12.659   4.215
19309SOL    HW157951   2.494  12.601   4.145
19309SOL    HW257952   2.408  12.738   4.171
19310SOL     OW57953   3.571  11.557   5.105
19310SOL    HW157954   3.644  11.626   5.109
19310SOL    HW257955   3.599  11.482   5.046
19311SOL     OW57956   2.117  12.520   4.014
19311SOL    HW157957   2.021  12.521   3.987
19311SOL    HW257958   2.129  12.573   4.098
19312SOL     OW57959   1.967  12.185   5.450
19312SOL    HW157960   1.890  12.152   5.504
19312SOL    HW257961   2.052  12.155   5.492
19313SOL     OW57962   2.534  11.375   5.213
19313SOL    HW157963   2.624  11.359   5.173
19313SOL    HW257964   2.542  11.380   5.312
19314SOL     OW57965   1.937  11.517   3.757
19314SOL    HW157966   1.845  11.489   3.728
19314SOL    HW257967   1.968  11.594   3.701
19315SOL     OW57968   3.302  12.028   5.122
19315SOL    HW157969   3.245  12.080   5.059
19315SOL    HW257970   3.398  12.040   5.098
19316SOL     OW57971   1.934  11.338   4.042
19316SOL    HW157972   1.917  11.421   3.988
19316SOL    HW257973   2.024  11.301   4.020
19317SOL     OW57974   3.045  12.507   3.843
19317SOL    HW157975   2.946  12.496   3.845
19317SOL    HW257976   3.079  12.522   3.936
19318SOL     OW57977   2.475  12.014   5.155
19318SOL    HW157978   2.531  12.095   5.138
19318SOL    HW257979   2.534  11.934   5.158
19319SOL     OW57980   2.578  11.737   5.432
19319SOL    HW157981   2.597  11.802   5.506
19319SOL    HW257982   2.638  11.657   5.441
19320SOL     OW57983   3.312  12.392   5.357
19320SOL    HW157984   3.303  12.382   5.456
19320SOL    HW257985   3.408  12.385   5.331
19321SOL     OW57986   3.536  12.055   4.978
19321SOL    HW157987   3.509  11.966   4.941
19321SOL    HW257988   3.537  12.123   4.905
19322SOL     OW57989   3.087  11.497   4.173
19322SOL    HW157990   3.152  11.423   4.162
19322SOL    HW257991   3.107  11.547   4.257
19323SOL     OW57992   2.456  11.917   4.376
19323SOL    HW157993   2.506  12.002   4.357
19323SOL    HW257994   2.368  11.919   4.328
19324SOL     OW57995   3.639  11.514   5.366
19324SOL    HW157996   3.622  11.545   5.272
19324SOL    HW257997   3.555  11.477   5.404
19325SOL     OW57998   3.592  12.106   5.241
19325SOL    HW157999   3.630  12.197   5.256
19325SOL    HW258000   3.584  12.089   5.142
19326SOL     OW58001   2.721  12.546   3.740
19326SOL    HW158002   2.675  12.561   3.828
19326SOL    HW258003   2.765  12.631   3.710
19327SOL     OW58004   2.721  12.128   4.585
19327SOL    HW158005   2.775  12.059   4.633
19327SOL    HW258006   2.689  12.197   4.651
19328SOL     OW58007   2.945  12.156   3.811
19328SOL    HW158008   2.922  12.209   3.729
19328SOL    HW258009   3.026  12.100   3.792
19329SOL     OW58010   3.723  12.741   4.575
19329SOL    HW158011   3.652  12.729   4.505
19329SOL    HW258012   3.724  12.662   4.635
19330SOL     OW58013   2.083  12.486   5.568
19330SOL    HW158014   2.018  12.413   5.547
19330SOL    HW258015   2.087  12.500   5.666
19331SOL     OW58016   1.941  12.412   4.377
19331SOL    HW158017   1.940  12.365   4.465
19331SOL    HW258018   2.023  12.384   4.326
19332SOL     OW58019   2.534  12.563   5.348
19332SOL    HW158020   2.456  12.513   5.386
19332SOL    HW258021   2.531  12.658   5.379
19333SOL     OW58022   3.686  11.364   4.951
19333SOL    HW158023   3.682  11.274   4.995
19333SOL    HW258024   3.689  11.353   4.852
19334SOL     OW58025   2.290  11.596   4.244
19334SOL    HW158026   2.320  11.524   4.182
19334SOL    HW258027   2.251  11.556   4.327
19335SOL     OW58028   3.567  12.659   4.828
19335SOL    HW158029   3.474  12.634   4.801
19335SOL    HW258030   3.593  12.609   4.910
19336SOL     OW58031   2.179  11.719   5.004
19336SOL    HW158032   2.217  11.660   5.076
19336SOL    HW258033   2.219  11.693   4.916
19337SOL     OW58034   3.286  11.386   4.836
19337SOL    HW158035   3.338  11.321   4.891
19337SOL    HW258036   3.237  11.449   4.897
19338SOL     OW58037   2.863  11.206   4.878
19338SOL    HW158038   2.800  11.134   4.847
19338SOL    HW258039   2.956  11.170   4.878
19339SOL     OW58040   2.632  12.502   4.025
19339SOL    HW158041   2.586  12.415   4.042
19339SOL    HW258042   2.723  12.499   4.066
19340SOL     OW58043   2.480  12.739   5.008
19340SOL    HW158044   2.475  12.821   5.065
19340SOL    HW258045   2.569  12.736   4.963
19341SOL     OW58046   3.214  11.224   3.892
19341SOL    HW158047   3.249  11.183   3.808
19341SOL    HW258048   3.124  11.186   3.912
19342SOL     OW58049   3.162  11.625   4.415
19342SOL    HW158050   3.103  11.705   4.419
19342SOL    HW258051   3.177  11.590   4.508
19343SOL     OW58052   3.455  11.393   4.606
19343SOL    HW158053   3.371  11.392   4.660
19343SOL    HW258054   3.457  11.476   4.550
19344SOL     OW58055   1.901  12.249   4.024
19344SOL    HW158056   2.000  12.238   4.015
19344SOL    HW258057   1.861  12.163   4.056
19345SOL     OW58058   2.092  11.800   5.699
19345SOL    HW158059   1.999  11.798   5.736
19345SOL    HW258060   2.093  11.761   5.607
19346SOL     OW58061   2.087  11.447   6.582
19346SOL    HW158062   2.122  11.430   6.674
19346SOL    HW258063   1.999  11.402   6.570
19347SOL     OW58064   1.881  11.540   6.233
19347SOL    HW158065   1.799  11.583   6.272
19347SOL    HW258066   1.853  11.467   6.170
19348SOL     OW58067   2.431  12.447   6.751
19348SOL    HW158068   2.338  12.440   6.714
19348SOL    HW258069   2.442  12.536   6.795
19349SOL     OW58070   3.417  12.683   6.289
19349SOL    HW158071   3.360  12.667   6.370
19349SOL    HW258072   3.358  12.693   6.209
19350SOL     OW58073   2.997  11.875   6.303
19350SOL    HW158074   3.054  11.953   6.278
19350SOL    HW258075   2.937  11.901   6.379
19351SOL     OW58076   3.617  11.779   5.817
19351SOL    HW158077   3.605  11.766   5.718
19351SOL    HW258078   3.587  11.698   5.866
19352SOL     OW58079   2.630  12.316   6.609
19352SOL    HW158080   2.552  12.333   6.669
19352SOL    HW258081   2.664  12.403   6.573
19353SOL     OW58082   2.712  11.970   7.409
19353SOL    HW158083   2.708  12.046   7.474
19353SOL    HW258084   2.734  12.006   7.318
19354SOL     OW58085   2.547  12.184   6.251
19354SOL    HW158086   2.616  12.168   6.321
19354SOL    HW258087   2.474  12.241   6.289
19355SOL     OW58088   2.548  12.333   7.389
19355SOL    HW158089   2.608  12.412   7.403
19355SOL    HW258090   2.462  12.364   7.348
19356SOL     OW58091   2.197  12.607   6.647
19356SOL    HW158092   2.119  12.576   6.594
19356SOL    HW258093   2.255  12.665   6.590
19357SOL     OW58094   3.322  12.677   6.925
19357SOL    HW158095   3.346  12.771   6.951
19357SOL    HW258096   3.306  12.623   7.007
19358SOL     OW58097   2.300  11.564   7.085
19358SOL    HW158098   2.382  11.508   7.094
19358SOL    HW258099   2.219  11.506   7.089
19359SOL     OW58100   3.465  11.619   6.323
19359SOL    HW158101   3.391  11.665   6.273
19359SOL    HW258102   3.516  11.687   6.376
19360SOL     OW58103   2.989  12.513   7.276
19360SOL    HW158104   3.036  12.513   7.364
19360SOL    HW258105   2.941  12.426   7.265
19361SOL     OW58106   2.092  12.606   6.124
19361SOL    HW158107   2.066  12.702   6.124
19361SOL    HW258108   2.021  12.552   6.169
19362SOL     OW58109   2.102  12.263   6.472
19362SOL    HW158110   2.116  12.179   6.524
19362SOL    HW258111   2.047  12.327   6.527
19363SOL     OW58112   2.468  12.136   5.709
19363SOL    HW158113   2.475  12.220   5.655
19363SOL    HW258114   2.514  12.149   5.797
19364SOL     OW58115   3.456  11.286   7.066
19364SOL    HW158116   3.438  11.353   6.994
19364SOL    HW258117   3.453  11.332   7.155
19365SOL     OW58118   1.984  11.815   6.149
19365SOL    HW158119   1.939  11.727   6.166
19365SOL    HW258120   1.983  11.869   6.233
19366SOL     OW58121   1.889  12.768   5.703
19366SOL    HW158122   1.870  12.672   5.724
19366SOL    HW258123   1.856  12.826   5.778
19367SOL     OW58124   3.551  12.094   6.198
19367SOL    HW158125   3.646  12.065   6.206
19367SOL    HW258126   3.543  12.159   6.123
19368SOL     OW58127   3.503  12.280   6.018
19368SOL    HW158128   3.589  12.282   5.966
19368SOL    HW258129   3.517  12.327   6.106
19369SOL     OW58130   1.975  11.909   7.183
19369SOL    HW158131   2.063  11.896   7.228
19369SOL    HW258132   1.962  12.006   7.161
19370SOL     OW58133   2.475  12.537   6.312
19370SOL    HW158134   2.426  12.450   6.321
19370SOL    HW258135   2.452  12.580   6.225
19371SOL     OW58136   3.155  12.400   7.009
19371SOL    HW158137   3.192  12.327   6.951
19371SOL    HW258138   3.207  12.405   7.094
19372SOL     OW58139   2.671  11.176   6.088
19372SOL    HW158140   2.711  11.267   6.079
19372SOL    HW258141   2.571  11.184   6.094
19373SOL     OW58142   2.059  12.148   6.850
19373SOL    HW158143   2.148  12.103   6.836
19373SOL    HW258144   1.986  12.083   6.831
19374SOL     OW58145   3.387  12.171   5.776
19374SOL    HW158146   3.324  12.095   5.789
19374SOL    HW258147   3.435  12.189   5.862
19375SOL     OW58148   2.179  11.423   7.387
19375SOL    HW158149   2.250  11.494   7.393
19375SOL    HW258150   2.091  11.462   7.415
19376SOL     OW58151   3.328  12.589   6.539
19376SOL    HW158152   3.269  12.595   6.619
19376SOL    HW258153   3.313  12.501   6.493
19377SOL     OW58154   2.460  11.901   5.856
19377SOL    HW158155   2.484  11.970   5.788
19377SOL    HW258156   2.382  11.934   5.910
19378SOL     OW58157   3.143  11.517   6.530
19378SOL    HW158158   3.057  11.467   6.517
19378SOL    HW258159   3.205  11.463   6.586
19379SOL     OW58160   3.438  12.834   5.893
19379SOL    HW158161   3.527  12.880   5.896
19379SOL    HW258162   3.417  12.810   5.798
19380SOL     OW58163   2.669  11.777   7.051
19380SOL    HW158164   2.622  11.774   7.140
19380SOL    HW258165   2.618  11.722   6.985
19381SOL     OW58166   3.256  11.641   7.260
19381SOL    HW158167   3.236  11.684   7.348
19381SOL    HW258168   3.334  11.579   7.269
19382SOL     OW58169   2.835  12.062   7.158
19382SOL    HW158170   2.881  11.978   7.129
19382SOL    HW258171   2.779  12.096   7.083
19383SOL     OW58172   2.853  11.582   6.828
19383SOL    HW158173   2.776  11.616   6.882
19383SOL    HW258174   2.819  11.531   6.749
19384SOL     OW58175   2.903  11.873   6.015
19384SOL    HW158176   2.929  11.869   6.111
19384SOL    HW258177   2.818  11.822   6.001
19385SOL     OW58178   1.938  11.983   6.375
19385SOL    HW158179   2.037  11.971   6.384
19385SOL    HW258180   1.914  12.078   6.396
19386SOL     OW58181   2.727  11.520   5.781
19386SOL    HW158182   2.786  11.583   5.732
19386SOL    HW258183   2.746  11.426   5.752
19387SOL     OW58184   3.581  11.757   7.417
19387SOL    HW158185   3.555  11.846   7.381
19387SOL    HW258186   3.579  11.689   7.344
19388SOL     OW58187   3.224  12.316   6.131
19388SOL    HW158188   3.307  12.287   6.083
19388SOL    HW258189   3.175  12.383   6.075
19389SOL     OW58190   2.412  11.368   6.471
19389SOL    HW158191   2.407  11.363   6.571
19389SOL    HW258192   2.414  11.464   6.442
19390SOL     OW58193   2.870  12.628   6.063
19390SOL    HW158194   2.824  12.700   6.011
19390SOL    HW258195   2.866  12.648   6.161
19391SOL     OW58196   3.657  12.238   6.459
19391SOL    HW158197   3.595  12.223   6.383
19391SOL    HW258198   3.605  12.249   6.544
19392SOL     OW58199   3.089  12.722   7.092
19392SOL    HW158200   3.095  12.645   7.156
19392SOL    HW258201   3.037  12.696   7.012
19393SOL     OW58202   2.183  12.115   5.828
19393SOL    HW158203   2.265  12.154   5.786
19393SOL    HW258204   2.156  12.033   5.779
19394SOL     OW58205   3.320  11.907   6.314
19394SOL    HW158206   3.315  11.842   6.389
19394SOL    HW258207   3.400  11.966   6.327
19395SOL     OW58208   2.323  12.438   7.313
19395SOL    HW158209   2.273  12.439   7.227
19395SOL    HW258210   2.260  12.420   7.389
19396SOL     OW58211   2.064  11.457   7.084
19396SOL    HW158212   1.984  11.517   7.071
19396SOL    HW258213   2.054  11.408   7.170
19397SOL     OW58214   3.494  12.549   5.667
19397SOL    HW158215   3.462  12.643   5.657
19397SOL    HW258216   3.418  12.486   5.655
19398SOL     OW58217   3.262  11.279   6.012
19398SOL    HW158218   3.238  11.242   5.922
19398SOL    HW258219   3.361  11.295   6.016
19399SOL     OW58220   2.244  11.872   6.066
19399SOL    HW158221   2.289  11.782   6.063
19399SOL    HW258222   2.150  11.861   6.099
19400SOL     OW58223   3.409  11.394   7.315
19400SOL    HW158224   3.404  11.431   7.407
19400SOL    HW258225   3.337  11.325   7.303
19401SOL     OW58226   2.476  11.294   5.703
19401SOL    HW158227   2.574  11.272   5.710
19401SOL    HW258228   2.445  11.277   5.610
19402SOL     OW58229   2.643  11.436   7.335
19402SOL    HW158230   2.710  11.375   7.378
19402SOL    HW258231   2.570  11.455   7.400
19403SOL     OW58232   3.213  11.762   7.019
19403SOL    HW158233   3.241  11.719   7.104
19403SOL    HW258234   3.238  11.858   7.020
19404SOL     OW58235   2.665  12.574   6.510
19404SOL    HW158236   2.755  12.588   6.468
19404SOL    HW258237   2.594  12.576   6.439
19405SOL     OW58238   2.784  11.675   6.485
19405SOL    HW158239   2.759  11.666   6.389
19405SOL    HW258240   2.832  11.593   6.516
19406SOL     OW58241   2.401  11.236   6.098
19406SOL    HW158242   2.320  11.237   6.156
19406SOL    HW258243   2.404  11.319   6.043
19407SOL     OW58244   3.296  12.360   5.627
19407SOL    HW158245   3.328  12.284   5.684
19407SOL    HW258246   3.204  12.387   5.657
19408SOL     OW58247   2.159  11.207   5.757
19408SOL    HW158248   2.208  11.291   5.736
19408SOL    HW258249   2.221  11.142   5.802
19409SOL     OW58250   2.797  11.408   6.066
19409SOL    HW158251   2.749  11.449   5.988
19409SOL    HW258252   2.896  11.406   6.047
19410SOL     OW58253   2.938  11.855   7.050
19410SOL    HW158254   2.858  11.794   7.053
19410SOL    HW258255   3.019  11.802   7.026
19411SOL     OW58256   3.089  12.742   6.379
19411SOL    HW158257   3.110  12.816   6.314
19411SOL    HW258258   3.157  12.742   6.452
19412SOL     OW58259   2.321  12.324   6.327
19412SOL    HW158260   2.250  12.297   6.392
19412SOL    HW258261   2.295  12.296   6.234
19413SOL     OW58262   2.894  11.721   5.602
19413SOL    HW158263   2.853  11.803   5.563
19413SOL    HW258264   2.958  11.747   5.675
19414SOL     OW58265   1.940  11.728   6.972
19414SOL    HW158266   2.032  11.727   6.931
19414SOL    HW258267   1.934  11.802   7.039
19415SOL     OW58268   2.423  11.394   6.733
19415SOL    HW158269   2.461  11.310   6.770
19415SOL    HW258270   2.335  11.413   6.777
19416SOL     OW58271   2.728  11.626   6.228
19416SOL    HW158272   2.696  11.698   6.166
19416SOL    HW258273   2.752  11.545   6.175
19417SOL     OW58274   2.879  11.211   6.339
19417SOL    HW158275   2.807  11.216   6.270
19417SOL    HW258276   2.855  11.142   6.408
19418SOL     OW58277   3.291  12.345   6.453
19418SOL    HW158278   3.236  12.261   6.446
19418SOL    HW258279   3.317  12.374   6.361
19419SOL     OW58280   3.328  11.762   6.578
19419SOL    HW158281   3.298  11.667   6.585
19419SOL    HW258282   3.401  11.778   6.644
19420SOL     OW58283   3.719  12.005   5.963
19420SOL    HW158284   3.761  11.941   6.027
19420SOL    HW258285   3.681  11.954   5.885
19421SOL     OW58286   2.350  12.557   5.760
19421SOL    HW158287   2.263  12.542   5.807
19421SOL    HW258288   2.333  12.583   5.665
19422SOL     OW58289   3.526  12.452   6.243
19422SOL    HW158290   3.625  12.460   6.257
19422SOL    HW258291   3.481  12.536   6.274
19423SOL     OW58292   3.252  11.747   5.664
19423SOL    HW158293   3.198  11.726   5.745
19423SOL    HW258294   3.343  11.706   5.673
19424SOL     OW58295   2.389  11.428   5.914
19424SOL    HW158296   2.416  11.369   5.839
19424SOL    HW258297   2.389  11.523   5.883
19425SOL     OW58298   3.616  12.395   7.174
19425SOL    HW158299   3.707  12.356   7.161
19425SOL    HW258300   3.624  12.491   7.198
19426SOL     OW58301   2.926  12.519   6.926
19426SOL    HW158302   2.846  12.496   6.981
19426SOL    HW258303   3.009  12.493   6.975
19427SOL     OW58304   2.973  12.367   6.686
19427SOL    HW158305   2.933  12.411   6.767
19427SOL    HW258306   2.932  12.404   6.603
19428SOL     OW58307   3.500  12.271   6.665
19428SOL    HW158308   3.505  12.352   6.724
19428SOL    HW258309   3.414  12.273   6.614
19429SOL     OW58310   2.777  11.261   6.988
19429SOL    HW158311   2.802  11.241   6.893
19429SOL    HW258312   2.849  11.317   7.030
19430SOL     OW58313   2.842  12.288   7.305
19430SOL    HW158314   2.743  12.294   7.315
19430SOL    HW258315   2.865  12.208   7.249
19431SOL     OW58316   2.567  12.222   5.954
19431SOL    HW158317   2.553  12.229   6.053
19431SOL    HW258318   2.651  12.171   5.936
19432SOL     OW58319   2.272  11.985   6.837
19432SOL    HW158320   2.358  11.997   6.887
19432SOL    HW258321   2.230  11.898   6.864
19433SOL     OW58322   3.136  11.558   6.848
19433SOL    HW158323   3.157  11.632   6.912
19433SOL    HW258324   3.047  11.575   6.805
19434SOL     OW58325   1.926  12.736   6.917
19434SOL    HW158326   1.880  12.818   6.883
19434SOL    HW258327   2.024  12.755   6.926
19435SOL     OW58328   2.229  12.272   6.087
19435SOL    HW158329   2.222  12.355   6.031
19435SOL    HW258330   2.233  12.192   6.027
19436SOL     OW58331   2.428  11.709   6.451
19436SOL    HW158332   2.440  11.775   6.377
19436SOL    HW258333   2.474  11.743   6.534
19437SOL     OW58334   3.114  12.520   5.974
19437SOL    HW158335   3.164  12.597   6.014
19437SOL    HW258336   3.019  12.522   6.006
19438SOL     OW58337   3.134  12.617   6.728
19438SOL    HW158338   3.181  12.630   6.815
19438SOL    HW258339   3.068  12.543   6.737
19439SOL     OW58340   3.444  11.811   6.058
19439SOL    HW158341   3.413  11.872   6.131
19439SOL    HW258342   3.494  11.863   5.989
19440SOL     OW58343   2.216  12.682   6.915
19440SOL    HW158344   2.195  12.638   6.828
19440SOL    HW258345   2.313  12.708   6.918
19441SOL     OW58346   2.264  11.923   7.184
19441SOL    HW158347   2.332  11.978   7.137
19441SOL    HW258348   2.304  11.835   7.211
19442SOL     OW58349   3.449  11.951   7.256
19442SOL    HW158350   3.357  11.989   7.251
19442SOL    HW258351   3.509  11.998   7.191
19443SOL     OW58352   2.875  11.277   7.356
19443SOL    HW158353   2.881  11.362   7.304
19443SOL    HW258354   2.907  11.201   7.299
19444SOL     OW58355   2.366  11.222   7.326
19444SOL    HW158356   2.324  11.165   7.256
19444SOL    HW258357   2.300  11.291   7.358
19445SOL     OW58358   2.435  12.042   6.615
19445SOL    HW158359   2.479  12.131   6.606
19445SOL    HW258360   2.372  12.042   6.692
19446SOL     OW58361   3.222  12.034   6.631
19446SOL    HW158362   3.147  12.034   6.565
19446SOL    HW258363   3.259  11.942   6.640
19447SOL     OW58364   3.071  11.697   5.861
19447SOL    HW158365   3.084  11.613   5.915
19447SOL    HW258366   3.042  11.771   5.921
19448SOL     OW58367   2.169  11.385   6.817
19448SOL    HW158368   2.146  11.422   6.907
19448SOL    HW258369   2.139  11.290   6.811
19449SOL     OW58370   1.899  12.482   6.868
19449SOL    HW158371   1.952  12.433   6.936
19449SOL    HW258372   1.921  12.580   6.873
19450SOL     OW58373   2.594  11.806   6.650
19450SOL    HW158374   2.653  11.780   6.574
19450SOL    HW258375   2.566  11.902   6.639
19451SOL     OW58376   3.590  12.107   7.440
19451SOL    HW158377   3.544  12.100   7.351
19451SOL    HW258378   3.528  12.151   7.506
19452SOL     OW58379   2.169  11.235   6.204
19452SOL    HW158380   2.158  11.329   6.237
19452SOL    HW258381   2.164  11.172   6.281
19453SOL     OW58382   3.484  11.539   5.960
19453SOL    HW158383   3.486  11.463   6.024
19453SOL    HW258384   3.436  11.616   6.000
19454SOL     OW58385   2.885  11.938   6.552
19454SOL    HW158386   2.900  11.959   6.648
19454SOL    HW258387   2.855  11.843   6.543
19455SOL     OW58388   3.721  12.690   7.191
19455SOL    HW158389   3.735  12.717   7.096
19455SOL    HW258390   3.804  12.712   7.244
19456SOL     OW58391   2.212  12.070   7.390
19456SOL    HW158392   2.288  12.114   7.438
19456SOL    HW258393   2.247  12.023   7.308
19457SOL     OW58394   3.402  11.446   5.711
19457SOL    HW158395   3.341  11.371   5.734
19457SOL    HW258396   3.424  11.498   5.794
19458SOL     OW58397   3.165  12.010   5.628
19458SOL    HW158398   3.199  11.917   5.643
19458SOL    HW258399   3.183  12.037   5.533
19459SOL     OW58400   2.930  12.505   6.435
19459SOL    HW158401   2.937  12.421   6.380
19459SOL    HW258402   2.992  12.574   6.399
19460SOL     OW58403   2.181  11.982   6.535
19460SOL    HW158404   2.274  12.018   6.540
19460SOL    HW258405   2.175  11.897   6.587
19461SOL     OW58406   2.201  11.681   6.592
19461SOL    HW158407   2.149  11.598   6.575
19461SOL    HW258408   2.278  11.686   6.528
19462SOL     OW58409   3.000  11.552   7.264
19462SOL    HW158410   2.955  11.615   7.328
19462SOL    HW258411   3.093  11.583   7.247
19463SOL     OW58412   3.022  11.379   7.063
19463SOL    HW158413   3.022  11.443   7.140
19463SOL    HW258414   3.050  11.427   6.980
19464SOL     OW58415   1.870  12.498   5.786
19464SOL    HW158416   1.777  12.519   5.755
19464SOL    HW258417   1.880  12.399   5.799
19465SOL     OW58418   2.366  12.740   6.496
19465SOL    HW158419   2.432  12.814   6.505
19465SOL    HW258420   2.410  12.661   6.454
19466SOL     OW58421   2.864  11.968   6.824
19466SOL    HW158422   2.905  11.936   6.910
19466SOL    HW258423   2.768  11.941   6.821
19467SOL     OW58424   1.902  11.716   6.700
19467SOL    HW158425   1.987  11.683   6.659
19467SOL    HW258426   1.915  11.731   6.798
19468SOL     OW58427   2.051  11.692   7.308
19468SOL    HW158428   2.110  11.652   7.238
19468SOL    HW258429   1.993  11.763   7.267
19469SOL     OW58430   3.231  12.122   7.246
19469SOL    HW158431   3.270  12.211   7.266
19469SOL    HW258432   3.241  12.102   7.149
19470SOL     OW58433   2.677  11.744   5.911
19470SOL    HW158434   2.684  11.655   5.865
19470SOL    HW258435   2.583  11.778   5.903
19471SOL     OW58436   3.519  11.776   6.792
19471SOL    HW158437   3.481  11.707   6.854
19471SOL    HW258438   3.601  11.740   6.748
19472SOL     OW58439   2.114  12.736   7.330
19472SOL    HW158440   2.084  12.793   7.406
19472SOL    HW258441   2.107  12.639   7.356
19473SOL     OW58442   2.533  11.636   6.855
19473SOL    HW158443   2.499  11.547   6.825
19473SOL    HW258444   2.559  11.690   6.775
19474SOL     OW58445   2.335  11.672   5.777
19474SOL    HW158446   2.396  11.752   5.781
19474SOL    HW258447   2.240  11.703   5.784
19475SOL     OW58448   2.021  12.309   7.052
19475SOL    HW158449   2.043  12.248   7.128
19475SOL    HW258450   2.031  12.260   6.966
19476SOL     OW58451   3.209  12.231   6.820
19476SOL    HW158452   3.233  12.168   6.746
19476SOL    HW258453   3.119  12.271   6.802
19477SOL     OW58454   3.164  12.027   5.895
19477SOL    HW158455   3.078  11.996   5.937
19477SOL    HW258456   3.160  12.013   5.796
19478SOL     OW58457   3.114  12.903   6.714
19478SOL    HW158458   3.198  12.908   6.660
19478SOL    HW258459   3.091  12.807   6.732
19479SOL     OW58460   1.945  12.430   6.608
19479SOL    HW158461   1.940  12.429   6.708
19479SOL    HW258462   1.862  12.389   6.570
19480SOL     OW58463   3.588  11.307   6.109
19480SOL    HW158464   3.661  11.290   6.042
19480SOL    HW258465   3.557  11.220   6.147
19481SOL     OW58466   1.992  12.966   7.437
19481SOL    HW158467   1.951  12.892   7.490
19481SOL    HW258468   2.056  13.017   7.495
19482SOL     OW58469   3.142  12.099   6.258
19482SOL    HW158470   3.202  12.018   6.260
19482SOL    HW258471   3.182  12.168   6.198
19483SOL     OW58472   2.692  12.445   7.008
19483SOL    HW158473   2.687  12.478   7.103
19483SOL    HW258474   2.606  12.464   6.962
19484SOL     OW58475   2.534  12.788   5.740
19484SOL    HW158476   2.543  12.798   5.641
19484SOL    HW258477   2.494  12.699   5.761
19485SOL     OW58478   3.703  11.347   6.549
19485SOL    HW158479   3.742  11.262   6.513
19485SOL    HW258480   3.605  11.349   6.530
19486SOL     OW58481   2.125  11.498   6.306
19486SOL    HW158482   2.046  11.549   6.272
19486SOL    HW258483   2.116  11.483   6.404
19487SOL     OW58484   3.056  12.784   5.617
19487SOL    HW158485   3.062  12.691   5.654
19487SOL    HW258486   2.997  12.784   5.537
19488SOL     OW58487   2.684  12.174   6.958
19488SOL    HW158488   2.724  12.173   6.866
19488SOL    HW258489   2.694  12.266   6.998
19489SOL     OW58490   2.778  12.082   5.877
19489SOL    HW158491   2.841  12.120   5.809
19489SOL    HW258492   2.818  11.999   5.916
19490SOL     OW58493   2.234  12.460   7.076
19490SOL    HW158494   2.221  12.553   7.042
19490SOL    HW258495   2.150  12.408   7.063
19491SOL     OW58496   3.476  12.464   6.875
19491SOL    HW158497   3.536  12.467   6.955
19491SOL    HW258498   3.401  12.528   6.888
19492SOL     OW58499   2.901  12.270   6.282
19492SOL    HW158500   2.831  12.223   6.336
19492SOL    HW258501   2.960  12.202   6.239
19493SOL     OW58502   2.876  11.408   6.557
19493SOL    HW158503   2.868  11.372   6.464
19493SOL    HW258504   2.874  11.332   6.622
19494SOL     OW58505   2.452  12.659   6.077
19494SOL    HW158506   2.494  12.601   6.007
19494SOL    HW258507   2.408  12.738   6.033
19495SOL     OW58508   3.571  11.557   6.967
19495SOL    HW158509   3.644  11.626   6.971
19495SOL    HW258510   3.599  11.482   6.908
19496SOL     OW58511   2.117  12.520   5.876
19496SOL    HW158512   2.021  12.521   5.849
19496SOL    HW258513   2.129  12.573   5.960
19497SOL     OW58514   1.967  12.185   7.312
19497SOL    HW158515   1.890  12.152   7.366
19497SOL    HW258516   2.052  12.155   7.354
19498SOL     OW58517   2.534  11.375   7.075
19498SOL    HW158518   2.624  11.359   7.035
19498SOL    HW258519   2.542  11.380   7.174
19499SOL     OW58520   1.937  11.517   5.619
19499SOL    HW158521   1.845  11.489   5.590
19499SOL    HW258522   1.968  11.594   5.563
19500SOL     OW58523   3.302  12.028   6.984
19500SOL    HW158524   3.245  12.080   6.921
19500SOL    HW258525   3.398  12.040   6.960
19501SOL     OW58526   1.934  11.338   5.904
19501SOL    HW158527   1.917  11.421   5.850
19501SOL    HW258528   2.024  11.301   5.882
19502SOL     OW58529   3.045  12.507   5.705
19502SOL    HW158530   2.946  12.496   5.707
19502SOL    HW258531   3.079  12.522   5.798
19503SOL     OW58532   2.475  12.014   7.017
19503SOL    HW158533   2.531  12.095   7.000
19503SOL    HW258534   2.534  11.934   7.020
19504SOL     OW58535   2.578  11.737   7.294
19504SOL    HW158536   2.597  11.802   7.368
19504SOL    HW258537   2.638  11.657   7.303
19505SOL     OW58538   3.312  12.392   7.219
19505SOL    HW158539   3.303  12.382   7.318
19505SOL    HW258540   3.408  12.385   7.193
19506SOL     OW58541   3.536  12.055   6.840
19506SOL    HW158542   3.509  11.966   6.803
19506SOL    HW258543   3.537  12.123   6.767
19507SOL     OW58544   3.087  11.497   6.035
19507SOL    HW158545   3.152  11.423   6.024
19507SOL    HW258546   3.107  11.547   6.119
19508SOL     OW58547   2.456  11.917   6.238
19508SOL    HW158548   2.506  12.002   6.219
19508SOL    HW258549   2.368  11.919   6.190
19509SOL     OW58550   3.639  11.514   7.228
19509SOL    HW158551   3.622  11.545   7.134
19509SOL    HW258552   3.555  11.477   7.266
19510SOL     OW58553   3.592  12.106   7.103
19510SOL    HW158554   3.630  12.197   7.118
19510SOL    HW258555   3.584  12.089   7.004
19511SOL     OW58556   2.721  12.546   5.602
19511SOL    HW158557   2.675  12.561   5.690
19511SOL    HW258558   2.765  12.631   5.572
19512SOL     OW58559   2.721  12.128   6.447
19512SOL    HW158560   2.775  12.059   6.495
19512SOL    HW258561   2.689  12.197   6.513
19513SOL     OW58562   2.945  12.156   5.673
19513SOL    HW158563   2.922  12.209   5.591
19513SOL    HW258564   3.026  12.100   5.654
19514SOL     OW58565   3.723  12.741   6.437
19514SOL    HW158566   3.652  12.729   6.367
19514SOL    HW258567   3.724  12.662   6.497
19515SOL     OW58568   2.083  12.486   7.430
19515SOL    HW158569   2.018  12.413   7.409
19515SOL    HW258570   2.087  12.500   7.528
19516SOL     OW58571   1.941  12.412   6.239
19516SOL    HW158572   1.940  12.365   6.327
19516SOL    HW258573   2.023  12.384   6.188
19517SOL     OW58574   2.534  12.563   7.210
19517SOL    HW158575   2.456  12.513   7.248
19517SOL    HW258576   2.531  12.658   7.241
19518SOL     OW58577   3.686  11.364   6.813
19518SOL    HW158578   3.682  11.274   6.857
19518SOL    HW258579   3.689  11.353   6.714
19519SOL     OW58580   2.290  11.596   6.106
19519SOL    HW158581   2.320  11.524   6.044
19519SOL    HW258582   2.251  11.556   6.189
19520SOL     OW58583   3.567  12.659   6.690
19520SOL    HW158584   3.474  12.634   6.663
19520SOL    HW258585   3.593  12.609   6.772
19521SOL     OW58586   2.179  11.719   6.866
19521SOL    HW158587   2.217  11.660   6.938
19521SOL    HW258588   2.219  11.693   6.778
19522SOL     OW58589   3.286  11.386   6.698
19522SOL    HW158590   3.338  11.321   6.753
19522SOL    HW258591   3.237  11.449   6.759
19523SOL     OW58592   2.863  11.206   6.740
19523SOL    HW158593   2.800  11.134   6.709
19523SOL    HW258594   2.956  11.170   6.740
19524SOL     OW58595   2.632  12.502   5.887
19524SOL    HW158596   2.586  12.415   5.904
19524SOL    HW258597   2.723  12.499   5.928
19525SOL     OW58598   2.480  12.739   6.870
19525SOL    HW158599   2.475  12.821   6.927
19525SOL    HW258600   2.569  12.736   6.825
19526SOL     OW58601   3.214  11.224   5.754
19526SOL    HW158602   3.249  11.183   5.670
19526SOL    HW258603   3.124  11.186   5.774
19527SOL     OW58604   3.162  11.625   6.277
19527SOL    HW158605   3.103  11.705   6.281
19527SOL    HW258606   3.177  11.590   6.370
19528SOL     OW58607   3.455  11.393   6.468
19528SOL    HW158608   3.371  11.392   6.522
19528SOL    HW258609   3.457  11.476   6.412
19529SOL     OW58610   1.901  12.249   5.886
19529SOL    HW158611   2.000  12.238   5.877
19529SOL    HW258612   1.861  12.163   5.918
19530SOL     OW58613   2.092  11.800   7.561
19530SOL    HW158614   1.999  11.798   7.598
19530SOL    HW258615   2.093  11.761   7.469
19531SOL     OW58616   2.087  11.447   8.444
19531SOL    HW158617   2.122  11.430   8.536
19531SOL    HW258618   1.999  11.402   8.432
19532SOL     OW58619   1.881  11.540   8.095
19532SOL    HW158620   1.799  11.583   8.134
19532SOL    HW258621   1.853  11.467   8.032
19533SOL     OW58622   2.431  12.447   8.613
19533SOL    HW158623   2.338  12.440   8.576
19533SOL    HW258624   2.442  12.536   8.657
19534SOL     OW58625   3.417  12.683   8.151
19534SOL    HW158626   3.360  12.667   8.232
19534SOL    HW258627   3.358  12.693   8.071
19535SOL     OW58628   2.997  11.875   8.165
19535SOL    HW158629   3.054  11.953   8.140
19535SOL    HW258630   2.937  11.901   8.241
19536SOL     OW58631   3.617  11.779   7.679
19536SOL    HW158632   3.605  11.766   7.580
19536SOL    HW258633   3.587  11.698   7.728
19537SOL     OW58634   2.630  12.316   8.471
19537SOL    HW158635   2.552  12.333   8.531
19537SOL    HW258636   2.664  12.403   8.435
19538SOL     OW58637   2.712  11.970   9.271
19538SOL    HW158638   2.708  12.046   9.336
19538SOL    HW258639   2.734  12.006   9.180
19539SOL     OW58640   2.547  12.184   8.113
19539SOL    HW158641   2.616  12.168   8.183
19539SOL    HW258642   2.474  12.241   8.151
19540SOL     OW58643   2.548  12.333   9.251
19540SOL    HW158644   2.608  12.412   9.265
19540SOL    HW258645   2.462  12.364   9.210
19541SOL     OW58646   2.197  12.607   8.509
19541SOL    HW158647   2.119  12.576   8.456
19541SOL    HW258648   2.255  12.665   8.452
19542SOL     OW58649   3.322  12.677   8.787
19542SOL    HW158650   3.346  12.771   8.813
19542SOL    HW258651   3.306  12.623   8.869
19543SOL     OW58652   2.300  11.564   8.947
19543SOL    HW158653   2.382  11.508   8.956
19543SOL    HW258654   2.219  11.506   8.951
19544SOL     OW58655   3.465  11.619   8.185
19544SOL    HW158656   3.391  11.665   8.135
19544SOL    HW258657   3.516  11.687   8.238
19545SOL     OW58658   2.989  12.513   9.138
19545SOL    HW158659   3.036  12.513   9.226
19545SOL    HW258660   2.941  12.426   9.127
19546SOL     OW58661   2.092  12.606   7.986
19546SOL    HW158662   2.066  12.702   7.986
19546SOL    HW258663   2.021  12.552   8.031
19547SOL     OW58664   2.102  12.263   8.334
19547SOL    HW158665   2.116  12.179   8.386
19547SOL    HW258666   2.047  12.327   8.389
19548SOL     OW58667   2.468  12.136   7.571
19548SOL    HW158668   2.475  12.220   7.517
19548SOL    HW258669   2.514  12.149   7.659
19549SOL     OW58670   3.456  11.286   8.928
19549SOL    HW158671   3.438  11.353   8.856
19549SOL    HW258672   3.453  11.332   9.017
19550SOL     OW58673   1.984  11.815   8.011
19550SOL    HW158674   1.939  11.727   8.028
19550SOL    HW258675   1.983  11.869   8.095
19551SOL     OW58676   1.889  12.768   7.565
19551SOL    HW158677   1.870  12.672   7.586
19551SOL    HW258678   1.856  12.826   7.640
19552SOL     OW58679   3.551  12.094   8.060
19552SOL    HW158680   3.646  12.065   8.068
19552SOL    HW258681   3.543  12.159   7.985
19553SOL     OW58682   3.503  12.280   7.880
19553SOL    HW158683   3.589  12.282   7.828
19553SOL    HW258684   3.517  12.327   7.968
19554SOL     OW58685   1.975  11.909   9.045
19554SOL    HW158686   2.063  11.896   9.090
19554SOL    HW258687   1.962  12.006   9.023
19555SOL     OW58688   2.475  12.537   8.174
19555SOL    HW158689   2.426  12.450   8.183
19555SOL    HW258690   2.452  12.580   8.087
19556SOL     OW58691   3.155  12.400   8.871
19556SOL    HW158692   3.192  12.327   8.813
19556SOL    HW258693   3.207  12.405   8.956
19557SOL     OW58694   2.671  11.176   7.950
19557SOL    HW158695   2.711  11.267   7.941
19557SOL    HW258696   2.571  11.184   7.956
19558SOL     OW58697   2.059  12.148   8.712
19558SOL    HW158698   2.148  12.103   8.698
19558SOL    HW258699   1.986  12.083   8.693
19559SOL     OW58700   3.387  12.171   7.638
19559SOL    HW158701   3.324  12.095   7.651
19559SOL    HW258702   3.435  12.189   7.724
19560SOL     OW58703   2.179  11.423   9.249
19560SOL    HW158704   2.250  11.494   9.255
19560SOL    HW258705   2.091  11.462   9.277
19561SOL     OW58706   3.328  12.589   8.401
19561SOL    HW158707   3.269  12.595   8.481
19561SOL    HW258708   3.313  12.501   8.355
19562SOL     OW58709   2.460  11.901   7.718
19562SOL    HW158710   2.484  11.970   7.650
19562SOL    HW258711   2.382  11.934   7.772
19563SOL     OW58712   3.143  11.517   8.392
19563SOL    HW158713   3.057  11.467   8.379
19563SOL    HW258714   3.205  11.463   8.448
19564SOL     OW58715   3.438  12.834   7.755
19564SOL    HW158716   3.527  12.880   7.758
19564SOL    HW258717   3.417  12.810   7.660
19565SOL     OW58718   2.669  11.777   8.913
19565SOL    HW158719   2.622  11.774   9.002
19565SOL    HW258720   2.618  11.722   8.847
19566SOL     OW58721   3.256  11.641   9.122
19566SOL    HW158722   3.236  11.684   9.210
19566SOL    HW258723   3.334  11.579   9.131
19567SOL     OW58724   2.835  12.062   9.020
19567SOL    HW158725   2.881  11.978   8.991
19567SOL    HW258726   2.779  12.096   8.945
19568SOL     OW58727   2.853  11.582   8.690
19568SOL    HW158728   2.776  11.616   8.744
19568SOL    HW258729   2.819  11.531   8.611
19569SOL     OW58730   2.903  11.873   7.877
19569SOL    HW158731   2.929  11.869   7.973
19569SOL    HW258732   2.818  11.822   7.863
19570SOL     OW58733   1.938  11.983   8.237
19570SOL    HW158734   2.037  11.971   8.246
19570SOL    HW258735   1.914  12.078   8.258
19571SOL     OW58736   2.727  11.520   7.643
19571SOL    HW158737   2.786  11.583   7.594
19571SOL    HW258738   2.746  11.426   7.614
19572SOL     OW58739   3.581  11.757   9.279
19572SOL    HW158740   3.555  11.846   9.243
19572SOL    HW258741   3.579  11.689   9.206
19573SOL     OW58742   3.224  12.316   7.993
19573SOL    HW158743   3.307  12.287   7.945
19573SOL    HW258744   3.175  12.383   7.937
19574SOL     OW58745   2.412  11.368   8.333
19574SOL    HW158746   2.407  11.363   8.433
19574SOL    HW258747   2.414  11.464   8.304
19575SOL     OW58748   2.870  12.628   7.925
19575SOL    HW158749   2.824  12.700   7.873
19575SOL    HW258750   2.866  12.648   8.023
19576SOL     OW58751   3.657  12.238   8.321
19576SOL    HW158752   3.595  12.223   8.245
19576SOL    HW258753   3.605  12.249   8.406
19577SOL     OW58754   3.089  12.722   8.954
19577SOL    HW158755   3.095  12.645   9.018
19577SOL    HW258756   3.037  12.696   8.874
19578SOL     OW58757   2.183  12.115   7.690
19578SOL    HW158758   2.265  12.154   7.648
19578SOL    HW258759   2.156  12.033   7.641
19579SOL     OW58760   3.320  11.907   8.176
19579SOL    HW158761   3.315  11.842   8.251
19579SOL    HW258762   3.400  11.966   8.189
19580SOL     OW58763   2.323  12.438   9.175
19580SOL    HW158764   2.273  12.439   9.089
19580SOL    HW258765   2.260  12.420   9.251
19581SOL     OW58766   2.064  11.457   8.946
19581SOL    HW158767   1.984  11.517   8.933
19581SOL    HW258768   2.054  11.408   9.032
19582SOL     OW58769   3.494  12.549   7.529
19582SOL    HW158770   3.462  12.643   7.519
19582SOL    HW258771   3.418  12.486   7.517
19583SOL     OW58772   3.262  11.279   7.874
19583SOL    HW158773   3.238  11.242   7.784
19583SOL    HW258774   3.361  11.295   7.878
19584SOL     OW58775   2.244  11.872   7.928
19584SOL    HW158776   2.289  11.782   7.925
19584SOL    HW258777   2.150  11.861   7.961
19585SOL     OW58778   3.409  11.394   9.177
19585SOL    HW158779   3.404  11.431   9.269
19585SOL    HW258780   3.337  11.325   9.165
19586SOL     OW58781   2.476  11.294   7.565
19586SOL    HW158782   2.574  11.272   7.572
19586SOL    HW258783   2.445  11.277   7.472
19587SOL     OW58784   2.643  11.436   9.197
19587SOL    HW158785   2.710  11.375   9.240
19587SOL    HW258786   2.570  11.455   9.262
19588SOL     OW58787   3.213  11.762   8.881
19588SOL    HW158788   3.241  11.719   8.966
19588SOL    HW258789   3.238  11.858   8.882
19589SOL     OW58790   2.665  12.574   8.372
19589SOL    HW158791   2.755  12.588   8.330
19589SOL    HW258792   2.594  12.576   8.301
19590SOL     OW58793   2.784  11.675   8.347
19590SOL    HW158794   2.759  11.666   8.251
19590SOL    HW258795   2.832  11.593   8.378
19591SOL     OW58796   2.401  11.236   7.960
19591SOL    HW158797   2.320  11.237   8.018
19591SOL    HW258798   2.404  11.319   7.905
19592SOL     OW58799   3.296  12.360   7.489
19592SOL    HW158800   3.328  12.284   7.546
19592SOL    HW258801   3.204  12.387   7.519
19593SOL     OW58802   2.159  11.207   7.619
19593SOL    HW158803   2.208  11.291   7.598
19593SOL    HW258804   2.221  11.142   7.664
19594SOL     OW58805   2.797  11.408   7.928
19594SOL    HW158806   2.749  11.449   7.850
19594SOL    HW258807   2.896  11.406   7.909
19595SOL     OW58808   2.938  11.855   8.912
19595SOL    HW158809   2.858  11.794   8.915
19595SOL    HW258810   3.019  11.802   8.888
19596SOL     OW58811   3.089  12.742   8.241
19596SOL    HW158812   3.110  12.816   8.176
19596SOL    HW258813   3.157  12.742   8.314
19597SOL     OW58814   2.321  12.324   8.189
19597SOL    HW158815   2.250  12.297   8.254
19597SOL    HW258816   2.295  12.296   8.096
19598SOL     OW58817   2.894  11.721   7.464
19598SOL    HW158818   2.853  11.803   7.425
19598SOL    HW258819   2.958  11.747   7.537
19599SOL     OW58820   1.940  11.728   8.834
19599SOL    HW158821   2.032  11.727   8.793
19599SOL    HW258822   1.934  11.802   8.901
19600SOL     OW58823   2.423  11.394   8.595
19600SOL    HW158824   2.461  11.310   8.632
19600SOL    HW258825   2.335  11.413   8.639
19601SOL     OW58826   2.728  11.626   8.090
19601SOL    HW158827   2.696  11.698   8.028
19601SOL    HW258828   2.752  11.545   8.037
19602SOL     OW58829   2.879  11.211   8.201
19602SOL    HW158830   2.807  11.216   8.132
19602SOL    HW258831   2.855  11.142   8.270
19603SOL     OW58832   3.291  12.345   8.315
19603SOL    HW158833   3.236  12.261   8.308
19603SOL    HW258834   3.317  12.374   8.223
19604SOL     OW58835   3.328  11.762   8.440
19604SOL    HW158836   3.298  11.667   8.447
19604SOL    HW258837   3.401  11.778   8.506
19605SOL     OW58838   3.719  12.005   7.825
19605SOL    HW158839   3.761  11.941   7.889
19605SOL    HW258840   3.681  11.954   7.747
19606SOL     OW58841   2.350  12.557   7.622
19606SOL    HW158842   2.263  12.542   7.669
19606SOL    HW258843   2.333  12.583   7.527
19607SOL     OW58844   3.526  12.452   8.105
19607SOL    HW158845   3.625  12.460   8.119
19607SOL    HW258846   3.481  12.536   8.136
19608SOL     OW58847   3.252  11.747   7.526
19608SOL    HW158848   3.198  11.726   7.607
19608SOL    HW258849   3.343  11.706   7.535
19609SOL     OW58850   2.389  11.428   7.776
19609SOL    HW158851   2.416  11.369   7.701
19609SOL    HW258852   2.389  11.523   7.745
19610SOL     OW58853   3.616  12.395   9.036
19610SOL    HW158854   3.707  12.356   9.023
19610SOL    HW258855   3.624  12.491   9.060
19611SOL     OW58856   2.926  12.519   8.788
19611SOL    HW158857   2.846  12.496   8.843
19611SOL    HW258858   3.009  12.493   8.837
19612SOL     OW58859   2.973  12.367   8.548
19612SOL    HW158860   2.933  12.411   8.629
19612SOL    HW258861   2.932  12.404   8.465
19613SOL     OW58862   3.500  12.271   8.527
19613SOL    HW158863   3.505  12.352   8.586
19613SOL    HW258864   3.414  12.273   8.476
19614SOL     OW58865   2.777  11.261   8.850
19614SOL    HW158866   2.802  11.241   8.755
19614SOL    HW258867   2.849  11.317   8.892
19615SOL     OW58868   2.842  12.288   9.167
19615SOL    HW158869   2.743  12.294   9.177
19615SOL    HW258870   2.865  12.208   9.111
19616SOL     OW58871   2.567  12.222   7.816
19616SOL    HW158872   2.553  12.229   7.915
19616SOL    HW258873   2.651  12.171   7.798
19617SOL     OW58874   2.272  11.985   8.699
19617SOL    HW158875   2.358  11.997   8.749
19617SOL    HW258876   2.230  11.898   8.726
19618SOL     OW58877   3.136  11.558   8.710
19618SOL    HW158878   3.157  11.632   8.774
19618SOL    HW258879   3.047  11.575   8.667
19619SOL     OW58880   1.926  12.736   8.779
19619SOL    HW158881   1.880  12.818   8.745
19619SOL    HW258882   2.024  12.755   8.788
19620SOL     OW58883   2.229  12.272   7.949
19620SOL    HW158884   2.222  12.355   7.893
19620SOL    HW258885   2.233  12.192   7.889
19621SOL     OW58886   2.428  11.709   8.313
19621SOL    HW158887   2.440  11.775   8.239
19621SOL    HW258888   2.474  11.743   8.396
19622SOL     OW58889   3.114  12.520   7.836
19622SOL    HW158890   3.164  12.597   7.876
19622SOL    HW258891   3.019  12.522   7.868
19623SOL     OW58892   3.134  12.617   8.590
19623SOL    HW158893   3.181  12.630   8.677
19623SOL    HW258894   3.068  12.543   8.599
19624SOL     OW58895   3.444  11.811   7.920
19624SOL    HW158896   3.413  11.872   7.993
19624SOL    HW258897   3.494  11.863   7.851
19625SOL     OW58898   2.216  12.682   8.777
19625SOL    HW158899   2.195  12.638   8.690
19625SOL    HW258900   2.313  12.708   8.780
19626SOL     OW58901   2.264  11.923   9.046
19626SOL    HW158902   2.332  11.978   8.999
19626SOL    HW258903   2.304  11.835   9.073
19627SOL     OW58904   3.449  11.951   9.118
19627SOL    HW158905   3.357  11.989   9.113
19627SOL    HW258906   3.509  11.998   9.053
19628SOL     OW58907   2.875  11.277   9.218
19628SOL    HW158908   2.881  11.362   9.166
19628SOL    HW258909   2.907  11.201   9.161
19629SOL     OW58910   2.366  11.222   9.188
19629SOL    HW158911   2.324  11.165   9.118
19629SOL    HW258912   2.300  11.291   9.220
19630SOL     OW58913   2.435  12.042   8.477
19630SOL    HW158914   2.479  12.131   8.468
19630SOL    HW258915   2.372  12.042   8.554
19631SOL     OW58916   3.222  12.034   8.493
19631SOL    HW158917   3.147  12.034   8.427
19631SOL    HW258918   3.259  11.942   8.502
19632SOL     OW58919   3.071  11.697   7.723
19632SOL    HW158920   3.084  11.613   7.777
19632SOL    HW258921   3.042  11.771   7.783
19633SOL     OW58922   2.169  11.385   8.679
19633SOL    HW158923   2.146  11.422   8.769
19633SOL    HW258924   2.139  11.290   8.673
19634SOL     OW58925   1.899  12.482   8.730
19634SOL    HW158926   1.952  12.433   8.798
19634SOL    HW258927   1.921  12.580   8.735
19635SOL     OW58928   2.594  11.806   8.512
19635SOL    HW158929   2.653  11.780   8.436
19635SOL    HW258930   2.566  11.902   8.501
19636SOL     OW58931   3.590  12.107   9.302
19636SOL    HW158932   3.544  12.100   9.213
19636SOL    HW258933   3.528  12.151   9.368
19637SOL     OW58934   2.169  11.235   8.066
19637SOL    HW158935   2.158  11.329   8.099
19637SOL    HW258936   2.164  11.172   8.143
19638SOL     OW58937   3.484  11.539   7.822
19638SOL    HW158938   3.486  11.463   7.886
19638SOL    HW258939   3.436  11.616   7.862
19639SOL     OW58940   2.885  11.938   8.414
19639SOL    HW158941   2.900  11.959   8.510
19639SOL    HW258942   2.855  11.843   8.405
19640SOL     OW58943   3.721  12.690   9.053
19640SOL    HW158944   3.735  12.717   8.958
19640SOL    HW258945   3.804  12.712   9.106
19641SOL     OW58946   2.212  12.070   9.252
19641SOL    HW158947   2.288  12.114   9.300
19641SOL    HW258948   2.247  12.023   9.170
19642SOL     OW58949   3.402  11.446   7.573
19642SOL    HW158950   3.341  11.371   7.596
19642SOL    HW258951   3.424  11.498   7.656
19643SOL     OW58952   3.165  12.010   7.490
19643SOL    HW158953   3.199  11.917   7.505
19643SOL    HW258954   3.183  12.037   7.395
19644SOL     OW58955   2.930  12.505   8.297
19644SOL    HW158956   2.937  12.421   8.242
19644SOL    HW258957   2.992  12.574   8.261
19645SOL     OW58958   2.181  11.982   8.397
19645SOL    HW158959   2.274  12.018   8.402
19645SOL    HW258960   2.175  11.897   8.449
19646SOL     OW58961   2.201  11.681   8.454
19646SOL    HW158962   2.149  11.598   8.437
19646SOL    HW258963   2.278  11.686   8.390
19647SOL     OW58964   3.000  11.552   9.126
19647SOL    HW158965   2.955  11.615   9.190
19647SOL    HW258966   3.093  11.583   9.109
19648SOL     OW58967   3.022  11.379   8.925
19648SOL    HW158968   3.022  11.443   9.002
19648SOL    HW258969   3.050  11.427   8.842
19649SOL     OW58970   1.870  12.498   7.648
19649SOL    HW158971   1.777  12.519   7.617
19649SOL    HW258972   1.880  12.399   7.661
19650SOL     OW58973   2.366  12.740   8.358
19650SOL    HW158974   2.432  12.814   8.367
19650SOL    HW258975   2.410  12.661   8.316
19651SOL     OW58976   2.864  11.968   8.686
19651SOL    HW158977   2.905  11.936   8.772
19651SOL    HW258978   2.768  11.941   8.683
19652SOL     OW58979   1.902  11.716   8.562
19652SOL    HW158980   1.987  11.683   8.521
19652SOL    HW258981   1.915  11.731   8.660
19653SOL     OW58982   2.051  11.692   9.170
19653SOL    HW158983   2.110  11.652   9.100
19653SOL    HW258984   1.993  11.763   9.129
19654SOL     OW58985   3.231  12.122   9.108
19654SOL    HW158986   3.270  12.211   9.128
19654SOL    HW258987   3.241  12.102   9.011
19655SOL     OW58988   2.677  11.744   7.773
19655SOL    HW158989   2.684  11.655   7.727
19655SOL    HW258990   2.583  11.778   7.765
19656SOL     OW58991   3.519  11.776   8.654
19656SOL    HW158992   3.481  11.707   8.716
19656SOL    HW258993   3.601  11.740   8.610
19657SOL     OW58994   2.114  12.736   9.192
19657SOL    HW158995   2.084  12.793   9.268
19657SOL    HW258996   2.107  12.639   9.218
19658SOL     OW58997   2.533  11.636   8.717
19658SOL    HW158998   2.499  11.547   8.687
19658SOL    HW258999   2.559  11.690   8.637
19659SOL     OW59000   2.335  11.672   7.639
19659SOL    HW159001   2.396  11.752   7.643
19659SOL    HW259002   2.240  11.703   7.646
19660SOL     OW59003   2.021  12.309   8.914
19660SOL    HW159004   2.043  12.248   8.990
19660SOL    HW259005   2.031  12.260   8.828
19661SOL     OW59006   3.209  12.231   8.682
19661SOL    HW159007   3.233  12.168   8.608
19661SOL    HW259008   3.119  12.271   8.664
19662SOL     OW59009   3.164  12.027   7.757
19662SOL    HW159010   3.078  11.996   7.799
19662SOL    HW259011   3.160  12.013   7.658
19663SOL     OW59012   3.114  12.903   8.576
19663SOL    HW159013   3.198  12.908   8.522
19663SOL    HW259014   3.091  12.807   8.594
19664SOL     OW59015   1.945  12.430   8.470
19664SOL    HW159016   1.940  12.429   8.570
19664SOL    HW259017   1.862  12.389   8.432
19665SOL     OW59018   3.588  11.307   7.971
19665SOL    HW159019   3.661  11.290   7.904
19665SOL    HW259020   3.557  11.220   8.009
19666SOL     OW59021   1.992  12.966   9.299
19666SOL    HW159022   1.951  12.892   9.352
19666SOL    HW259023   2.056  13.017   9.357
19667SOL     OW59024   3.142  12.099   8.120
19667SOL    HW159025   3.202  12.018   8.122
19667SOL    HW259026   3.182  12.168   8.060
19668SOL     OW59027   2.692  12.445   8.870
19668SOL    HW159028   2.687  12.478   8.965
19668SOL    HW259029   2.606  12.464   8.824
19669SOL     OW59030   2.534  12.788   7.602
19669SOL    HW159031   2.543  12.798   7.503
19669SOL    HW259032   2.494  12.699   7.623
19670SOL     OW59033   3.703  11.347   8.411
19670SOL    HW159034   3.742  11.262   8.375
19670SOL    HW259035   3.605  11.349   8.392
19671SOL     OW59036   2.125  11.498   8.168
19671SOL    HW159037   2.046  11.549   8.134
19671SOL    HW259038   2.116  11.483   8.266
19672SOL     OW59039   3.056  12.784   7.479
19672SOL    HW159040   3.062  12.691   7.516
19672SOL    HW259041   2.997  12.784   7.399
19673SOL     OW59042   2.684  12.174   8.820
19673SOL    HW159043   2.724  12.173   8.728
19673SOL    HW259044   2.694  12.266   8.860
19674SOL     OW59045   2.778  12.082   7.739
19674SOL    HW159046   2.841  12.120   7.671
19674SOL    HW259047   2.818  11.999   7.778
19675SOL     OW59048   2.234  12.460   8.938
19675SOL    HW159049   2.221  12.553   8.904
19675SOL    HW259050   2.150  12.408   8.925
19676SOL     OW59051   3.476  12.464   8.737
19676SOL    HW159052   3.536  12.467   8.817
19676SOL    HW259053   3.401  12.528   8.750
19677SOL     OW59054   2.901  12.270   8.144
19677SOL    HW159055   2.831  12.223   8.198
19677SOL    HW259056   2.960  12.202   8.101
19678SOL     OW59057   2.876  11.408   8.419
19678SOL    HW159058   2.868  11.372   8.326
19678SOL    HW259059   2.874  11.332   8.484
19679SOL     OW59060   2.452  12.659   7.939
19679SOL    HW159061   2.494  12.601   7.869
19679SOL    HW259062   2.408  12.738   7.895
19680SOL     OW59063   3.571  11.557   8.829
19680SOL    HW159064   3.644  11.626   8.833
19680SOL    HW259065   3.599  11.482   8.770
19681SOL     OW59066   2.117  12.520   7.738
19681SOL    HW159067   2.021  12.521   7.711
19681SOL    HW259068   2.129  12.573   7.822
19682SOL     OW59069   1.967  12.185   9.174
19682SOL    HW159070   1.890  12.152   9.228
19682SOL    HW259071   2.052  12.155   9.216
19683SOL     OW59072   2.534  11.375   8.937
19683SOL    HW159073   2.624  11.359   8.897
19683SOL    HW259074   2.542  11.380   9.036
19684SOL     OW59075   1.937  11.517   7.481
19684SOL    HW159076   1.845  11.489   7.452
19684SOL    HW259077   1.968  11.594   7.425
19685SOL     OW59078   3.302  12.028   8.846
19685SOL    HW159079   3.245  12.080   8.783
19685SOL    HW259080   3.398  12.040   8.822
19686SOL     OW59081   1.934  11.338   7.766
19686SOL    HW159082   1.917  11.421   7.712
19686SOL    HW259083   2.024  11.301   7.744
19687SOL     OW59084   3.045  12.507   7.567
19687SOL    HW159085   2.946  12.496   7.569
19687SOL    HW259086   3.079  12.522   7.660
19688SOL     OW59087   2.475  12.014   8.879
19688SOL    HW159088   2.531  12.095   8.862
19688SOL    HW259089   2.534  11.934   8.882
19689SOL     OW59090   2.578  11.737   9.156
19689SOL    HW159091   2.597  11.802   9.230
19689SOL    HW259092   2.638  11.657   9.165
19690SOL     OW59093   3.312  12.392   9.081
19690SOL    HW159094   3.303  12.382   9.180
19690SOL    HW259095   3.408  12.385   9.055
19691SOL     OW59096   3.536  12.055   8.702
19691SOL    HW159097   3.509  11.966   8.665
19691SOL    HW259098   3.537  12.123   8.629
19692SOL     OW59099   3.087  11.497   7.897
19692SOL    HW159100   3.152  11.423   7.886
19692SOL    HW259101   3.107  11.547   7.981
19693SOL     OW59102   2.456  11.917   8.100
19693SOL    HW159103   2.506  12.002   8.081
19693SOL    HW259104   2.368  11.919   8.052
19694SOL     OW59105   3.639  11.514   9.090
19694SOL    HW159106   3.622  11.545   8.996
19694SOL    HW259107   3.555  11.477   9.128
19695SOL     OW59108   3.592  12.106   8.965
19695SOL    HW159109   3.630  12.197   8.980
19695SOL    HW259110   3.584  12.089   8.866
19696SOL     OW59111   2.721  12.546   7.464
19696SOL    HW159112   2.675  12.561   7.552
19696SOL    HW259113   2.765  12.631   7.434
19697SOL     OW59114   2.721  12.128   8.309
19697SOL    HW159115   2.775  12.059   8.357
19697SOL    HW259116   2.689  12.197   8.375
19698SOL     OW59117   2.945  12.156   7.535
19698SOL    HW159118   2.922  12.209   7.453
19698SOL    HW259119   3.026  12.100   7.516
19699SOL     OW59120   3.723  12.741   8.299
19699SOL    HW159121   3.652  12.729   8.229
19699SOL    HW259122   3.724  12.662   8.359
19700SOL     OW59123   2.083  12.486   9.292
19700SOL    HW159124   2.018  12.413   9.271
19700SOL    HW259125   2.087  12.500   9.390
19701SOL     OW59126   1.941  12.412   8.101
19701SOL    HW159127   1.940  12.365   8.189
19701SOL    HW259128   2.023  12.384   8.050
19702SOL     OW59129   2.534  12.563   9.072
19702SOL    HW159130   2.456  12.513   9.110
19702SOL    HW259131   2.531  12.658   9.103
19703SOL     OW59132   3.686  11.364   8.675
19703SOL    HW159133   3.682  11.274   8.719
19703SOL    HW259134   3.689  11.353   8.576
19704SOL     OW59135   2.290  11.596   7.968
19704SOL    HW159136   2.320  11.524   7.906
19704SOL    HW259137   2.251  11.556   8.051
19705SOL     OW59138   3.567  12.659   8.552
19705SOL    HW159139   3.474  12.634   8.525
19705SOL    HW259140   3.593  12.609   8.634
19706SOL     OW59141   2.179  11.719   8.728
19706SOL    HW159142   2.217  11.660   8.800
19706SOL    HW259143   2.219  11.693   8.640
19707SOL     OW59144   3.286  11.386   8.560
19707SOL    HW159145   3.338  11.321   8.615
19707SOL    HW259146   3.237  11.449   8.621
19708SOL     OW59147   2.863  11.206   8.602
19708SOL    HW159148   2.800  11.134   8.571
19708SOL    HW259149   2.956  11.170   8.602
19709SOL     OW59150   2.632  12.502   7.749
19709SOL    HW159151   2.586  12.415   7.766
19709SOL    HW259152   2.723  12.499   7.790
19710SOL     OW59153   2.480  12.739   8.732
19710SOL    HW159154   2.475  12.821   8.789
19710SOL    HW259155   2.569  12.736   8.687
19711SOL     OW59156   3.214  11.224   7.616
19711SOL    HW159157   3.249  11.183   7.532
19711SOL    HW259158   3.124  11.186   7.636
19712SOL     OW59159   3.162  11.625   8.139
19712SOL    HW159160   3.103  11.705   8.143
19712SOL    HW259161   3.177  11.590   8.232
19713SOL     OW59162   3.455  11.393   8.330
19713SOL    HW159163   3.371  11.392   8.384
19713SOL    HW259164   3.457  11.476   8.274
19714SOL     OW59165   1.901  12.249   7.748
19714SOL    HW159166   2.000  12.238   7.739
19714SOL    HW259167   1.861  12.163   7.780
19715SOL     OW59168   2.092  11.800   9.423
19715SOL    HW159169   1.999  11.798   9.460
19715SOL    HW259170   2.093  11.761   9.331
19716SOL     OW59171   2.087  11.447  10.306
19716SOL    HW159172   2.122  11.430  10.398
19716SOL    HW259173   1.999  11.402  10.294
19717SOL     OW59174   1.881  11.540   9.957
19717SOL    HW159175   1.799  11.583   9.996
19717SOL    HW259176   1.853  11.467   9.894
19718SOL     OW59177   2.431  12.447  10.475
19718SOL    HW159178   2.338  12.440  10.438
19718SOL    HW259179   2.442  12.536  10.519
19719SOL     OW59180   3.417  12.683  10.013
19719SOL    HW159181   3.360  12.667  10.094
19719SOL    HW259182   3.358  12.693   9.933
19720SOL     OW59183   2.997  11.875  10.027
19720SOL    HW159184   3.054  11.953  10.002
19720SOL    HW259185   2.937  11.901  10.103
19721SOL     OW59186   3.617  11.779   9.541
19721SOL    HW159187   3.605  11.766   9.442
19721SOL    HW259188   3.587  11.698   9.590
19722SOL     OW59189   2.630  12.316  10.333
19722SOL    HW159190   2.552  12.333  10.393
19722SOL    HW259191   2.664  12.403  10.297
19723SOL     OW59192   2.712  11.970  11.133
19723SOL    HW159193   2.708  12.046  11.198
19723SOL    HW259194   2.734  12.006  11.042
19724SOL     OW59195   2.547  12.184   9.975
19724SOL    HW159196   2.616  12.168  10.045
19724SOL    HW259197   2.474  12.241  10.013
19725SOL     OW59198   2.548  12.333  11.113
19725SOL    HW159199   2.608  12.412  11.127
19725SOL    HW259200   2.462  12.364  11.072
19726SOL     OW59201   2.197  12.607  10.371
19726SOL    HW159202   2.119  12.576  10.318
19726SOL    HW259203   2.255  12.665  10.314
19727SOL     OW59204   3.322  12.677  10.649
19727SOL    HW159205   3.346  12.771  10.675
19727SOL    HW259206   3.306  12.623  10.731
19728SOL     OW59207   2.300  11.564  10.809
19728SOL    HW159208   2.382  11.508  10.818
19728SOL    HW259209   2.219  11.506  10.813
19729SOL     OW59210   3.465  11.619  10.047
19729SOL    HW159211   3.391  11.665   9.997
19729SOL    HW259212   3.516  11.687  10.100
19730SOL     OW59213   2.989  12.513  11.000
19730SOL    HW159214   3.036  12.513  11.088
19730SOL    HW259215   2.941  12.426  10.989
19731SOL     OW59216   2.092  12.606   9.848
19731SOL    HW159217   2.066  12.702   9.848
19731SOL    HW259218   2.021  12.552   9.893
19732SOL     OW59219   2.102  12.263  10.196
19732SOL    HW159220   2.116  12.179  10.248
19732SOL    HW259221   2.047  12.327  10.251
19733SOL     OW59222   2.468  12.136   9.433
19733SOL    HW159223   2.475  12.220   9.379
19733SOL    HW259224   2.514  12.149   9.521
19734SOL     OW59225   3.456  11.286  10.790
19734SOL    HW159226   3.438  11.353  10.718
19734SOL    HW259227   3.453  11.332  10.879
19735SOL     OW59228   1.984  11.815   9.873
19735SOL    HW159229   1.939  11.727   9.890
19735SOL    HW259230   1.983  11.869   9.957
19736SOL     OW59231   1.889  12.768   9.427
19736SOL    HW159232   1.870  12.672   9.448
19736SOL    HW259233   1.856  12.826   9.502
19737SOL     OW59234   3.551  12.094   9.922
19737SOL    HW159235   3.646  12.065   9.930
19737SOL    HW259236   3.543  12.159   9.847
19738SOL     OW59237   3.503  12.280   9.742
19738SOL    HW159238   3.589  12.282   9.690
19738SOL    HW259239   3.517  12.327   9.830
19739SOL     OW59240   1.975  11.909  10.907
19739SOL    HW159241   2.063  11.896  10.952
19739SOL    HW259242   1.962  12.006  10.885
19740SOL     OW59243   2.475  12.537  10.036
19740SOL    HW159244   2.426  12.450  10.045
19740SOL    HW259245   2.452  12.580   9.949
19741SOL     OW59246   3.155  12.400  10.733
19741SOL    HW159247   3.192  12.327  10.675
19741SOL    HW259248   3.207  12.405  10.818
19742SOL     OW59249   2.671  11.176   9.812
19742SOL    HW159250   2.711  11.267   9.803
19742SOL    HW259251   2.571  11.184   9.818
19743SOL     OW59252   2.059  12.148  10.574
19743SOL    HW159253   2.148  12.103  10.560
19743SOL    HW259254   1.986  12.083  10.555
19744SOL     OW59255   3.387  12.171   9.500
19744SOL    HW159256   3.324  12.095   9.513
19744SOL    HW259257   3.435  12.189   9.586
19745SOL     OW59258   2.179  11.423  11.111
19745SOL    HW159259   2.250  11.494  11.117
19745SOL    HW259260   2.091  11.462  11.139
19746SOL     OW59261   3.328  12.589  10.263
19746SOL    HW159262   3.269  12.595  10.343
19746SOL    HW259263   3.313  12.501  10.217
19747SOL     OW59264   2.460  11.901   9.580
19747SOL    HW159265   2.484  11.970   9.512
19747SOL    HW259266   2.382  11.934   9.634
19748SOL     OW59267   3.143  11.517  10.254
19748SOL    HW159268   3.057  11.467  10.241
19748SOL    HW259269   3.205  11.463  10.310
19749SOL     OW59270   3.438  12.834   9.617
19749SOL    HW159271   3.527  12.880   9.620
19749SOL    HW259272   3.417  12.810   9.522
19750SOL     OW59273   2.669  11.777  10.775
19750SOL    HW159274   2.622  11.774  10.864
19750SOL    HW259275   2.618  11.722  10.709
19751SOL     OW59276   3.256  11.641  10.984
19751SOL    HW159277   3.236  11.684  11.072
19751SOL    HW259278   3.334  11.579  10.993
19752SOL     OW59279   2.835  12.062  10.882
19752SOL    HW159280   2.881  11.978  10.853
19752SOL    HW259281   2.779  12.096  10.807
19753SOL     OW59282   2.853  11.582  10.552
19753SOL    HW159283   2.776  11.616  10.606
19753SOL    HW259284   2.819  11.531  10.473
19754SOL     OW59285   2.903  11.873   9.739
19754SOL    HW159286   2.929  11.869   9.835
19754SOL    HW259287   2.818  11.822   9.725
19755SOL     OW59288   1.938  11.983  10.099
19755SOL    HW159289   2.037  11.971  10.108
19755SOL    HW259290   1.914  12.078  10.120
19756SOL     OW59291   2.727  11.520   9.505
19756SOL    HW159292   2.786  11.583   9.456
19756SOL    HW259293   2.746  11.426   9.476
19757SOL     OW59294   3.581  11.757  11.141
19757SOL    HW159295   3.555  11.846  11.105
19757SOL    HW259296   3.579  11.689  11.068
19758SOL     OW59297   3.224  12.316   9.855
19758SOL    HW159298   3.307  12.287   9.807
19758SOL    HW259299   3.175  12.383   9.799
19759SOL     OW59300   2.412  11.368  10.195
19759SOL    HW159301   2.407  11.363  10.295
19759SOL    HW259302   2.414  11.464  10.166
19760SOL     OW59303   2.870  12.628   9.787
19760SOL    HW159304   2.824  12.700   9.735
19760SOL    HW259305   2.866  12.648   9.885
19761SOL     OW59306   3.657  12.238  10.183
19761SOL    HW159307   3.595  12.223  10.107
19761SOL    HW259308   3.605  12.249  10.268
19762SOL     OW59309   3.089  12.722  10.816
19762SOL    HW159310   3.095  12.645  10.880
19762SOL    HW259311   3.037  12.696  10.736
19763SOL     OW59312   2.183  12.115   9.552
19763SOL    HW159313   2.265  12.154   9.510
19763SOL    HW259314   2.156  12.033   9.503
19764SOL     OW59315   3.320  11.907  10.038
19764SOL    HW159316   3.315  11.842  10.113
19764SOL    HW259317   3.400  11.966  10.051
19765SOL     OW59318   2.323  12.438  11.037
19765SOL    HW159319   2.273  12.439  10.951
19765SOL    HW259320   2.260  12.420  11.113
19766SOL     OW59321   2.064  11.457  10.808
19766SOL    HW159322   1.984  11.517  10.795
19766SOL    HW259323   2.054  11.408  10.894
19767SOL     OW59324   3.494  12.549   9.391
19767SOL    HW159325   3.462  12.643   9.381
19767SOL    HW259326   3.418  12.486   9.379
19768SOL     OW59327   3.262  11.279   9.736
19768SOL    HW159328   3.238  11.242   9.646
19768SOL    HW259329   3.361  11.295   9.740
19769SOL     OW59330   2.244  11.872   9.790
19769SOL    HW159331   2.289  11.782   9.787
19769SOL    HW259332   2.150  11.861   9.823
19770SOL     OW59333   3.409  11.394  11.039
19770SOL    HW159334   3.404  11.431  11.131
19770SOL    HW259335   3.337  11.325  11.027
19771SOL     OW59336   2.476  11.294   9.427
19771SOL    HW159337   2.574  11.272   9.434
19771SOL    HW259338   2.445  11.277   9.334
19772SOL     OW59339   2.643  11.436  11.059
19772SOL    HW159340   2.710  11.375  11.102
19772SOL    HW259341   2.570  11.455  11.124
19773SOL     OW59342   3.213  11.762  10.743
19773SOL    HW159343   3.241  11.719  10.828
19773SOL    HW259344   3.238  11.858  10.744
19774SOL     OW59345   2.665  12.574  10.234
19774SOL    HW159346   2.755  12.588  10.192
19774SOL    HW259347   2.594  12.576  10.163
19775SOL     OW59348   2.784  11.675  10.209
19775SOL    HW159349   2.759  11.666  10.113
19775SOL    HW259350   2.832  11.593  10.240
19776SOL     OW59351   2.401  11.236   9.822
19776SOL    HW159352   2.320  11.237   9.880
19776SOL    HW259353   2.404  11.319   9.767
19777SOL     OW59354   3.296  12.360   9.351
19777SOL    HW159355   3.328  12.284   9.408
19777SOL    HW259356   3.204  12.387   9.381
19778SOL     OW59357   2.159  11.207   9.481
19778SOL    HW159358   2.208  11.291   9.460
19778SOL    HW259359   2.221  11.142   9.526
19779SOL     OW59360   2.797  11.408   9.790
19779SOL    HW159361   2.749  11.449   9.712
19779SOL    HW259362   2.896  11.406   9.771
19780SOL     OW59363   2.938  11.855  10.774
19780SOL    HW159364   2.858  11.794  10.777
19780SOL    HW259365   3.019  11.802  10.750
19781SOL     OW59366   3.089  12.742  10.103
19781SOL    HW159367   3.110  12.816  10.038
19781SOL    HW259368   3.157  12.742  10.176
19782SOL     OW59369   2.321  12.324  10.051
19782SOL    HW159370   2.250  12.297  10.116
19782SOL    HW259371   2.295  12.296   9.958
19783SOL     OW59372   2.894  11.721   9.326
19783SOL    HW159373   2.853  11.803   9.287
19783SOL    HW259374   2.958  11.747   9.399
19784SOL     OW59375   1.940  11.728  10.696
19784SOL    HW159376   2.032  11.727  10.655
19784SOL    HW259377   1.934  11.802  10.763
19785SOL     OW59378   2.423  11.394  10.457
19785SOL    HW159379   2.461  11.310  10.494
19785SOL    HW259380   2.335  11.413  10.501
19786SOL     OW59381   2.728  11.626   9.952
19786SOL    HW159382   2.696  11.698   9.890
19786SOL    HW259383   2.752  11.545   9.899
19787SOL     OW59384   2.879  11.211  10.063
19787SOL    HW159385   2.807  11.216   9.994
19787SOL    HW259386   2.855  11.142  10.132
19788SOL     OW59387   3.291  12.345  10.177
19788SOL    HW159388   3.236  12.261  10.170
19788SOL    HW259389   3.317  12.374  10.085
19789SOL     OW59390   3.328  11.762  10.302
19789SOL    HW159391   3.298  11.667  10.309
19789SOL    HW259392   3.401  11.778  10.368
19790SOL     OW59393   3.719  12.005   9.687
19790SOL    HW159394   3.761  11.941   9.751
19790SOL    HW259395   3.681  11.954   9.609
19791SOL     OW59396   2.350  12.557   9.484
19791SOL    HW159397   2.263  12.542   9.531
19791SOL    HW259398   2.333  12.583   9.389
19792SOL     OW59399   3.526  12.452   9.967
19792SOL    HW159400   3.625  12.460   9.981
19792SOL    HW259401   3.481  12.536   9.998
19793SOL     OW59402   3.252  11.747   9.388
19793SOL    HW159403   3.198  11.726   9.469
19793SOL    HW259404   3.343  11.706   9.397
19794SOL     OW59405   2.389  11.428   9.638
19794SOL    HW159406   2.416  11.369   9.563
19794SOL    HW259407   2.389  11.523   9.607
19795SOL     OW59408   3.616  12.395  10.898
19795SOL    HW159409   3.707  12.356  10.885
19795SOL    HW259410   3.624  12.491  10.922
19796SOL     OW59411   2.926  12.519  10.650
19796SOL    HW159412   2.846  12.496  10.705
19796SOL    HW259413   3.009  12.493  10.699
19797SOL     OW59414   2.973  12.367  10.410
19797SOL    HW159415   2.933  12.411  10.491
19797SOL    HW259416   2.932  12.404  10.327
19798SOL     OW59417   3.500  12.271  10.389
19798SOL    HW159418   3.505  12.352  10.448
19798SOL    HW259419   3.414  12.273  10.338
19799SOL     OW59420   2.777  11.261  10.712
19799SOL    HW159421   2.802  11.241  10.617
19799SOL    HW259422   2.849  11.317  10.754
19800SOL     OW59423   2.842  12.288  11.029
19800SOL    HW159424   2.743  12.294  11.039
19800SOL    HW259425   2.865  12.208  10.973
19801SOL     OW59426   2.567  12.222   9.678
19801SOL    HW159427   2.553  12.229   9.777
19801SOL    HW259428   2.651  12.171   9.660
19802SOL     OW59429   2.272  11.985  10.561
19802SOL    HW159430   2.358  11.997  10.611
19802SOL    HW259431   2.230  11.898  10.588
19803SOL     OW59432   3.136  11.558  10.572
19803SOL    HW159433   3.157  11.632  10.636
19803SOL    HW259434   3.047  11.575  10.529
19804SOL     OW59435   1.926  12.736  10.641
19804SOL    HW159436   1.880  12.818  10.607
19804SOL    HW259437   2.024  12.755  10.650
19805SOL     OW59438   2.229  12.272   9.811
19805SOL    HW159439   2.222  12.355   9.755
19805SOL    HW259440   2.233  12.192   9.751
19806SOL     OW59441   2.428  11.709  10.175
19806SOL    HW159442   2.440  11.775  10.101
19806SOL    HW259443   2.474  11.743  10.258
19807SOL     OW59444   3.114  12.520   9.698
19807SOL    HW159445   3.164  12.597   9.738
19807SOL    HW259446   3.019  12.522   9.730
19808SOL     OW59447   3.134  12.617  10.452
19808SOL    HW159448   3.181  12.630  10.539
19808SOL    HW259449   3.068  12.543  10.461
19809SOL     OW59450   3.444  11.811   9.782
19809SOL    HW159451   3.413  11.872   9.855
19809SOL    HW259452   3.494  11.863   9.713
19810SOL     OW59453   2.216  12.682  10.639
19810SOL    HW159454   2.195  12.638  10.552
19810SOL    HW259455   2.313  12.708  10.642
19811SOL     OW59456   2.264  11.923  10.908
19811SOL    HW159457   2.332  11.978  10.861
19811SOL    HW259458   2.304  11.835  10.935
19812SOL     OW59459   3.449  11.951  10.980
19812SOL    HW159460   3.357  11.989  10.975
19812SOL    HW259461   3.509  11.998  10.915
19813SOL     OW59462   2.875  11.277  11.080
19813SOL    HW159463   2.881  11.362  11.028
19813SOL    HW259464   2.907  11.201  11.023
19814SOL     OW59465   2.366  11.222  11.050
19814SOL    HW159466   2.324  11.165  10.980
19814SOL    HW259467   2.300  11.291  11.082
19815SOL     OW59468   2.435  12.042  10.339
19815SOL    HW159469   2.479  12.131  10.330
19815SOL    HW259470   2.372  12.042  10.416
19816SOL     OW59471   3.222  12.034  10.355
19816SOL    HW159472   3.147  12.034  10.289
19816SOL    HW259473   3.259  11.942  10.364
19817SOL     OW59474   3.071  11.697   9.585
19817SOL    HW159475   3.084  11.613   9.639
19817SOL    HW259476   3.042  11.771   9.645
19818SOL     OW59477   2.169  11.385  10.541
19818SOL    HW159478   2.146  11.422  10.631
19818SOL    HW259479   2.139  11.290  10.535
19819SOL     OW59480   1.899  12.482  10.592
19819SOL    HW159481   1.952  12.433  10.660
19819SOL    HW259482   1.921  12.580  10.597
19820SOL     OW59483   2.594  11.806  10.374
19820SOL    HW159484   2.653  11.780  10.298
19820SOL    HW259485   2.566  11.902  10.363
19821SOL     OW59486   3.590  12.107  11.164
19821SOL    HW159487   3.544  12.100  11.075
19821SOL    HW259488   3.528  12.151  11.230
19822SOL     OW59489   2.169  11.235   9.928
19822SOL    HW159490   2.158  11.329   9.961
19822SOL    HW259491   2.164  11.172  10.005
19823SOL     OW59492   3.484  11.539   9.684
19823SOL    HW159493   3.486  11.463   9.748
19823SOL    HW259494   3.436  11.616   9.724
19824SOL     OW59495   2.885  11.938  10.276
19824SOL    HW159496   2.900  11.959  10.372
19824SOL    HW259497   2.855  11.843  10.267
19825SOL     OW59498   3.721  12.690  10.915
19825SOL    HW159499   3.735  12.717  10.820
19825SOL    HW259500   3.804  12.712  10.968
19826SOL     OW59501   2.212  12.070  11.114
19826SOL    HW159502   2.288  12.114  11.162
19826SOL    HW259503   2.247  12.023  11.032
19827SOL     OW59504   3.402  11.446   9.435
19827SOL    HW159505   3.341  11.371   9.458
19827SOL    HW259506   3.424  11.498   9.518
19828SOL     OW59507   3.165  12.010   9.352
19828SOL    HW159508   3.199  11.917   9.367
19828SOL    HW259509   3.183  12.037   9.257
19829SOL     OW59510   2.930  12.505  10.159
19829SOL    HW159511   2.937  12.421  10.104
19829SOL    HW259512   2.992  12.574  10.123
19830SOL     OW59513   2.181  11.982  10.259
19830SOL    HW159514   2.274  12.018  10.264
19830SOL    HW259515   2.175  11.897  10.311
19831SOL     OW59516   2.201  11.681  10.316
19831SOL    HW159517   2.149  11.598  10.299
19831SOL    HW259518   2.278  11.686  10.252
19832SOL     OW59519   3.000  11.552  10.988
19832SOL    HW159520   2.955  11.615  11.052
19832SOL    HW259521   3.093  11.583  10.971
19833SOL     OW59522   3.022  11.379  10.787
19833SOL    HW159523   3.022  11.443  10.864
19833SOL    HW259524   3.050  11.427  10.704
19834SOL     OW59525   1.870  12.498   9.510
19834SOL    HW159526   1.777  12.519   9.479
19834SOL    HW259527   1.880  12.399   9.523
19835SOL     OW59528   2.366  12.740  10.220
19835SOL    HW159529   2.432  12.814  10.229
19835SOL    HW259530   2.410  12.661  10.178
19836SOL     OW59531   2.864  11.968  10.548
19836SOL    HW159532   2.905  11.936  10.634
19836SOL    HW259533   2.768  11.941  10.545
19837SOL     OW59534   1.902  11.716  10.424
19837SOL    HW159535   1.987  11.683  10.383
19837SOL    HW259536   1.915  11.731  10.522
19838SOL     OW59537   2.051  11.692  11.032
19838SOL    HW159538   2.110  11.652  10.962
19838SOL    HW259539   1.993  11.763  10.991
19839SOL     OW59540   3.231  12.122  10.970
19839SOL    HW159541   3.270  12.211  10.990
19839SOL    HW259542   3.241  12.102  10.873
19840SOL     OW59543   2.677  11.744   9.635
19840SOL    HW159544   2.684  11.655   9.589
19840SOL    HW259545   2.583  11.778   9.627
19841SOL     OW59546   3.519  11.776  10.516
19841SOL    HW159547   3.481  11.707  10.578
19841SOL    HW259548   3.601  11.740  10.472
19842SOL     OW59549   2.114  12.736  11.054
19842SOL    HW159550   2.084  12.793  11.130
19842SOL    HW259551   2.107  12.639  11.080
19843SOL     OW59552   2.533  11.636  10.579
19843SOL    HW159553   2.499  11.547  10.549
19843SOL    HW259554   2.559  11.690  10.499
19844SOL     OW59555   2.335  11.672   9.501
19844SOL    HW159556   2.396  11.752   9.505
19844SOL    HW259557   2.240  11.703   9.508
19845SOL     OW59558   2.021  12.309  10.776
19845SOL    HW159559   2.043  12.248  10.852
19845SOL    HW259560   2.031  12.260  10.690
19846SOL     OW59561   3.209  12.231  10.544
19846SOL    HW159562   3.233  12.168  10.470
19846SOL    HW259563   3.119  12.271  10.526
19847SOL     OW59564   3.164  12.027   9.619
19847SOL    HW159565   3.078  11.996   9.661
19847SOL    HW259566   3.160  12.013   9.520
19848SOL     OW59567   3.114  12.903  10.438
19848SOL    HW159568   3.198  12.908  10.384
19848SOL    HW259569   3.091  12.807  10.456
19849SOL     OW59570   1.945  12.430  10.332
19849SOL    HW159571   1.940  12.429  10.432
19849SOL    HW259572   1.862  12.389  10.294
19850SOL     OW59573   3.588  11.307   9.833
19850SOL    HW159574   3.661  11.290   9.766
19850SOL    HW259575   3.557  11.220   9.871
19851SOL     OW59576   1.992  12.966  11.161
19851SOL    HW159577   1.951  12.892  11.214
19851SOL    HW259578   2.056  13.017  11.219
19852SOL     OW59579   3.142  12.099   9.982
19852SOL    HW159580   3.202  12.018   9.984
19852SOL    HW259581   3.182  12.168   9.922
19853SOL     OW59582   2.692  12.445  10.732
19853SOL    HW159583   2.687  12.478  10.827
19853SOL    HW259584   2.606  12.464  10.686
19854SOL     OW59585   2.534  12.788   9.464
19854SOL    HW159586   2.543  12.798   9.365
19854SOL    HW259587   2.494  12.699   9.485
19855SOL     OW59588   3.703  11.347  10.273
19855SOL    HW159589   3.742  11.262  10.237
19855SOL    HW259590   3.605  11.349  10.254
19856SOL     OW59591   2.125  11.498  10.030
19856SOL    HW159592   2.046  11.549   9.996
19856SOL    HW259593   2.116  11.483  10.128
19857SOL     OW59594   3.056  12.784   9.341
19857SOL    HW159595   3.062  12.691   9.378
19857SOL    HW259596   2.997  12.784   9.261
19858SOL     OW59597   2.684  12.174  10.682
19858SOL    HW159598   2.724  12.173  10.590
19858SOL    HW259599   2.694  12.266  10.722
19859SOL     OW59600   2.778  12.082   9.601
19859SOL    HW159601   2.841  12.120   9.533
19859SOL    HW259602   2.818  11.999   9.640
19860SOL     OW59603   2.234  12.460  10.800
19860SOL    HW159604   2.221  12.553  10.766
19860SOL    HW259605   2.150  12.408  10.787
19861SOL     OW59606   3.476  12.464  10.599
19861SOL    HW159607   3.536  12.467  10.679
19861SOL    HW259608   3.401  12.528  10.612
19862SOL     OW59609   2.901  12.270  10.006
19862SOL    HW159610   2.831  12.223  10.060
19862SOL    HW259611   2.960  12.202   9.963
19863SOL     OW59612   2.876  11.408  10.281
19863SOL    HW159613   2.868  11.372  10.188
19863SOL    HW259614   2.874  11.332  10.346
19864SOL     OW59615   2.452  12.659   9.801
19864SOL    HW159616   2.494  12.601   9.731
19864SOL    HW259617   2.408  12.738   9.757
19865SOL     OW59618   3.571  11.557  10.691
19865SOL    HW159619   3.644  11.626  10.695
19865SOL    HW259620   3.599  11.482  10.632
19866SOL     OW59621   2.117  12.520   9.600
19866SOL    HW159622   2.021  12.521   9.573
19866SOL    HW259623   2.129  12.573   9.684
19867SOL     OW59624   1.967  12.185  11.036
19867SOL    HW159625   1.890  12.152  11.090
19867SOL    HW259626   2.052  12.155  11.078
19868SOL     OW59627   2.534  11.375  10.799
19868SOL    HW159628   2.624  11.359  10.759
19868SOL    HW259629   2.542  11.380  10.898
19869SOL     OW59630   1.937  11.517   9.343
19869SOL    HW159631   1.845  11.489   9.314
19869SOL    HW259632   1.968  11.594   9.287
19870SOL     OW59633   3.302  12.028  10.708
19870SOL    HW159634   3.245  12.080  10.645
19870SOL    HW259635   3.398  12.040  10.684
19871SOL     OW59636   1.934  11.338   9.628
19871SOL    HW159637   1.917  11.421   9.574
19871SOL    HW259638   2.024  11.301   9.606
19872SOL     OW59639   3.045  12.507   9.429
19872SOL    HW159640   2.946  12.496   9.431
19872SOL    HW259641   3.079  12.522   9.522
19873SOL     OW59642   2.475  12.014  10.741
19873SOL    HW159643   2.531  12.095  10.724
19873SOL    HW259644   2.534  11.934  10.744
19874SOL     OW59645   2.578  11.737  11.018
19874SOL    HW159646   2.597  11.802  11.092
19874SOL    HW259647   2.638  11.657  11.027
19875SOL     OW59648   3.312  12.392  10.943
19875SOL    HW159649   3.303  12.382  11.042
19875SOL    HW259650   3.408  12.385  10.917
19876SOL     OW59651   3.536  12.055  10.564
19876SOL    HW159652   3.509  11.966  10.527
19876SOL    HW259653   3.537  12.123  10.491
19877SOL     OW59654   3.087  11.497   9.759
19877SOL    HW159655   3.152  11.423   9.748
19877SOL    HW259656   3.107  11.547   9.843
19878SOL     OW59657   2.456  11.917   9.962
19878SOL    HW159658   2.506  12.002   9.943
19878SOL    HW259659   2.368  11.919   9.914
19879SOL     OW59660   3.639  11.514  10.952
19879SOL    HW159661   3.622  11.545  10.858
19879SOL    HW259662   3.555  11.477  10.990
19880SOL     OW59663   3.592  12.106  10.827
19880SOL    HW159664   3.630  12.197  10.842
19880SOL    HW259665   3.584  12.089  10.728
19881SOL     OW59666   2.721  12.546   9.326
19881SOL    HW159667   2.675  12.561   9.414
19881SOL    HW259668   2.765  12.631   9.296
19882SOL     OW59669   2.721  12.128  10.171
19882SOL    HW159670   2.775  12.059  10.219
19882SOL    HW259671   2.689  12.197  10.237
19883SOL     OW59672   2.945  12.156   9.397
19883SOL    HW159673   2.922  12.209   9.315
19883SOL    HW259674   3.026  12.100   9.378
19884SOL     OW59675   3.723  12.741  10.161
19884SOL    HW159676   3.652  12.729  10.091
19884SOL    HW259677   3.724  12.662  10.221
19885SOL     OW59678   2.083  12.486  11.154
19885SOL    HW159679   2.018  12.413  11.133
19885SOL    HW259680   2.087  12.500  11.252
19886SOL     OW59681   1.941  12.412   9.963
19886SOL    HW159682   1.940  12.365  10.051
19886SOL    HW259683   2.023  12.384   9.912
19887SOL     OW59684   2.534  12.563  10.934
19887SOL    HW159685   2.456  12.513  10.972
19887SOL    HW259686   2.531  12.658  10.965
19888SOL     OW59687   3.686  11.364  10.537
19888SOL    HW159688   3.682  11.274  10.581
19888SOL    HW259689   3.689  11.353  10.438
19889SOL     OW59690   2.290  11.596   9.830
19889SOL    HW159691   2.320  11.524   9.768
19889SOL    HW259692   2.251  11.556   9.913
19890SOL     OW59693   3.567  12.659  10.414
19890SOL    HW159694   3.474  12.634  10.387
19890SOL    HW259695   3.593  12.609  10.496
19891SOL     OW59696   2.179  11.719  10.590
19891SOL    HW159697   2.217  11.660  10.662
19891SOL    HW259698   2.219  11.693  10.502
19892SOL     OW59699   3.286  11.386  10.422
19892SOL    HW159700   3.338  11.321  10.477
19892SOL    HW259701   3.237  11.449  10.483
19893SOL     OW59702   2.863  11.206  10.464
19893SOL    HW159703   2.800  11.134  10.433
19893SOL    HW259704   2.956  11.170  10.464
19894SOL     OW59705   2.632  12.502   9.611
19894SOL    HW159706   2.586  12.415   9.628
19894SOL    HW259707   2.723  12.499   9.652
19895SOL     OW59708   2.480  12.739  10.594
19895SOL    HW159709   2.475  12.821  10.651
19895SOL    HW259710   2.569  12.736  10.549
19896SOL     OW59711   3.214  11.224   9.478
19896SOL    HW159712   3.249  11.183   9.394
19896SOL    HW259713   3.124  11.186   9.498
19897SOL     OW59714   3.162  11.625  10.001
19897SOL    HW159715   3.103  11.705  10.005
19897SOL    HW259716   3.177  11.590  10.094
19898SOL     OW59717   3.455  11.393  10.192
19898SOL    HW159718   3.371  11.392  10.246
19898SOL    HW259719   3.457  11.476  10.136
19899SOL     OW59720   1.901  12.249   9.610
19899SOL    HW159721   2.000  12.238   9.601
19899SOL    HW259722   1.861  12.163   9.642
19900SOL     OW59723   2.092  11.800  11.285
19900SOL    HW159724   1.999  11.798  11.322
19900SOL    HW259725   2.093  11.761  11.193
19901SOL     OW59726   2.087  11.447  12.168
19901SOL    HW159727   2.122  11.430  12.260
19901SOL    HW259728   1.999  11.402  12.156
19902SOL     OW59729   1.881  11.540  11.819
19902SOL    HW159730   1.799  11.583  11.858
19902SOL    HW259731   1.853  11.467  11.756
19903SOL     OW59732   2.431  12.447  12.337
19903SOL    HW159733   2.338  12.440  12.300
19903SOL    HW259734   2.442  12.536  12.381
19904SOL     OW59735   3.417  12.683  11.875
19904SOL    HW159736   3.360  12.667  11.956
19904SOL    HW259737   3.358  12.693  11.795
19905SOL     OW59738   2.997  11.875  11.889
19905SOL    HW159739   3.054  11.953  11.864
19905SOL    HW259740   2.937  11.901  11.965
19906SOL     OW59741   3.617  11.779  11.403
19906SOL    HW159742   3.605  11.766  11.304
19906SOL    HW259743   3.587  11.698  11.452
19907SOL     OW59744   2.630  12.316  12.195
19907SOL    HW159745   2.552  12.333  12.255
19907SOL    HW259746   2.664  12.403  12.159
19908SOL     OW59747   2.547  12.184  11.837
19908SOL    HW159748   2.616  12.168  11.907
19908SOL    HW259749   2.474  12.241  11.875
19909SOL     OW59750   2.197  12.607  12.233
19909SOL    HW159751   2.119  12.576  12.180
19909SOL    HW259752   2.255  12.665  12.176
19910SOL     OW59753   3.322  12.677  12.511
19910SOL    HW159754   3.346  12.771  12.537
19910SOL    HW259755   3.306  12.623  12.593
19911SOL     OW59756   2.300  11.564  12.671
19911SOL    HW159757   2.382  11.508  12.680
19911SOL    HW259758   2.219  11.506  12.675
19912SOL     OW59759   3.465  11.619  11.909
19912SOL    HW159760   3.391  11.665  11.859
19912SOL    HW259761   3.516  11.687  11.962
19913SOL     OW59762   2.092  12.606  11.710
19913SOL    HW159763   2.066  12.702  11.710
19913SOL    HW259764   2.021  12.552  11.755
19914SOL     OW59765   2.102  12.263  12.058
19914SOL    HW159766   2.116  12.179  12.110
19914SOL    HW259767   2.047  12.327  12.113
19915SOL     OW59768   2.468  12.136  11.295
19915SOL    HW159769   2.475  12.220  11.241
19915SOL    HW259770   2.514  12.149  11.383
19916SOL     OW59771   3.456  11.286  12.652
19916SOL    HW159772   3.438  11.353  12.580
19916SOL    HW259773   3.453  11.332  12.741
19917SOL     OW59774   1.984  11.815  11.735
19917SOL    HW159775   1.939  11.727  11.752
19917SOL    HW259776   1.983  11.869  11.819
19918SOL     OW59777   1.889  12.768  11.289
19918SOL    HW159778   1.870  12.672  11.310
19918SOL    HW259779   1.856  12.826  11.364
19919SOL     OW59780   3.551  12.094  11.784
19919SOL    HW159781   3.646  12.065  11.792
19919SOL    HW259782   3.543  12.159  11.709
19920SOL     OW59783   3.503  12.280  11.604
19920SOL    HW159784   3.589  12.282  11.552
19920SOL    HW259785   3.517  12.327  11.692
19921SOL     OW59786   1.975  11.909  12.769
19921SOL    HW159787   2.063  11.896  12.814
19921SOL    HW259788   1.962  12.006  12.747
19922SOL     OW59789   2.475  12.537  11.898
19922SOL    HW159790   2.426  12.450  11.907
19922SOL    HW259791   2.452  12.580  11.811
19923SOL     OW59792   3.155  12.400  12.595
19923SOL    HW159793   3.192  12.327  12.537
19923SOL    HW259794   3.207  12.405  12.680
19924SOL     OW59795   2.671  11.176  11.674
19924SOL    HW159796   2.711  11.267  11.665
19924SOL    HW259797   2.571  11.184  11.680
19925SOL     OW59798   2.059  12.148  12.436
19925SOL    HW159799   2.148  12.103  12.422
19925SOL    HW259800   1.986  12.083  12.417
19926SOL     OW59801   3.387  12.171  11.362
19926SOL    HW159802   3.324  12.095  11.375
19926SOL    HW259803   3.435  12.189  11.448
19927SOL     OW59804   3.328  12.589  12.125
19927SOL    HW159805   3.269  12.595  12.205
19927SOL    HW259806   3.313  12.501  12.079
19928SOL     OW59807   2.460  11.901  11.442
19928SOL    HW159808   2.484  11.970  11.374
19928SOL    HW259809   2.382  11.934  11.496
19929SOL     OW59810   3.143  11.517  12.116
19929SOL    HW159811   3.057  11.467  12.103
19929SOL    HW259812   3.205  11.463  12.172
19930SOL     OW59813   3.438  12.834  11.479
19930SOL    HW159814   3.527  12.880  11.482
19930SOL    HW259815   3.417  12.810  11.384
19931SOL     OW59816   2.669  11.777  12.637
19931SOL    HW159817   2.622  11.774  12.726
19931SOL    HW259818   2.618  11.722  12.571
19932SOL     OW59819   2.835  12.062  12.744
19932SOL    HW159820   2.881  11.978  12.715
19932SOL    HW259821   2.779  12.096  12.669
19933SOL     OW59822   2.853  11.582  12.414
19933SOL    HW159823   2.776  11.616  12.468
19933SOL    HW259824   2.819  11.531  12.335
19934SOL     OW59825   2.903  11.873  11.601
19934SOL    HW159826   2.929  11.869  11.697
19934SOL    HW259827   2.818  11.822  11.587
19935SOL     OW59828   1.938  11.983  11.961
19935SOL    HW159829   2.037  11.971  11.970
19935SOL    HW259830   1.914  12.078  11.982
19936SOL     OW59831   2.727  11.520  11.367
19936SOL    HW159832   2.786  11.583  11.318
19936SOL    HW259833   2.746  11.426  11.338
19937SOL     OW59834   3.224  12.316  11.717
19937SOL    HW159835   3.307  12.287  11.669
19937SOL    HW259836   3.175  12.383  11.661
19938SOL     OW59837   2.412  11.368  12.057
19938SOL    HW159838   2.407  11.363  12.157
19938SOL    HW259839   2.414  11.464  12.028
19939SOL     OW59840   2.870  12.628  11.649
19939SOL    HW159841   2.824  12.700  11.597
19939SOL    HW259842   2.866  12.648  11.747
19940SOL     OW59843   3.657  12.238  12.045
19940SOL    HW159844   3.595  12.223  11.969
19940SOL    HW259845   3.605  12.249  12.130
19941SOL     OW59846   3.089  12.722  12.678
19941SOL    HW159847   3.095  12.645  12.742
19941SOL    HW259848   3.037  12.696  12.598
19942SOL     OW59849   2.183  12.115  11.414
19942SOL    HW159850   2.265  12.154  11.372
19942SOL    HW259851   2.156  12.033  11.365
19943SOL     OW59852   3.320  11.907  11.900
19943SOL    HW159853   3.315  11.842  11.975
19943SOL    HW259854   3.400  11.966  11.913
19944SOL     OW59855   2.064  11.457  12.670
19944SOL    HW159856   1.984  11.517  12.657
19944SOL    HW259857   2.054  11.408  12.756
19945SOL     OW59858   3.494  12.549  11.253
19945SOL    HW159859   3.462  12.643  11.243
19945SOL    HW259860   3.418  12.486  11.241
19946SOL     OW59861   3.262  11.279  11.598
19946SOL    HW159862   3.238  11.242  11.508
19946SOL    HW259863   3.361  11.295  11.602
19947SOL     OW59864   2.244  11.872  11.652
19947SOL    HW159865   2.289  11.782  11.649
19947SOL    HW259866   2.150  11.861  11.685
19948SOL     OW59867   2.476  11.294  11.289
19948SOL    HW159868   2.574  11.272  11.296
19948SOL    HW259869   2.445  11.277  11.196
19949SOL     OW59870   3.213  11.762  12.605
19949SOL    HW159871   3.241  11.719  12.690
19949SOL    HW259872   3.238  11.858  12.606
19950SOL     OW59873   2.665  12.574  12.096
19950SOL    HW159874   2.755  12.588  12.054
19950SOL    HW259875   2.594  12.576  12.025
19951SOL     OW59876   2.784  11.675  12.071
19951SOL    HW159877   2.759  11.666  11.975
19951SOL    HW259878   2.832  11.593  12.102
19952SOL     OW59879   2.401  11.236  11.684
19952SOL    HW159880   2.320  11.237  11.742
19952SOL    HW259881   2.404  11.319  11.629
19953SOL     OW59882   3.296  12.360  11.213
19953SOL    HW159883   3.328  12.284  11.270
19953SOL    HW259884   3.204  12.387  11.243
19954SOL     OW59885   2.159  11.207  11.343
19954SOL    HW159886   2.208  11.291  11.322
19954SOL    HW259887   2.221  11.142  11.388
19955SOL     OW59888   2.797  11.408  11.652
19955SOL    HW159889   2.749  11.449  11.574
19955SOL    HW259890   2.896  11.406  11.633
19956SOL     OW59891   2.938  11.855  12.636
19956SOL    HW159892   2.858  11.794  12.639
19956SOL    HW259893   3.019  11.802  12.612
19957SOL     OW59894   3.089  12.742  11.965
19957SOL    HW159895   3.110  12.816  11.900
19957SOL    HW259896   3.157  12.742  12.038
19958SOL     OW59897   2.321  12.324  11.913
19958SOL    HW159898   2.250  12.297  11.978
19958SOL    HW259899   2.295  12.296  11.820
19959SOL     OW59900   2.894  11.721  11.188
19959SOL    HW159901   2.853  11.803  11.149
19959SOL    HW259902   2.958  11.747  11.261
19960SOL     OW59903   1.940  11.728  12.558
19960SOL    HW159904   2.032  11.727  12.517
19960SOL    HW259905   1.934  11.802  12.625
19961SOL     OW59906   2.423  11.394  12.319
19961SOL    HW159907   2.461  11.310  12.356
19961SOL    HW259908   2.335  11.413  12.363
19962SOL     OW59909   2.728  11.626  11.814
19962SOL    HW159910   2.696  11.698  11.752
19962SOL    HW259911   2.752  11.545  11.761
19963SOL     OW59912   2.879  11.211  11.925
19963SOL    HW159913   2.807  11.216  11.856
19963SOL    HW259914   2.855  11.142  11.994
19964SOL     OW59915   3.291  12.345  12.039
19964SOL    HW159916   3.236  12.261  12.032
19964SOL    HW259917   3.317  12.374  11.947
19965SOL     OW59918   3.328  11.762  12.164
19965SOL    HW159919   3.298  11.667  12.171
19965SOL    HW259920   3.401  11.778  12.230
19966SOL     OW59921   3.719  12.005  11.549
19966SOL    HW159922   3.761  11.941  11.613
19966SOL    HW259923   3.681  11.954  11.471
19967SOL     OW59924   2.350  12.557  11.346
19967SOL    HW159925   2.263  12.542  11.393
19967SOL    HW259926   2.333  12.583  11.251
19968SOL     OW59927   3.526  12.452  11.829
19968SOL    HW159928   3.625  12.460  11.843
19968SOL    HW259929   3.481  12.536  11.860
19969SOL     OW59930   3.252  11.747  11.250
19969SOL    HW159931   3.198  11.726  11.331
19969SOL    HW259932   3.343  11.706  11.259
19970SOL     OW59933   2.389  11.428  11.500
19970SOL    HW159934   2.416  11.369  11.425
19970SOL    HW259935   2.389  11.523  11.469
19971SOL     OW59936   3.616  12.395  12.760
19971SOL    HW159937   3.707  12.356  12.747
19971SOL    HW259938   3.624  12.491  12.784
19972SOL     OW59939   2.926  12.519  12.512
19972SOL    HW159940   2.846  12.496  12.567
19972SOL    HW259941   3.009  12.493  12.561
19973SOL     OW59942   2.973  12.367  12.272
19973SOL    HW159943   2.933  12.411  12.353
19973SOL    HW259944   2.932  12.404  12.189
19974SOL     OW59945   3.500  12.271  12.251
19974SOL    HW159946   3.505  12.352  12.310
19974SOL    HW259947   3.414  12.273  12.200
19975SOL     OW59948   2.777  11.261  12.574
19975SOL    HW159949   2.802  11.241  12.479
19975SOL    HW259950   2.849  11.317  12.616
19976SOL     OW59951   2.567  12.222  11.540
19976SOL    HW159952   2.553  12.229  11.639
19976SOL    HW259953   2.651  12.171  11.522
19977SOL     OW59954   2.272  11.985  12.423
19977SOL    HW159955   2.358  11.997  12.473
19977SOL    HW259956   2.230  11.898  12.450
19978SOL     OW59957   3.136  11.558  12.434
19978SOL    HW159958   3.157  11.632  12.498
19978SOL    HW259959   3.047  11.575  12.391
19979SOL     OW59960   1.926  12.736  12.503
19979SOL    HW159961   1.880  12.818  12.469
19979SOL    HW259962   2.024  12.755  12.512
19980SOL     OW59963   2.229  12.272  11.673
19980SOL    HW159964   2.222  12.355  11.617
19980SOL    HW259965   2.233  12.192  11.613
19981SOL     OW59966   2.428  11.709  12.037
19981SOL    HW159967   2.440  11.775  11.963
19981SOL    HW259968   2.474  11.743  12.120
19982SOL     OW59969   3.114  12.520  11.560
19982SOL    HW159970   3.164  12.597  11.600
19982SOL    HW259971   3.019  12.522  11.592
19983SOL     OW59972   3.134  12.617  12.314
19983SOL    HW159973   3.181  12.630  12.401
19983SOL    HW259974   3.068  12.543  12.323
19984SOL     OW59975   3.444  11.811  11.644
19984SOL    HW159976   3.413  11.872  11.717
19984SOL    HW259977   3.494  11.863  11.575
19985SOL     OW59978   2.216  12.682  12.501
19985SOL    HW159979   2.195  12.638  12.414
19985SOL    HW259980   2.313  12.708  12.504
19986SOL     OW59981   2.264  11.923  12.770
19986SOL    HW159982   2.332  11.978  12.723
19986SOL    HW259983   2.304  11.835  12.797
19987SOL     OW59984   3.449  11.951  12.842
19987SOL    HW159985   3.357  11.989  12.837
19987SOL    HW259986   3.509  11.998  12.777
19988SOL     OW59987   2.435  12.042  12.201
19988SOL    HW159988   2.479  12.131  12.192
19988SOL    HW259989   2.372  12.042  12.278
19989SOL     OW59990   3.222  12.034  12.217
19989SOL    HW159991   3.147  12.034  12.151
19989SOL    HW259992   3.259  11.942  12.226
19990SOL     OW59993   3.071  11.697  11.447
19990SOL    HW159994   3.084  11.613  11.501
19990SOL    HW259995   3.042  11.771  11.507
19991SOL     OW59996   2.169  11.385  12.403
19991SOL    HW159997   2.146  11.422  12.493
19991SOL    HW259998   2.139  11.290  12.397
19992SOL     OW59999   1.899  12.482  12.454
19992SOL    HW160000   1.952  12.433  12.522
19992SOL    HW260001   1.921  12.580  12.459
19993SOL     OW60002   2.594  11.806  12.236
19993SOL    HW160003   2.653  11.780  12.160
19993SOL    HW260004   2.566  11.902  12.225
19994SOL     OW60005   2.169  11.235  11.790
19994SOL    HW160006   2.158  11.329  11.823
19994SOL    HW260007   2.164  11.172  11.867
19995SOL     OW60008   3.484  11.539  11.546
19995SOL    HW160009   3.486  11.463  11.610
19995SOL    HW260010   3.436  11.616  11.586
19996SOL     OW60011   2.885  11.938  12.138
19996SOL    HW160012   2.900  11.959  12.234
19996SOL    HW260013   2.855  11.843  12.129
19997SOL     OW60014   3.402  11.446  11.297
19997SOL    HW160015   3.341  11.371  11.320
19997SOL    HW260016   3.424  11.498  11.380
19998SOL     OW60017   3.165  12.010  11.214
19998SOL    HW160018   3.199  11.917  11.229
19998SOL    HW260019   3.183  12.037  11.119
19999SOL     OW60020   2.930  12.505  12.021
19999SOL    HW160021   2.937  12.421  11.966
19999SOL    HW260022   2.992  12.574  11.985
20000SOL     OW60023   2.181  11.982  12.121
20000SOL    HW160024   2.274  12.018  12.126
20000SOL    HW260025   2.175  11.897  12.173
20001SOL     OW60026   2.201  11.681  12.178
20001SOL    HW160027   2.149  11.598  12.161
20001SOL    HW260028   2.278  11.686  12.114
20002SOL     OW60029   3.022  11.379  12.649
20002SOL    HW160030   3.022  11.443  12.726
20002SOL    HW260031   3.050  11.427  12.566
20003SOL     OW60032   1.870  12.498  11.372
20003SOL    HW160033   1.777  12.519  11.341
20003SOL    HW260034   1.880  12.399  11.385
20004SOL     OW60035   2.366  12.740  12.082
20004SOL    HW160036   2.432  12.814  12.091
20004SOL    HW260037   2.410  12.661  12.040
20005SOL     OW60038   2.864  11.968  12.410
20005SOL    HW160039   2.905  11.936  12.496
20005SOL    HW260040   2.768  11.941  12.407
20006SOL     OW60041   1.902  11.716  12.286
20006SOL    HW160042   1.987  11.683  12.245
20006SOL    HW260043   1.915  11.731  12.384
20007SOL     OW60044   2.677  11.744  11.497
20007SOL    HW160045   2.684  11.655  11.451
20007SOL    HW260046   2.583  11.778  11.489
20008SOL     OW60047   3.519  11.776  12.378
20008SOL    HW160048   3.481  11.707  12.440
20008SOL    HW260049   3.601  11.740  12.334
20009SOL     OW60050   2.533  11.636  12.441
20009SOL    HW160051   2.499  11.547  12.411
20009SOL    HW260052   2.559  11.690  12.361
20010SOL     OW60053   2.335  11.672  11.363
20010SOL    HW160054   2.396  11.752  11.367
20010SOL    HW260055   2.240  11.703  11.370
20011SOL     OW60056   2.021  12.309  12.638
20011SOL    HW160057   2.043  12.248  12.714
20011SOL    HW260058   2.031  12.260  12.552
20012SOL     OW60059   3.209  12.231  12.406
20012SOL    HW160060   3.233  12.168  12.332
20012SOL    HW260061   3.119  12.271  12.388
20013SOL     OW60062   3.164  12.027  11.481
20013SOL    HW160063   3.078  11.996  11.523
20013SOL    HW260064   3.160  12.013  11.382
20014SOL     OW60065   3.114  12.903  12.300
20014SOL    HW160066   3.198  12.908  12.246
20014SOL    HW260067   3.091  12.807  12.318
20015SOL     OW60068   1.945  12.430  12.194
20015SOL    HW160069   1.940  12.429  12.294
20015SOL    HW260070   1.862  12.389  12.156
20016SOL     OW60071   3.588  11.307  11.695
20016SOL    HW160072   3.661  11.290  11.628
20016SOL    HW260073   3.557  11.220  11.733
20017SOL     OW60074   3.142  12.099  11.844
20017SOL    HW160075   3.202  12.018  11.846
20017SOL    HW260076   3.182  12.168  11.784
20018SOL     OW60077   2.692  12.445  12.594
20018SOL    HW160078   2.687  12.478  12.689
20018SOL    HW260079   2.606  12.464  12.548
20019SOL     OW60080   2.534  12.788  11.326
20019SOL    HW160081   2.543  12.798  11.227
20019SOL    HW260082   2.494  12.699  11.347
20020SOL     OW60083   3.703  11.347  12.135
20020SOL    HW160084   3.742  11.262  12.099
20020SOL    HW260085   3.605  11.349  12.116
20021SOL     OW60086   2.125  11.498  11.892
20021SOL    HW160087   2.046  11.549  11.858
20021SOL    HW260088   2.116  11.483  11.990
20022SOL     OW60089   3.056  12.784  11.203
20022SOL    HW160090   3.062  12.691  11.240
20022SOL    HW260091   2.997  12.784  11.123
20023SOL     OW60092   2.684  12.174  12.544
20023SOL    HW160093   2.724  12.173  12.452
20023SOL    HW260094   2.694  12.266  12.584
20024SOL     OW60095   2.778  12.082  11.463
20024SOL    HW160096   2.841  12.120  11.395
20024SOL    HW260097   2.818  11.999  11.502
20025SOL     OW60098   2.234  12.460  12.662
20025SOL    HW160099   2.221  12.553  12.628
20025SOL    HW260100   2.150  12.408  12.649
20026SOL     OW60101   3.476  12.464  12.461
20026SOL    HW160102   3.536  12.467  12.541
20026SOL    HW260103   3.401  12.528  12.474
20027SOL     OW60104   2.901  12.270  11.868
20027SOL    HW160105   2.831  12.223  11.922
20027SOL    HW260106   2.960  12.202  11.825
20028SOL     OW60107   2.876  11.408  12.143
20028SOL    HW160108   2.868  11.372  12.050
20028SOL    HW260109   2.874  11.332  12.208
20029SOL     OW60110   2.452  12.659  11.663
20029SOL    HW160111   2.494  12.601  11.593
20029SOL    HW260112   2.408  12.738  11.619
20030SOL     OW60113   3.571  11.557  12.553
20030SOL    HW160114   3.644  11.626  12.557
20030SOL    HW260115   3.599  11.482  12.494
20031SOL     OW60116   2.117  12.520  11.462
20031SOL    HW160117   2.021  12.521  11.435
20031SOL    HW260118   2.129  12.573  11.546
20032SOL     OW60119   1.967  12.185  12.898
20032SOL    HW160120   1.890  12.152  12.952
20032SOL    HW260121   2.052  12.155  12.940
20033SOL     OW60122   2.534  11.375  12.661
20033SOL    HW160123   2.624  11.359  12.621
20033SOL    HW260124   2.542  11.380  12.760
20034SOL     OW60125   1.937  11.517  11.205
20034SOL    HW160126   1.845  11.489  11.176
20034SOL    HW260127   1.968  11.594  11.149
20035SOL     OW60128   3.302  12.028  12.570
20035SOL    HW160129   3.245  12.080  12.507
20035SOL    HW260130   3.398  12.040  12.546
20036SOL     OW60131   1.934  11.338  11.490
20036SOL    HW160132   1.917  11.421  11.436
20036SOL    HW260133   2.024  11.301  11.468
20037SOL     OW60134   3.045  12.507  11.291
20037SOL    HW160135   2.946  12.496  11.293
20037SOL    HW260136   3.079  12.522  11.384
20038SOL     OW60137   2.475  12.014  12.603
20038SOL    HW160138   2.531  12.095  12.586
20038SOL    HW260139   2.534  11.934  12.606
20039SOL     OW60140   2.578  11.737  12.880
20039SOL    HW160141   2.597  11.802  12.954
20039SOL    HW260142   2.638  11.657  12.889
20040SOL     OW60143   2.252  12.913  12.732
20040SOL    HW160144   2.161  12.954  12.730
20040SOL    HW260145   2.245  12.819  12.764
20041SOL     OW60146   3.536  12.055  12.426
20041SOL    HW160147   3.509  11.966  12.389
20041SOL    HW260148   3.537  12.123  12.353
20042SOL     OW60149   3.087  11.497  11.621
20042SOL    HW160150   3.152  11.423  11.610
20042SOL    HW260151   3.107  11.547  11.705
20043SOL     OW60152   2.456  11.917  11.824
20043SOL    HW160153   2.506  12.002  11.805
20043SOL    HW260154   2.368  11.919  11.776
20044SOL     OW60155   3.639  11.514  12.814
20044SOL    HW160156   3.622  11.545  12.720
20044SOL    HW260157   3.555  11.477  12.852
20045SOL     OW60158   3.592  12.106  12.689
20045SOL    HW160159   3.630  12.197  12.704
20045SOL    HW260160   3.584  12.089  12.590
20046SOL     OW60161   2.721  12.546  11.188
20046SOL    HW160162   2.675  12.561  11.276
20046SOL    HW260163   2.765  12.631  11.158
20047SOL     OW60164   2.721  12.128  12.033
20047SOL    HW160165   2.775  12.059  12.081
20047SOL    HW260166   2.689  12.197  12.099
20048SOL     OW60167   2.945  12.156  11.259
20048SOL    HW160168   2.922  12.209  11.177
20048SOL    HW260169   3.026  12.100  11.240
20049SOL     OW60170   3.723  12.741  12.023
20049SOL    HW160171   3.652  12.729  11.953
20049SOL    HW260172   3.724  12.662  12.083
20050SOL     OW60173   1.941  12.412  11.825
20050SOL    HW160174   1.940  12.365  11.913
20050SOL    HW260175   2.023  12.384  11.774
20051SOL     OW60176   2.534  12.563  12.796
20051SOL    HW160177   2.456  12.513  12.834
20051SOL    HW260178   2.531  12.658  12.827
20052SOL     OW60179   3.686  11.364  12.399
20052SOL    HW160180   3.682  11.274  12.443
20052SOL    HW260181   3.689  11.353  12.300
20053SOL     OW60182   2.290  11.596  11.692
20053SOL    HW160183   2.320  11.524  11.630
20053SOL    HW260184   2.251  11.556  11.775
20054SOL     OW60185   3.567  12.659  12.276
20054SOL    HW160186   3.474  12.634  12.249
20054SOL    HW260187   3.593  12.609  12.358
20055SOL     OW60188   2.179  11.719  12.452
20055SOL    HW160189   2.217  11.660  12.524
20055SOL    HW260190   2.219  11.693  12.364
20056SOL     OW60191   3.286  11.386  12.284
20056SOL    HW160192   3.338  11.321  12.339
20056SOL    HW260193   3.237  11.449  12.345
20057SOL     OW60194   2.863  11.206  12.326
20057SOL    HW160195   2.800  11.134  12.295
20057SOL    HW260196   2.956  11.170  12.326
20058SOL     OW60197   2.632  12.502  11.473
20058SOL    HW160198   2.586  12.415  11.490
20058SOL    HW260199   2.723  12.499  11.514
20059SOL     OW60200   2.480  12.739  12.456
20059SOL    HW160201   2.475  12.821  12.513
20059SOL    HW260202   2.569  12.736  12.411
20060SOL     OW60203   3.214  11.224  11.340
20060SOL    HW160204   3.249  11.183  11.256
20060SOL    HW260205   3.124  11.186  11.360
20061SOL     OW60206   3.162  11.625  11.863
20061SOL    HW160207   3.103  11.705  11.867
20061SOL    HW260208   3.177  11.590  11.956
20062SOL     OW60209   3.455  11.393  12.054
20062SOL    HW160210   3.371  11.392  12.108
20062SOL    HW260211   3.457  11.476  11.998
20063SOL     OW60212   1.901  12.249  11.472
20063SOL    HW160213   2.000  12.238  11.463
20063SOL    HW260214   1.861  12.163  11.504
20064SOL     OW60215   3.954   0.628   0.113
20064SOL    HW160216   3.861   0.626   0.150
20064SOL    HW260217   3.955   0.589   0.021
20065SOL     OW60218   3.949   0.275   0.996
20065SOL    HW160219   3.984   0.258   1.088
20065SOL    HW260220   3.861   0.230   0.984
20066SOL     OW60221   3.743   0.368   0.647
20066SOL    HW160222   3.661   0.411   0.686
20066SOL    HW260223   3.715   0.295   0.584
20067SOL     OW60224   4.293   1.275   1.165
20067SOL    HW160225   4.200   1.268   1.128
20067SOL    HW260226   4.304   1.364   1.209
20068SOL     OW60227   5.279   1.511   0.703
20068SOL    HW160228   5.222   1.495   0.784
20068SOL    HW260229   5.220   1.521   0.623
20069SOL     OW60230   4.859   0.703   0.717
20069SOL    HW160231   4.916   0.781   0.692
20069SOL    HW260232   4.799   0.729   0.793
20070SOL     OW60233   5.479   0.607   0.231
20070SOL    HW160234   5.467   0.594   0.132
20070SOL    HW260235   5.449   0.526   0.280
20071SOL     OW60236   4.492   1.144   1.023
20071SOL    HW160237   4.414   1.161   1.083
20071SOL    HW260238   4.526   1.231   0.987
20072SOL     OW60239   4.574   0.798   1.823
20072SOL    HW160240   4.570   0.874   1.888
20072SOL    HW260241   4.596   0.834   1.732
20073SOL     OW60242   4.409   1.012   0.665
20073SOL    HW160243   4.478   0.996   0.735
20073SOL    HW260244   4.336   1.069   0.703
20074SOL     OW60245   4.410   1.161   1.803
20074SOL    HW160246   4.470   1.240   1.817
20074SOL    HW260247   4.324   1.192   1.762
20075SOL     OW60248   4.059   1.435   1.061
20075SOL    HW160249   3.981   1.404   1.008
20075SOL    HW260250   4.117   1.493   1.004
20076SOL     OW60251   5.184   1.505   1.339
20076SOL    HW160252   5.208   1.599   1.365
20076SOL    HW260253   5.168   1.451   1.421
20077SOL     OW60254   4.162   0.392   1.499
20077SOL    HW160255   4.244   0.336   1.508
20077SOL    HW260256   4.081   0.334   1.503
20078SOL     OW60257   5.327   0.447   0.737
20078SOL    HW160258   5.253   0.493   0.687
20078SOL    HW260259   5.378   0.515   0.790
20079SOL     OW60260   3.955   1.713   0.483
20079SOL    HW160261   3.989   1.790   0.537
20079SOL    HW260262   3.999   1.713   0.393
20080SOL     OW60263   4.851   1.341   1.690
20080SOL    HW160264   4.898   1.341   1.778
20080SOL    HW260265   4.803   1.254   1.679
20081SOL     OW60266   3.954   1.434   0.538
20081SOL    HW160267   3.928   1.530   0.538
20081SOL    HW260268   3.883   1.380   0.583
20082SOL     OW60269   3.964   1.091   0.886
20082SOL    HW160270   3.978   1.007   0.938
20082SOL    HW260271   3.909   1.155   0.941
20083SOL     OW60272   4.344   1.786   1.439
20083SOL    HW160273   4.252   1.769   1.474
20083SOL    HW260274   4.372   1.878   1.465
20084SOL     OW60275   4.330   0.964   0.123
20084SOL    HW160276   4.337   1.048   0.069
20084SOL    HW260277   4.376   0.977   0.211
20085SOL     OW60278   5.318   0.114   1.480
20085SOL    HW160279   5.300   0.181   1.408
20085SOL    HW260280   5.315   0.160   1.569
20086SOL     OW60281   3.846   0.643   0.563
20086SOL    HW160282   3.801   0.555   0.580
20086SOL    HW260283   3.845   0.697   0.647
20087SOL     OW60284   5.566   1.767   0.359
20087SOL    HW160285   5.620   1.738   0.439
20087SOL    HW260286   5.596   1.857   0.330
20088SOL     OW60287   3.751   1.596   0.117
20088SOL    HW160288   3.732   1.500   0.138
20088SOL    HW260289   3.718   1.654   0.192
20089SOL     OW60290   5.413   0.922   0.612
20089SOL    HW160291   5.508   0.893   0.620
20089SOL    HW260292   5.405   0.987   0.537
20090SOL     OW60293   5.365   1.108   0.432
20090SOL    HW160294   5.451   1.110   0.380
20090SOL    HW260295   5.379   1.155   0.520
20091SOL     OW60296   3.837   0.737   1.597
20091SOL    HW160297   3.925   0.724   1.642
20091SOL    HW260298   3.824   0.834   1.575
20092SOL     OW60299   4.337   1.365   0.726
20092SOL    HW160300   4.288   1.278   0.735
20092SOL    HW260301   4.314   1.408   0.639
20093SOL     OW60302   5.017   1.228   1.423
20093SOL    HW160303   5.054   1.155   1.365
20093SOL    HW260304   5.069   1.233   1.508
20094SOL     OW60305   4.533   0.004   0.502
20094SOL    HW160306   4.573   0.095   0.493
20094SOL    HW260307   4.433   0.012   0.508
20095SOL     OW60308   3.921   0.976   1.264
20095SOL    HW160309   4.010   0.931   1.250
20095SOL    HW260310   3.848   0.911   1.245
20096SOL     OW60311   5.249   0.999   0.190
20096SOL    HW160312   5.186   0.923   0.203
20096SOL    HW260313   5.297   1.017   0.276
20097SOL     OW60314   4.911   1.792   1.616
20097SOL    HW160315   4.935   1.852   1.540
20097SOL    HW260316   4.918   1.697   1.586
20098SOL     OW60317   4.041   0.251   1.801
20098SOL    HW160318   4.112   0.322   1.807
20098SOL    HW260319   3.953   0.290   1.829
20099SOL     OW60320   5.190   1.417   0.953
20099SOL    HW160321   5.131   1.423   1.033
20099SOL    HW260322   5.175   1.329   0.907
20100SOL     OW60323   5.391   1.714   0.572
20100SOL    HW160324   5.350   1.691   0.484
20100SOL    HW260325   5.373   1.640   0.637
20101SOL     OW60326   4.322   0.729   0.270
20101SOL    HW160327   4.346   0.798   0.202
20101SOL    HW260328   4.244   0.762   0.324
20102SOL     OW60329   5.005   0.345   0.944
20102SOL    HW160330   4.919   0.295   0.931
20102SOL    HW260331   5.067   0.291   1.000
20103SOL     OW60332   5.300   1.662   0.307
20103SOL    HW160333   5.389   1.708   0.310
20103SOL    HW260334   5.279   1.638   0.212
20104SOL     OW60335   4.531   0.605   1.465
20104SOL    HW160336   4.484   0.602   1.554
20104SOL    HW260337   4.480   0.550   1.399
20105SOL     OW60338   5.118   0.469   1.674
20105SOL    HW160339   5.098   0.512   1.762
20105SOL    HW260340   5.196   0.407   1.683
20106SOL     OW60341   4.697   0.890   1.572
20106SOL    HW160342   4.743   0.806   1.543
20106SOL    HW260343   4.641   0.924   1.497
20107SOL     OW60344   4.715   0.410   1.242
20107SOL    HW160345   4.638   0.444   1.296
20107SOL    HW260346   4.681   0.359   1.163
20108SOL     OW60347   4.765   0.701   0.429
20108SOL    HW160348   4.791   0.697   0.525
20108SOL    HW260349   4.680   0.650   0.415
20109SOL     OW60350   3.800   0.811   0.789
20109SOL    HW160351   3.899   0.799   0.798
20109SOL    HW260352   3.776   0.906   0.810
20110SOL     OW60353   3.854   1.821   1.571
20110SOL    HW160354   3.844   1.806   1.670
20110SOL    HW260355   3.768   1.857   1.535
20111SOL     OW60356   4.589   0.348   0.195
20111SOL    HW160357   4.648   0.411   0.146
20111SOL    HW260358   4.608   0.254   0.166
20112SOL     OW60359   5.443   0.585   1.831
20112SOL    HW160360   5.417   0.674   1.795
20112SOL    HW260361   5.441   0.517   1.758
20113SOL     OW60362   5.086   1.144   0.545
20113SOL    HW160363   5.169   1.115   0.497
20113SOL    HW260364   5.037   1.211   0.489
20114SOL     OW60365   4.274   0.196   0.885
20114SOL    HW160366   4.269   0.191   0.985
20114SOL    HW260367   4.276   0.292   0.856
20115SOL     OW60368   4.732   1.456   0.477
20115SOL    HW160369   4.686   1.528   0.425
20115SOL    HW260370   4.728   1.476   0.575
20116SOL     OW60371   4.075   1.801   0.853
20116SOL    HW160372   4.125   1.715   0.859
20116SOL    HW260373   4.140   1.878   0.850
20117SOL     OW60374   5.519   1.066   0.873
20117SOL    HW160375   5.457   1.051   0.797
20117SOL    HW260376   5.467   1.077   0.958
20118SOL     OW60377   4.951   1.550   1.506
20118SOL    HW160378   4.957   1.473   1.570
20118SOL    HW260379   4.899   1.524   1.426
20119SOL     OW60380   4.045   0.943   0.242
20119SOL    HW160381   4.127   0.982   0.200
20119SOL    HW260382   4.018   0.861   0.193
20120SOL     OW60383   5.182   0.735   0.728
20120SOL    HW160384   5.177   0.670   0.803
20120SOL    HW260385   5.262   0.794   0.741
20121SOL     OW60386   4.185   1.266   1.727
20121SOL    HW160387   4.135   1.267   1.641
20121SOL    HW260388   4.122   1.248   1.803
20122SOL     OW60389   4.835   1.776   0.237
20122SOL    HW160390   4.775   1.714   0.287
20122SOL    HW260391   4.866   1.732   0.152
20123SOL     OW60392   3.926   0.285   1.498
20123SOL    HW160393   3.846   0.345   1.485
20123SOL    HW260394   3.916   0.236   1.584
20124SOL     OW60395   5.356   1.377   0.081
20124SOL    HW160396   5.324   1.471   0.071
20124SOL    HW260397   5.280   1.314   0.069
20125SOL     OW60398   4.188   1.743   0.323
20125SOL    HW160399   4.221   1.782   0.409
20125SOL    HW260400   4.264   1.736   0.258
20126SOL     OW60401   5.124   0.107   0.426
20126SOL    HW160402   5.100   0.070   0.336
20126SOL    HW260403   5.223   0.123   0.430
20127SOL     OW60404   3.973   1.785   1.241
20127SOL    HW160405   4.030   1.720   1.291
20127SOL    HW260406   3.957   1.752   1.148
20128SOL     OW60407   4.664   1.698   0.904
20128SOL    HW160408   4.744   1.641   0.925
20128SOL    HW260409   4.615   1.658   0.827
20129SOL     OW60410   4.106   0.700   0.480
20129SOL    HW160411   4.151   0.610   0.477
20129SOL    HW260412   4.012   0.689   0.513
20130SOL     OW60413   5.271   0.222   1.729
20130SOL    HW160414   5.266   0.259   1.821
20130SOL    HW260415   5.199   0.153   1.717
20131SOL     OW60416   4.338   0.122   0.117
20131SOL    HW160417   4.436   0.100   0.124
20131SOL    HW260418   4.307   0.105   0.024
20132SOL     OW60419   4.505   0.264   1.749
20132SOL    HW160420   4.572   0.203   1.792
20132SOL    HW260421   4.432   0.283   1.814
20133SOL     OW60422   4.612   1.514   1.195
20133SOL    HW160423   4.589   1.489   1.101
20133SOL    HW260424   4.673   1.445   1.234
20134SOL     OW60425   5.075   0.590   1.433
20134SOL    HW160426   5.103   0.547   1.518
20134SOL    HW260427   5.100   0.686   1.434
20135SOL     OW60428   4.527   1.402   0.924
20135SOL    HW160429   4.617   1.416   0.882
20135SOL    HW260430   4.456   1.404   0.853
20136SOL     OW60431   4.646   0.503   0.899
20136SOL    HW160432   4.621   0.494   0.803
20136SOL    HW260433   4.694   0.421   0.930
20137SOL     OW60434   4.263   0.064   0.512
20137SOL    HW160435   4.182   0.065   0.570
20137SOL    HW260436   4.266   0.147   0.457
20138SOL     OW60437   5.158   1.188   0.041
20138SOL    HW160438   5.190   1.112   0.098
20138SOL    HW260439   5.066   1.215   0.071
20139SOL     OW60440   4.021   0.035   0.171
20139SOL    HW160441   4.070   0.119   0.150
20139SOL    HW260442   4.083  -0.030   0.216
20140SOL     OW60443   4.659   0.236   0.480
20140SOL    HW160444   4.611   0.277   0.402
20140SOL    HW260445   4.758   0.234   0.461
20141SOL     OW60446   4.800   0.683   1.464
20141SOL    HW160447   4.720   0.622   1.467
20141SOL    HW260448   4.881   0.630   1.440
20142SOL     OW60449   4.951   1.570   0.793
20142SOL    HW160450   4.972   1.644   0.728
20142SOL    HW260451   5.019   1.570   0.866
20143SOL     OW60452   4.183   1.152   0.741
20143SOL    HW160453   4.112   1.125   0.806
20143SOL    HW260454   4.157   1.124   0.648
20144SOL     OW60455   4.995   1.797   0.591
20144SOL    HW160456   5.039   1.861   0.527
20144SOL    HW260457   4.945   1.849   0.661
20145SOL     OW60458   4.756   0.549   0.016
20145SOL    HW160459   4.715   0.631  -0.023
20145SOL    HW260460   4.820   0.575   0.089
20146SOL     OW60461   3.802   0.556   1.386
20146SOL    HW160462   3.894   0.555   1.345
20146SOL    HW260463   3.796   0.630   1.453
20147SOL     OW60464   4.285   0.222   1.147
20147SOL    HW160465   4.323   0.138   1.184
20147SOL    HW260466   4.197   0.241   1.191
20148SOL     OW60467   4.590   0.454   0.642
20148SOL    HW160468   4.558   0.526   0.580
20148SOL    HW260469   4.614   0.373   0.589
20149SOL     OW60470   4.741   0.039   0.753
20149SOL    HW160471   4.669   0.044   0.684
20149SOL    HW260472   4.717  -0.030   0.822
20150SOL     OW60473   5.153   1.173   0.867
20150SOL    HW160474   5.098   1.089   0.860
20150SOL    HW260475   5.179   1.202   0.775
20151SOL     OW60476   5.190   0.590   0.992
20151SOL    HW160477   5.160   0.495   0.999
20151SOL    HW260478   5.263   0.606   1.058
20152SOL     OW60479   5.581   0.833   0.377
20152SOL    HW160480   5.623   0.769   0.441
20152SOL    HW260481   5.543   0.782   0.299
20153SOL     OW60482   4.212   1.385   0.174
20153SOL    HW160483   4.125   1.370   0.221
20153SOL    HW260484   4.195   1.411   0.079
20154SOL     OW60485   5.388   1.280   0.657
20154SOL    HW160486   5.487   1.288   0.671
20154SOL    HW260487   5.343   1.364   0.688
20155SOL     OW60488   5.114   0.575   0.078
20155SOL    HW160489   5.060   0.554   0.159
20155SOL    HW260490   5.205   0.534   0.087
20156SOL     OW60491   4.251   0.256   0.328
20156SOL    HW160492   4.278   0.197   0.253
20156SOL    HW260493   4.251   0.351   0.297
20157SOL     OW60494   5.478   1.223   1.588
20157SOL    HW160495   5.569   1.184   1.575
20157SOL    HW260496   5.486   1.319   1.612
20158SOL     OW60497   4.788   1.347   1.340
20158SOL    HW160498   4.708   1.324   1.395
20158SOL    HW260499   4.871   1.321   1.389
20159SOL     OW60500   5.316   1.629   1.625
20159SOL    HW160501   5.343   1.663   1.535
20159SOL    HW260502   5.395   1.591   1.671
20160SOL     OW60503   4.835   1.195   1.100
20160SOL    HW160504   4.795   1.239   1.181
20160SOL    HW260505   4.794   1.232   1.017
20161SOL     OW60506   5.362   1.099   1.079
20161SOL    HW160507   5.367   1.180   1.138
20161SOL    HW260508   5.276   1.101   1.028
20162SOL     OW60509   4.639   0.089   1.402
20162SOL    HW160510   4.664   0.069   1.307
20162SOL    HW260511   4.711   0.145   1.444
20163SOL     OW60512   4.704   1.116   1.719
20163SOL    HW160513   4.605   1.122   1.729
20163SOL    HW260514   4.727   1.036   1.663
20164SOL     OW60515   4.429   1.050   0.368
20164SOL    HW160516   4.415   1.057   0.467
20164SOL    HW260517   4.513   0.999   0.350
20165SOL     OW60518   4.134   0.813   1.251
20165SOL    HW160519   4.220   0.825   1.301
20165SOL    HW260520   4.092   0.726   1.278
20166SOL     OW60521   4.998   0.386   1.262
20166SOL    HW160522   5.019   0.460   1.326
20166SOL    HW260523   4.909   0.403   1.219
20167SOL     OW60524   3.788   1.564   1.331
20167SOL    HW160525   3.742   1.646   1.297
20167SOL    HW260526   3.886   1.583   1.340
20168SOL     OW60527   4.091   1.100   0.501
20168SOL    HW160528   4.084   1.183   0.445
20168SOL    HW260529   4.095   1.020   0.441
20169SOL     OW60530   4.290   0.537   0.865
20169SOL    HW160531   4.302   0.603   0.791
20169SOL    HW260532   4.336   0.571   0.948
20170SOL     OW60533   4.976   1.348   0.388
20170SOL    HW160534   5.026   1.425   0.428
20170SOL    HW260535   4.881   1.350   0.420
20171SOL     OW60536   4.996   1.445   1.142
20171SOL    HW160537   5.043   1.458   1.229
20171SOL    HW260538   4.930   1.371   1.151
20172SOL     OW60539   5.306   0.639   0.472
20172SOL    HW160540   5.275   0.700   0.545
20172SOL    HW260541   5.356   0.691   0.403
20173SOL     OW60542   4.078   1.510   1.329
20173SOL    HW160543   4.057   1.466   1.242
20173SOL    HW260544   4.175   1.536   1.332
20174SOL     OW60545   4.126   0.751   1.598
20174SOL    HW160546   4.194   0.806   1.551
20174SOL    HW260547   4.166   0.663   1.625
20175SOL     OW60548   5.311   0.779   1.670
20175SOL    HW160549   5.219   0.817   1.665
20175SOL    HW260550   5.371   0.826   1.605
20176SOL     OW60551   4.737   0.105   1.770
20176SOL    HW160552   4.743   0.190   1.718
20176SOL    HW260553   4.769   0.029   1.713
20177SOL     OW60554   4.228   0.050   1.740
20177SOL    HW160555   4.186  -0.007   1.670
20177SOL    HW260556   4.162   0.119   1.772
20178SOL     OW60557   4.297   0.870   1.029
20178SOL    HW160558   4.341   0.959   1.020
20178SOL    HW260559   4.234   0.870   1.106
20179SOL     OW60560   5.084   0.862   1.045
20179SOL    HW160561   5.009   0.862   0.979
20179SOL    HW260562   5.121   0.770   1.054
20180SOL     OW60563   4.933   0.525   0.275
20180SOL    HW160564   4.946   0.441   0.329
20180SOL    HW260565   4.904   0.599   0.335
20181SOL     OW60566   4.031   0.213   1.231
20181SOL    HW160567   4.008   0.250   1.321
20181SOL    HW260568   4.001   0.118   1.225
20182SOL     OW60569   3.761   1.310   1.282
20182SOL    HW160570   3.814   1.261   1.350
20182SOL    HW260571   3.783   1.408   1.287
20183SOL     OW60572   4.456   0.634   1.064
20183SOL    HW160573   4.515   0.608   0.988
20183SOL    HW260574   4.428   0.730   1.053
20184SOL     OW60575   5.452   0.935   1.854
20184SOL    HW160576   5.406   0.928   1.765
20184SOL    HW260577   5.390   0.979   1.920
20185SOL     OW60578   4.031   0.063   0.618
20185SOL    HW160579   4.020   0.157   0.651
20185SOL    HW260580   4.026   0.000   0.695
20186SOL     OW60581   5.346   0.367   0.374
20186SOL    HW160582   5.348   0.291   0.438
20186SOL    HW260583   5.298   0.444   0.414
20187SOL     OW60584   4.747   0.766   0.966
20187SOL    HW160585   4.762   0.787   1.062
20187SOL    HW260586   4.717   0.671   0.957
20188SOL     OW60587   4.704   1.573   1.700
20188SOL    HW160588   4.684   1.617   1.612
20188SOL    HW260589   4.743   1.482   1.684
20189SOL     OW60590   5.583   1.518   1.605
20189SOL    HW160591   5.597   1.545   1.510
20189SOL    HW260592   5.666   1.540   1.658
20190SOL     OW60593   4.074   0.898   1.804
20190SOL    HW160594   4.150   0.942   1.852
20190SOL    HW260595   4.109   0.851   1.722
20191SOL     OW60596   5.264   0.274   0.125
20191SOL    HW160597   5.203   0.199   0.148
20191SOL    HW260598   5.286   0.326   0.208
20192SOL     OW60599   5.027   0.838   0.042
20192SOL    HW160600   5.061   0.745   0.057
20192SOL    HW260601   5.045   0.865  -0.053
20193SOL     OW60602   4.792   1.333   0.849
20193SOL    HW160603   4.799   1.249   0.794
20193SOL    HW260604   4.854   1.402   0.813
20194SOL     OW60605   4.043   0.810   0.949
20194SOL    HW160606   4.136   0.846   0.954
20194SOL    HW260607   4.037   0.725   1.001
20195SOL     OW60608   4.063   0.509   1.006
20195SOL    HW160609   4.011   0.426   0.989
20195SOL    HW260610   4.140   0.514   0.942
20196SOL     OW60611   4.862   0.380   1.678
20196SOL    HW160612   4.817   0.443   1.742
20196SOL    HW260613   4.955   0.411   1.661
20197SOL     OW60614   4.884   0.207   1.477
20197SOL    HW160615   4.884   0.271   1.554
20197SOL    HW260616   4.912   0.255   1.394
20198SOL     OW60617   3.732   1.326   0.200
20198SOL    HW160618   3.639   1.347   0.169
20198SOL    HW260619   3.742   1.227   0.213
20199SOL     OW60620   3.812   1.801   0.927
20199SOL    HW160621   3.770   1.715   0.900
20199SOL    HW260622   3.906   1.804   0.893
20200SOL     OW60623   4.228   1.568   0.910
20200SOL    HW160624   4.294   1.642   0.919
20200SOL    HW260625   4.272   1.489   0.868
20201SOL     OW60626   4.726   0.796   1.238
20201SOL    HW160627   4.767   0.764   1.324
20201SOL    HW260628   4.630   0.769   1.235
20202SOL     OW60629   3.764   0.544   1.114
20202SOL    HW160630   3.849   0.511   1.073
20202SOL    HW260631   3.777   0.559   1.212
20203SOL     OW60632   3.913   0.520   1.722
20203SOL    HW160633   3.972   0.480   1.652
20203SOL    HW260634   3.855   0.591   1.681
20204SOL     OW60635   5.093   0.950   1.660
20204SOL    HW160636   5.132   1.039   1.680
20204SOL    HW260637   5.103   0.930   1.563
20205SOL     OW60638   4.539   0.572   0.325
20205SOL    HW160639   4.546   0.483   0.279
20205SOL    HW260640   4.445   0.606   0.317
20206SOL     OW60641   5.381   0.604   1.206
20206SOL    HW160642   5.343   0.535   1.268
20206SOL    HW260643   5.463   0.568   1.162
20207SOL     OW60644   3.976   1.564   1.744
20207SOL    HW160645   3.946   1.621   1.820
20207SOL    HW260646   3.969   1.467   1.770
20208SOL     OW60647   4.395   0.464   1.269
20208SOL    HW160648   4.361   0.375   1.239
20208SOL    HW260649   4.421   0.518   1.189
20209SOL     OW60650   4.654   1.678   1.465
20209SOL    HW160651   4.630   1.660   1.370
20209SOL    HW260652   4.684   1.772   1.475
20210SOL     OW60653   4.197   0.500   0.191
20210SOL    HW160654   4.258   0.580   0.195
20210SOL    HW260655   4.102   0.531   0.198
20211SOL     OW60656   3.883   1.137   1.466
20211SOL    HW160657   3.905   1.076   1.542
20211SOL    HW260658   3.893   1.088   1.380
20212SOL     OW60659   5.071   1.059   1.234
20212SOL    HW160660   5.095   0.996   1.160
20212SOL    HW260661   4.981   1.099   1.216
20213SOL     OW60662   5.026   0.855   0.309
20213SOL    HW160663   4.940   0.824   0.351
20213SOL    HW260664   5.022   0.841   0.210
20214SOL     OW60665   5.483   1.747   1.154
20214SOL    HW160666   5.544   1.777   1.081
20214SOL    HW260667   5.445   1.658   1.132
20215SOL     OW60668   4.976   1.731   1.128
20215SOL    HW160669   5.060   1.736   1.074
20215SOL    HW260670   4.953   1.635   1.146
20216SOL     OW60671   3.807   1.258   1.022
20216SOL    HW160672   3.802   1.257   1.122
20216SOL    HW260673   3.724   1.217   0.984
20217SOL     OW60674   4.412   1.662   1.716
20217SOL    HW160675   4.356   1.743   1.725
20217SOL    HW260676   4.464   1.666   1.630
20218SOL     OW60677   4.627   0.086   0.133
20218SOL    HW160678   4.678   0.087   0.047
20218SOL    HW260679   4.683   0.044   0.204
20219SOL     OW60680   5.450   0.135   0.523
20219SOL    HW160681   5.523   0.118   0.456
20219SOL    HW260682   5.419   0.048   0.561
20220SOL     OW60683   5.112   1.573   0.477
20220SOL    HW160684   5.179   1.585   0.403
20220SOL    HW260685   5.072   1.662   0.500
20221SOL     OW60686   3.854   1.794   1.851
20221SOL    HW160687   3.813   1.720   1.904
20221SOL    HW260688   3.918   1.845   1.909
20222SOL     OW60689   5.004   0.927   0.672
20222SOL    HW160690   5.064   0.846   0.674
20222SOL    HW260691   5.044   0.996   0.612
20223SOL     OW60692   4.554   1.273   1.422
20223SOL    HW160693   4.549   1.306   1.517
20223SOL    HW260694   4.468   1.292   1.376
20224SOL     OW60695   4.396   1.616   0.154
20224SOL    HW160696   4.405   1.626   0.055
20224SOL    HW260697   4.356   1.527   0.175
20225SOL     OW60698   5.374   1.720   1.394
20225SOL    HW160699   5.427   1.730   1.310
20225SOL    HW260700   5.347   1.810   1.428
20226SOL     OW60701   5.565   0.175   0.963
20226SOL    HW160702   5.604   0.090   0.927
20226SOL    HW260703   5.467   0.177   0.944
20227SOL     OW60704   3.987   0.326   0.720
20227SOL    HW160705   3.908   0.377   0.686
20227SOL    HW260706   3.978   0.311   0.818
20228SOL     OW60707   4.918   1.612   0.031
20228SOL    HW160708   4.924   1.519   0.068
20228SOL    HW260709   4.859   1.612  -0.049
20229SOL     OW60710   4.546   1.002   1.372
20229SOL    HW160711   4.586   1.001   1.280
20229SOL    HW260712   4.556   1.094   1.412
20230SOL     OW60713   4.640   0.910   0.291
20230SOL    HW160714   4.703   0.948   0.223
20230SOL    HW260715   4.680   0.827   0.330
20231SOL     OW60716   5.228   1.607   0.044
20231SOL    HW160717   5.136   1.644   0.051
20231SOL    HW260718   5.266   1.627  -0.046
20232SOL     OW60719   4.096   1.288   1.490
20232SOL    HW160720   4.083   1.381   1.456
20232SOL    HW260721   4.012   1.236   1.477
20233SOL     OW60722   5.338   1.292   1.289
20233SOL    HW160723   5.398   1.295   1.369
20233SOL    HW260724   5.263   1.356   1.302
20234SOL     OW60725   4.763   1.098   0.696
20234SOL    HW160726   4.693   1.051   0.750
20234SOL    HW260727   4.822   1.030   0.653
20235SOL     OW60728   4.738   0.236   0.971
20235SOL    HW160729   4.730   0.200   0.878
20235SOL    HW260730   4.736   0.160   1.036
20236SOL     OW60731   4.314   1.487   0.491
20236SOL    HW160732   4.356   1.429   0.421
20236SOL    HW260733   4.270   1.566   0.447
20237SOL     OW60734   5.433   0.385   1.381
20237SOL    HW160735   5.506   0.454   1.385
20237SOL    HW260736   5.461   0.310   1.322
20238SOL     OW60737   3.979   1.348   0.290
20238SOL    HW160738   3.883   1.349   0.263
20238SOL    HW260739   3.991   1.401   0.374
20239SOL     OW60740   3.829   1.013   1.726
20239SOL    HW160741   3.752   0.980   1.780
20239SOL    HW260742   3.914   0.983   1.768
20240SOL     OW60743   4.396   0.203   1.489
20240SOL    HW160744   4.486   0.187   1.449
20240SOL    HW260745   4.404   0.208   1.588
20241SOL     OW60746   5.164   0.856   1.398
20241SOL    HW160747   5.107   0.908   1.335
20241SOL    HW260748   5.260   0.868   1.374
20242SOL     OW60749   3.796   0.166   0.318
20242SOL    HW160750   3.779   0.249   0.264
20242SOL    HW260751   3.886   0.129   0.296
20243SOL     OW60752   4.907   1.335   0.119
20243SOL    HW160753   4.808   1.324   0.121
20243SOL    HW260754   4.941   1.350   0.212
20244SOL     OW60755   4.337   0.842   1.431
20244SOL    HW160756   4.393   0.923   1.414
20244SOL    HW260757   4.396   0.762   1.434
20245SOL     OW60758   5.217   1.767   0.959
20245SOL    HW160759   5.250   1.831   0.890
20245SOL    HW260760   5.283   1.761   1.034
20246SOL     OW60761   4.440   0.565   1.708
20246SOL    HW160762   4.459   0.630   1.782
20246SOL    HW260763   4.500   0.485   1.717
20247SOL     OW60764   5.174   1.220   1.633
20247SOL    HW160765   5.165   1.210   1.732
20247SOL    HW260766   5.270   1.213   1.607
20248SOL     OW60767   4.114   1.741   1.560
20248SOL    HW160768   4.023   1.782   1.558
20248SOL    HW260769   4.107   1.647   1.592
20249SOL     OW60770   5.398   0.883   1.254
20249SOL    HW160771   5.371   0.794   1.217
20249SOL    HW260772   5.399   0.951   1.181
20250SOL     OW60773   4.949   0.325   0.449
20250SOL    HW160774   5.014   0.251   0.438
20250SOL    HW260775   4.969   0.375   0.533
20251SOL     OW60776   4.318   0.745   0.652
20251SOL    HW160777   4.368   0.830   0.633
20251SOL    HW260778   4.230   0.747   0.604
20252SOL     OW60779   5.501   0.342   1.642
20252SOL    HW160780   5.484   0.373   1.548
20252SOL    HW260781   5.417   0.305   1.680
20253SOL     OW60782   5.454   0.934   1.517
20253SOL    HW160783   5.492   1.025   1.532
20253SOL    HW260784   5.446   0.917   1.418
20254SOL     OW60785   4.583   1.374   0.016
20254SOL    HW160786   4.537   1.389   0.104
20254SOL    HW260787   4.627   1.459  -0.014
20255SOL     OW60788   4.385   1.790   0.953
20255SOL    HW160789   4.339   1.878   0.940
20255SOL    HW260790   4.484   1.802   0.946
20256SOL     OW60791   4.583   0.956   0.861
20256SOL    HW160792   4.637   0.887   0.909
20256SOL    HW260793   4.551   1.025   0.927
20257SOL     OW60794   4.807   0.984   0.087
20257SOL    HW160795   4.784   1.037   0.005
20257SOL    HW260796   4.888   0.928   0.068
20258SOL     OW60797   5.585   1.569   0.851
20258SOL    HW160798   5.514   1.557   0.781
20258SOL    HW260799   5.586   1.490   0.911
20259SOL     OW60800   3.945   1.314   1.844
20259SOL    HW160801   3.880   1.241   1.823
20259SOL    HW260802   3.949   1.328   1.942
20260SOL     OW60803   3.803   1.240   0.653
20260SOL    HW160804   3.802   1.193   0.741
20260SOL    HW260805   3.885   1.212   0.602
20261SOL     OW60806   4.396   1.391   1.624
20261SOL    HW160807   4.318   1.341   1.662
20261SOL    HW260808   4.393   1.486   1.655
20262SOL     OW60809   5.548   0.192   1.227
20262SOL    HW160810   5.544   0.102   1.271
20262SOL    HW260811   5.551   0.181   1.128
20263SOL     OW60812   4.152   0.424   0.520
20263SOL    HW160813   4.182   0.352   0.458
20263SOL    HW260814   4.113   0.384   0.603
20264SOL     OW60815   5.429   1.487   1.104
20264SOL    HW160816   5.336   1.462   1.077
20264SOL    HW260817   5.455   1.437   1.186
20265SOL     OW60818   4.041   0.547   1.280
20265SOL    HW160819   4.079   0.488   1.352
20265SOL    HW260820   4.081   0.521   1.192
20266SOL     OW60821   4.536   1.586   0.687
20266SOL    HW160822   4.568   1.596   0.593
20266SOL    HW260823   4.457   1.524   0.689
20267SOL     OW60824   5.148   0.214   1.112
20267SOL    HW160825   5.200   0.149   1.167
20267SOL    HW260826   5.099   0.277   1.173
20268SOL     OW60827   4.725   0.034   1.154
20268SOL    HW160828   4.662  -0.038   1.123
20268SOL    HW260829   4.818  -0.002   1.154
20269SOL     OW60830   4.494   1.330   0.301
20269SOL    HW160831   4.448   1.243   0.318
20269SOL    HW260832   4.585   1.327   0.342
20270SOL     OW60833   4.342   1.567   1.284
20270SOL    HW160834   4.337   1.649   1.341
20270SOL    HW260835   4.431   1.564   1.239
20271SOL     OW60836   5.076   0.052   0.168
20271SOL    HW160837   5.111   0.011   0.084
20271SOL    HW260838   4.986   0.014   0.188
20272SOL     OW60839   5.024   0.453   0.691
20272SOL    HW160840   4.965   0.533   0.695
20272SOL    HW260841   5.039   0.418   0.784
20273SOL     OW60842   5.317   0.221   0.882
20273SOL    HW160843   5.233   0.220   0.936
20273SOL    HW260844   5.319   0.304   0.826
20274SOL     OW60845   3.763   1.077   0.300
20274SOL    HW160846   3.862   1.066   0.291
20274SOL    HW260847   3.723   0.991   0.332
20275SOL     OW60848   4.599   1.646   0.337
20275SOL    HW160849   4.522   1.611   0.283
20275SOL    HW260850   4.567   1.717   0.399
20276SOL     OW60851   3.954   0.628   1.975
20276SOL    HW160852   3.861   0.626   2.012
20276SOL    HW260853   3.955   0.589   1.883
20277SOL     OW60854   3.949   0.275   2.858
20277SOL    HW160855   3.984   0.258   2.950
20277SOL    HW260856   3.861   0.230   2.846
20278SOL     OW60857   3.743   0.368   2.509
20278SOL    HW160858   3.661   0.411   2.548
20278SOL    HW260859   3.715   0.295   2.446
20279SOL     OW60860   4.293   1.275   3.027
20279SOL    HW160861   4.200   1.268   2.990
20279SOL    HW260862   4.304   1.364   3.071
20280SOL     OW60863   5.279   1.511   2.565
20280SOL    HW160864   5.222   1.495   2.646
20280SOL    HW260865   5.220   1.521   2.485
20281SOL     OW60866   4.859   0.703   2.579
20281SOL    HW160867   4.916   0.781   2.554
20281SOL    HW260868   4.799   0.729   2.655
20282SOL     OW60869   5.479   0.607   2.093
20282SOL    HW160870   5.467   0.594   1.994
20282SOL    HW260871   5.449   0.526   2.142
20283SOL     OW60872   4.492   1.144   2.885
20283SOL    HW160873   4.414   1.161   2.945
20283SOL    HW260874   4.526   1.231   2.849
20284SOL     OW60875   4.574   0.798   3.685
20284SOL    HW160876   4.570   0.874   3.750
20284SOL    HW260877   4.596   0.834   3.594
20285SOL     OW60878   4.409   1.012   2.527
20285SOL    HW160879   4.478   0.996   2.597
20285SOL    HW260880   4.336   1.069   2.565
20286SOL     OW60881   4.410   1.161   3.665
20286SOL    HW160882   4.470   1.240   3.679
20286SOL    HW260883   4.324   1.192   3.624
20287SOL     OW60884   4.059   1.435   2.923
20287SOL    HW160885   3.981   1.404   2.870
20287SOL    HW260886   4.117   1.493   2.866
20288SOL     OW60887   5.184   1.505   3.201
20288SOL    HW160888   5.208   1.599   3.227
20288SOL    HW260889   5.168   1.451   3.283
20289SOL     OW60890   4.162   0.392   3.361
20289SOL    HW160891   4.244   0.336   3.370
20289SOL    HW260892   4.081   0.334   3.365
20290SOL     OW60893   5.327   0.447   2.599
20290SOL    HW160894   5.253   0.493   2.549
20290SOL    HW260895   5.378   0.515   2.652
20291SOL     OW60896   3.955   1.713   2.345
20291SOL    HW160897   3.989   1.790   2.399
20291SOL    HW260898   3.999   1.713   2.255
20292SOL     OW60899   4.851   1.341   3.552
20292SOL    HW160900   4.898   1.341   3.640
20292SOL    HW260901   4.803   1.254   3.541
20293SOL     OW60902   3.954   1.434   2.400
20293SOL    HW160903   3.928   1.530   2.400
20293SOL    HW260904   3.883   1.380   2.445
20294SOL     OW60905   3.964   1.091   2.748
20294SOL    HW160906   3.978   1.007   2.800
20294SOL    HW260907   3.909   1.155   2.803
20295SOL     OW60908   4.344   1.786   3.301
20295SOL    HW160909   4.252   1.769   3.336
20295SOL    HW260910   4.372   1.878   3.327
20296SOL     OW60911   4.330   0.964   1.985
20296SOL    HW160912   4.337   1.048   1.931
20296SOL    HW260913   4.376   0.977   2.073
20297SOL     OW60914   5.318   0.114   3.342
20297SOL    HW160915   5.300   0.181   3.270
20297SOL    HW260916   5.315   0.160   3.431
20298SOL     OW60917   3.846   0.643   2.425
20298SOL    HW160918   3.801   0.555   2.442
20298SOL    HW260919   3.845   0.697   2.509
20299SOL     OW60920   5.566   1.767   2.221
20299SOL    HW160921   5.620   1.738   2.301
20299SOL    HW260922   5.596   1.857   2.192
20300SOL     OW60923   3.751   1.596   1.979
20300SOL    HW160924   3.732   1.500   2.000
20300SOL    HW260925   3.718   1.654   2.054
20301SOL     OW60926   5.413   0.922   2.474
20301SOL    HW160927   5.508   0.893   2.482
20301SOL    HW260928   5.405   0.987   2.399
20302SOL     OW60929   5.365   1.108   2.294
20302SOL    HW160930   5.451   1.110   2.242
20302SOL    HW260931   5.379   1.155   2.382
20303SOL     OW60932   3.837   0.737   3.459
20303SOL    HW160933   3.925   0.724   3.504
20303SOL    HW260934   3.824   0.834   3.437
20304SOL     OW60935   4.337   1.365   2.588
20304SOL    HW160936   4.288   1.278   2.597
20304SOL    HW260937   4.314   1.408   2.501
20305SOL     OW60938   5.017   1.228   3.285
20305SOL    HW160939   5.054   1.155   3.227
20305SOL    HW260940   5.069   1.233   3.370
20306SOL     OW60941   4.533   0.004   2.364
20306SOL    HW160942   4.573   0.095   2.355
20306SOL    HW260943   4.433   0.012   2.370
20307SOL     OW60944   3.921   0.976   3.126
20307SOL    HW160945   4.010   0.931   3.112
20307SOL    HW260946   3.848   0.911   3.107
20308SOL     OW60947   5.249   0.999   2.052
20308SOL    HW160948   5.186   0.923   2.065
20308SOL    HW260949   5.297   1.017   2.138
20309SOL     OW60950   4.911   1.792   3.478
20309SOL    HW160951   4.935   1.852   3.402
20309SOL    HW260952   4.918   1.697   3.448
20310SOL     OW60953   4.041   0.251   3.663
20310SOL    HW160954   4.112   0.322   3.669
20310SOL    HW260955   3.953   0.290   3.691
20311SOL     OW60956   5.190   1.417   2.815
20311SOL    HW160957   5.131   1.423   2.895
20311SOL    HW260958   5.175   1.329   2.769
20312SOL     OW60959   5.391   1.714   2.434
20312SOL    HW160960   5.350   1.691   2.346
20312SOL    HW260961   5.373   1.640   2.499
20313SOL     OW60962   4.322   0.729   2.132
20313SOL    HW160963   4.346   0.798   2.064
20313SOL    HW260964   4.244   0.762   2.186
20314SOL     OW60965   5.005   0.345   2.806
20314SOL    HW160966   4.919   0.295   2.793
20314SOL    HW260967   5.067   0.291   2.862
20315SOL     OW60968   5.300   1.662   2.169
20315SOL    HW160969   5.389   1.708   2.172
20315SOL    HW260970   5.279   1.638   2.074
20316SOL     OW60971   4.531   0.605   3.327
20316SOL    HW160972   4.484   0.602   3.416
20316SOL    HW260973   4.480   0.550   3.261
20317SOL     OW60974   5.118   0.469   3.536
20317SOL    HW160975   5.098   0.512   3.624
20317SOL    HW260976   5.196   0.407   3.545
20318SOL     OW60977   4.697   0.890   3.434
20318SOL    HW160978   4.743   0.806   3.405
20318SOL    HW260979   4.641   0.924   3.359
20319SOL     OW60980   4.715   0.410   3.104
20319SOL    HW160981   4.638   0.444   3.158
20319SOL    HW260982   4.681   0.359   3.025
20320SOL     OW60983   4.765   0.701   2.291
20320SOL    HW160984   4.791   0.697   2.387
20320SOL    HW260985   4.680   0.650   2.277
20321SOL     OW60986   3.800   0.811   2.651
20321SOL    HW160987   3.899   0.799   2.660
20321SOL    HW260988   3.776   0.906   2.672
20322SOL     OW60989   3.854   1.821   3.433
20322SOL    HW160990   3.844   1.806   3.532
20322SOL    HW260991   3.768   1.857   3.397
20323SOL     OW60992   4.589   0.348   2.057
20323SOL    HW160993   4.648   0.411   2.008
20323SOL    HW260994   4.608   0.254   2.028
20324SOL     OW60995   5.443   0.585   3.693
20324SOL    HW160996   5.417   0.674   3.657
20324SOL    HW260997   5.441   0.517   3.620
20325SOL     OW60998   5.086   1.144   2.407
20325SOL    HW160999   5.169   1.115   2.359
20325SOL    HW261000   5.037   1.211   2.351
20326SOL     OW61001   4.274   0.196   2.747
20326SOL    HW161002   4.269   0.191   2.847
20326SOL    HW261003   4.276   0.292   2.718
20327SOL     OW61004   4.732   1.456   2.339
20327SOL    HW161005   4.686   1.528   2.287
20327SOL    HW261006   4.728   1.476   2.437
20328SOL     OW61007   4.075   1.801   2.715
20328SOL    HW161008   4.125   1.715   2.721
20328SOL    HW261009   4.140   1.878   2.712
20329SOL     OW61010   5.519   1.066   2.735
20329SOL    HW161011   5.457   1.051   2.659
20329SOL    HW261012   5.467   1.077   2.820
20330SOL     OW61013   4.951   1.550   3.368
20330SOL    HW161014   4.957   1.473   3.432
20330SOL    HW261015   4.899   1.524   3.288
20331SOL     OW61016   4.045   0.943   2.104
20331SOL    HW161017   4.127   0.982   2.062
20331SOL    HW261018   4.018   0.861   2.055
20332SOL     OW61019   5.182   0.735   2.590
20332SOL    HW161020   5.177   0.670   2.665
20332SOL    HW261021   5.262   0.794   2.603
20333SOL     OW61022   4.185   1.266   3.589
20333SOL    HW161023   4.135   1.267   3.503
20333SOL    HW261024   4.122   1.248   3.665
20334SOL     OW61025   4.835   1.776   2.099
20334SOL    HW161026   4.775   1.714   2.149
20334SOL    HW261027   4.866   1.732   2.014
20335SOL     OW61028   3.926   0.285   3.360
20335SOL    HW161029   3.846   0.345   3.347
20335SOL    HW261030   3.916   0.236   3.446
20336SOL     OW61031   5.356   1.377   1.943
20336SOL    HW161032   5.324   1.471   1.933
20336SOL    HW261033   5.280   1.314   1.931
20337SOL     OW61034   4.188   1.743   2.185
20337SOL    HW161035   4.221   1.782   2.271
20337SOL    HW261036   4.264   1.736   2.120
20338SOL     OW61037   5.124   0.107   2.288
20338SOL    HW161038   5.100   0.070   2.198
20338SOL    HW261039   5.223   0.123   2.292
20339SOL     OW61040   3.973   1.785   3.103
20339SOL    HW161041   4.030   1.720   3.153
20339SOL    HW261042   3.957   1.752   3.010
20340SOL     OW61043   4.664   1.698   2.766
20340SOL    HW161044   4.744   1.641   2.787
20340SOL    HW261045   4.615   1.658   2.689
20341SOL     OW61046   4.106   0.700   2.342
20341SOL    HW161047   4.151   0.610   2.339
20341SOL    HW261048   4.012   0.689   2.375
20342SOL     OW61049   5.271   0.222   3.591
20342SOL    HW161050   5.266   0.259   3.683
20342SOL    HW261051   5.199   0.153   3.579
20343SOL     OW61052   4.338   0.122   1.979
20343SOL    HW161053   4.436   0.100   1.986
20343SOL    HW261054   4.307   0.105   1.886
20344SOL     OW61055   4.505   0.264   3.611
20344SOL    HW161056   4.572   0.203   3.654
20344SOL    HW261057   4.432   0.283   3.676
20345SOL     OW61058   4.612   1.514   3.057
20345SOL    HW161059   4.589   1.489   2.963
20345SOL    HW261060   4.673   1.445   3.096
20346SOL     OW61061   5.075   0.590   3.295
20346SOL    HW161062   5.103   0.547   3.380
20346SOL    HW261063   5.100   0.686   3.296
20347SOL     OW61064   4.527   1.402   2.786
20347SOL    HW161065   4.617   1.416   2.744
20347SOL    HW261066   4.456   1.404   2.715
20348SOL     OW61067   4.646   0.503   2.761
20348SOL    HW161068   4.621   0.494   2.665
20348SOL    HW261069   4.694   0.421   2.792
20349SOL     OW61070   4.263   0.064   2.374
20349SOL    HW161071   4.182   0.065   2.432
20349SOL    HW261072   4.266   0.147   2.319
20350SOL     OW61073   5.158   1.188   1.903
20350SOL    HW161074   5.190   1.112   1.960
20350SOL    HW261075   5.066   1.215   1.933
20351SOL     OW61076   4.021   0.035   2.033
20351SOL    HW161077   4.070   0.119   2.012
20351SOL    HW261078   4.083  -0.030   2.078
20352SOL     OW61079   4.659   0.236   2.342
20352SOL    HW161080   4.611   0.277   2.264
20352SOL    HW261081   4.758   0.234   2.323
20353SOL     OW61082   4.800   0.683   3.326
20353SOL    HW161083   4.720   0.622   3.329
20353SOL    HW261084   4.881   0.630   3.302
20354SOL     OW61085   4.951   1.570   2.655
20354SOL    HW161086   4.972   1.644   2.590
20354SOL    HW261087   5.019   1.570   2.728
20355SOL     OW61088   4.183   1.152   2.603
20355SOL    HW161089   4.112   1.125   2.668
20355SOL    HW261090   4.157   1.124   2.510
20356SOL     OW61091   4.995   1.797   2.453
20356SOL    HW161092   5.039   1.861   2.389
20356SOL    HW261093   4.945   1.849   2.523
20357SOL     OW61094   4.756   0.549   1.878
20357SOL    HW161095   4.715   0.631   1.839
20357SOL    HW261096   4.820   0.575   1.951
20358SOL     OW61097   3.802   0.556   3.248
20358SOL    HW161098   3.894   0.555   3.207
20358SOL    HW261099   3.796   0.630   3.315
20359SOL     OW61100   4.285   0.222   3.009
20359SOL    HW161101   4.323   0.138   3.046
20359SOL    HW261102   4.197   0.241   3.053
20360SOL     OW61103   4.590   0.454   2.504
20360SOL    HW161104   4.558   0.526   2.442
20360SOL    HW261105   4.614   0.373   2.451
20361SOL     OW61106   4.741   0.039   2.615
20361SOL    HW161107   4.669   0.044   2.546
20361SOL    HW261108   4.717  -0.030   2.684
20362SOL     OW61109   5.153   1.173   2.729
20362SOL    HW161110   5.098   1.089   2.722
20362SOL    HW261111   5.179   1.202   2.637
20363SOL     OW61112   5.190   0.590   2.854
20363SOL    HW161113   5.160   0.495   2.861
20363SOL    HW261114   5.263   0.606   2.920
20364SOL     OW61115   5.581   0.833   2.239
20364SOL    HW161116   5.623   0.769   2.303
20364SOL    HW261117   5.543   0.782   2.161
20365SOL     OW61118   4.212   1.385   2.036
20365SOL    HW161119   4.125   1.370   2.083
20365SOL    HW261120   4.195   1.411   1.941
20366SOL     OW61121   5.388   1.280   2.519
20366SOL    HW161122   5.487   1.288   2.533
20366SOL    HW261123   5.343   1.364   2.550
20367SOL     OW61124   5.114   0.575   1.940
20367SOL    HW161125   5.060   0.554   2.021
20367SOL    HW261126   5.205   0.534   1.949
20368SOL     OW61127   4.251   0.256   2.190
20368SOL    HW161128   4.278   0.197   2.115
20368SOL    HW261129   4.251   0.351   2.159
20369SOL     OW61130   5.478   1.223   3.450
20369SOL    HW161131   5.569   1.184   3.437
20369SOL    HW261132   5.486   1.319   3.474
20370SOL     OW61133   4.788   1.347   3.202
20370SOL    HW161134   4.708   1.324   3.257
20370SOL    HW261135   4.871   1.321   3.251
20371SOL     OW61136   5.316   1.629   3.487
20371SOL    HW161137   5.343   1.663   3.397
20371SOL    HW261138   5.395   1.591   3.533
20372SOL     OW61139   4.835   1.195   2.962
20372SOL    HW161140   4.795   1.239   3.043
20372SOL    HW261141   4.794   1.232   2.879
20373SOL     OW61142   5.362   1.099   2.941
20373SOL    HW161143   5.367   1.180   3.000
20373SOL    HW261144   5.276   1.101   2.890
20374SOL     OW61145   4.639   0.089   3.264
20374SOL    HW161146   4.664   0.069   3.169
20374SOL    HW261147   4.711   0.145   3.306
20375SOL     OW61148   4.704   1.116   3.581
20375SOL    HW161149   4.605   1.122   3.591
20375SOL    HW261150   4.727   1.036   3.525
20376SOL     OW61151   4.429   1.050   2.230
20376SOL    HW161152   4.415   1.057   2.329
20376SOL    HW261153   4.513   0.999   2.212
20377SOL     OW61154   4.134   0.813   3.113
20377SOL    HW161155   4.220   0.825   3.163
20377SOL    HW261156   4.092   0.726   3.140
20378SOL     OW61157   4.998   0.386   3.124
20378SOL    HW161158   5.019   0.460   3.188
20378SOL    HW261159   4.909   0.403   3.081
20379SOL     OW61160   3.788   1.564   3.193
20379SOL    HW161161   3.742   1.646   3.159
20379SOL    HW261162   3.886   1.583   3.202
20380SOL     OW61163   4.091   1.100   2.363
20380SOL    HW161164   4.084   1.183   2.307
20380SOL    HW261165   4.095   1.020   2.303
20381SOL     OW61166   4.290   0.537   2.727
20381SOL    HW161167   4.302   0.603   2.653
20381SOL    HW261168   4.336   0.571   2.810
20382SOL     OW61169   4.976   1.348   2.250
20382SOL    HW161170   5.026   1.425   2.290
20382SOL    HW261171   4.881   1.350   2.282
20383SOL     OW61172   4.996   1.445   3.004
20383SOL    HW161173   5.043   1.458   3.091
20383SOL    HW261174   4.930   1.371   3.013
20384SOL     OW61175   5.306   0.639   2.334
20384SOL    HW161176   5.275   0.700   2.407
20384SOL    HW261177   5.356   0.691   2.265
20385SOL     OW61178   4.078   1.510   3.191
20385SOL    HW161179   4.057   1.466   3.104
20385SOL    HW261180   4.175   1.536   3.194
20386SOL     OW61181   4.126   0.751   3.460
20386SOL    HW161182   4.194   0.806   3.413
20386SOL    HW261183   4.166   0.663   3.487
20387SOL     OW61184   5.311   0.779   3.532
20387SOL    HW161185   5.219   0.817   3.527
20387SOL    HW261186   5.371   0.826   3.467
20388SOL     OW61187   4.737   0.105   3.632
20388SOL    HW161188   4.743   0.190   3.580
20388SOL    HW261189   4.769   0.029   3.575
20389SOL     OW61190   4.228   0.050   3.602
20389SOL    HW161191   4.186  -0.007   3.532
20389SOL    HW261192   4.162   0.119   3.634
20390SOL     OW61193   4.297   0.870   2.891
20390SOL    HW161194   4.341   0.959   2.882
20390SOL    HW261195   4.234   0.870   2.968
20391SOL     OW61196   5.084   0.862   2.907
20391SOL    HW161197   5.009   0.862   2.841
20391SOL    HW261198   5.121   0.770   2.916
20392SOL     OW61199   4.933   0.525   2.137
20392SOL    HW161200   4.946   0.441   2.191
20392SOL    HW261201   4.904   0.599   2.197
20393SOL     OW61202   4.031   0.213   3.093
20393SOL    HW161203   4.008   0.250   3.183
20393SOL    HW261204   4.001   0.118   3.087
20394SOL     OW61205   3.761   1.310   3.144
20394SOL    HW161206   3.814   1.261   3.212
20394SOL    HW261207   3.783   1.408   3.149
20395SOL     OW61208   4.456   0.634   2.926
20395SOL    HW161209   4.515   0.608   2.850
20395SOL    HW261210   4.428   0.730   2.915
20396SOL     OW61211   5.452   0.935   3.716
20396SOL    HW161212   5.406   0.928   3.627
20396SOL    HW261213   5.390   0.979   3.782
20397SOL     OW61214   4.031   0.063   2.480
20397SOL    HW161215   4.020   0.157   2.513
20397SOL    HW261216   4.026   0.000   2.557
20398SOL     OW61217   5.346   0.367   2.236
20398SOL    HW161218   5.348   0.291   2.300
20398SOL    HW261219   5.298   0.444   2.276
20399SOL     OW61220   4.747   0.766   2.828
20399SOL    HW161221   4.762   0.787   2.924
20399SOL    HW261222   4.717   0.671   2.819
20400SOL     OW61223   4.704   1.573   3.562
20400SOL    HW161224   4.684   1.617   3.474
20400SOL    HW261225   4.743   1.482   3.546
20401SOL     OW61226   5.583   1.518   3.467
20401SOL    HW161227   5.597   1.545   3.372
20401SOL    HW261228   5.666   1.540   3.520
20402SOL     OW61229   4.074   0.898   3.666
20402SOL    HW161230   4.150   0.942   3.714
20402SOL    HW261231   4.109   0.851   3.584
20403SOL     OW61232   5.264   0.274   1.987
20403SOL    HW161233   5.203   0.199   2.010
20403SOL    HW261234   5.286   0.326   2.070
20404SOL     OW61235   5.027   0.838   1.904
20404SOL    HW161236   5.061   0.745   1.919
20404SOL    HW261237   5.045   0.865   1.809
20405SOL     OW61238   4.792   1.333   2.711
20405SOL    HW161239   4.799   1.249   2.656
20405SOL    HW261240   4.854   1.402   2.675
20406SOL     OW61241   4.043   0.810   2.811
20406SOL    HW161242   4.136   0.846   2.816
20406SOL    HW261243   4.037   0.725   2.863
20407SOL     OW61244   4.063   0.509   2.868
20407SOL    HW161245   4.011   0.426   2.851
20407SOL    HW261246   4.140   0.514   2.804
20408SOL     OW61247   4.862   0.380   3.540
20408SOL    HW161248   4.817   0.443   3.604
20408SOL    HW261249   4.955   0.411   3.523
20409SOL     OW61250   4.884   0.207   3.339
20409SOL    HW161251   4.884   0.271   3.416
20409SOL    HW261252   4.912   0.255   3.256
20410SOL     OW61253   3.732   1.326   2.062
20410SOL    HW161254   3.639   1.347   2.031
20410SOL    HW261255   3.742   1.227   2.075
20411SOL     OW61256   3.812   1.801   2.789
20411SOL    HW161257   3.770   1.715   2.762
20411SOL    HW261258   3.906   1.804   2.755
20412SOL     OW61259   4.228   1.568   2.772
20412SOL    HW161260   4.294   1.642   2.781
20412SOL    HW261261   4.272   1.489   2.730
20413SOL     OW61262   4.726   0.796   3.100
20413SOL    HW161263   4.767   0.764   3.186
20413SOL    HW261264   4.630   0.769   3.097
20414SOL     OW61265   3.764   0.544   2.976
20414SOL    HW161266   3.849   0.511   2.935
20414SOL    HW261267   3.777   0.559   3.074
20415SOL     OW61268   3.913   0.520   3.584
20415SOL    HW161269   3.972   0.480   3.514
20415SOL    HW261270   3.855   0.591   3.543
20416SOL     OW61271   5.093   0.950   3.522
20416SOL    HW161272   5.132   1.039   3.542
20416SOL    HW261273   5.103   0.930   3.425
20417SOL     OW61274   4.539   0.572   2.187
20417SOL    HW161275   4.546   0.483   2.141
20417SOL    HW261276   4.445   0.606   2.179
20418SOL     OW61277   5.381   0.604   3.068
20418SOL    HW161278   5.343   0.535   3.130
20418SOL    HW261279   5.463   0.568   3.024
20419SOL     OW61280   3.976   1.564   3.606
20419SOL    HW161281   3.946   1.621   3.682
20419SOL    HW261282   3.969   1.467   3.632
20420SOL     OW61283   4.395   0.464   3.131
20420SOL    HW161284   4.361   0.375   3.101
20420SOL    HW261285   4.421   0.518   3.051
20421SOL     OW61286   4.654   1.678   3.327
20421SOL    HW161287   4.630   1.660   3.232
20421SOL    HW261288   4.684   1.772   3.337
20422SOL     OW61289   4.197   0.500   2.053
20422SOL    HW161290   4.258   0.580   2.057
20422SOL    HW261291   4.102   0.531   2.060
20423SOL     OW61292   3.883   1.137   3.328
20423SOL    HW161293   3.905   1.076   3.404
20423SOL    HW261294   3.893   1.088   3.242
20424SOL     OW61295   5.071   1.059   3.096
20424SOL    HW161296   5.095   0.996   3.022
20424SOL    HW261297   4.981   1.099   3.078
20425SOL     OW61298   5.026   0.855   2.171
20425SOL    HW161299   4.940   0.824   2.213
20425SOL    HW261300   5.022   0.841   2.072
20426SOL     OW61301   5.483   1.747   3.016
20426SOL    HW161302   5.544   1.777   2.943
20426SOL    HW261303   5.445   1.658   2.994
20427SOL     OW61304   4.976   1.731   2.990
20427SOL    HW161305   5.060   1.736   2.936
20427SOL    HW261306   4.953   1.635   3.008
20428SOL     OW61307   3.807   1.258   2.884
20428SOL    HW161308   3.802   1.257   2.984
20428SOL    HW261309   3.724   1.217   2.846
20429SOL     OW61310   4.412   1.662   3.578
20429SOL    HW161311   4.356   1.743   3.587
20429SOL    HW261312   4.464   1.666   3.492
20430SOL     OW61313   5.450   0.135   2.385
20430SOL    HW161314   5.523   0.118   2.318
20430SOL    HW261315   5.419   0.048   2.423
20431SOL     OW61316   5.112   1.573   2.339
20431SOL    HW161317   5.179   1.585   2.265
20431SOL    HW261318   5.072   1.662   2.362
20432SOL     OW61319   3.854   1.794   3.713
20432SOL    HW161320   3.813   1.720   3.766
20432SOL    HW261321   3.918   1.845   3.771
20433SOL     OW61322   5.004   0.927   2.534
20433SOL    HW161323   5.064   0.846   2.536
20433SOL    HW261324   5.044   0.996   2.474
20434SOL     OW61325   4.554   1.273   3.284
20434SOL    HW161326   4.549   1.306   3.379
20434SOL    HW261327   4.468   1.292   3.238
20435SOL     OW61328   4.396   1.616   2.016
20435SOL    HW161329   4.405   1.626   1.917
20435SOL    HW261330   4.356   1.527   2.037
20436SOL     OW61331   5.374   1.720   3.256
20436SOL    HW161332   5.427   1.730   3.172
20436SOL    HW261333   5.347   1.810   3.290
20437SOL     OW61334   5.565   0.175   2.825
20437SOL    HW161335   5.604   0.090   2.789
20437SOL    HW261336   5.467   0.177   2.806
20438SOL     OW61337   3.987   0.326   2.582
20438SOL    HW161338   3.908   0.377   2.548
20438SOL    HW261339   3.978   0.311   2.680
20439SOL     OW61340   4.918   1.612   1.893
20439SOL    HW161341   4.924   1.519   1.930
20439SOL    HW261342   4.859   1.612   1.813
20440SOL     OW61343   4.546   1.002   3.234
20440SOL    HW161344   4.586   1.001   3.142
20440SOL    HW261345   4.556   1.094   3.274
20441SOL     OW61346   4.640   0.910   2.153
20441SOL    HW161347   4.703   0.948   2.085
20441SOL    HW261348   4.680   0.827   2.192
20442SOL     OW61349   5.228   1.607   1.906
20442SOL    HW161350   5.136   1.644   1.913
20442SOL    HW261351   5.266   1.627   1.816
20443SOL     OW61352   4.096   1.288   3.352
20443SOL    HW161353   4.083   1.381   3.318
20443SOL    HW261354   4.012   1.236   3.339
20444SOL     OW61355   5.338   1.292   3.151
20444SOL    HW161356   5.398   1.295   3.231
20444SOL    HW261357   5.263   1.356   3.164
20445SOL     OW61358   4.763   1.098   2.558
20445SOL    HW161359   4.693   1.051   2.612
20445SOL    HW261360   4.822   1.030   2.515
20446SOL     OW61361   4.738   0.236   2.833
20446SOL    HW161362   4.730   0.200   2.740
20446SOL    HW261363   4.736   0.160   2.898
20447SOL     OW61364   4.314   1.487   2.353
20447SOL    HW161365   4.356   1.429   2.283
20447SOL    HW261366   4.270   1.566   2.309
20448SOL     OW61367   5.433   0.385   3.243
20448SOL    HW161368   5.506   0.454   3.247
20448SOL    HW261369   5.461   0.310   3.184
20449SOL     OW61370   3.979   1.348   2.152
20449SOL    HW161371   3.883   1.349   2.125
20449SOL    HW261372   3.991   1.401   2.236
20450SOL     OW61373   3.829   1.013   3.588
20450SOL    HW161374   3.752   0.980   3.642
20450SOL    HW261375   3.914   0.983   3.630
20451SOL     OW61376   4.396   0.203   3.351
20451SOL    HW161377   4.486   0.187   3.311
20451SOL    HW261378   4.404   0.208   3.450
20452SOL     OW61379   3.799   0.345   1.895
20452SOL    HW161380   3.707   0.317   1.866
20452SOL    HW261381   3.830   0.422   1.839
20453SOL     OW61382   5.164   0.856   3.260
20453SOL    HW161383   5.107   0.908   3.197
20453SOL    HW261384   5.260   0.868   3.236
20454SOL     OW61385   3.796   0.166   2.180
20454SOL    HW161386   3.779   0.249   2.126
20454SOL    HW261387   3.886   0.129   2.158
20455SOL     OW61388   4.907   1.335   1.981
20455SOL    HW161389   4.808   1.324   1.983
20455SOL    HW261390   4.941   1.350   2.074
20456SOL     OW61391   4.337   0.842   3.293
20456SOL    HW161392   4.393   0.923   3.276
20456SOL    HW261393   4.396   0.762   3.296
20457SOL     OW61394   5.217   1.767   2.821
20457SOL    HW161395   5.250   1.831   2.752
20457SOL    HW261396   5.283   1.761   2.896
20458SOL     OW61397   4.440   0.565   3.570
20458SOL    HW161398   4.459   0.630   3.644
20458SOL    HW261399   4.500   0.485   3.579
20459SOL     OW61400   5.174   1.220   3.495
20459SOL    HW161401   5.165   1.210   3.594
20459SOL    HW261402   5.270   1.213   3.469
20460SOL     OW61403   4.114   1.741   3.422
20460SOL    HW161404   4.023   1.782   3.420
20460SOL    HW261405   4.107   1.647   3.454
20461SOL     OW61406   5.398   0.883   3.116
20461SOL    HW161407   5.371   0.794   3.079
20461SOL    HW261408   5.399   0.951   3.043
20462SOL     OW61409   4.949   0.325   2.311
20462SOL    HW161410   5.014   0.251   2.300
20462SOL    HW261411   4.969   0.375   2.395
20463SOL     OW61412   4.318   0.745   2.514
20463SOL    HW161413   4.368   0.830   2.495
20463SOL    HW261414   4.230   0.747   2.466
20464SOL     OW61415   5.501   0.342   3.504
20464SOL    HW161416   5.484   0.373   3.410
20464SOL    HW261417   5.417   0.305   3.542
20465SOL     OW61418   5.454   0.934   3.379
20465SOL    HW161419   5.492   1.025   3.394
20465SOL    HW261420   5.446   0.917   3.280
20466SOL     OW61421   4.583   1.374   1.878
20466SOL    HW161422   4.537   1.389   1.966
20466SOL    HW261423   4.627   1.459   1.848
20467SOL     OW61424   4.385   1.790   2.815
20467SOL    HW161425   4.339   1.878   2.802
20467SOL    HW261426   4.484   1.802   2.808
20468SOL     OW61427   4.583   0.956   2.723
20468SOL    HW161428   4.637   0.887   2.771
20468SOL    HW261429   4.551   1.025   2.789
20469SOL     OW61430   4.807   0.984   1.949
20469SOL    HW161431   4.784   1.037   1.867
20469SOL    HW261432   4.888   0.928   1.930
20470SOL     OW61433   5.585   1.569   2.713
20470SOL    HW161434   5.514   1.557   2.643
20470SOL    HW261435   5.586   1.490   2.773
20471SOL     OW61436   3.945   1.314   3.706
20471SOL    HW161437   3.880   1.241   3.685
20471SOL    HW261438   3.949   1.328   3.804
20472SOL     OW61439   3.803   1.240   2.515
20472SOL    HW161440   3.802   1.193   2.603
20472SOL    HW261441   3.885   1.212   2.464
20473SOL     OW61442   4.396   1.391   3.486
20473SOL    HW161443   4.318   1.341   3.524
20473SOL    HW261444   4.393   1.486   3.517
20474SOL     OW61445   5.548   0.192   3.089
20474SOL    HW161446   5.544   0.102   3.133
20474SOL    HW261447   5.551   0.181   2.990
20475SOL     OW61448   4.152   0.424   2.382
20475SOL    HW161449   4.182   0.352   2.320
20475SOL    HW261450   4.113   0.384   2.465
20476SOL     OW61451   5.429   1.487   2.966
20476SOL    HW161452   5.336   1.462   2.939
20476SOL    HW261453   5.455   1.437   3.048
20477SOL     OW61454   4.041   0.547   3.142
20477SOL    HW161455   4.079   0.488   3.214
20477SOL    HW261456   4.081   0.521   3.054
20478SOL     OW61457   4.536   1.586   2.549
20478SOL    HW161458   4.568   1.596   2.455
20478SOL    HW261459   4.457   1.524   2.551
20479SOL     OW61460   5.148   0.214   2.974
20479SOL    HW161461   5.200   0.149   3.029
20479SOL    HW261462   5.099   0.277   3.035
20480SOL     OW61463   4.725   0.034   3.016
20480SOL    HW161464   4.662  -0.038   2.985
20480SOL    HW261465   4.818  -0.002   3.016
20481SOL     OW61466   4.494   1.330   2.163
20481SOL    HW161467   4.448   1.243   2.180
20481SOL    HW261468   4.585   1.327   2.204
20482SOL     OW61469   4.342   1.567   3.146
20482SOL    HW161470   4.337   1.649   3.203
20482SOL    HW261471   4.431   1.564   3.101
20483SOL     OW61472   5.076   0.052   2.030
20483SOL    HW161473   5.111   0.011   1.946
20483SOL    HW261474   4.986   0.014   2.050
20484SOL     OW61475   5.024   0.453   2.553
20484SOL    HW161476   4.965   0.533   2.557
20484SOL    HW261477   5.039   0.418   2.646
20485SOL     OW61478   5.317   0.221   2.744
20485SOL    HW161479   5.233   0.220   2.798
20485SOL    HW261480   5.319   0.304   2.688
20486SOL     OW61481   3.763   1.077   2.162
20486SOL    HW161482   3.862   1.066   2.153
20486SOL    HW261483   3.723   0.991   2.194
20487SOL     OW61484   4.599   1.646   2.199
20487SOL    HW161485   4.522   1.611   2.145
20487SOL    HW261486   4.567   1.717   2.261
20488SOL     OW61487   3.954   0.628   3.837
20488SOL    HW161488   3.861   0.626   3.874
20488SOL    HW261489   3.955   0.589   3.745
20489SOL     OW61490   3.949   0.275   4.720
20489SOL    HW161491   3.984   0.258   4.812
20489SOL    HW261492   3.861   0.230   4.708
20490SOL     OW61493   3.743   0.368   4.371
20490SOL    HW161494   3.661   0.411   4.410
20490SOL    HW261495   3.715   0.295   4.308
20491SOL     OW61496   4.293   1.275   4.889
20491SOL    HW161497   4.200   1.268   4.852
20491SOL    HW261498   4.304   1.364   4.933
20492SOL     OW61499   5.279   1.511   4.427
20492SOL    HW161500   5.222   1.495   4.508
20492SOL    HW261501   5.220   1.521   4.347
20493SOL     OW61502   4.859   0.703   4.441
20493SOL    HW161503   4.916   0.781   4.416
20493SOL    HW261504   4.799   0.729   4.517
20494SOL     OW61505   5.479   0.607   3.955
20494SOL    HW161506   5.467   0.594   3.856
20494SOL    HW261507   5.449   0.526   4.004
20495SOL     OW61508   4.492   1.144   4.747
20495SOL    HW161509   4.414   1.161   4.807
20495SOL    HW261510   4.526   1.231   4.711
20496SOL     OW61511   4.574   0.798   5.547
20496SOL    HW161512   4.570   0.874   5.612
20496SOL    HW261513   4.596   0.834   5.456
20497SOL     OW61514   4.409   1.012   4.389
20497SOL    HW161515   4.478   0.996   4.459
20497SOL    HW261516   4.336   1.069   4.427
20498SOL     OW61517   4.410   1.161   5.527
20498SOL    HW161518   4.470   1.240   5.541
20498SOL    HW261519   4.324   1.192   5.486
20499SOL     OW61520   4.059   1.435   4.785
20499SOL    HW161521   3.981   1.404   4.732
20499SOL    HW261522   4.117   1.493   4.728
20500SOL     OW61523   5.184   1.505   5.063
20500SOL    HW161524   5.208   1.599   5.089
20500SOL    HW261525   5.168   1.451   5.145
20501SOL     OW61526   4.162   0.392   5.223
20501SOL    HW161527   4.244   0.336   5.232
20501SOL    HW261528   4.081   0.334   5.227
20502SOL     OW61529   5.327   0.447   4.461
20502SOL    HW161530   5.253   0.493   4.411
20502SOL    HW261531   5.378   0.515   4.514
20503SOL     OW61532   3.955   1.713   4.207
20503SOL    HW161533   3.989   1.790   4.261
20503SOL    HW261534   3.999   1.713   4.117
20504SOL     OW61535   4.851   1.341   5.414
20504SOL    HW161536   4.898   1.341   5.502
20504SOL    HW261537   4.803   1.254   5.403
20505SOL     OW61538   3.954   1.434   4.262
20505SOL    HW161539   3.928   1.530   4.262
20505SOL    HW261540   3.883   1.380   4.307
20506SOL     OW61541   3.964   1.091   4.610
20506SOL    HW161542   3.978   1.007   4.662
20506SOL    HW261543   3.909   1.155   4.665
20507SOL     OW61544   4.344   1.786   5.163
20507SOL    HW161545   4.252   1.769   5.198
20507SOL    HW261546   4.372   1.878   5.189
20508SOL     OW61547   4.330   0.964   3.847
20508SOL    HW161548   4.337   1.048   3.793
20508SOL    HW261549   4.376   0.977   3.935
20509SOL     OW61550   5.318   0.114   5.204
20509SOL    HW161551   5.300   0.181   5.132
20509SOL    HW261552   5.315   0.160   5.293
20510SOL     OW61553   3.846   0.643   4.287
20510SOL    HW161554   3.801   0.555   4.304
20510SOL    HW261555   3.845   0.697   4.371
20511SOL     OW61556   5.566   1.767   4.083
20511SOL    HW161557   5.620   1.738   4.163
20511SOL    HW261558   5.596   1.857   4.054
20512SOL     OW61559   3.751   1.596   3.841
20512SOL    HW161560   3.732   1.500   3.862
20512SOL    HW261561   3.718   1.654   3.916
20513SOL     OW61562   5.413   0.922   4.336
20513SOL    HW161563   5.508   0.893   4.344
20513SOL    HW261564   5.405   0.987   4.261
20514SOL     OW61565   5.365   1.108   4.156
20514SOL    HW161566   5.451   1.110   4.104
20514SOL    HW261567   5.379   1.155   4.244
20515SOL     OW61568   3.837   0.737   5.321
20515SOL    HW161569   3.925   0.724   5.366
20515SOL    HW261570   3.824   0.834   5.299
20516SOL     OW61571   4.337   1.365   4.450
20516SOL    HW161572   4.288   1.278   4.459
20516SOL    HW261573   4.314   1.408   4.363
20517SOL     OW61574   5.017   1.228   5.147
20517SOL    HW161575   5.054   1.155   5.089
20517SOL    HW261576   5.069   1.233   5.232
20518SOL     OW61577   4.533   0.004   4.226
20518SOL    HW161578   4.573   0.095   4.217
20518SOL    HW261579   4.433   0.012   4.232
20519SOL     OW61580   3.921   0.976   4.988
20519SOL    HW161581   4.010   0.931   4.974
20519SOL    HW261582   3.848   0.911   4.969
20520SOL     OW61583   5.249   0.999   3.914
20520SOL    HW161584   5.186   0.923   3.927
20520SOL    HW261585   5.297   1.017   4.000
20521SOL     OW61586   4.911   1.792   5.340
20521SOL    HW161587   4.935   1.852   5.264
20521SOL    HW261588   4.918   1.697   5.310
20522SOL     OW61589   4.041   0.251   5.525
20522SOL    HW161590   4.112   0.322   5.531
20522SOL    HW261591   3.953   0.290   5.553
20523SOL     OW61592   5.190   1.417   4.677
20523SOL    HW161593   5.131   1.423   4.757
20523SOL    HW261594   5.175   1.329   4.631
20524SOL     OW61595   5.391   1.714   4.296
20524SOL    HW161596   5.350   1.691   4.208
20524SOL    HW261597   5.373   1.640   4.361
20525SOL     OW61598   4.322   0.729   3.994
20525SOL    HW161599   4.346   0.798   3.926
20525SOL    HW261600   4.244   0.762   4.048
20526SOL     OW61601   5.005   0.345   4.668
20526SOL    HW161602   4.919   0.295   4.655
20526SOL    HW261603   5.067   0.291   4.724
20527SOL     OW61604   5.300   1.662   4.031
20527SOL    HW161605   5.389   1.708   4.034
20527SOL    HW261606   5.279   1.638   3.936
20528SOL     OW61607   4.531   0.605   5.189
20528SOL    HW161608   4.484   0.602   5.278
20528SOL    HW261609   4.480   0.550   5.123
20529SOL     OW61610   5.118   0.469   5.398
20529SOL    HW161611   5.098   0.512   5.486
20529SOL    HW261612   5.196   0.407   5.407
20530SOL     OW61613   4.697   0.890   5.296
20530SOL    HW161614   4.743   0.806   5.267
20530SOL    HW261615   4.641   0.924   5.221
20531SOL     OW61616   4.715   0.410   4.966
20531SOL    HW161617   4.638   0.444   5.020
20531SOL    HW261618   4.681   0.359   4.887
20532SOL     OW61619   4.765   0.701   4.153
20532SOL    HW161620   4.791   0.697   4.249
20532SOL    HW261621   4.680   0.650   4.139
20533SOL     OW61622   3.800   0.811   4.513
20533SOL    HW161623   3.899   0.799   4.522
20533SOL    HW261624   3.776   0.906   4.534
20534SOL     OW61625   3.854   1.821   5.295
20534SOL    HW161626   3.844   1.806   5.394
20534SOL    HW261627   3.768   1.857   5.259
20535SOL     OW61628   4.589   0.348   3.919
20535SOL    HW161629   4.648   0.411   3.870
20535SOL    HW261630   4.608   0.254   3.890
20536SOL     OW61631   5.443   0.585   5.555
20536SOL    HW161632   5.417   0.674   5.519
20536SOL    HW261633   5.441   0.517   5.482
20537SOL     OW61634   5.086   1.144   4.269
20537SOL    HW161635   5.169   1.115   4.221
20537SOL    HW261636   5.037   1.211   4.213
20538SOL     OW61637   4.274   0.196   4.609
20538SOL    HW161638   4.269   0.191   4.709
20538SOL    HW261639   4.276   0.292   4.580
20539SOL     OW61640   4.732   1.456   4.201
20539SOL    HW161641   4.686   1.528   4.149
20539SOL    HW261642   4.728   1.476   4.299
20540SOL     OW61643   4.075   1.801   4.577
20540SOL    HW161644   4.125   1.715   4.583
20540SOL    HW261645   4.140   1.878   4.574
20541SOL     OW61646   5.519   1.066   4.597
20541SOL    HW161647   5.457   1.051   4.521
20541SOL    HW261648   5.467   1.077   4.682
20542SOL     OW61649   4.951   1.550   5.230
20542SOL    HW161650   4.957   1.473   5.294
20542SOL    HW261651   4.899   1.524   5.150
20543SOL     OW61652   4.045   0.943   3.966
20543SOL    HW161653   4.127   0.982   3.924
20543SOL    HW261654   4.018   0.861   3.917
20544SOL     OW61655   5.182   0.735   4.452
20544SOL    HW161656   5.177   0.670   4.527
20544SOL    HW261657   5.262   0.794   4.465
20545SOL     OW61658   4.185   1.266   5.451
20545SOL    HW161659   4.135   1.267   5.365
20545SOL    HW261660   4.122   1.248   5.527
20546SOL     OW61661   4.835   1.776   3.961
20546SOL    HW161662   4.775   1.714   4.011
20546SOL    HW261663   4.866   1.732   3.876
20547SOL     OW61664   3.926   0.285   5.222
20547SOL    HW161665   3.846   0.345   5.209
20547SOL    HW261666   3.916   0.236   5.308
20548SOL     OW61667   5.356   1.377   3.805
20548SOL    HW161668   5.324   1.471   3.795
20548SOL    HW261669   5.280   1.314   3.793
20549SOL     OW61670   4.188   1.743   4.047
20549SOL    HW161671   4.221   1.782   4.133
20549SOL    HW261672   4.264   1.736   3.982
20550SOL     OW61673   5.124   0.107   4.150
20550SOL    HW161674   5.100   0.070   4.060
20550SOL    HW261675   5.223   0.123   4.154
20551SOL     OW61676   3.973   1.785   4.965
20551SOL    HW161677   4.030   1.720   5.015
20551SOL    HW261678   3.957   1.752   4.872
20552SOL     OW61679   4.664   1.698   4.628
20552SOL    HW161680   4.744   1.641   4.649
20552SOL    HW261681   4.615   1.658   4.551
20553SOL     OW61682   4.106   0.700   4.204
20553SOL    HW161683   4.151   0.610   4.201
20553SOL    HW261684   4.012   0.689   4.237
20554SOL     OW61685   5.271   0.222   5.453
20554SOL    HW161686   5.266   0.259   5.545
20554SOL    HW261687   5.199   0.153   5.441
20555SOL     OW61688   4.338   0.122   3.841
20555SOL    HW161689   4.436   0.100   3.848
20555SOL    HW261690   4.307   0.105   3.748
20556SOL     OW61691   4.505   0.264   5.473
20556SOL    HW161692   4.572   0.203   5.516
20556SOL    HW261693   4.432   0.283   5.538
20557SOL     OW61694   4.612   1.514   4.919
20557SOL    HW161695   4.589   1.489   4.825
20557SOL    HW261696   4.673   1.445   4.958
20558SOL     OW61697   5.075   0.590   5.157
20558SOL    HW161698   5.103   0.547   5.242
20558SOL    HW261699   5.100   0.686   5.158
20559SOL     OW61700   4.527   1.402   4.648
20559SOL    HW161701   4.617   1.416   4.606
20559SOL    HW261702   4.456   1.404   4.577
20560SOL     OW61703   4.646   0.503   4.623
20560SOL    HW161704   4.621   0.494   4.527
20560SOL    HW261705   4.694   0.421   4.654
20561SOL     OW61706   4.263   0.064   4.236
20561SOL    HW161707   4.182   0.065   4.294
20561SOL    HW261708   4.266   0.147   4.181
20562SOL     OW61709   5.158   1.188   3.765
20562SOL    HW161710   5.190   1.112   3.822
20562SOL    HW261711   5.066   1.215   3.795
20563SOL     OW61712   4.021   0.035   3.895
20563SOL    HW161713   4.070   0.119   3.874
20563SOL    HW261714   4.083  -0.030   3.940
20564SOL     OW61715   4.659   0.236   4.204
20564SOL    HW161716   4.611   0.277   4.126
20564SOL    HW261717   4.758   0.234   4.185
20565SOL     OW61718   4.800   0.683   5.188
20565SOL    HW161719   4.720   0.622   5.191
20565SOL    HW261720   4.881   0.630   5.164
20566SOL     OW61721   4.951   1.570   4.517
20566SOL    HW161722   4.972   1.644   4.452
20566SOL    HW261723   5.019   1.570   4.590
20567SOL     OW61724   4.183   1.152   4.465
20567SOL    HW161725   4.112   1.125   4.530
20567SOL    HW261726   4.157   1.124   4.372
20568SOL     OW61727   4.995   1.797   4.315
20568SOL    HW161728   5.039   1.861   4.251
20568SOL    HW261729   4.945   1.849   4.385
20569SOL     OW61730   4.756   0.549   3.740
20569SOL    HW161731   4.715   0.631   3.701
20569SOL    HW261732   4.820   0.575   3.813
20570SOL     OW61733   3.802   0.556   5.110
20570SOL    HW161734   3.894   0.555   5.069
20570SOL    HW261735   3.796   0.630   5.177
20571SOL     OW61736   4.285   0.222   4.871
20571SOL    HW161737   4.323   0.138   4.908
20571SOL    HW261738   4.197   0.241   4.915
20572SOL     OW61739   4.590   0.454   4.366
20572SOL    HW161740   4.558   0.526   4.304
20572SOL    HW261741   4.614   0.373   4.313
20573SOL     OW61742   4.741   0.039   4.477
20573SOL    HW161743   4.669   0.044   4.408
20573SOL    HW261744   4.717  -0.030   4.546
20574SOL     OW61745   5.153   1.173   4.591
20574SOL    HW161746   5.098   1.089   4.584
20574SOL    HW261747   5.179   1.202   4.499
20575SOL     OW61748   5.190   0.590   4.716
20575SOL    HW161749   5.160   0.495   4.723
20575SOL    HW261750   5.263   0.606   4.782
20576SOL     OW61751   5.581   0.833   4.101
20576SOL    HW161752   5.623   0.769   4.165
20576SOL    HW261753   5.543   0.782   4.023
20577SOL     OW61754   4.212   1.385   3.898
20577SOL    HW161755   4.125   1.370   3.945
20577SOL    HW261756   4.195   1.411   3.803
20578SOL     OW61757   5.388   1.280   4.381
20578SOL    HW161758   5.487   1.288   4.395
20578SOL    HW261759   5.343   1.364   4.412
20579SOL     OW61760   5.114   0.575   3.802
20579SOL    HW161761   5.060   0.554   3.883
20579SOL    HW261762   5.205   0.534   3.811
20580SOL     OW61763   4.251   0.256   4.052
20580SOL    HW161764   4.278   0.197   3.977
20580SOL    HW261765   4.251   0.351   4.021
20581SOL     OW61766   5.478   1.223   5.312
20581SOL    HW161767   5.569   1.184   5.299
20581SOL    HW261768   5.486   1.319   5.336
20582SOL     OW61769   4.788   1.347   5.064
20582SOL    HW161770   4.708   1.324   5.119
20582SOL    HW261771   4.871   1.321   5.113
20583SOL     OW61772   5.316   1.629   5.349
20583SOL    HW161773   5.343   1.663   5.259
20583SOL    HW261774   5.395   1.591   5.395
20584SOL     OW61775   4.835   1.195   4.824
20584SOL    HW161776   4.795   1.239   4.905
20584SOL    HW261777   4.794   1.232   4.741
20585SOL     OW61778   5.362   1.099   4.803
20585SOL    HW161779   5.367   1.180   4.862
20585SOL    HW261780   5.276   1.101   4.752
20586SOL     OW61781   4.639   0.089   5.126
20586SOL    HW161782   4.664   0.069   5.031
20586SOL    HW261783   4.711   0.145   5.168
20587SOL     OW61784   4.704   1.116   5.443
20587SOL    HW161785   4.605   1.122   5.453
20587SOL    HW261786   4.727   1.036   5.387
20588SOL     OW61787   4.429   1.050   4.092
20588SOL    HW161788   4.415   1.057   4.191
20588SOL    HW261789   4.513   0.999   4.074
20589SOL     OW61790   4.134   0.813   4.975
20589SOL    HW161791   4.220   0.825   5.025
20589SOL    HW261792   4.092   0.726   5.002
20590SOL     OW61793   4.998   0.386   4.986
20590SOL    HW161794   5.019   0.460   5.050
20590SOL    HW261795   4.909   0.403   4.943
20591SOL     OW61796   3.788   1.564   5.055
20591SOL    HW161797   3.742   1.646   5.021
20591SOL    HW261798   3.886   1.583   5.064
20592SOL     OW61799   4.091   1.100   4.225
20592SOL    HW161800   4.084   1.183   4.169
20592SOL    HW261801   4.095   1.020   4.165
20593SOL     OW61802   4.290   0.537   4.589
20593SOL    HW161803   4.302   0.603   4.515
20593SOL    HW261804   4.336   0.571   4.672
20594SOL     OW61805   4.976   1.348   4.112
20594SOL    HW161806   5.026   1.425   4.152
20594SOL    HW261807   4.881   1.350   4.144
20595SOL     OW61808   4.996   1.445   4.866
20595SOL    HW161809   5.043   1.458   4.953
20595SOL    HW261810   4.930   1.371   4.875
20596SOL     OW61811   5.306   0.639   4.196
20596SOL    HW161812   5.275   0.700   4.269
20596SOL    HW261813   5.356   0.691   4.127
20597SOL     OW61814   4.078   1.510   5.053
20597SOL    HW161815   4.057   1.466   4.966
20597SOL    HW261816   4.175   1.536   5.056
20598SOL     OW61817   4.126   0.751   5.322
20598SOL    HW161818   4.194   0.806   5.275
20598SOL    HW261819   4.166   0.663   5.349
20599SOL     OW61820   5.311   0.779   5.394
20599SOL    HW161821   5.219   0.817   5.389
20599SOL    HW261822   5.371   0.826   5.329
20600SOL     OW61823   4.737   0.105   5.494
20600SOL    HW161824   4.743   0.190   5.442
20600SOL    HW261825   4.769   0.029   5.437
20601SOL     OW61826   4.228   0.050   5.464
20601SOL    HW161827   4.186  -0.007   5.394
20601SOL    HW261828   4.162   0.119   5.496
20602SOL     OW61829   4.297   0.870   4.753
20602SOL    HW161830   4.341   0.959   4.744
20602SOL    HW261831   4.234   0.870   4.830
20603SOL     OW61832   5.084   0.862   4.769
20603SOL    HW161833   5.009   0.862   4.703
20603SOL    HW261834   5.121   0.770   4.778
20604SOL     OW61835   4.933   0.525   3.999
20604SOL    HW161836   4.946   0.441   4.053
20604SOL    HW261837   4.904   0.599   4.059
20605SOL     OW61838   4.031   0.213   4.955
20605SOL    HW161839   4.008   0.250   5.045
20605SOL    HW261840   4.001   0.118   4.949
20606SOL     OW61841   3.761   1.310   5.006
20606SOL    HW161842   3.814   1.261   5.074
20606SOL    HW261843   3.783   1.408   5.011
20607SOL     OW61844   4.456   0.634   4.788
20607SOL    HW161845   4.515   0.608   4.712
20607SOL    HW261846   4.428   0.730   4.777
20608SOL     OW61847   5.452   0.935   5.578
20608SOL    HW161848   5.406   0.928   5.489
20608SOL    HW261849   5.390   0.979   5.644
20609SOL     OW61850   4.031   0.063   4.342
20609SOL    HW161851   4.020   0.157   4.375
20609SOL    HW261852   4.026   0.000   4.419
20610SOL     OW61853   5.346   0.367   4.098
20610SOL    HW161854   5.348   0.291   4.162
20610SOL    HW261855   5.298   0.444   4.138
20611SOL     OW61856   4.747   0.766   4.690
20611SOL    HW161857   4.762   0.787   4.786
20611SOL    HW261858   4.717   0.671   4.681
20612SOL     OW61859   4.704   1.573   5.424
20612SOL    HW161860   4.684   1.617   5.336
20612SOL    HW261861   4.743   1.482   5.408
20613SOL     OW61862   5.583   1.518   5.329
20613SOL    HW161863   5.597   1.545   5.234
20613SOL    HW261864   5.666   1.540   5.382
20614SOL     OW61865   4.074   0.898   5.528
20614SOL    HW161866   4.150   0.942   5.576
20614SOL    HW261867   4.109   0.851   5.446
20615SOL     OW61868   5.264   0.274   3.849
20615SOL    HW161869   5.203   0.199   3.872
20615SOL    HW261870   5.286   0.326   3.932
20616SOL     OW61871   5.027   0.838   3.766
20616SOL    HW161872   5.061   0.745   3.781
20616SOL    HW261873   5.045   0.865   3.671
20617SOL     OW61874   4.792   1.333   4.573
20617SOL    HW161875   4.799   1.249   4.518
20617SOL    HW261876   4.854   1.402   4.537
20618SOL     OW61877   4.043   0.810   4.673
20618SOL    HW161878   4.136   0.846   4.678
20618SOL    HW261879   4.037   0.725   4.725
20619SOL     OW61880   4.063   0.509   4.730
20619SOL    HW161881   4.011   0.426   4.713
20619SOL    HW261882   4.140   0.514   4.666
20620SOL     OW61883   4.862   0.380   5.402
20620SOL    HW161884   4.817   0.443   5.466
20620SOL    HW261885   4.955   0.411   5.385
20621SOL     OW61886   4.884   0.207   5.201
20621SOL    HW161887   4.884   0.271   5.278
20621SOL    HW261888   4.912   0.255   5.118
20622SOL     OW61889   3.732   1.326   3.924
20622SOL    HW161890   3.639   1.347   3.893
20622SOL    HW261891   3.742   1.227   3.937
20623SOL     OW61892   3.812   1.801   4.651
20623SOL    HW161893   3.770   1.715   4.624
20623SOL    HW261894   3.906   1.804   4.617
20624SOL     OW61895   4.228   1.568   4.634
20624SOL    HW161896   4.294   1.642   4.643
20624SOL    HW261897   4.272   1.489   4.592
20625SOL     OW61898   4.726   0.796   4.962
20625SOL    HW161899   4.767   0.764   5.048
20625SOL    HW261900   4.630   0.769   4.959
20626SOL     OW61901   3.764   0.544   4.838
20626SOL    HW161902   3.849   0.511   4.797
20626SOL    HW261903   3.777   0.559   4.936
20627SOL     OW61904   3.913   0.520   5.446
20627SOL    HW161905   3.972   0.480   5.376
20627SOL    HW261906   3.855   0.591   5.405
20628SOL     OW61907   5.093   0.950   5.384
20628SOL    HW161908   5.132   1.039   5.404
20628SOL    HW261909   5.103   0.930   5.287
20629SOL     OW61910   4.539   0.572   4.049
20629SOL    HW161911   4.546   0.483   4.003
20629SOL    HW261912   4.445   0.606   4.041
20630SOL     OW61913   5.381   0.604   4.930
20630SOL    HW161914   5.343   0.535   4.992
20630SOL    HW261915   5.463   0.568   4.886
20631SOL     OW61916   3.976   1.564   5.468
20631SOL    HW161917   3.946   1.621   5.544
20631SOL    HW261918   3.969   1.467   5.494
20632SOL     OW61919   4.395   0.464   4.993
20632SOL    HW161920   4.361   0.375   4.963
20632SOL    HW261921   4.421   0.518   4.913
20633SOL     OW61922   4.654   1.678   5.189
20633SOL    HW161923   4.630   1.660   5.094
20633SOL    HW261924   4.684   1.772   5.199
20634SOL     OW61925   4.197   0.500   3.915
20634SOL    HW161926   4.258   0.580   3.919
20634SOL    HW261927   4.102   0.531   3.922
20635SOL     OW61928   3.883   1.137   5.190
20635SOL    HW161929   3.905   1.076   5.266
20635SOL    HW261930   3.893   1.088   5.104
20636SOL     OW61931   5.071   1.059   4.958
20636SOL    HW161932   5.095   0.996   4.884
20636SOL    HW261933   4.981   1.099   4.940
20637SOL     OW61934   5.026   0.855   4.033
20637SOL    HW161935   4.940   0.824   4.075
20637SOL    HW261936   5.022   0.841   3.934
20638SOL     OW61937   5.483   1.747   4.878
20638SOL    HW161938   5.544   1.777   4.805
20638SOL    HW261939   5.445   1.658   4.856
20639SOL     OW61940   4.976   1.731   4.852
20639SOL    HW161941   5.060   1.736   4.798
20639SOL    HW261942   4.953   1.635   4.870
20640SOL     OW61943   3.807   1.258   4.746
20640SOL    HW161944   3.802   1.257   4.846
20640SOL    HW261945   3.724   1.217   4.708
20641SOL     OW61946   4.412   1.662   5.440
20641SOL    HW161947   4.356   1.743   5.449
20641SOL    HW261948   4.464   1.666   5.354
20642SOL     OW61949   5.450   0.135   4.247
20642SOL    HW161950   5.523   0.118   4.180
20642SOL    HW261951   5.419   0.048   4.285
20643SOL     OW61952   5.112   1.573   4.201
20643SOL    HW161953   5.179   1.585   4.127
20643SOL    HW261954   5.072   1.662   4.224
20644SOL     OW61955   3.854   1.794   5.575
20644SOL    HW161956   3.813   1.720   5.628
20644SOL    HW261957   3.918   1.845   5.633
20645SOL     OW61958   5.004   0.927   4.396
20645SOL    HW161959   5.064   0.846   4.398
20645SOL    HW261960   5.044   0.996   4.336
20646SOL     OW61961   4.554   1.273   5.146
20646SOL    HW161962   4.549   1.306   5.241
20646SOL    HW261963   4.468   1.292   5.100
20647SOL     OW61964   4.396   1.616   3.878
20647SOL    HW161965   4.405   1.626   3.779
20647SOL    HW261966   4.356   1.527   3.899
20648SOL     OW61967   5.374   1.720   5.118
20648SOL    HW161968   5.427   1.730   5.034
20648SOL    HW261969   5.347   1.810   5.152
20649SOL     OW61970   5.565   0.175   4.687
20649SOL    HW161971   5.604   0.090   4.651
20649SOL    HW261972   5.467   0.177   4.668
20650SOL     OW61973   3.987   0.326   4.444
20650SOL    HW161974   3.908   0.377   4.410
20650SOL    HW261975   3.978   0.311   4.542
20651SOL     OW61976   4.918   1.612   3.755
20651SOL    HW161977   4.924   1.519   3.792
20651SOL    HW261978   4.859   1.612   3.675
20652SOL     OW61979   4.546   1.002   5.096
20652SOL    HW161980   4.586   1.001   5.004
20652SOL    HW261981   4.556   1.094   5.136
20653SOL     OW61982   4.640   0.910   4.015
20653SOL    HW161983   4.703   0.948   3.947
20653SOL    HW261984   4.680   0.827   4.054
20654SOL     OW61985   5.228   1.607   3.768
20654SOL    HW161986   5.136   1.644   3.775
20654SOL    HW261987   5.266   1.627   3.678
20655SOL     OW61988   4.096   1.288   5.214
20655SOL    HW161989   4.083   1.381   5.180
20655SOL    HW261990   4.012   1.236   5.201
20656SOL     OW61991   5.338   1.292   5.013
20656SOL    HW161992   5.398   1.295   5.093
20656SOL    HW261993   5.263   1.356   5.026
20657SOL     OW61994   4.763   1.098   4.420
20657SOL    HW161995   4.693   1.051   4.474
20657SOL    HW261996   4.822   1.030   4.377
20658SOL     OW61997   4.738   0.236   4.695
20658SOL    HW161998   4.730   0.200   4.602
20658SOL    HW261999   4.736   0.160   4.760
20659SOL     OW62000   4.314   1.487   4.215
20659SOL    HW162001   4.356   1.429   4.145
20659SOL    HW262002   4.270   1.566   4.171
20660SOL     OW62003   5.433   0.385   5.105
20660SOL    HW162004   5.506   0.454   5.109
20660SOL    HW262005   5.461   0.310   5.046
20661SOL     OW62006   3.979   1.348   4.014
20661SOL    HW162007   3.883   1.349   3.987
20661SOL    HW262008   3.991   1.401   4.098
20662SOL     OW62009   3.829   1.013   5.450
20662SOL    HW162010   3.752   0.980   5.504
20662SOL    HW262011   3.914   0.983   5.492
20663SOL     OW62012   4.396   0.203   5.213
20663SOL    HW162013   4.486   0.187   5.173
20663SOL    HW262014   4.404   0.208   5.312
20664SOL     OW62015   3.799   0.345   3.757
20664SOL    HW162016   3.707   0.317   3.728
20664SOL    HW262017   3.830   0.422   3.701
20665SOL     OW62018   5.164   0.856   5.122
20665SOL    HW162019   5.107   0.908   5.059
20665SOL    HW262020   5.260   0.868   5.098
20666SOL     OW62021   3.796   0.166   4.042
20666SOL    HW162022   3.779   0.249   3.988
20666SOL    HW262023   3.886   0.129   4.020
20667SOL     OW62024   4.907   1.335   3.843
20667SOL    HW162025   4.808   1.324   3.845
20667SOL    HW262026   4.941   1.350   3.936
20668SOL     OW62027   4.337   0.842   5.155
20668SOL    HW162028   4.393   0.923   5.138
20668SOL    HW262029   4.396   0.762   5.158
20669SOL     OW62030   5.217   1.767   4.683
20669SOL    HW162031   5.250   1.831   4.614
20669SOL    HW262032   5.283   1.761   4.758
20670SOL     OW62033   4.440   0.565   5.432
20670SOL    HW162034   4.459   0.630   5.506
20670SOL    HW262035   4.500   0.485   5.441
20671SOL     OW62036   5.174   1.220   5.357
20671SOL    HW162037   5.165   1.210   5.456
20671SOL    HW262038   5.270   1.213   5.331
20672SOL     OW62039   4.114   1.741   5.284
20672SOL    HW162040   4.023   1.782   5.282
20672SOL    HW262041   4.107   1.647   5.316
20673SOL     OW62042   5.398   0.883   4.978
20673SOL    HW162043   5.371   0.794   4.941
20673SOL    HW262044   5.399   0.951   4.905
20674SOL     OW62045   4.949   0.325   4.173
20674SOL    HW162046   5.014   0.251   4.162
20674SOL    HW262047   4.969   0.375   4.257
20675SOL     OW62048   4.318   0.745   4.376
20675SOL    HW162049   4.368   0.830   4.357
20675SOL    HW262050   4.230   0.747   4.328
20676SOL     OW62051   5.501   0.342   5.366
20676SOL    HW162052   5.484   0.373   5.272
20676SOL    HW262053   5.417   0.305   5.404
20677SOL     OW62054   5.454   0.934   5.241
20677SOL    HW162055   5.492   1.025   5.256
20677SOL    HW262056   5.446   0.917   5.142
20678SOL     OW62057   4.583   1.374   3.740
20678SOL    HW162058   4.537   1.389   3.828
20678SOL    HW262059   4.627   1.459   3.710
20679SOL     OW62060   4.385   1.790   4.677
20679SOL    HW162061   4.339   1.878   4.664
20679SOL    HW262062   4.484   1.802   4.670
20680SOL     OW62063   4.583   0.956   4.585
20680SOL    HW162064   4.637   0.887   4.633
20680SOL    HW262065   4.551   1.025   4.651
20681SOL     OW62066   4.807   0.984   3.811
20681SOL    HW162067   4.784   1.037   3.729
20681SOL    HW262068   4.888   0.928   3.792
20682SOL     OW62069   5.585   1.569   4.575
20682SOL    HW162070   5.514   1.557   4.505
20682SOL    HW262071   5.586   1.490   4.635
20683SOL     OW62072   3.945   1.314   5.568
20683SOL    HW162073   3.880   1.241   5.547
20683SOL    HW262074   3.949   1.328   5.666
20684SOL     OW62075   3.803   1.240   4.377
20684SOL    HW162076   3.802   1.193   4.465
20684SOL    HW262077   3.885   1.212   4.326
20685SOL     OW62078   4.396   1.391   5.348
20685SOL    HW162079   4.318   1.341   5.386
20685SOL    HW262080   4.393   1.486   5.379
20686SOL     OW62081   5.548   0.192   4.951
20686SOL    HW162082   5.544   0.102   4.995
20686SOL    HW262083   5.551   0.181   4.852
20687SOL     OW62084   4.152   0.424   4.244
20687SOL    HW162085   4.182   0.352   4.182
20687SOL    HW262086   4.113   0.384   4.327
20688SOL     OW62087   5.429   1.487   4.828
20688SOL    HW162088   5.336   1.462   4.801
20688SOL    HW262089   5.455   1.437   4.910
20689SOL     OW62090   4.041   0.547   5.004
20689SOL    HW162091   4.079   0.488   5.076
20689SOL    HW262092   4.081   0.521   4.916
20690SOL     OW62093   4.536   1.586   4.411
20690SOL    HW162094   4.568   1.596   4.317
20690SOL    HW262095   4.457   1.524   4.413
20691SOL     OW62096   5.148   0.214   4.836
20691SOL    HW162097   5.200   0.149   4.891
20691SOL    HW262098   5.099   0.277   4.897
20692SOL     OW62099   4.725   0.034   4.878
20692SOL    HW162100   4.662  -0.038   4.847
20692SOL    HW262101   4.818  -0.002   4.878
20693SOL     OW62102   4.494   1.330   4.025
20693SOL    HW162103   4.448   1.243   4.042
20693SOL    HW262104   4.585   1.327   4.066
20694SOL     OW62105   4.342   1.567   5.008
20694SOL    HW162106   4.337   1.649   5.065
20694SOL    HW262107   4.431   1.564   4.963
20695SOL     OW62108   5.076   0.052   3.892
20695SOL    HW162109   5.111   0.011   3.808
20695SOL    HW262110   4.986   0.014   3.912
20696SOL     OW62111   5.024   0.453   4.415
20696SOL    HW162112   4.965   0.533   4.419
20696SOL    HW262113   5.039   0.418   4.508
20697SOL     OW62114   5.317   0.221   4.606
20697SOL    HW162115   5.233   0.220   4.660
20697SOL    HW262116   5.319   0.304   4.550
20698SOL     OW62117   3.763   1.077   4.024
20698SOL    HW162118   3.862   1.066   4.015
20698SOL    HW262119   3.723   0.991   4.056
20699SOL     OW62120   4.599   1.646   4.061
20699SOL    HW162121   4.522   1.611   4.007
20699SOL    HW262122   4.567   1.717   4.123
20700SOL     OW62123   3.954   0.628   5.699
20700SOL    HW162124   3.861   0.626   5.736
20700SOL    HW262125   3.955   0.589   5.607
20701SOL     OW62126   3.949   0.275   6.582
20701SOL    HW162127   3.984   0.258   6.674
20701SOL    HW262128   3.861   0.230   6.570
20702SOL     OW62129   3.743   0.368   6.233
20702SOL    HW162130   3.661   0.411   6.272
20702SOL    HW262131   3.715   0.295   6.170
20703SOL     OW62132   4.293   1.275   6.751
20703SOL    HW162133   4.200   1.268   6.714
20703SOL    HW262134   4.304   1.364   6.795
20704SOL     OW62135   5.279   1.511   6.289
20704SOL    HW162136   5.222   1.495   6.370
20704SOL    HW262137   5.220   1.521   6.209
20705SOL     OW62138   4.859   0.703   6.303
20705SOL    HW162139   4.916   0.781   6.278
20705SOL    HW262140   4.799   0.729   6.379
20706SOL     OW62141   5.479   0.607   5.817
20706SOL    HW162142   5.467   0.594   5.718
20706SOL    HW262143   5.449   0.526   5.866
20707SOL     OW62144   4.492   1.144   6.609
20707SOL    HW162145   4.414   1.161   6.669
20707SOL    HW262146   4.526   1.231   6.573
20708SOL     OW62147   4.574   0.798   7.409
20708SOL    HW162148   4.570   0.874   7.474
20708SOL    HW262149   4.596   0.834   7.318
20709SOL     OW62150   4.409   1.012   6.251
20709SOL    HW162151   4.478   0.996   6.321
20709SOL    HW262152   4.336   1.069   6.289
20710SOL     OW62153   4.410   1.161   7.389
20710SOL    HW162154   4.470   1.240   7.403
20710SOL    HW262155   4.324   1.192   7.348
20711SOL     OW62156   4.059   1.435   6.647
20711SOL    HW162157   3.981   1.404   6.594
20711SOL    HW262158   4.117   1.493   6.590
20712SOL     OW62159   5.184   1.505   6.925
20712SOL    HW162160   5.208   1.599   6.951
20712SOL    HW262161   5.168   1.451   7.007
20713SOL     OW62162   4.162   0.392   7.085
20713SOL    HW162163   4.244   0.336   7.094
20713SOL    HW262164   4.081   0.334   7.089
20714SOL     OW62165   5.327   0.447   6.323
20714SOL    HW162166   5.253   0.493   6.273
20714SOL    HW262167   5.378   0.515   6.376
20715SOL     OW62168   3.955   1.713   6.069
20715SOL    HW162169   3.989   1.790   6.123
20715SOL    HW262170   3.999   1.713   5.979
20716SOL     OW62171   4.851   1.341   7.276
20716SOL    HW162172   4.898   1.341   7.364
20716SOL    HW262173   4.803   1.254   7.265
20717SOL     OW62174   3.954   1.434   6.124
20717SOL    HW162175   3.928   1.530   6.124
20717SOL    HW262176   3.883   1.380   6.169
20718SOL     OW62177   3.964   1.091   6.472
20718SOL    HW162178   3.978   1.007   6.524
20718SOL    HW262179   3.909   1.155   6.527
20719SOL     OW62180   4.344   1.786   7.025
20719SOL    HW162181   4.252   1.769   7.060
20719SOL    HW262182   4.372   1.878   7.051
20720SOL     OW62183   4.330   0.964   5.709
20720SOL    HW162184   4.337   1.048   5.655
20720SOL    HW262185   4.376   0.977   5.797
20721SOL     OW62186   5.318   0.114   7.066
20721SOL    HW162187   5.300   0.181   6.994
20721SOL    HW262188   5.315   0.160   7.155
20722SOL     OW62189   3.846   0.643   6.149
20722SOL    HW162190   3.801   0.555   6.166
20722SOL    HW262191   3.845   0.697   6.233
20723SOL     OW62192   5.566   1.767   5.945
20723SOL    HW162193   5.620   1.738   6.025
20723SOL    HW262194   5.596   1.857   5.916
20724SOL     OW62195   3.751   1.596   5.703
20724SOL    HW162196   3.732   1.500   5.724
20724SOL    HW262197   3.718   1.654   5.778
20725SOL     OW62198   5.413   0.922   6.198
20725SOL    HW162199   5.508   0.893   6.206
20725SOL    HW262200   5.405   0.987   6.123
20726SOL     OW62201   5.365   1.108   6.018
20726SOL    HW162202   5.451   1.110   5.966
20726SOL    HW262203   5.379   1.155   6.106
20727SOL     OW62204   3.837   0.737   7.183
20727SOL    HW162205   3.925   0.724   7.228
20727SOL    HW262206   3.824   0.834   7.161
20728SOL     OW62207   4.337   1.365   6.312
20728SOL    HW162208   4.288   1.278   6.321
20728SOL    HW262209   4.314   1.408   6.225
20729SOL     OW62210   5.017   1.228   7.009
20729SOL    HW162211   5.054   1.155   6.951
20729SOL    HW262212   5.069   1.233   7.094
20730SOL     OW62213   4.533   0.004   6.088
20730SOL    HW162214   4.573   0.095   6.079
20730SOL    HW262215   4.433   0.012   6.094
20731SOL     OW62216   3.921   0.976   6.850
20731SOL    HW162217   4.010   0.931   6.836
20731SOL    HW262218   3.848   0.911   6.831
20732SOL     OW62219   5.249   0.999   5.776
20732SOL    HW162220   5.186   0.923   5.789
20732SOL    HW262221   5.297   1.017   5.862
20733SOL     OW62222   4.911   1.792   7.202
20733SOL    HW162223   4.935   1.852   7.126
20733SOL    HW262224   4.918   1.697   7.172
20734SOL     OW62225   4.041   0.251   7.387
20734SOL    HW162226   4.112   0.322   7.393
20734SOL    HW262227   3.953   0.290   7.415
20735SOL     OW62228   5.190   1.417   6.539
20735SOL    HW162229   5.131   1.423   6.619
20735SOL    HW262230   5.175   1.329   6.493
20736SOL     OW62231   5.391   1.714   6.158
20736SOL    HW162232   5.350   1.691   6.070
20736SOL    HW262233   5.373   1.640   6.223
20737SOL     OW62234   4.322   0.729   5.856
20737SOL    HW162235   4.346   0.798   5.788
20737SOL    HW262236   4.244   0.762   5.910
20738SOL     OW62237   5.005   0.345   6.530
20738SOL    HW162238   4.919   0.295   6.517
20738SOL    HW262239   5.067   0.291   6.586
20739SOL     OW62240   5.300   1.662   5.893
20739SOL    HW162241   5.389   1.708   5.896
20739SOL    HW262242   5.279   1.638   5.798
20740SOL     OW62243   4.531   0.605   7.051
20740SOL    HW162244   4.484   0.602   7.140
20740SOL    HW262245   4.480   0.550   6.985
20741SOL     OW62246   5.118   0.469   7.260
20741SOL    HW162247   5.098   0.512   7.348
20741SOL    HW262248   5.196   0.407   7.269
20742SOL     OW62249   4.697   0.890   7.158
20742SOL    HW162250   4.743   0.806   7.129
20742SOL    HW262251   4.641   0.924   7.083
20743SOL     OW62252   4.715   0.410   6.828
20743SOL    HW162253   4.638   0.444   6.882
20743SOL    HW262254   4.681   0.359   6.749
20744SOL     OW62255   4.765   0.701   6.015
20744SOL    HW162256   4.791   0.697   6.111
20744SOL    HW262257   4.680   0.650   6.001
20745SOL     OW62258   3.800   0.811   6.375
20745SOL    HW162259   3.899   0.799   6.384
20745SOL    HW262260   3.776   0.906   6.396
20746SOL     OW62261   3.854   1.821   7.157
20746SOL    HW162262   3.844   1.806   7.256
20746SOL    HW262263   3.768   1.857   7.121
20747SOL     OW62264   4.589   0.348   5.781
20747SOL    HW162265   4.648   0.411   5.732
20747SOL    HW262266   4.608   0.254   5.752
20748SOL     OW62267   5.443   0.585   7.417
20748SOL    HW162268   5.417   0.674   7.381
20748SOL    HW262269   5.441   0.517   7.344
20749SOL     OW62270   5.086   1.144   6.131
20749SOL    HW162271   5.169   1.115   6.083
20749SOL    HW262272   5.037   1.211   6.075
20750SOL     OW62273   4.274   0.196   6.471
20750SOL    HW162274   4.269   0.191   6.571
20750SOL    HW262275   4.276   0.292   6.442
20751SOL     OW62276   4.732   1.456   6.063
20751SOL    HW162277   4.686   1.528   6.011
20751SOL    HW262278   4.728   1.476   6.161
20752SOL     OW62279   4.075   1.801   6.439
20752SOL    HW162280   4.125   1.715   6.445
20752SOL    HW262281   4.140   1.878   6.436
20753SOL     OW62282   5.519   1.066   6.459
20753SOL    HW162283   5.457   1.051   6.383
20753SOL    HW262284   5.467   1.077   6.544
20754SOL     OW62285   4.951   1.550   7.092
20754SOL    HW162286   4.957   1.473   7.156
20754SOL    HW262287   4.899   1.524   7.012
20755SOL     OW62288   4.045   0.943   5.828
20755SOL    HW162289   4.127   0.982   5.786
20755SOL    HW262290   4.018   0.861   5.779
20756SOL     OW62291   5.182   0.735   6.314
20756SOL    HW162292   5.177   0.670   6.389
20756SOL    HW262293   5.262   0.794   6.327
20757SOL     OW62294   4.185   1.266   7.313
20757SOL    HW162295   4.135   1.267   7.227
20757SOL    HW262296   4.122   1.248   7.389
20758SOL     OW62297   4.835   1.776   5.823
20758SOL    HW162298   4.775   1.714   5.873
20758SOL    HW262299   4.866   1.732   5.738
20759SOL     OW62300   3.926   0.285   7.084
20759SOL    HW162301   3.846   0.345   7.071
20759SOL    HW262302   3.916   0.236   7.170
20760SOL     OW62303   5.356   1.377   5.667
20760SOL    HW162304   5.324   1.471   5.657
20760SOL    HW262305   5.280   1.314   5.655
20761SOL     OW62306   4.188   1.743   5.909
20761SOL    HW162307   4.221   1.782   5.995
20761SOL    HW262308   4.264   1.736   5.844
20762SOL     OW62309   5.124   0.107   6.012
20762SOL    HW162310   5.100   0.070   5.922
20762SOL    HW262311   5.223   0.123   6.016
20763SOL     OW62312   3.973   1.785   6.827
20763SOL    HW162313   4.030   1.720   6.877
20763SOL    HW262314   3.957   1.752   6.734
20764SOL     OW62315   4.664   1.698   6.490
20764SOL    HW162316   4.744   1.641   6.511
20764SOL    HW262317   4.615   1.658   6.413
20765SOL     OW62318   4.106   0.700   6.066
20765SOL    HW162319   4.151   0.610   6.063
20765SOL    HW262320   4.012   0.689   6.099
20766SOL     OW62321   5.271   0.222   7.315
20766SOL    HW162322   5.266   0.259   7.407
20766SOL    HW262323   5.199   0.153   7.303
20767SOL     OW62324   4.338   0.122   5.703
20767SOL    HW162325   4.436   0.100   5.710
20767SOL    HW262326   4.307   0.105   5.610
20768SOL     OW62327   4.505   0.264   7.335
20768SOL    HW162328   4.572   0.203   7.378
20768SOL    HW262329   4.432   0.283   7.400
20769SOL     OW62330   4.612   1.514   6.781
20769SOL    HW162331   4.589   1.489   6.687
20769SOL    HW262332   4.673   1.445   6.820
20770SOL     OW62333   5.075   0.590   7.019
20770SOL    HW162334   5.103   0.547   7.104
20770SOL    HW262335   5.100   0.686   7.020
20771SOL     OW62336   4.527   1.402   6.510
20771SOL    HW162337   4.617   1.416   6.468
20771SOL    HW262338   4.456   1.404   6.439
20772SOL     OW62339   4.646   0.503   6.485
20772SOL    HW162340   4.621   0.494   6.389
20772SOL    HW262341   4.694   0.421   6.516
20773SOL     OW62342   4.263   0.064   6.098
20773SOL    HW162343   4.182   0.065   6.156
20773SOL    HW262344   4.266   0.147   6.043
20774SOL     OW62345   5.158   1.188   5.627
20774SOL    HW162346   5.190   1.112   5.684
20774SOL    HW262347   5.066   1.215   5.657
20775SOL     OW62348   4.021   0.035   5.757
20775SOL    HW162349   4.070   0.119   5.736
20775SOL    HW262350   4.083  -0.030   5.802
20776SOL     OW62351   4.659   0.236   6.066
20776SOL    HW162352   4.611   0.277   5.988
20776SOL    HW262353   4.758   0.234   6.047
20777SOL     OW62354   4.800   0.683   7.050
20777SOL    HW162355   4.720   0.622   7.053
20777SOL    HW262356   4.881   0.630   7.026
20778SOL     OW62357   4.951   1.570   6.379
20778SOL    HW162358   4.972   1.644   6.314
20778SOL    HW262359   5.019   1.570   6.452
20779SOL     OW62360   4.183   1.152   6.327
20779SOL    HW162361   4.112   1.125   6.392
20779SOL    HW262362   4.157   1.124   6.234
20780SOL     OW62363   4.995   1.797   6.177
20780SOL    HW162364   5.039   1.861   6.113
20780SOL    HW262365   4.945   1.849   6.247
20781SOL     OW62366   4.756   0.549   5.602
20781SOL    HW162367   4.715   0.631   5.563
20781SOL    HW262368   4.820   0.575   5.675
20782SOL     OW62369   3.802   0.556   6.972
20782SOL    HW162370   3.894   0.555   6.931
20782SOL    HW262371   3.796   0.630   7.039
20783SOL     OW62372   4.285   0.222   6.733
20783SOL    HW162373   4.323   0.138   6.770
20783SOL    HW262374   4.197   0.241   6.777
20784SOL     OW62375   4.590   0.454   6.228
20784SOL    HW162376   4.558   0.526   6.166
20784SOL    HW262377   4.614   0.373   6.175
20785SOL     OW62378   4.741   0.039   6.339
20785SOL    HW162379   4.669   0.044   6.270
20785SOL    HW262380   4.717  -0.030   6.408
20786SOL     OW62381   5.153   1.173   6.453
20786SOL    HW162382   5.098   1.089   6.446
20786SOL    HW262383   5.179   1.202   6.361
20787SOL     OW62384   5.190   0.590   6.578
20787SOL    HW162385   5.160   0.495   6.585
20787SOL    HW262386   5.263   0.606   6.644
20788SOL     OW62387   5.581   0.833   5.963
20788SOL    HW162388   5.623   0.769   6.027
20788SOL    HW262389   5.543   0.782   5.885
20789SOL     OW62390   4.212   1.385   5.760
20789SOL    HW162391   4.125   1.370   5.807
20789SOL    HW262392   4.195   1.411   5.665
20790SOL     OW62393   5.388   1.280   6.243
20790SOL    HW162394   5.487   1.288   6.257
20790SOL    HW262395   5.343   1.364   6.274
20791SOL     OW62396   5.114   0.575   5.664
20791SOL    HW162397   5.060   0.554   5.745
20791SOL    HW262398   5.205   0.534   5.673
20792SOL     OW62399   4.251   0.256   5.914
20792SOL    HW162400   4.278   0.197   5.839
20792SOL    HW262401   4.251   0.351   5.883
20793SOL     OW62402   5.478   1.223   7.174
20793SOL    HW162403   5.569   1.184   7.161
20793SOL    HW262404   5.486   1.319   7.198
20794SOL     OW62405   4.788   1.347   6.926
20794SOL    HW162406   4.708   1.324   6.981
20794SOL    HW262407   4.871   1.321   6.975
20795SOL     OW62408   5.316   1.629   7.211
20795SOL    HW162409   5.343   1.663   7.121
20795SOL    HW262410   5.395   1.591   7.257
20796SOL     OW62411   4.835   1.195   6.686
20796SOL    HW162412   4.795   1.239   6.767
20796SOL    HW262413   4.794   1.232   6.603
20797SOL     OW62414   5.362   1.099   6.665
20797SOL    HW162415   5.367   1.180   6.724
20797SOL    HW262416   5.276   1.101   6.614
20798SOL     OW62417   4.639   0.089   6.988
20798SOL    HW162418   4.664   0.069   6.893
20798SOL    HW262419   4.711   0.145   7.030
20799SOL     OW62420   4.704   1.116   7.305
20799SOL    HW162421   4.605   1.122   7.315
20799SOL    HW262422   4.727   1.036   7.249
20800SOL     OW62423   4.429   1.050   5.954
20800SOL    HW162424   4.415   1.057   6.053
20800SOL    HW262425   4.513   0.999   5.936
20801SOL     OW62426   4.134   0.813   6.837
20801SOL    HW162427   4.220   0.825   6.887
20801SOL    HW262428   4.092   0.726   6.864
20802SOL     OW62429   4.998   0.386   6.848
20802SOL    HW162430   5.019   0.460   6.912
20802SOL    HW262431   4.909   0.403   6.805
20803SOL     OW62432   3.788   1.564   6.917
20803SOL    HW162433   3.742   1.646   6.883
20803SOL    HW262434   3.886   1.583   6.926
20804SOL     OW62435   4.091   1.100   6.087
20804SOL    HW162436   4.084   1.183   6.031
20804SOL    HW262437   4.095   1.020   6.027
20805SOL     OW62438   4.290   0.537   6.451
20805SOL    HW162439   4.302   0.603   6.377
20805SOL    HW262440   4.336   0.571   6.534
20806SOL     OW62441   4.976   1.348   5.974
20806SOL    HW162442   5.026   1.425   6.014
20806SOL    HW262443   4.881   1.350   6.006
20807SOL     OW62444   4.996   1.445   6.728
20807SOL    HW162445   5.043   1.458   6.815
20807SOL    HW262446   4.930   1.371   6.737
20808SOL     OW62447   5.306   0.639   6.058
20808SOL    HW162448   5.275   0.700   6.131
20808SOL    HW262449   5.356   0.691   5.989
20809SOL     OW62450   4.078   1.510   6.915
20809SOL    HW162451   4.057   1.466   6.828
20809SOL    HW262452   4.175   1.536   6.918
20810SOL     OW62453   4.126   0.751   7.184
20810SOL    HW162454   4.194   0.806   7.137
20810SOL    HW262455   4.166   0.663   7.211
20811SOL     OW62456   5.311   0.779   7.256
20811SOL    HW162457   5.219   0.817   7.251
20811SOL    HW262458   5.371   0.826   7.191
20812SOL     OW62459   4.737   0.105   7.356
20812SOL    HW162460   4.743   0.190   7.304
20812SOL    HW262461   4.769   0.029   7.299
20813SOL     OW62462   4.228   0.050   7.326
20813SOL    HW162463   4.186  -0.007   7.256
20813SOL    HW262464   4.162   0.119   7.358
20814SOL     OW62465   4.297   0.870   6.615
20814SOL    HW162466   4.341   0.959   6.606
20814SOL    HW262467   4.234   0.870   6.692
20815SOL     OW62468   5.084   0.862   6.631
20815SOL    HW162469   5.009   0.862   6.565
20815SOL    HW262470   5.121   0.770   6.640
20816SOL     OW62471   4.933   0.525   5.861
20816SOL    HW162472   4.946   0.441   5.915
20816SOL    HW262473   4.904   0.599   5.921
20817SOL     OW62474   4.031   0.213   6.817
20817SOL    HW162475   4.008   0.250   6.907
20817SOL    HW262476   4.001   0.118   6.811
20818SOL     OW62477   3.761   1.310   6.868
20818SOL    HW162478   3.814   1.261   6.936
20818SOL    HW262479   3.783   1.408   6.873
20819SOL     OW62480   4.456   0.634   6.650
20819SOL    HW162481   4.515   0.608   6.574
20819SOL    HW262482   4.428   0.730   6.639
20820SOL     OW62483   5.452   0.935   7.440
20820SOL    HW162484   5.406   0.928   7.351
20820SOL    HW262485   5.390   0.979   7.506
20821SOL     OW62486   4.031   0.063   6.204
20821SOL    HW162487   4.020   0.157   6.237
20821SOL    HW262488   4.026   0.000   6.281
20822SOL     OW62489   5.346   0.367   5.960
20822SOL    HW162490   5.348   0.291   6.024
20822SOL    HW262491   5.298   0.444   6.000
20823SOL     OW62492   4.747   0.766   6.552
20823SOL    HW162493   4.762   0.787   6.648
20823SOL    HW262494   4.717   0.671   6.543
20824SOL     OW62495   4.704   1.573   7.286
20824SOL    HW162496   4.684   1.617   7.198
20824SOL    HW262497   4.743   1.482   7.270
20825SOL     OW62498   5.583   1.518   7.191
20825SOL    HW162499   5.597   1.545   7.096
20825SOL    HW262500   5.666   1.540   7.244
20826SOL     OW62501   4.074   0.898   7.390
20826SOL    HW162502   4.150   0.942   7.438
20826SOL    HW262503   4.109   0.851   7.308
20827SOL     OW62504   5.264   0.274   5.711
20827SOL    HW162505   5.203   0.199   5.734
20827SOL    HW262506   5.286   0.326   5.794
20828SOL     OW62507   5.027   0.838   5.628
20828SOL    HW162508   5.061   0.745   5.643
20828SOL    HW262509   5.045   0.865   5.533
20829SOL     OW62510   4.792   1.333   6.435
20829SOL    HW162511   4.799   1.249   6.380
20829SOL    HW262512   4.854   1.402   6.399
20830SOL     OW62513   4.043   0.810   6.535
20830SOL    HW162514   4.136   0.846   6.540
20830SOL    HW262515   4.037   0.725   6.587
20831SOL     OW62516   4.063   0.509   6.592
20831SOL    HW162517   4.011   0.426   6.575
20831SOL    HW262518   4.140   0.514   6.528
20832SOL     OW62519   4.862   0.380   7.264
20832SOL    HW162520   4.817   0.443   7.328
20832SOL    HW262521   4.955   0.411   7.247
20833SOL     OW62522   4.884   0.207   7.063
20833SOL    HW162523   4.884   0.271   7.140
20833SOL    HW262524   4.912   0.255   6.980
20834SOL     OW62525   3.732   1.326   5.786
20834SOL    HW162526   3.639   1.347   5.755
20834SOL    HW262527   3.742   1.227   5.799
20835SOL     OW62528   3.812   1.801   6.513
20835SOL    HW162529   3.770   1.715   6.486
20835SOL    HW262530   3.906   1.804   6.479
20836SOL     OW62531   4.228   1.568   6.496
20836SOL    HW162532   4.294   1.642   6.505
20836SOL    HW262533   4.272   1.489   6.454
20837SOL     OW62534   4.726   0.796   6.824
20837SOL    HW162535   4.767   0.764   6.910
20837SOL    HW262536   4.630   0.769   6.821
20838SOL     OW62537   3.764   0.544   6.700
20838SOL    HW162538   3.849   0.511   6.659
20838SOL    HW262539   3.777   0.559   6.798
20839SOL     OW62540   3.913   0.520   7.308
20839SOL    HW162541   3.972   0.480   7.238
20839SOL    HW262542   3.855   0.591   7.267
20840SOL     OW62543   5.093   0.950   7.246
20840SOL    HW162544   5.132   1.039   7.266
20840SOL    HW262545   5.103   0.930   7.149
20841SOL     OW62546   4.539   0.572   5.911
20841SOL    HW162547   4.546   0.483   5.865
20841SOL    HW262548   4.445   0.606   5.903
20842SOL     OW62549   5.381   0.604   6.792
20842SOL    HW162550   5.343   0.535   6.854
20842SOL    HW262551   5.463   0.568   6.748
20843SOL     OW62552   3.976   1.564   7.330
20843SOL    HW162553   3.946   1.621   7.406
20843SOL    HW262554   3.969   1.467   7.356
20844SOL     OW62555   4.395   0.464   6.855
20844SOL    HW162556   4.361   0.375   6.825
20844SOL    HW262557   4.421   0.518   6.775
20845SOL     OW62558   4.654   1.678   7.051
20845SOL    HW162559   4.630   1.660   6.956
20845SOL    HW262560   4.684   1.772   7.061
20846SOL     OW62561   4.197   0.500   5.777
20846SOL    HW162562   4.258   0.580   5.781
20846SOL    HW262563   4.102   0.531   5.784
20847SOL     OW62564   3.883   1.137   7.052
20847SOL    HW162565   3.905   1.076   7.128
20847SOL    HW262566   3.893   1.088   6.966
20848SOL     OW62567   5.071   1.059   6.820
20848SOL    HW162568   5.095   0.996   6.746
20848SOL    HW262569   4.981   1.099   6.802
20849SOL     OW62570   5.026   0.855   5.895
20849SOL    HW162571   4.940   0.824   5.937
20849SOL    HW262572   5.022   0.841   5.796
20850SOL     OW62573   5.483   1.747   6.740
20850SOL    HW162574   5.544   1.777   6.667
20850SOL    HW262575   5.445   1.658   6.718
20851SOL     OW62576   4.976   1.731   6.714
20851SOL    HW162577   5.060   1.736   6.660
20851SOL    HW262578   4.953   1.635   6.732
20852SOL     OW62579   3.807   1.258   6.608
20852SOL    HW162580   3.802   1.257   6.708
20852SOL    HW262581   3.724   1.217   6.570
20853SOL     OW62582   4.412   1.662   7.302
20853SOL    HW162583   4.356   1.743   7.311
20853SOL    HW262584   4.464   1.666   7.216
20854SOL     OW62585   5.450   0.135   6.109
20854SOL    HW162586   5.523   0.118   6.042
20854SOL    HW262587   5.419   0.048   6.147
20855SOL     OW62588   5.112   1.573   6.063
20855SOL    HW162589   5.179   1.585   5.989
20855SOL    HW262590   5.072   1.662   6.086
20856SOL     OW62591   3.854   1.794   7.437
20856SOL    HW162592   3.813   1.720   7.490
20856SOL    HW262593   3.918   1.845   7.495
20857SOL     OW62594   5.004   0.927   6.258
20857SOL    HW162595   5.064   0.846   6.260
20857SOL    HW262596   5.044   0.996   6.198
20858SOL     OW62597   4.554   1.273   7.008
20858SOL    HW162598   4.549   1.306   7.103
20858SOL    HW262599   4.468   1.292   6.962
20859SOL     OW62600   4.396   1.616   5.740
20859SOL    HW162601   4.405   1.626   5.641
20859SOL    HW262602   4.356   1.527   5.761
20860SOL     OW62603   5.374   1.720   6.980
20860SOL    HW162604   5.427   1.730   6.896
20860SOL    HW262605   5.347   1.810   7.014
20861SOL     OW62606   5.565   0.175   6.549
20861SOL    HW162607   5.604   0.090   6.513
20861SOL    HW262608   5.467   0.177   6.530
20862SOL     OW62609   3.987   0.326   6.306
20862SOL    HW162610   3.908   0.377   6.272
20862SOL    HW262611   3.978   0.311   6.404
20863SOL     OW62612   4.918   1.612   5.617
20863SOL    HW162613   4.924   1.519   5.654
20863SOL    HW262614   4.859   1.612   5.537
20864SOL     OW62615   4.546   1.002   6.958
20864SOL    HW162616   4.586   1.001   6.866
20864SOL    HW262617   4.556   1.094   6.998
20865SOL     OW62618   4.640   0.910   5.877
20865SOL    HW162619   4.703   0.948   5.809
20865SOL    HW262620   4.680   0.827   5.916
20866SOL     OW62621   5.228   1.607   5.630
20866SOL    HW162622   5.136   1.644   5.637
20866SOL    HW262623   5.266   1.627   5.540
20867SOL     OW62624   4.096   1.288   7.076
20867SOL    HW162625   4.083   1.381   7.042
20867SOL    HW262626   4.012   1.236   7.063
20868SOL     OW62627   5.338   1.292   6.875
20868SOL    HW162628   5.398   1.295   6.955
20868SOL    HW262629   5.263   1.356   6.888
20869SOL     OW62630   4.763   1.098   6.282
20869SOL    HW162631   4.693   1.051   6.336
20869SOL    HW262632   4.822   1.030   6.239
20870SOL     OW62633   4.738   0.236   6.557
20870SOL    HW162634   4.730   0.200   6.464
20870SOL    HW262635   4.736   0.160   6.622
20871SOL     OW62636   4.314   1.487   6.077
20871SOL    HW162637   4.356   1.429   6.007
20871SOL    HW262638   4.270   1.566   6.033
20872SOL     OW62639   5.433   0.385   6.967
20872SOL    HW162640   5.506   0.454   6.971
20872SOL    HW262641   5.461   0.310   6.908
20873SOL     OW62642   3.979   1.348   5.876
20873SOL    HW162643   3.883   1.349   5.849
20873SOL    HW262644   3.991   1.401   5.960
20874SOL     OW62645   3.829   1.013   7.312
20874SOL    HW162646   3.752   0.980   7.366
20874SOL    HW262647   3.914   0.983   7.354
20875SOL     OW62648   4.396   0.203   7.075
20875SOL    HW162649   4.486   0.187   7.035
20875SOL    HW262650   4.404   0.208   7.174
20876SOL     OW62651   3.799   0.345   5.619
20876SOL    HW162652   3.707   0.317   5.590
20876SOL    HW262653   3.830   0.422   5.563
20877SOL     OW62654   5.164   0.856   6.984
20877SOL    HW162655   5.107   0.908   6.921
20877SOL    HW262656   5.260   0.868   6.960
20878SOL     OW62657   3.796   0.166   5.904
20878SOL    HW162658   3.779   0.249   5.850
20878SOL    HW262659   3.886   0.129   5.882
20879SOL     OW62660   4.907   1.335   5.705
20879SOL    HW162661   4.808   1.324   5.707
20879SOL    HW262662   4.941   1.350   5.798
20880SOL     OW62663   4.337   0.842   7.017
20880SOL    HW162664   4.393   0.923   7.000
20880SOL    HW262665   4.396   0.762   7.020
20881SOL     OW62666   5.217   1.767   6.545
20881SOL    HW162667   5.250   1.831   6.476
20881SOL    HW262668   5.283   1.761   6.620
20882SOL     OW62669   4.440   0.565   7.294
20882SOL    HW162670   4.459   0.630   7.368
20882SOL    HW262671   4.500   0.485   7.303
20883SOL     OW62672   5.174   1.220   7.219
20883SOL    HW162673   5.165   1.210   7.318
20883SOL    HW262674   5.270   1.213   7.193
20884SOL     OW62675   4.114   1.741   7.146
20884SOL    HW162676   4.023   1.782   7.144
20884SOL    HW262677   4.107   1.647   7.178
20885SOL     OW62678   5.398   0.883   6.840
20885SOL    HW162679   5.371   0.794   6.803
20885SOL    HW262680   5.399   0.951   6.767
20886SOL     OW62681   4.949   0.325   6.035
20886SOL    HW162682   5.014   0.251   6.024
20886SOL    HW262683   4.969   0.375   6.119
20887SOL     OW62684   4.318   0.745   6.238
20887SOL    HW162685   4.368   0.830   6.219
20887SOL    HW262686   4.230   0.747   6.190
20888SOL     OW62687   5.501   0.342   7.228
20888SOL    HW162688   5.484   0.373   7.134
20888SOL    HW262689   5.417   0.305   7.266
20889SOL     OW62690   5.454   0.934   7.103
20889SOL    HW162691   5.492   1.025   7.118
20889SOL    HW262692   5.446   0.917   7.004
20890SOL     OW62693   4.583   1.374   5.602
20890SOL    HW162694   4.537   1.389   5.690
20890SOL    HW262695   4.627   1.459   5.572
20891SOL     OW62696   4.385   1.790   6.539
20891SOL    HW162697   4.339   1.878   6.526
20891SOL    HW262698   4.484   1.802   6.532
20892SOL     OW62699   4.583   0.956   6.447
20892SOL    HW162700   4.637   0.887   6.495
20892SOL    HW262701   4.551   1.025   6.513
20893SOL     OW62702   4.807   0.984   5.673
20893SOL    HW162703   4.784   1.037   5.591
20893SOL    HW262704   4.888   0.928   5.654
20894SOL     OW62705   5.585   1.569   6.437
20894SOL    HW162706   5.514   1.557   6.367
20894SOL    HW262707   5.586   1.490   6.497
20895SOL     OW62708   3.945   1.314   7.430
20895SOL    HW162709   3.880   1.241   7.409
20895SOL    HW262710   3.949   1.328   7.528
20896SOL     OW62711   3.803   1.240   6.239
20896SOL    HW162712   3.802   1.193   6.327
20896SOL    HW262713   3.885   1.212   6.188
20897SOL     OW62714   4.396   1.391   7.210
20897SOL    HW162715   4.318   1.341   7.248
20897SOL    HW262716   4.393   1.486   7.241
20898SOL     OW62717   5.548   0.192   6.813
20898SOL    HW162718   5.544   0.102   6.857
20898SOL    HW262719   5.551   0.181   6.714
20899SOL     OW62720   4.152   0.424   6.106
20899SOL    HW162721   4.182   0.352   6.044
20899SOL    HW262722   4.113   0.384   6.189
20900SOL     OW62723   5.429   1.487   6.690
20900SOL    HW162724   5.336   1.462   6.663
20900SOL    HW262725   5.455   1.437   6.772
20901SOL     OW62726   4.041   0.547   6.866
20901SOL    HW162727   4.079   0.488   6.938
20901SOL    HW262728   4.081   0.521   6.778
20902SOL     OW62729   4.536   1.586   6.273
20902SOL    HW162730   4.568   1.596   6.179
20902SOL    HW262731   4.457   1.524   6.275
20903SOL     OW62732   5.148   0.214   6.698
20903SOL    HW162733   5.200   0.149   6.753
20903SOL    HW262734   5.099   0.277   6.759
20904SOL     OW62735   4.725   0.034   6.740
20904SOL    HW162736   4.662  -0.038   6.709
20904SOL    HW262737   4.818  -0.002   6.740
20905SOL     OW62738   4.494   1.330   5.887
20905SOL    HW162739   4.448   1.243   5.904
20905SOL    HW262740   4.585   1.327   5.928
20906SOL     OW62741   4.342   1.567   6.870
20906SOL    HW162742   4.337   1.649   6.927
20906SOL    HW262743   4.431   1.564   6.825
20907SOL     OW62744   5.076   0.052   5.754
20907SOL    HW162745   5.111   0.011   5.670
20907SOL    HW262746   4.986   0.014   5.774
20908SOL     OW62747   5.024   0.453   6.277
20908SOL    HW162748   4.965   0.533   6.281
20908SOL    HW262749   5.039   0.418   6.370
20909SOL     OW62750   5.317   0.221   6.468
20909SOL    HW162751   5.233   0.220   6.522
20909SOL    HW262752   5.319   0.304   6.412
20910SOL     OW62753   3.763   1.077   5.886
20910SOL    HW162754   3.862   1.066   5.877
20910SOL    HW262755   3.723   0.991   5.918
20911SOL     OW62756   4.599   1.646   5.923
20911SOL    HW162757   4.522   1.611   5.869
20911SOL    HW262758   4.567   1.717   5.985
20912SOL     OW62759   3.954   0.628   7.561
20912SOL    HW162760   3.861   0.626   7.598
20912SOL    HW262761   3.955   0.589   7.469
20913SOL     OW62762   3.949   0.275   8.444
20913SOL    HW162763   3.984   0.258   8.536
20913SOL    HW262764   3.861   0.230   8.432
20914SOL     OW62765   3.743   0.368   8.095
20914SOL    HW162766   3.661   0.411   8.134
20914SOL    HW262767   3.715   0.295   8.032
20915SOL     OW62768   4.293   1.275   8.613
20915SOL    HW162769   4.200   1.268   8.576
20915SOL    HW262770   4.304   1.364   8.657
20916SOL     OW62771   5.279   1.511   8.151
20916SOL    HW162772   5.222   1.495   8.232
20916SOL    HW262773   5.220   1.521   8.071
20917SOL     OW62774   4.859   0.703   8.165
20917SOL    HW162775   4.916   0.781   8.140
20917SOL    HW262776   4.799   0.729   8.241
20918SOL     OW62777   5.479   0.607   7.679
20918SOL    HW162778   5.467   0.594   7.580
20918SOL    HW262779   5.449   0.526   7.728
20919SOL     OW62780   4.492   1.144   8.471
20919SOL    HW162781   4.414   1.161   8.531
20919SOL    HW262782   4.526   1.231   8.435
20920SOL     OW62783   4.574   0.798   9.271
20920SOL    HW162784   4.570   0.874   9.336
20920SOL    HW262785   4.596   0.834   9.180
20921SOL     OW62786   4.409   1.012   8.113
20921SOL    HW162787   4.478   0.996   8.183
20921SOL    HW262788   4.336   1.069   8.151
20922SOL     OW62789   4.410   1.161   9.251
20922SOL    HW162790   4.470   1.240   9.265
20922SOL    HW262791   4.324   1.192   9.210
20923SOL     OW62792   4.059   1.435   8.509
20923SOL    HW162793   3.981   1.404   8.456
20923SOL    HW262794   4.117   1.493   8.452
20924SOL     OW62795   5.184   1.505   8.787
20924SOL    HW162796   5.208   1.599   8.813
20924SOL    HW262797   5.168   1.451   8.869
20925SOL     OW62798   4.162   0.392   8.947
20925SOL    HW162799   4.244   0.336   8.956
20925SOL    HW262800   4.081   0.334   8.951
20926SOL     OW62801   5.327   0.447   8.185
20926SOL    HW162802   5.253   0.493   8.135
20926SOL    HW262803   5.378   0.515   8.238
20927SOL     OW62804   3.955   1.713   7.931
20927SOL    HW162805   3.989   1.790   7.985
20927SOL    HW262806   3.999   1.713   7.841
20928SOL     OW62807   4.851   1.341   9.138
20928SOL    HW162808   4.898   1.341   9.226
20928SOL    HW262809   4.803   1.254   9.127
20929SOL     OW62810   3.954   1.434   7.986
20929SOL    HW162811   3.928   1.530   7.986
20929SOL    HW262812   3.883   1.380   8.031
20930SOL     OW62813   3.964   1.091   8.334
20930SOL    HW162814   3.978   1.007   8.386
20930SOL    HW262815   3.909   1.155   8.389
20931SOL     OW62816   4.344   1.786   8.887
20931SOL    HW162817   4.252   1.769   8.922
20931SOL    HW262818   4.372   1.878   8.913
20932SOL     OW62819   4.330   0.964   7.571
20932SOL    HW162820   4.337   1.048   7.517
20932SOL    HW262821   4.376   0.977   7.659
20933SOL     OW62822   5.318   0.114   8.928
20933SOL    HW162823   5.300   0.181   8.856
20933SOL    HW262824   5.315   0.160   9.017
20934SOL     OW62825   3.846   0.643   8.011
20934SOL    HW162826   3.801   0.555   8.028
20934SOL    HW262827   3.845   0.697   8.095
20935SOL     OW62828   5.566   1.767   7.807
20935SOL    HW162829   5.620   1.738   7.887
20935SOL    HW262830   5.596   1.857   7.778
20936SOL     OW62831   3.751   1.596   7.565
20936SOL    HW162832   3.732   1.500   7.586
20936SOL    HW262833   3.718   1.654   7.640
20937SOL     OW62834   5.413   0.922   8.060
20937SOL    HW162835   5.508   0.893   8.068
20937SOL    HW262836   5.405   0.987   7.985
20938SOL     OW62837   5.365   1.108   7.880
20938SOL    HW162838   5.451   1.110   7.828
20938SOL    HW262839   5.379   1.155   7.968
20939SOL     OW62840   3.837   0.737   9.045
20939SOL    HW162841   3.925   0.724   9.090
20939SOL    HW262842   3.824   0.834   9.023
20940SOL     OW62843   4.337   1.365   8.174
20940SOL    HW162844   4.288   1.278   8.183
20940SOL    HW262845   4.314   1.408   8.087
20941SOL     OW62846   5.017   1.228   8.871
20941SOL    HW162847   5.054   1.155   8.813
20941SOL    HW262848   5.069   1.233   8.956
20942SOL     OW62849   4.533   0.004   7.950
20942SOL    HW162850   4.573   0.095   7.941
20942SOL    HW262851   4.433   0.012   7.956
20943SOL     OW62852   3.921   0.976   8.712
20943SOL    HW162853   4.010   0.931   8.698
20943SOL    HW262854   3.848   0.911   8.693
20944SOL     OW62855   5.249   0.999   7.638
20944SOL    HW162856   5.186   0.923   7.651
20944SOL    HW262857   5.297   1.017   7.724
20945SOL     OW62858   4.911   1.792   9.064
20945SOL    HW162859   4.935   1.852   8.988
20945SOL    HW262860   4.918   1.697   9.034
20946SOL     OW62861   4.041   0.251   9.249
20946SOL    HW162862   4.112   0.322   9.255
20946SOL    HW262863   3.953   0.290   9.277
20947SOL     OW62864   5.190   1.417   8.401
20947SOL    HW162865   5.131   1.423   8.481
20947SOL    HW262866   5.175   1.329   8.355
20948SOL     OW62867   5.391   1.714   8.020
20948SOL    HW162868   5.350   1.691   7.932
20948SOL    HW262869   5.373   1.640   8.085
20949SOL     OW62870   4.322   0.729   7.718
20949SOL    HW162871   4.346   0.798   7.650
20949SOL    HW262872   4.244   0.762   7.772
20950SOL     OW62873   5.005   0.345   8.392
20950SOL    HW162874   4.919   0.295   8.379
20950SOL    HW262875   5.067   0.291   8.448
20951SOL     OW62876   5.300   1.662   7.755
20951SOL    HW162877   5.389   1.708   7.758
20951SOL    HW262878   5.279   1.638   7.660
20952SOL     OW62879   4.531   0.605   8.913
20952SOL    HW162880   4.484   0.602   9.002
20952SOL    HW262881   4.480   0.550   8.847
20953SOL     OW62882   5.118   0.469   9.122
20953SOL    HW162883   5.098   0.512   9.210
20953SOL    HW262884   5.196   0.407   9.131
20954SOL     OW62885   4.697   0.890   9.020
20954SOL    HW162886   4.743   0.806   8.991
20954SOL    HW262887   4.641   0.924   8.945
20955SOL     OW62888   4.715   0.410   8.690
20955SOL    HW162889   4.638   0.444   8.744
20955SOL    HW262890   4.681   0.359   8.611
20956SOL     OW62891   4.765   0.701   7.877
20956SOL    HW162892   4.791   0.697   7.973
20956SOL    HW262893   4.680   0.650   7.863
20957SOL     OW62894   3.800   0.811   8.237
20957SOL    HW162895   3.899   0.799   8.246
20957SOL    HW262896   3.776   0.906   8.258
20958SOL     OW62897   3.854   1.821   9.019
20958SOL    HW162898   3.844   1.806   9.118
20958SOL    HW262899   3.768   1.857   8.983
20959SOL     OW62900   4.589   0.348   7.643
20959SOL    HW162901   4.648   0.411   7.594
20959SOL    HW262902   4.608   0.254   7.614
20960SOL     OW62903   5.443   0.585   9.279
20960SOL    HW162904   5.417   0.674   9.243
20960SOL    HW262905   5.441   0.517   9.206
20961SOL     OW62906   5.086   1.144   7.993
20961SOL    HW162907   5.169   1.115   7.945
20961SOL    HW262908   5.037   1.211   7.937
20962SOL     OW62909   4.274   0.196   8.333
20962SOL    HW162910   4.269   0.191   8.433
20962SOL    HW262911   4.276   0.292   8.304
20963SOL     OW62912   4.732   1.456   7.925
20963SOL    HW162913   4.686   1.528   7.873
20963SOL    HW262914   4.728   1.476   8.023
20964SOL     OW62915   4.075   1.801   8.301
20964SOL    HW162916   4.125   1.715   8.307
20964SOL    HW262917   4.140   1.878   8.298
20965SOL     OW62918   5.519   1.066   8.321
20965SOL    HW162919   5.457   1.051   8.245
20965SOL    HW262920   5.467   1.077   8.406
20966SOL     OW62921   4.951   1.550   8.954
20966SOL    HW162922   4.957   1.473   9.018
20966SOL    HW262923   4.899   1.524   8.874
20967SOL     OW62924   4.045   0.943   7.690
20967SOL    HW162925   4.127   0.982   7.648
20967SOL    HW262926   4.018   0.861   7.641
20968SOL     OW62927   5.182   0.735   8.176
20968SOL    HW162928   5.177   0.670   8.251
20968SOL    HW262929   5.262   0.794   8.189
20969SOL     OW62930   4.185   1.266   9.175
20969SOL    HW162931   4.135   1.267   9.089
20969SOL    HW262932   4.122   1.248   9.251
20970SOL     OW62933   4.835   1.776   7.685
20970SOL    HW162934   4.775   1.714   7.735
20970SOL    HW262935   4.866   1.732   7.600
20971SOL     OW62936   3.926   0.285   8.946
20971SOL    HW162937   3.846   0.345   8.933
20971SOL    HW262938   3.916   0.236   9.032
20972SOL     OW62939   5.356   1.377   7.529
20972SOL    HW162940   5.324   1.471   7.519
20972SOL    HW262941   5.280   1.314   7.517
20973SOL     OW62942   4.188   1.743   7.771
20973SOL    HW162943   4.221   1.782   7.857
20973SOL    HW262944   4.264   1.736   7.706
20974SOL     OW62945   5.124   0.107   7.874
20974SOL    HW162946   5.100   0.070   7.784
20974SOL    HW262947   5.223   0.123   7.878
20975SOL     OW62948   3.973   1.785   8.689
20975SOL    HW162949   4.030   1.720   8.739
20975SOL    HW262950   3.957   1.752   8.596
20976SOL     OW62951   4.664   1.698   8.352
20976SOL    HW162952   4.744   1.641   8.373
20976SOL    HW262953   4.615   1.658   8.275
20977SOL     OW62954   4.106   0.700   7.928
20977SOL    HW162955   4.151   0.610   7.925
20977SOL    HW262956   4.012   0.689   7.961
20978SOL     OW62957   5.271   0.222   9.177
20978SOL    HW162958   5.266   0.259   9.269
20978SOL    HW262959   5.199   0.153   9.165
20979SOL     OW62960   4.338   0.122   7.565
20979SOL    HW162961   4.436   0.100   7.572
20979SOL    HW262962   4.307   0.105   7.472
20980SOL     OW62963   4.505   0.264   9.197
20980SOL    HW162964   4.572   0.203   9.240
20980SOL    HW262965   4.432   0.283   9.262
20981SOL     OW62966   4.612   1.514   8.643
20981SOL    HW162967   4.589   1.489   8.549
20981SOL    HW262968   4.673   1.445   8.682
20982SOL     OW62969   5.075   0.590   8.881
20982SOL    HW162970   5.103   0.547   8.966
20982SOL    HW262971   5.100   0.686   8.882
20983SOL     OW62972   4.527   1.402   8.372
20983SOL    HW162973   4.617   1.416   8.330
20983SOL    HW262974   4.456   1.404   8.301
20984SOL     OW62975   4.646   0.503   8.347
20984SOL    HW162976   4.621   0.494   8.251
20984SOL    HW262977   4.694   0.421   8.378
20985SOL     OW62978   4.263   0.064   7.960
20985SOL    HW162979   4.182   0.065   8.018
20985SOL    HW262980   4.266   0.147   7.905
20986SOL     OW62981   5.158   1.188   7.489
20986SOL    HW162982   5.190   1.112   7.546
20986SOL    HW262983   5.066   1.215   7.519
20987SOL     OW62984   4.021   0.035   7.619
20987SOL    HW162985   4.070   0.119   7.598
20987SOL    HW262986   4.083  -0.030   7.664
20988SOL     OW62987   4.659   0.236   7.928
20988SOL    HW162988   4.611   0.277   7.850
20988SOL    HW262989   4.758   0.234   7.909
20989SOL     OW62990   4.800   0.683   8.912
20989SOL    HW162991   4.720   0.622   8.915
20989SOL    HW262992   4.881   0.630   8.888
20990SOL     OW62993   4.951   1.570   8.241
20990SOL    HW162994   4.972   1.644   8.176
20990SOL    HW262995   5.019   1.570   8.314
20991SOL     OW62996   4.183   1.152   8.189
20991SOL    HW162997   4.112   1.125   8.254
20991SOL    HW262998   4.157   1.124   8.096
20992SOL     OW62999   4.995   1.797   8.039
20992SOL    HW163000   5.039   1.861   7.975
20992SOL    HW263001   4.945   1.849   8.109
20993SOL     OW63002   4.756   0.549   7.464
20993SOL    HW163003   4.715   0.631   7.425
20993SOL    HW263004   4.820   0.575   7.537
20994SOL     OW63005   3.802   0.556   8.834
20994SOL    HW163006   3.894   0.555   8.793
20994SOL    HW263007   3.796   0.630   8.901
20995SOL     OW63008   4.285   0.222   8.595
20995SOL    HW163009   4.323   0.138   8.632
20995SOL    HW263010   4.197   0.241   8.639
20996SOL     OW63011   4.590   0.454   8.090
20996SOL    HW163012   4.558   0.526   8.028
20996SOL    HW263013   4.614   0.373   8.037
20997SOL     OW63014   4.741   0.039   8.201
20997SOL    HW163015   4.669   0.044   8.132
20997SOL    HW263016   4.717  -0.030   8.270
20998SOL     OW63017   5.153   1.173   8.315
20998SOL    HW163018   5.098   1.089   8.308
20998SOL    HW263019   5.179   1.202   8.223
20999SOL     OW63020   5.190   0.590   8.440
20999SOL    HW163021   5.160   0.495   8.447
20999SOL    HW263022   5.263   0.606   8.506
21000SOL     OW63023   5.581   0.833   7.825
21000SOL    HW163024   5.623   0.769   7.889
21000SOL    HW263025   5.543   0.782   7.747
21001SOL     OW63026   4.212   1.385   7.622
21001SOL    HW163027   4.125   1.370   7.669
21001SOL    HW263028   4.195   1.411   7.527
21002SOL     OW63029   5.388   1.280   8.105
21002SOL    HW163030   5.487   1.288   8.119
21002SOL    HW263031   5.343   1.364   8.136
21003SOL     OW63032   5.114   0.575   7.526
21003SOL    HW163033   5.060   0.554   7.607
21003SOL    HW263034   5.205   0.534   7.535
21004SOL     OW63035   4.251   0.256   7.776
21004SOL    HW163036   4.278   0.197   7.701
21004SOL    HW263037   4.251   0.351   7.745
21005SOL     OW63038   5.478   1.223   9.036
21005SOL    HW163039   5.569   1.184   9.023
21005SOL    HW263040   5.486   1.319   9.060
21006SOL     OW63041   4.788   1.347   8.788
21006SOL    HW163042   4.708   1.324   8.843
21006SOL    HW263043   4.871   1.321   8.837
21007SOL     OW63044   5.316   1.629   9.073
21007SOL    HW163045   5.343   1.663   8.983
21007SOL    HW263046   5.395   1.591   9.119
21008SOL     OW63047   4.835   1.195   8.548
21008SOL    HW163048   4.795   1.239   8.629
21008SOL    HW263049   4.794   1.232   8.465
21009SOL     OW63050   5.362   1.099   8.527
21009SOL    HW163051   5.367   1.180   8.586
21009SOL    HW263052   5.276   1.101   8.476
21010SOL     OW63053   4.639   0.089   8.850
21010SOL    HW163054   4.664   0.069   8.755
21010SOL    HW263055   4.711   0.145   8.892
21011SOL     OW63056   4.704   1.116   9.167
21011SOL    HW163057   4.605   1.122   9.177
21011SOL    HW263058   4.727   1.036   9.111
21012SOL     OW63059   4.429   1.050   7.816
21012SOL    HW163060   4.415   1.057   7.915
21012SOL    HW263061   4.513   0.999   7.798
21013SOL     OW63062   4.134   0.813   8.699
21013SOL    HW163063   4.220   0.825   8.749
21013SOL    HW263064   4.092   0.726   8.726
21014SOL     OW63065   4.998   0.386   8.710
21014SOL    HW163066   5.019   0.460   8.774
21014SOL    HW263067   4.909   0.403   8.667
21015SOL     OW63068   3.788   1.564   8.779
21015SOL    HW163069   3.742   1.646   8.745
21015SOL    HW263070   3.886   1.583   8.788
21016SOL     OW63071   4.091   1.100   7.949
21016SOL    HW163072   4.084   1.183   7.893
21016SOL    HW263073   4.095   1.020   7.889
21017SOL     OW63074   4.290   0.537   8.313
21017SOL    HW163075   4.302   0.603   8.239
21017SOL    HW263076   4.336   0.571   8.396
21018SOL     OW63077   4.976   1.348   7.836
21018SOL    HW163078   5.026   1.425   7.876
21018SOL    HW263079   4.881   1.350   7.868
21019SOL     OW63080   4.996   1.445   8.590
21019SOL    HW163081   5.043   1.458   8.677
21019SOL    HW263082   4.930   1.371   8.599
21020SOL     OW63083   5.306   0.639   7.920
21020SOL    HW163084   5.275   0.700   7.993
21020SOL    HW263085   5.356   0.691   7.851
21021SOL     OW63086   4.078   1.510   8.777
21021SOL    HW163087   4.057   1.466   8.690
21021SOL    HW263088   4.175   1.536   8.780
21022SOL     OW63089   4.126   0.751   9.046
21022SOL    HW163090   4.194   0.806   8.999
21022SOL    HW263091   4.166   0.663   9.073
21023SOL     OW63092   5.311   0.779   9.118
21023SOL    HW163093   5.219   0.817   9.113
21023SOL    HW263094   5.371   0.826   9.053
21024SOL     OW63095   4.737   0.105   9.218
21024SOL    HW163096   4.743   0.190   9.166
21024SOL    HW263097   4.769   0.029   9.161
21025SOL     OW63098   4.228   0.050   9.188
21025SOL    HW163099   4.186  -0.007   9.118
21025SOL    HW263100   4.162   0.119   9.220
21026SOL     OW63101   4.297   0.870   8.477
21026SOL    HW163102   4.341   0.959   8.468
21026SOL    HW263103   4.234   0.870   8.554
21027SOL     OW63104   5.084   0.862   8.493
21027SOL    HW163105   5.009   0.862   8.427
21027SOL    HW263106   5.121   0.770   8.502
21028SOL     OW63107   4.933   0.525   7.723
21028SOL    HW163108   4.946   0.441   7.777
21028SOL    HW263109   4.904   0.599   7.783
21029SOL     OW63110   4.031   0.213   8.679
21029SOL    HW163111   4.008   0.250   8.769
21029SOL    HW263112   4.001   0.118   8.673
21030SOL     OW63113   3.761   1.310   8.730
21030SOL    HW163114   3.814   1.261   8.798
21030SOL    HW263115   3.783   1.408   8.735
21031SOL     OW63116   4.456   0.634   8.512
21031SOL    HW163117   4.515   0.608   8.436
21031SOL    HW263118   4.428   0.730   8.501
21032SOL     OW63119   5.452   0.935   9.302
21032SOL    HW163120   5.406   0.928   9.213
21032SOL    HW263121   5.390   0.979   9.368
21033SOL     OW63122   4.031   0.063   8.066
21033SOL    HW163123   4.020   0.157   8.099
21033SOL    HW263124   4.026   0.000   8.143
21034SOL     OW63125   5.346   0.367   7.822
21034SOL    HW163126   5.348   0.291   7.886
21034SOL    HW263127   5.298   0.444   7.862
21035SOL     OW63128   4.747   0.766   8.414
21035SOL    HW163129   4.762   0.787   8.510
21035SOL    HW263130   4.717   0.671   8.405
21036SOL     OW63131   4.704   1.573   9.148
21036SOL    HW163132   4.684   1.617   9.060
21036SOL    HW263133   4.743   1.482   9.132
21037SOL     OW63134   5.583   1.518   9.053
21037SOL    HW163135   5.597   1.545   8.958
21037SOL    HW263136   5.666   1.540   9.106
21038SOL     OW63137   4.074   0.898   9.252
21038SOL    HW163138   4.150   0.942   9.300
21038SOL    HW263139   4.109   0.851   9.170
21039SOL     OW63140   5.264   0.274   7.573
21039SOL    HW163141   5.203   0.199   7.596
21039SOL    HW263142   5.286   0.326   7.656
21040SOL     OW63143   5.027   0.838   7.490
21040SOL    HW163144   5.061   0.745   7.505
21040SOL    HW263145   5.045   0.865   7.395
21041SOL     OW63146   4.792   1.333   8.297
21041SOL    HW163147   4.799   1.249   8.242
21041SOL    HW263148   4.854   1.402   8.261
21042SOL     OW63149   4.043   0.810   8.397
21042SOL    HW163150   4.136   0.846   8.402
21042SOL    HW263151   4.037   0.725   8.449
21043SOL     OW63152   4.063   0.509   8.454
21043SOL    HW163153   4.011   0.426   8.437
21043SOL    HW263154   4.140   0.514   8.390
21044SOL     OW63155   4.862   0.380   9.126
21044SOL    HW163156   4.817   0.443   9.190
21044SOL    HW263157   4.955   0.411   9.109
21045SOL     OW63158   4.884   0.207   8.925
21045SOL    HW163159   4.884   0.271   9.002
21045SOL    HW263160   4.912   0.255   8.842
21046SOL     OW63161   3.732   1.326   7.648
21046SOL    HW163162   3.639   1.347   7.617
21046SOL    HW263163   3.742   1.227   7.661
21047SOL     OW63164   3.812   1.801   8.375
21047SOL    HW163165   3.770   1.715   8.348
21047SOL    HW263166   3.906   1.804   8.341
21048SOL     OW63167   4.228   1.568   8.358
21048SOL    HW163168   4.294   1.642   8.367
21048SOL    HW263169   4.272   1.489   8.316
21049SOL     OW63170   4.726   0.796   8.686
21049SOL    HW163171   4.767   0.764   8.772
21049SOL    HW263172   4.630   0.769   8.683
21050SOL     OW63173   3.764   0.544   8.562
21050SOL    HW163174   3.849   0.511   8.521
21050SOL    HW263175   3.777   0.559   8.660
21051SOL     OW63176   3.913   0.520   9.170
21051SOL    HW163177   3.972   0.480   9.100
21051SOL    HW263178   3.855   0.591   9.129
21052SOL     OW63179   5.093   0.950   9.108
21052SOL    HW163180   5.132   1.039   9.128
21052SOL    HW263181   5.103   0.930   9.011
21053SOL     OW63182   4.539   0.572   7.773
21053SOL    HW163183   4.546   0.483   7.727
21053SOL    HW263184   4.445   0.606   7.765
21054SOL     OW63185   5.381   0.604   8.654
21054SOL    HW163186   5.343   0.535   8.716
21054SOL    HW263187   5.463   0.568   8.610
21055SOL     OW63188   3.976   1.564   9.192
21055SOL    HW163189   3.946   1.621   9.268
21055SOL    HW263190   3.969   1.467   9.218
21056SOL     OW63191   4.395   0.464   8.717
21056SOL    HW163192   4.361   0.375   8.687
21056SOL    HW263193   4.421   0.518   8.637
21057SOL     OW63194   4.654   1.678   8.913
21057SOL    HW163195   4.630   1.660   8.818
21057SOL    HW263196   4.684   1.772   8.923
21058SOL     OW63197   4.197   0.500   7.639
21058SOL    HW163198   4.258   0.580   7.643
21058SOL    HW263199   4.102   0.531   7.646
21059SOL     OW63200   3.883   1.137   8.914
21059SOL    HW163201   3.905   1.076   8.990
21059SOL    HW263202   3.893   1.088   8.828
21060SOL     OW63203   5.071   1.059   8.682
21060SOL    HW163204   5.095   0.996   8.608
21060SOL    HW263205   4.981   1.099   8.664
21061SOL     OW63206   5.026   0.855   7.757
21061SOL    HW163207   4.940   0.824   7.799
21061SOL    HW263208   5.022   0.841   7.658
21062SOL     OW63209   5.483   1.747   8.602
21062SOL    HW163210   5.544   1.777   8.529
21062SOL    HW263211   5.445   1.658   8.580
21063SOL     OW63212   4.976   1.731   8.576
21063SOL    HW163213   5.060   1.736   8.522
21063SOL    HW263214   4.953   1.635   8.594
21064SOL     OW63215   3.807   1.258   8.470
21064SOL    HW163216   3.802   1.257   8.570
21064SOL    HW263217   3.724   1.217   8.432
21065SOL     OW63218   4.412   1.662   9.164
21065SOL    HW163219   4.356   1.743   9.173
21065SOL    HW263220   4.464   1.666   9.078
21066SOL     OW63221   5.450   0.135   7.971
21066SOL    HW163222   5.523   0.118   7.904
21066SOL    HW263223   5.419   0.048   8.009
21067SOL     OW63224   5.112   1.573   7.925
21067SOL    HW163225   5.179   1.585   7.851
21067SOL    HW263226   5.072   1.662   7.948
21068SOL     OW63227   3.854   1.794   9.299
21068SOL    HW163228   3.813   1.720   9.352
21068SOL    HW263229   3.918   1.845   9.357
21069SOL     OW63230   5.004   0.927   8.120
21069SOL    HW163231   5.064   0.846   8.122
21069SOL    HW263232   5.044   0.996   8.060
21070SOL     OW63233   4.554   1.273   8.870
21070SOL    HW163234   4.549   1.306   8.965
21070SOL    HW263235   4.468   1.292   8.824
21071SOL     OW63236   4.396   1.616   7.602
21071SOL    HW163237   4.405   1.626   7.503
21071SOL    HW263238   4.356   1.527   7.623
21072SOL     OW63239   5.374   1.720   8.842
21072SOL    HW163240   5.427   1.730   8.758
21072SOL    HW263241   5.347   1.810   8.876
21073SOL     OW63242   5.565   0.175   8.411
21073SOL    HW163243   5.604   0.090   8.375
21073SOL    HW263244   5.467   0.177   8.392
21074SOL     OW63245   3.987   0.326   8.168
21074SOL    HW163246   3.908   0.377   8.134
21074SOL    HW263247   3.978   0.311   8.266
21075SOL     OW63248   4.918   1.612   7.479
21075SOL    HW163249   4.924   1.519   7.516
21075SOL    HW263250   4.859   1.612   7.399
21076SOL     OW63251   4.546   1.002   8.820
21076SOL    HW163252   4.586   1.001   8.728
21076SOL    HW263253   4.556   1.094   8.860
21077SOL     OW63254   4.640   0.910   7.739
21077SOL    HW163255   4.703   0.948   7.671
21077SOL    HW263256   4.680   0.827   7.778
21078SOL     OW63257   5.228   1.607   7.492
21078SOL    HW163258   5.136   1.644   7.499
21078SOL    HW263259   5.266   1.627   7.402
21079SOL     OW63260   4.096   1.288   8.938
21079SOL    HW163261   4.083   1.381   8.904
21079SOL    HW263262   4.012   1.236   8.925
21080SOL     OW63263   5.338   1.292   8.737
21080SOL    HW163264   5.398   1.295   8.817
21080SOL    HW263265   5.263   1.356   8.750
21081SOL     OW63266   4.763   1.098   8.144
21081SOL    HW163267   4.693   1.051   8.198
21081SOL    HW263268   4.822   1.030   8.101
21082SOL     OW63269   4.738   0.236   8.419
21082SOL    HW163270   4.730   0.200   8.326
21082SOL    HW263271   4.736   0.160   8.484
21083SOL     OW63272   4.314   1.487   7.939
21083SOL    HW163273   4.356   1.429   7.869
21083SOL    HW263274   4.270   1.566   7.895
21084SOL     OW63275   5.433   0.385   8.829
21084SOL    HW163276   5.506   0.454   8.833
21084SOL    HW263277   5.461   0.310   8.770
21085SOL     OW63278   3.979   1.348   7.738
21085SOL    HW163279   3.883   1.349   7.711
21085SOL    HW263280   3.991   1.401   7.822
21086SOL     OW63281   3.829   1.013   9.174
21086SOL    HW163282   3.752   0.980   9.228
21086SOL    HW263283   3.914   0.983   9.216
21087SOL     OW63284   4.396   0.203   8.937
21087SOL    HW163285   4.486   0.187   8.897
21087SOL    HW263286   4.404   0.208   9.036
21088SOL     OW63287   3.799   0.345   7.481
21088SOL    HW163288   3.707   0.317   7.452
21088SOL    HW263289   3.830   0.422   7.425
21089SOL     OW63290   5.164   0.856   8.846
21089SOL    HW163291   5.107   0.908   8.783
21089SOL    HW263292   5.260   0.868   8.822
21090SOL     OW63293   3.796   0.166   7.766
21090SOL    HW163294   3.779   0.249   7.712
21090SOL    HW263295   3.886   0.129   7.744
21091SOL     OW63296   4.907   1.335   7.567
21091SOL    HW163297   4.808   1.324   7.569
21091SOL    HW263298   4.941   1.350   7.660
21092SOL     OW63299   4.337   0.842   8.879
21092SOL    HW163300   4.393   0.923   8.862
21092SOL    HW263301   4.396   0.762   8.882
21093SOL     OW63302   5.217   1.767   8.407
21093SOL    HW163303   5.250   1.831   8.338
21093SOL    HW263304   5.283   1.761   8.482
21094SOL     OW63305   4.440   0.565   9.156
21094SOL    HW163306   4.459   0.630   9.230
21094SOL    HW263307   4.500   0.485   9.165
21095SOL     OW63308   5.174   1.220   9.081
21095SOL    HW163309   5.165   1.210   9.180
21095SOL    HW263310   5.270   1.213   9.055
21096SOL     OW63311   4.114   1.741   9.008
21096SOL    HW163312   4.023   1.782   9.006
21096SOL    HW263313   4.107   1.647   9.040
21097SOL     OW63314   5.398   0.883   8.702
21097SOL    HW163315   5.371   0.794   8.665
21097SOL    HW263316   5.399   0.951   8.629
21098SOL     OW63317   4.949   0.325   7.897
21098SOL    HW163318   5.014   0.251   7.886
21098SOL    HW263319   4.969   0.375   7.981
21099SOL     OW63320   4.318   0.745   8.100
21099SOL    HW163321   4.368   0.830   8.081
21099SOL    HW263322   4.230   0.747   8.052
21100SOL     OW63323   5.501   0.342   9.090
21100SOL    HW163324   5.484   0.373   8.996
21100SOL    HW263325   5.417   0.305   9.128
21101SOL     OW63326   5.454   0.934   8.965
21101SOL    HW163327   5.492   1.025   8.980
21101SOL    HW263328   5.446   0.917   8.866
21102SOL     OW63329   4.583   1.374   7.464
21102SOL    HW163330   4.537   1.389   7.552
21102SOL    HW263331   4.627   1.459   7.434
21103SOL     OW63332   4.385   1.790   8.401
21103SOL    HW163333   4.339   1.878   8.388
21103SOL    HW263334   4.484   1.802   8.394
21104SOL     OW63335   4.583   0.956   8.309
21104SOL    HW163336   4.637   0.887   8.357
21104SOL    HW263337   4.551   1.025   8.375
21105SOL     OW63338   4.807   0.984   7.535
21105SOL    HW163339   4.784   1.037   7.453
21105SOL    HW263340   4.888   0.928   7.516
21106SOL     OW63341   5.585   1.569   8.299
21106SOL    HW163342   5.514   1.557   8.229
21106SOL    HW263343   5.586   1.490   8.359
21107SOL     OW63344   3.945   1.314   9.292
21107SOL    HW163345   3.880   1.241   9.271
21107SOL    HW263346   3.949   1.328   9.390
21108SOL     OW63347   3.803   1.240   8.101
21108SOL    HW163348   3.802   1.193   8.189
21108SOL    HW263349   3.885   1.212   8.050
21109SOL     OW63350   4.396   1.391   9.072
21109SOL    HW163351   4.318   1.341   9.110
21109SOL    HW263352   4.393   1.486   9.103
21110SOL     OW63353   5.548   0.192   8.675
21110SOL    HW163354   5.544   0.102   8.719
21110SOL    HW263355   5.551   0.181   8.576
21111SOL     OW63356   4.152   0.424   7.968
21111SOL    HW163357   4.182   0.352   7.906
21111SOL    HW263358   4.113   0.384   8.051
21112SOL     OW63359   5.429   1.487   8.552
21112SOL    HW163360   5.336   1.462   8.525
21112SOL    HW263361   5.455   1.437   8.634
21113SOL     OW63362   4.041   0.547   8.728
21113SOL    HW163363   4.079   0.488   8.800
21113SOL    HW263364   4.081   0.521   8.640
21114SOL     OW63365   4.536   1.586   8.135
21114SOL    HW163366   4.568   1.596   8.041
21114SOL    HW263367   4.457   1.524   8.137
21115SOL     OW63368   5.148   0.214   8.560
21115SOL    HW163369   5.200   0.149   8.615
21115SOL    HW263370   5.099   0.277   8.621
21116SOL     OW63371   4.725   0.034   8.602
21116SOL    HW163372   4.662  -0.038   8.571
21116SOL    HW263373   4.818  -0.002   8.602
21117SOL     OW63374   4.494   1.330   7.749
21117SOL    HW163375   4.448   1.243   7.766
21117SOL    HW263376   4.585   1.327   7.790
21118SOL     OW63377   4.342   1.567   8.732
21118SOL    HW163378   4.337   1.649   8.789
21118SOL    HW263379   4.431   1.564   8.687
21119SOL     OW63380   5.076   0.052   7.616
21119SOL    HW163381   5.111   0.011   7.532
21119SOL    HW263382   4.986   0.014   7.636
21120SOL     OW63383   5.024   0.453   8.139
21120SOL    HW163384   4.965   0.533   8.143
21120SOL    HW263385   5.039   0.418   8.232
21121SOL     OW63386   5.317   0.221   8.330
21121SOL    HW163387   5.233   0.220   8.384
21121SOL    HW263388   5.319   0.304   8.274
21122SOL     OW63389   3.763   1.077   7.748
21122SOL    HW163390   3.862   1.066   7.739
21122SOL    HW263391   3.723   0.991   7.780
21123SOL     OW63392   4.599   1.646   7.785
21123SOL    HW163393   4.522   1.611   7.731
21123SOL    HW263394   4.567   1.717   7.847
21124SOL     OW63395   3.954   0.628   9.423
21124SOL    HW163396   3.861   0.626   9.460
21124SOL    HW263397   3.955   0.589   9.331
21125SOL     OW63398   3.949   0.275  10.306
21125SOL    HW163399   3.984   0.258  10.398
21125SOL    HW263400   3.861   0.230  10.294
21126SOL     OW63401   3.743   0.368   9.957
21126SOL    HW163402   3.661   0.411   9.996
21126SOL    HW263403   3.715   0.295   9.894
21127SOL     OW63404   4.293   1.275  10.475
21127SOL    HW163405   4.200   1.268  10.438
21127SOL    HW263406   4.304   1.364  10.519
21128SOL     OW63407   5.279   1.511  10.013
21128SOL    HW163408   5.222   1.495  10.094
21128SOL    HW263409   5.220   1.521   9.933
21129SOL     OW63410   4.859   0.703  10.027
21129SOL    HW163411   4.916   0.781  10.002
21129SOL    HW263412   4.799   0.729  10.103
21130SOL     OW63413   5.479   0.607   9.541
21130SOL    HW163414   5.467   0.594   9.442
21130SOL    HW263415   5.449   0.526   9.590
21131SOL     OW63416   4.492   1.144  10.333
21131SOL    HW163417   4.414   1.161  10.393
21131SOL    HW263418   4.526   1.231  10.297
21132SOL     OW63419   4.574   0.798  11.133
21132SOL    HW163420   4.570   0.874  11.198
21132SOL    HW263421   4.596   0.834  11.042
21133SOL     OW63422   4.409   1.012   9.975
21133SOL    HW163423   4.478   0.996  10.045
21133SOL    HW263424   4.336   1.069  10.013
21134SOL     OW63425   4.410   1.161  11.113
21134SOL    HW163426   4.470   1.240  11.127
21134SOL    HW263427   4.324   1.192  11.072
21135SOL     OW63428   4.059   1.435  10.371
21135SOL    HW163429   3.981   1.404  10.318
21135SOL    HW263430   4.117   1.493  10.314
21136SOL     OW63431   5.184   1.505  10.649
21136SOL    HW163432   5.208   1.599  10.675
21136SOL    HW263433   5.168   1.451  10.731
21137SOL     OW63434   4.162   0.392  10.809
21137SOL    HW163435   4.244   0.336  10.818
21137SOL    HW263436   4.081   0.334  10.813
21138SOL     OW63437   5.327   0.447  10.047
21138SOL    HW163438   5.253   0.493   9.997
21138SOL    HW263439   5.378   0.515  10.100
21139SOL     OW63440   3.955   1.713   9.793
21139SOL    HW163441   3.989   1.790   9.847
21139SOL    HW263442   3.999   1.713   9.703
21140SOL     OW63443   4.851   1.341  11.000
21140SOL    HW163444   4.898   1.341  11.088
21140SOL    HW263445   4.803   1.254  10.989
21141SOL     OW63446   3.954   1.434   9.848
21141SOL    HW163447   3.928   1.530   9.848
21141SOL    HW263448   3.883   1.380   9.893
21142SOL     OW63449   3.964   1.091  10.196
21142SOL    HW163450   3.978   1.007  10.248
21142SOL    HW263451   3.909   1.155  10.251
21143SOL     OW63452   4.344   1.786  10.749
21143SOL    HW163453   4.252   1.769  10.784
21143SOL    HW263454   4.372   1.878  10.775
21144SOL     OW63455   4.330   0.964   9.433
21144SOL    HW163456   4.337   1.048   9.379
21144SOL    HW263457   4.376   0.977   9.521
21145SOL     OW63458   5.318   0.114  10.790
21145SOL    HW163459   5.300   0.181  10.718
21145SOL    HW263460   5.315   0.160  10.879
21146SOL     OW63461   3.846   0.643   9.873
21146SOL    HW163462   3.801   0.555   9.890
21146SOL    HW263463   3.845   0.697   9.957
21147SOL     OW63464   5.566   1.767   9.669
21147SOL    HW163465   5.620   1.738   9.749
21147SOL    HW263466   5.596   1.857   9.640
21148SOL     OW63467   3.751   1.596   9.427
21148SOL    HW163468   3.732   1.500   9.448
21148SOL    HW263469   3.718   1.654   9.502
21149SOL     OW63470   5.413   0.922   9.922
21149SOL    HW163471   5.508   0.893   9.930
21149SOL    HW263472   5.405   0.987   9.847
21150SOL     OW63473   5.365   1.108   9.742
21150SOL    HW163474   5.451   1.110   9.690
21150SOL    HW263475   5.379   1.155   9.830
21151SOL     OW63476   3.837   0.737  10.907
21151SOL    HW163477   3.925   0.724  10.952
21151SOL    HW263478   3.824   0.834  10.885
21152SOL     OW63479   4.337   1.365  10.036
21152SOL    HW163480   4.288   1.278  10.045
21152SOL    HW263481   4.314   1.408   9.949
21153SOL     OW63482   5.017   1.228  10.733
21153SOL    HW163483   5.054   1.155  10.675
21153SOL    HW263484   5.069   1.233  10.818
21154SOL     OW63485   4.533   0.004   9.812
21154SOL    HW163486   4.573   0.095   9.803
21154SOL    HW263487   4.433   0.012   9.818
21155SOL     OW63488   3.921   0.976  10.574
21155SOL    HW163489   4.010   0.931  10.560
21155SOL    HW263490   3.848   0.911  10.555
21156SOL     OW63491   5.249   0.999   9.500
21156SOL    HW163492   5.186   0.923   9.513
21156SOL    HW263493   5.297   1.017   9.586
21157SOL     OW63494   4.911   1.792  10.926
21157SOL    HW163495   4.935   1.852  10.850
21157SOL    HW263496   4.918   1.697  10.896
21158SOL     OW63497   4.041   0.251  11.111
21158SOL    HW163498   4.112   0.322  11.117
21158SOL    HW263499   3.953   0.290  11.139
21159SOL     OW63500   5.190   1.417  10.263
21159SOL    HW163501   5.131   1.423  10.343
21159SOL    HW263502   5.175   1.329  10.217
21160SOL     OW63503   5.391   1.714   9.882
21160SOL    HW163504   5.350   1.691   9.794
21160SOL    HW263505   5.373   1.640   9.947
21161SOL     OW63506   4.322   0.729   9.580
21161SOL    HW163507   4.346   0.798   9.512
21161SOL    HW263508   4.244   0.762   9.634
21162SOL     OW63509   5.005   0.345  10.254
21162SOL    HW163510   4.919   0.295  10.241
21162SOL    HW263511   5.067   0.291  10.310
21163SOL     OW63512   5.300   1.662   9.617
21163SOL    HW163513   5.389   1.708   9.620
21163SOL    HW263514   5.279   1.638   9.522
21164SOL     OW63515   4.531   0.605  10.775
21164SOL    HW163516   4.484   0.602  10.864
21164SOL    HW263517   4.480   0.550  10.709
21165SOL     OW63518   5.118   0.469  10.984
21165SOL    HW163519   5.098   0.512  11.072
21165SOL    HW263520   5.196   0.407  10.993
21166SOL     OW63521   4.697   0.890  10.882
21166SOL    HW163522   4.743   0.806  10.853
21166SOL    HW263523   4.641   0.924  10.807
21167SOL     OW63524   4.715   0.410  10.552
21167SOL    HW163525   4.638   0.444  10.606
21167SOL    HW263526   4.681   0.359  10.473
21168SOL     OW63527   4.765   0.701   9.739
21168SOL    HW163528   4.791   0.697   9.835
21168SOL    HW263529   4.680   0.650   9.725
21169SOL     OW63530   3.800   0.811  10.099
21169SOL    HW163531   3.899   0.799  10.108
21169SOL    HW263532   3.776   0.906  10.120
21170SOL     OW63533   3.854   1.821  10.881
21170SOL    HW163534   3.844   1.806  10.980
21170SOL    HW263535   3.768   1.857  10.845
21171SOL     OW63536   4.589   0.348   9.505
21171SOL    HW163537   4.648   0.411   9.456
21171SOL    HW263538   4.608   0.254   9.476
21172SOL     OW63539   5.443   0.585  11.141
21172SOL    HW163540   5.417   0.674  11.105
21172SOL    HW263541   5.441   0.517  11.068
21173SOL     OW63542   5.086   1.144   9.855
21173SOL    HW163543   5.169   1.115   9.807
21173SOL    HW263544   5.037   1.211   9.799
21174SOL     OW63545   4.274   0.196  10.195
21174SOL    HW163546   4.269   0.191  10.295
21174SOL    HW263547   4.276   0.292  10.166
21175SOL     OW63548   4.732   1.456   9.787
21175SOL    HW163549   4.686   1.528   9.735
21175SOL    HW263550   4.728   1.476   9.885
21176SOL     OW63551   4.075   1.801  10.163
21176SOL    HW163552   4.125   1.715  10.169
21176SOL    HW263553   4.140   1.878  10.160
21177SOL     OW63554   5.519   1.066  10.183
21177SOL    HW163555   5.457   1.051  10.107
21177SOL    HW263556   5.467   1.077  10.268
21178SOL     OW63557   4.951   1.550  10.816
21178SOL    HW163558   4.957   1.473  10.880
21178SOL    HW263559   4.899   1.524  10.736
21179SOL     OW63560   4.045   0.943   9.552
21179SOL    HW163561   4.127   0.982   9.510
21179SOL    HW263562   4.018   0.861   9.503
21180SOL     OW63563   5.182   0.735  10.038
21180SOL    HW163564   5.177   0.670  10.113
21180SOL    HW263565   5.262   0.794  10.051
21181SOL     OW63566   4.185   1.266  11.037
21181SOL    HW163567   4.135   1.267  10.951
21181SOL    HW263568   4.122   1.248  11.113
21182SOL     OW63569   4.835   1.776   9.547
21182SOL    HW163570   4.775   1.714   9.597
21182SOL    HW263571   4.866   1.732   9.462
21183SOL     OW63572   3.926   0.285  10.808
21183SOL    HW163573   3.846   0.345  10.795
21183SOL    HW263574   3.916   0.236  10.894
21184SOL     OW63575   5.356   1.377   9.391
21184SOL    HW163576   5.324   1.471   9.381
21184SOL    HW263577   5.280   1.314   9.379
21185SOL     OW63578   4.188   1.743   9.633
21185SOL    HW163579   4.221   1.782   9.719
21185SOL    HW263580   4.264   1.736   9.568
21186SOL     OW63581   5.124   0.107   9.736
21186SOL    HW163582   5.100   0.070   9.646
21186SOL    HW263583   5.223   0.123   9.740
21187SOL     OW63584   3.973   1.785  10.551
21187SOL    HW163585   4.030   1.720  10.601
21187SOL    HW263586   3.957   1.752  10.458
21188SOL     OW63587   4.664   1.698  10.214
21188SOL    HW163588   4.744   1.641  10.235
21188SOL    HW263589   4.615   1.658  10.137
21189SOL     OW63590   4.106   0.700   9.790
21189SOL    HW163591   4.151   0.610   9.787
21189SOL    HW263592   4.012   0.689   9.823
21190SOL     OW63593   5.271   0.222  11.039
21190SOL    HW163594   5.266   0.259  11.131
21190SOL    HW263595   5.199   0.153  11.027
21191SOL     OW63596   4.338   0.122   9.427
21191SOL    HW163597   4.436   0.100   9.434
21191SOL    HW263598   4.307   0.105   9.334
21192SOL     OW63599   4.505   0.264  11.059
21192SOL    HW163600   4.572   0.203  11.102
21192SOL    HW263601   4.432   0.283  11.124
21193SOL     OW63602   4.612   1.514  10.505
21193SOL    HW163603   4.589   1.489  10.411
21193SOL    HW263604   4.673   1.445  10.544
21194SOL     OW63605   5.075   0.590  10.743
21194SOL    HW163606   5.103   0.547  10.828
21194SOL    HW263607   5.100   0.686  10.744
21195SOL     OW63608   4.527   1.402  10.234
21195SOL    HW163609   4.617   1.416  10.192
21195SOL    HW263610   4.456   1.404  10.163
21196SOL     OW63611   4.646   0.503  10.209
21196SOL    HW163612   4.621   0.494  10.113
21196SOL    HW263613   4.694   0.421  10.240
21197SOL     OW63614   4.263   0.064   9.822
21197SOL    HW163615   4.182   0.065   9.880
21197SOL    HW263616   4.266   0.147   9.767
21198SOL     OW63617   5.158   1.188   9.351
21198SOL    HW163618   5.190   1.112   9.408
21198SOL    HW263619   5.066   1.215   9.381
21199SOL     OW63620   4.021   0.035   9.481
21199SOL    HW163621   4.070   0.119   9.460
21199SOL    HW263622   4.083  -0.030   9.526
21200SOL     OW63623   4.659   0.236   9.790
21200SOL    HW163624   4.611   0.277   9.712
21200SOL    HW263625   4.758   0.234   9.771
21201SOL     OW63626   4.800   0.683  10.774
21201SOL    HW163627   4.720   0.622  10.777
21201SOL    HW263628   4.881   0.630  10.750
21202SOL     OW63629   4.951   1.570  10.103
21202SOL    HW163630   4.972   1.644  10.038
21202SOL    HW263631   5.019   1.570  10.176
21203SOL     OW63632   4.183   1.152  10.051
21203SOL    HW163633   4.112   1.125  10.116
21203SOL    HW263634   4.157   1.124   9.958
21204SOL     OW63635   4.995   1.797   9.901
21204SOL    HW163636   5.039   1.861   9.837
21204SOL    HW263637   4.945   1.849   9.971
21205SOL     OW63638   4.756   0.549   9.326
21205SOL    HW163639   4.715   0.631   9.287
21205SOL    HW263640   4.820   0.575   9.399
21206SOL     OW63641   3.802   0.556  10.696
21206SOL    HW163642   3.894   0.555  10.655
21206SOL    HW263643   3.796   0.630  10.763
21207SOL     OW63644   4.285   0.222  10.457
21207SOL    HW163645   4.323   0.138  10.494
21207SOL    HW263646   4.197   0.241  10.501
21208SOL     OW63647   4.590   0.454   9.952
21208SOL    HW163648   4.558   0.526   9.890
21208SOL    HW263649   4.614   0.373   9.899
21209SOL     OW63650   4.741   0.039  10.063
21209SOL    HW163651   4.669   0.044   9.994
21209SOL    HW263652   4.717  -0.030  10.132
21210SOL     OW63653   5.153   1.173  10.177
21210SOL    HW163654   5.098   1.089  10.170
21210SOL    HW263655   5.179   1.202  10.085
21211SOL     OW63656   5.190   0.590  10.302
21211SOL    HW163657   5.160   0.495  10.309
21211SOL    HW263658   5.263   0.606  10.368
21212SOL     OW63659   5.581   0.833   9.687
21212SOL    HW163660   5.623   0.769   9.751
21212SOL    HW263661   5.543   0.782   9.609
21213SOL     OW63662   4.212   1.385   9.484
21213SOL    HW163663   4.125   1.370   9.531
21213SOL    HW263664   4.195   1.411   9.389
21214SOL     OW63665   5.388   1.280   9.967
21214SOL    HW163666   5.487   1.288   9.981
21214SOL    HW263667   5.343   1.364   9.998
21215SOL     OW63668   5.114   0.575   9.388
21215SOL    HW163669   5.060   0.554   9.469
21215SOL    HW263670   5.205   0.534   9.397
21216SOL     OW63671   4.251   0.256   9.638
21216SOL    HW163672   4.278   0.197   9.563
21216SOL    HW263673   4.251   0.351   9.607
21217SOL     OW63674   5.478   1.223  10.898
21217SOL    HW163675   5.569   1.184  10.885
21217SOL    HW263676   5.486   1.319  10.922
21218SOL     OW63677   4.788   1.347  10.650
21218SOL    HW163678   4.708   1.324  10.705
21218SOL    HW263679   4.871   1.321  10.699
21219SOL     OW63680   5.316   1.629  10.935
21219SOL    HW163681   5.343   1.663  10.845
21219SOL    HW263682   5.395   1.591  10.981
21220SOL     OW63683   4.835   1.195  10.410
21220SOL    HW163684   4.795   1.239  10.491
21220SOL    HW263685   4.794   1.232  10.327
21221SOL     OW63686   5.362   1.099  10.389
21221SOL    HW163687   5.367   1.180  10.448
21221SOL    HW263688   5.276   1.101  10.338
21222SOL     OW63689   4.639   0.089  10.712
21222SOL    HW163690   4.664   0.069  10.617
21222SOL    HW263691   4.711   0.145  10.754
21223SOL     OW63692   4.704   1.116  11.029
21223SOL    HW163693   4.605   1.122  11.039
21223SOL    HW263694   4.727   1.036  10.973
21224SOL     OW63695   4.429   1.050   9.678
21224SOL    HW163696   4.415   1.057   9.777
21224SOL    HW263697   4.513   0.999   9.660
21225SOL     OW63698   4.134   0.813  10.561
21225SOL    HW163699   4.220   0.825  10.611
21225SOL    HW263700   4.092   0.726  10.588
21226SOL     OW63701   4.998   0.386  10.572
21226SOL    HW163702   5.019   0.460  10.636
21226SOL    HW263703   4.909   0.403  10.529
21227SOL     OW63704   3.788   1.564  10.641
21227SOL    HW163705   3.742   1.646  10.607
21227SOL    HW263706   3.886   1.583  10.650
21228SOL     OW63707   4.091   1.100   9.811
21228SOL    HW163708   4.084   1.183   9.755
21228SOL    HW263709   4.095   1.020   9.751
21229SOL     OW63710   4.290   0.537  10.175
21229SOL    HW163711   4.302   0.603  10.101
21229SOL    HW263712   4.336   0.571  10.258
21230SOL     OW63713   4.976   1.348   9.698
21230SOL    HW163714   5.026   1.425   9.738
21230SOL    HW263715   4.881   1.350   9.730
21231SOL     OW63716   4.996   1.445  10.452
21231SOL    HW163717   5.043   1.458  10.539
21231SOL    HW263718   4.930   1.371  10.461
21232SOL     OW63719   5.306   0.639   9.782
21232SOL    HW163720   5.275   0.700   9.855
21232SOL    HW263721   5.356   0.691   9.713
21233SOL     OW63722   4.078   1.510  10.639
21233SOL    HW163723   4.057   1.466  10.552
21233SOL    HW263724   4.175   1.536  10.642
21234SOL     OW63725   4.126   0.751  10.908
21234SOL    HW163726   4.194   0.806  10.861
21234SOL    HW263727   4.166   0.663  10.935
21235SOL     OW63728   5.311   0.779  10.980
21235SOL    HW163729   5.219   0.817  10.975
21235SOL    HW263730   5.371   0.826  10.915
21236SOL     OW63731   4.737   0.105  11.080
21236SOL    HW163732   4.743   0.190  11.028
21236SOL    HW263733   4.769   0.029  11.023
21237SOL     OW63734   4.228   0.050  11.050
21237SOL    HW163735   4.186  -0.007  10.980
21237SOL    HW263736   4.162   0.119  11.082
21238SOL     OW63737   4.297   0.870  10.339
21238SOL    HW163738   4.341   0.959  10.330
21238SOL    HW263739   4.234   0.870  10.416
21239SOL     OW63740   5.084   0.862  10.355
21239SOL    HW163741   5.009   0.862  10.289
21239SOL    HW263742   5.121   0.770  10.364
21240SOL     OW63743   4.933   0.525   9.585
21240SOL    HW163744   4.946   0.441   9.639
21240SOL    HW263745   4.904   0.599   9.645
21241SOL     OW63746   4.031   0.213  10.541
21241SOL    HW163747   4.008   0.250  10.631
21241SOL    HW263748   4.001   0.118  10.535
21242SOL     OW63749   3.761   1.310  10.592
21242SOL    HW163750   3.814   1.261  10.660
21242SOL    HW263751   3.783   1.408  10.597
21243SOL     OW63752   4.456   0.634  10.374
21243SOL    HW163753   4.515   0.608  10.298
21243SOL    HW263754   4.428   0.730  10.363
21244SOL     OW63755   5.452   0.935  11.164
21244SOL    HW163756   5.406   0.928  11.075
21244SOL    HW263757   5.390   0.979  11.230
21245SOL     OW63758   4.031   0.063   9.928
21245SOL    HW163759   4.020   0.157   9.961
21245SOL    HW263760   4.026   0.000  10.005
21246SOL     OW63761   5.346   0.367   9.684
21246SOL    HW163762   5.348   0.291   9.748
21246SOL    HW263763   5.298   0.444   9.724
21247SOL     OW63764   4.747   0.766  10.276
21247SOL    HW163765   4.762   0.787  10.372
21247SOL    HW263766   4.717   0.671  10.267
21248SOL     OW63767   4.704   1.573  11.010
21248SOL    HW163768   4.684   1.617  10.922
21248SOL    HW263769   4.743   1.482  10.994
21249SOL     OW63770   5.583   1.518  10.915
21249SOL    HW163771   5.597   1.545  10.820
21249SOL    HW263772   5.666   1.540  10.968
21250SOL     OW63773   4.074   0.898  11.114
21250SOL    HW163774   4.150   0.942  11.162
21250SOL    HW263775   4.109   0.851  11.032
21251SOL     OW63776   5.264   0.274   9.435
21251SOL    HW163777   5.203   0.199   9.458
21251SOL    HW263778   5.286   0.326   9.518
21252SOL     OW63779   5.027   0.838   9.352
21252SOL    HW163780   5.061   0.745   9.367
21252SOL    HW263781   5.045   0.865   9.257
21253SOL     OW63782   4.792   1.333  10.159
21253SOL    HW163783   4.799   1.249  10.104
21253SOL    HW263784   4.854   1.402  10.123
21254SOL     OW63785   4.043   0.810  10.259
21254SOL    HW163786   4.136   0.846  10.264
21254SOL    HW263787   4.037   0.725  10.311
21255SOL     OW63788   4.063   0.509  10.316
21255SOL    HW163789   4.011   0.426  10.299
21255SOL    HW263790   4.140   0.514  10.252
21256SOL     OW63791   4.862   0.380  10.988
21256SOL    HW163792   4.817   0.443  11.052
21256SOL    HW263793   4.955   0.411  10.971
21257SOL     OW63794   4.884   0.207  10.787
21257SOL    HW163795   4.884   0.271  10.864
21257SOL    HW263796   4.912   0.255  10.704
21258SOL     OW63797   3.732   1.326   9.510
21258SOL    HW163798   3.639   1.347   9.479
21258SOL    HW263799   3.742   1.227   9.523
21259SOL     OW63800   3.812   1.801  10.237
21259SOL    HW163801   3.770   1.715  10.210
21259SOL    HW263802   3.906   1.804  10.203
21260SOL     OW63803   4.228   1.568  10.220
21260SOL    HW163804   4.294   1.642  10.229
21260SOL    HW263805   4.272   1.489  10.178
21261SOL     OW63806   4.726   0.796  10.548
21261SOL    HW163807   4.767   0.764  10.634
21261SOL    HW263808   4.630   0.769  10.545
21262SOL     OW63809   3.764   0.544  10.424
21262SOL    HW163810   3.849   0.511  10.383
21262SOL    HW263811   3.777   0.559  10.522
21263SOL     OW63812   3.913   0.520  11.032
21263SOL    HW163813   3.972   0.480  10.962
21263SOL    HW263814   3.855   0.591  10.991
21264SOL     OW63815   5.093   0.950  10.970
21264SOL    HW163816   5.132   1.039  10.990
21264SOL    HW263817   5.103   0.930  10.873
21265SOL     OW63818   4.539   0.572   9.635
21265SOL    HW163819   4.546   0.483   9.589
21265SOL    HW263820   4.445   0.606   9.627
21266SOL     OW63821   5.381   0.604  10.516
21266SOL    HW163822   5.343   0.535  10.578
21266SOL    HW263823   5.463   0.568  10.472
21267SOL     OW63824   3.976   1.564  11.054
21267SOL    HW163825   3.946   1.621  11.130
21267SOL    HW263826   3.969   1.467  11.080
21268SOL     OW63827   4.395   0.464  10.579
21268SOL    HW163828   4.361   0.375  10.549
21268SOL    HW263829   4.421   0.518  10.499
21269SOL     OW63830   4.654   1.678  10.775
21269SOL    HW163831   4.630   1.660  10.680
21269SOL    HW263832   4.684   1.772  10.785
21270SOL     OW63833   4.197   0.500   9.501
21270SOL    HW163834   4.258   0.580   9.505
21270SOL    HW263835   4.102   0.531   9.508
21271SOL     OW63836   3.883   1.137  10.776
21271SOL    HW163837   3.905   1.076  10.852
21271SOL    HW263838   3.893   1.088  10.690
21272SOL     OW63839   5.071   1.059  10.544
21272SOL    HW163840   5.095   0.996  10.470
21272SOL    HW263841   4.981   1.099  10.526
21273SOL     OW63842   5.026   0.855   9.619
21273SOL    HW163843   4.940   0.824   9.661
21273SOL    HW263844   5.022   0.841   9.520
21274SOL     OW63845   5.483   1.747  10.464
21274SOL    HW163846   5.544   1.777  10.391
21274SOL    HW263847   5.445   1.658  10.442
21275SOL     OW63848   4.976   1.731  10.438
21275SOL    HW163849   5.060   1.736  10.384
21275SOL    HW263850   4.953   1.635  10.456
21276SOL     OW63851   3.807   1.258  10.332
21276SOL    HW163852   3.802   1.257  10.432
21276SOL    HW263853   3.724   1.217  10.294
21277SOL     OW63854   4.412   1.662  11.026
21277SOL    HW163855   4.356   1.743  11.035
21277SOL    HW263856   4.464   1.666  10.940
21278SOL     OW63857   5.450   0.135   9.833
21278SOL    HW163858   5.523   0.118   9.766
21278SOL    HW263859   5.419   0.048   9.871
21279SOL     OW63860   5.112   1.573   9.787
21279SOL    HW163861   5.179   1.585   9.713
21279SOL    HW263862   5.072   1.662   9.810
21280SOL     OW63863   3.854   1.794  11.161
21280SOL    HW163864   3.813   1.720  11.214
21280SOL    HW263865   3.918   1.845  11.219
21281SOL     OW63866   5.004   0.927   9.982
21281SOL    HW163867   5.064   0.846   9.984
21281SOL    HW263868   5.044   0.996   9.922
21282SOL     OW63869   4.554   1.273  10.732
21282SOL    HW163870   4.549   1.306  10.827
21282SOL    HW263871   4.468   1.292  10.686
21283SOL     OW63872   4.396   1.616   9.464
21283SOL    HW163873   4.405   1.626   9.365
21283SOL    HW263874   4.356   1.527   9.485
21284SOL     OW63875   5.374   1.720  10.704
21284SOL    HW163876   5.427   1.730  10.620
21284SOL    HW263877   5.347   1.810  10.738
21285SOL     OW63878   5.565   0.175  10.273
21285SOL    HW163879   5.604   0.090  10.237
21285SOL    HW263880   5.467   0.177  10.254
21286SOL     OW63881   3.987   0.326  10.030
21286SOL    HW163882   3.908   0.377   9.996
21286SOL    HW263883   3.978   0.311  10.128
21287SOL     OW63884   4.918   1.612   9.341
21287SOL    HW163885   4.924   1.519   9.378
21287SOL    HW263886   4.859   1.612   9.261
21288SOL     OW63887   4.546   1.002  10.682
21288SOL    HW163888   4.586   1.001  10.590
21288SOL    HW263889   4.556   1.094  10.722
21289SOL     OW63890   4.640   0.910   9.601
21289SOL    HW163891   4.703   0.948   9.533
21289SOL    HW263892   4.680   0.827   9.640
21290SOL     OW63893   5.228   1.607   9.354
21290SOL    HW163894   5.136   1.644   9.361
21290SOL    HW263895   5.266   1.627   9.264
21291SOL     OW63896   4.096   1.288  10.800
21291SOL    HW163897   4.083   1.381  10.766
21291SOL    HW263898   4.012   1.236  10.787
21292SOL     OW63899   5.338   1.292  10.599
21292SOL    HW163900   5.398   1.295  10.679
21292SOL    HW263901   5.263   1.356  10.612
21293SOL     OW63902   4.763   1.098  10.006
21293SOL    HW163903   4.693   1.051  10.060
21293SOL    HW263904   4.822   1.030   9.963
21294SOL     OW63905   4.738   0.236  10.281
21294SOL    HW163906   4.730   0.200  10.188
21294SOL    HW263907   4.736   0.160  10.346
21295SOL     OW63908   4.314   1.487   9.801
21295SOL    HW163909   4.356   1.429   9.731
21295SOL    HW263910   4.270   1.566   9.757
21296SOL     OW63911   5.433   0.385  10.691
21296SOL    HW163912   5.506   0.454  10.695
21296SOL    HW263913   5.461   0.310  10.632
21297SOL     OW63914   3.979   1.348   9.600
21297SOL    HW163915   3.883   1.349   9.573
21297SOL    HW263916   3.991   1.401   9.684
21298SOL     OW63917   3.829   1.013  11.036
21298SOL    HW163918   3.752   0.980  11.090
21298SOL    HW263919   3.914   0.983  11.078
21299SOL     OW63920   4.396   0.203  10.799
21299SOL    HW163921   4.486   0.187  10.759
21299SOL    HW263922   4.404   0.208  10.898
21300SOL     OW63923   3.799   0.345   9.343
21300SOL    HW163924   3.707   0.317   9.314
21300SOL    HW263925   3.830   0.422   9.287
21301SOL     OW63926   5.164   0.856  10.708
21301SOL    HW163927   5.107   0.908  10.645
21301SOL    HW263928   5.260   0.868  10.684
21302SOL     OW63929   3.796   0.166   9.628
21302SOL    HW163930   3.779   0.249   9.574
21302SOL    HW263931   3.886   0.129   9.606
21303SOL     OW63932   4.907   1.335   9.429
21303SOL    HW163933   4.808   1.324   9.431
21303SOL    HW263934   4.941   1.350   9.522
21304SOL     OW63935   4.337   0.842  10.741
21304SOL    HW163936   4.393   0.923  10.724
21304SOL    HW263937   4.396   0.762  10.744
21305SOL     OW63938   5.217   1.767  10.269
21305SOL    HW163939   5.250   1.831  10.200
21305SOL    HW263940   5.283   1.761  10.344
21306SOL     OW63941   4.440   0.565  11.018
21306SOL    HW163942   4.459   0.630  11.092
21306SOL    HW263943   4.500   0.485  11.027
21307SOL     OW63944   5.174   1.220  10.943
21307SOL    HW163945   5.165   1.210  11.042
21307SOL    HW263946   5.270   1.213  10.917
21308SOL     OW63947   4.114   1.741  10.870
21308SOL    HW163948   4.023   1.782  10.868
21308SOL    HW263949   4.107   1.647  10.902
21309SOL     OW63950   5.398   0.883  10.564
21309SOL    HW163951   5.371   0.794  10.527
21309SOL    HW263952   5.399   0.951  10.491
21310SOL     OW63953   4.949   0.325   9.759
21310SOL    HW163954   5.014   0.251   9.748
21310SOL    HW263955   4.969   0.375   9.843
21311SOL     OW63956   4.318   0.745   9.962
21311SOL    HW163957   4.368   0.830   9.943
21311SOL    HW263958   4.230   0.747   9.914
21312SOL     OW63959   5.501   0.342  10.952
21312SOL    HW163960   5.484   0.373  10.858
21312SOL    HW263961   5.417   0.305  10.990
21313SOL     OW63962   5.454   0.934  10.827
21313SOL    HW163963   5.492   1.025  10.842
21313SOL    HW263964   5.446   0.917  10.728
21314SOL     OW63965   4.583   1.374   9.326
21314SOL    HW163966   4.537   1.389   9.414
21314SOL    HW263967   4.627   1.459   9.296
21315SOL     OW63968   4.385   1.790  10.263
21315SOL    HW163969   4.339   1.878  10.250
21315SOL    HW263970   4.484   1.802  10.256
21316SOL     OW63971   4.583   0.956  10.171
21316SOL    HW163972   4.637   0.887  10.219
21316SOL    HW263973   4.551   1.025  10.237
21317SOL     OW63974   4.807   0.984   9.397
21317SOL    HW163975   4.784   1.037   9.315
21317SOL    HW263976   4.888   0.928   9.378
21318SOL     OW63977   5.585   1.569  10.161
21318SOL    HW163978   5.514   1.557  10.091
21318SOL    HW263979   5.586   1.490  10.221
21319SOL     OW63980   3.945   1.314  11.154
21319SOL    HW163981   3.880   1.241  11.133
21319SOL    HW263982   3.949   1.328  11.252
21320SOL     OW63983   3.803   1.240   9.963
21320SOL    HW163984   3.802   1.193  10.051
21320SOL    HW263985   3.885   1.212   9.912
21321SOL     OW63986   4.396   1.391  10.934
21321SOL    HW163987   4.318   1.341  10.972
21321SOL    HW263988   4.393   1.486  10.965
21322SOL     OW63989   5.548   0.192  10.537
21322SOL    HW163990   5.544   0.102  10.581
21322SOL    HW263991   5.551   0.181  10.438
21323SOL     OW63992   4.152   0.424   9.830
21323SOL    HW163993   4.182   0.352   9.768
21323SOL    HW263994   4.113   0.384   9.913
21324SOL     OW63995   5.429   1.487  10.414
21324SOL    HW163996   5.336   1.462  10.387
21324SOL    HW263997   5.455   1.437  10.496
21325SOL     OW63998   4.041   0.547  10.590
21325SOL    HW163999   4.079   0.488  10.662
21325SOL    HW264000   4.081   0.521  10.502
21326SOL     OW64001   4.536   1.586   9.997
21326SOL    HW164002   4.568   1.596   9.903
21326SOL    HW264003   4.457   1.524   9.999
21327SOL     OW64004   5.148   0.214  10.422
21327SOL    HW164005   5.200   0.149  10.477
21327SOL    HW264006   5.099   0.277  10.483
21328SOL     OW64007   4.725   0.034  10.464
21328SOL    HW164008   4.662  -0.038  10.433
21328SOL    HW264009   4.818  -0.002  10.464
21329SOL     OW64010   4.494   1.330   9.611
21329SOL    HW164011   4.448   1.243   9.628
21329SOL    HW264012   4.585   1.327   9.652
21330SOL     OW64013   4.342   1.567  10.594
21330SOL    HW164014   4.337   1.649  10.651
21330SOL    HW264015   4.431   1.564  10.549
21331SOL     OW64016   5.076   0.052   9.478
21331SOL    HW164017   5.111   0.011   9.394
21331SOL    HW264018   4.986   0.014   9.498
21332SOL     OW64019   5.024   0.453  10.001
21332SOL    HW164020   4.965   0.533  10.005
21332SOL    HW264021   5.039   0.418  10.094
21333SOL     OW64022   5.317   0.221  10.192
21333SOL    HW164023   5.233   0.220  10.246
21333SOL    HW264024   5.319   0.304  10.136
21334SOL     OW64025   3.763   1.077   9.610
21334SOL    HW164026   3.862   1.066   9.601
21334SOL    HW264027   3.723   0.991   9.642
21335SOL     OW64028   4.599   1.646   9.647
21335SOL    HW164029   4.522   1.611   9.593
21335SOL    HW264030   4.567   1.717   9.709
21336SOL     OW64031   3.954   0.628  11.285
21336SOL    HW164032   3.861   0.626  11.322
21336SOL    HW264033   3.955   0.589  11.193
21337SOL     OW64034   3.949   0.275  12.168
21337SOL    HW164035   3.984   0.258  12.260
21337SOL    HW264036   3.861   0.230  12.156
21338SOL     OW64037   3.743   0.368  11.819
21338SOL    HW164038   3.661   0.411  11.858
21338SOL    HW264039   3.715   0.295  11.756
21339SOL     OW64040   4.293   1.275  12.337
21339SOL    HW164041   4.200   1.268  12.300
21339SOL    HW264042   4.304   1.364  12.381
21340SOL     OW64043   5.279   1.511  11.875
21340SOL    HW164044   5.222   1.495  11.956
21340SOL    HW264045   5.220   1.521  11.795
21341SOL     OW64046   4.859   0.703  11.889
21341SOL    HW164047   4.916   0.781  11.864
21341SOL    HW264048   4.799   0.729  11.965
21342SOL     OW64049   5.479   0.607  11.403
21342SOL    HW164050   5.467   0.594  11.304
21342SOL    HW264051   5.449   0.526  11.452
21343SOL     OW64052   4.492   1.144  12.195
21343SOL    HW164053   4.414   1.161  12.255
21343SOL    HW264054   4.526   1.231  12.159
21344SOL     OW64055   4.409   1.012  11.837
21344SOL    HW164056   4.478   0.996  11.907
21344SOL    HW264057   4.336   1.069  11.875
21345SOL     OW64058   4.059   1.435  12.233
21345SOL    HW164059   3.981   1.404  12.180
21345SOL    HW264060   4.117   1.493  12.176
21346SOL     OW64061   5.184   1.505  12.511
21346SOL    HW164062   5.208   1.599  12.537
21346SOL    HW264063   5.168   1.451  12.593
21347SOL     OW64064   4.162   0.392  12.671
21347SOL    HW164065   4.244   0.336  12.680
21347SOL    HW264066   4.081   0.334  12.675
21348SOL     OW64067   5.327   0.447  11.909
21348SOL    HW164068   5.253   0.493  11.859
21348SOL    HW264069   5.378   0.515  11.962
21349SOL     OW64070   3.955   1.713  11.655
21349SOL    HW164071   3.989   1.790  11.709
21349SOL    HW264072   3.999   1.713  11.565
21350SOL     OW64073   3.954   1.434  11.710
21350SOL    HW164074   3.928   1.530  11.710
21350SOL    HW264075   3.883   1.380  11.755
21351SOL     OW64076   3.964   1.091  12.058
21351SOL    HW164077   3.978   1.007  12.110
21351SOL    HW264078   3.909   1.155  12.113
21352SOL     OW64079   4.344   1.786  12.611
21352SOL    HW164080   4.252   1.769  12.646
21352SOL    HW264081   4.372   1.878  12.637
21353SOL     OW64082   4.330   0.964  11.295
21353SOL    HW164083   4.337   1.048  11.241
21353SOL    HW264084   4.376   0.977  11.383
21354SOL     OW64085   5.318   0.114  12.652
21354SOL    HW164086   5.300   0.181  12.580
21354SOL    HW264087   5.315   0.160  12.741
21355SOL     OW64088   3.846   0.643  11.735
21355SOL    HW164089   3.801   0.555  11.752
21355SOL    HW264090   3.845   0.697  11.819
21356SOL     OW64091   5.566   1.767  11.531
21356SOL    HW164092   5.620   1.738  11.611
21356SOL    HW264093   5.596   1.857  11.502
21357SOL     OW64094   3.751   1.596  11.289
21357SOL    HW164095   3.732   1.500  11.310
21357SOL    HW264096   3.718   1.654  11.364
21358SOL     OW64097   5.413   0.922  11.784
21358SOL    HW164098   5.508   0.893  11.792
21358SOL    HW264099   5.405   0.987  11.709
21359SOL     OW64100   5.365   1.108  11.604
21359SOL    HW164101   5.451   1.110  11.552
21359SOL    HW264102   5.379   1.155  11.692
21360SOL     OW64103   3.837   0.737  12.769
21360SOL    HW164104   3.925   0.724  12.814
21360SOL    HW264105   3.824   0.834  12.747
21361SOL     OW64106   4.337   1.365  11.898
21361SOL    HW164107   4.288   1.278  11.907
21361SOL    HW264108   4.314   1.408  11.811
21362SOL     OW64109   5.017   1.228  12.595
21362SOL    HW164110   5.054   1.155  12.537
21362SOL    HW264111   5.069   1.233  12.680
21363SOL     OW64112   4.533   0.004  11.674
21363SOL    HW164113   4.573   0.095  11.665
21363SOL    HW264114   4.433   0.012  11.680
21364SOL     OW64115   3.921   0.976  12.436
21364SOL    HW164116   4.010   0.931  12.422
21364SOL    HW264117   3.848   0.911  12.417
21365SOL     OW64118   5.249   0.999  11.362
21365SOL    HW164119   5.186   0.923  11.375
21365SOL    HW264120   5.297   1.017  11.448
21366SOL     OW64121   5.190   1.417  12.125
21366SOL    HW164122   5.131   1.423  12.205
21366SOL    HW264123   5.175   1.329  12.079
21367SOL     OW64124   5.391   1.714  11.744
21367SOL    HW164125   5.350   1.691  11.656
21367SOL    HW264126   5.373   1.640  11.809
21368SOL     OW64127   4.322   0.729  11.442
21368SOL    HW164128   4.346   0.798  11.374
21368SOL    HW264129   4.244   0.762  11.496
21369SOL     OW64130   5.005   0.345  12.116
21369SOL    HW164131   4.919   0.295  12.103
21369SOL    HW264132   5.067   0.291  12.172
21370SOL     OW64133   5.300   1.662  11.479
21370SOL    HW164134   5.389   1.708  11.482
21370SOL    HW264135   5.279   1.638  11.384
21371SOL     OW64136   4.531   0.605  12.637
21371SOL    HW164137   4.484   0.602  12.726
21371SOL    HW264138   4.480   0.550  12.571
21372SOL     OW64139   4.697   0.890  12.744
21372SOL    HW164140   4.743   0.806  12.715
21372SOL    HW264141   4.641   0.924  12.669
21373SOL     OW64142   4.715   0.410  12.414
21373SOL    HW164143   4.638   0.444  12.468
21373SOL    HW264144   4.681   0.359  12.335
21374SOL     OW64145   4.765   0.701  11.601
21374SOL    HW164146   4.791   0.697  11.697
21374SOL    HW264147   4.680   0.650  11.587
21375SOL     OW64148   3.800   0.811  11.961
21375SOL    HW164149   3.899   0.799  11.970
21375SOL    HW264150   3.776   0.906  11.982
21376SOL     OW64151   3.854   1.821  12.743
21376SOL    HW164152   3.844   1.806  12.842
21376SOL    HW264153   3.768   1.857  12.707
21377SOL     OW64154   4.589   0.348  11.367
21377SOL    HW164155   4.648   0.411  11.318
21377SOL    HW264156   4.608   0.254  11.338
21378SOL     OW64157   5.086   1.144  11.717
21378SOL    HW164158   5.169   1.115  11.669
21378SOL    HW264159   5.037   1.211  11.661
21379SOL     OW64160   4.274   0.196  12.057
21379SOL    HW164161   4.269   0.191  12.157
21379SOL    HW264162   4.276   0.292  12.028
21380SOL     OW64163   4.732   1.456  11.649
21380SOL    HW164164   4.686   1.528  11.597
21380SOL    HW264165   4.728   1.476  11.747
21381SOL     OW64166   4.075   1.801  12.025
21381SOL    HW164167   4.125   1.715  12.031
21381SOL    HW264168   4.140   1.878  12.022
21382SOL     OW64169   5.519   1.066  12.045
21382SOL    HW164170   5.457   1.051  11.969
21382SOL    HW264171   5.467   1.077  12.130
21383SOL     OW64172   4.951   1.550  12.678
21383SOL    HW164173   4.957   1.473  12.742
21383SOL    HW264174   4.899   1.524  12.598
21384SOL     OW64175   4.045   0.943  11.414
21384SOL    HW164176   4.127   0.982  11.372
21384SOL    HW264177   4.018   0.861  11.365
21385SOL     OW64178   5.182   0.735  11.900
21385SOL    HW164179   5.177   0.670  11.975
21385SOL    HW264180   5.262   0.794  11.913
21386SOL     OW64181   4.835   1.776  11.409
21386SOL    HW164182   4.775   1.714  11.459
21386SOL    HW264183   4.866   1.732  11.324
21387SOL     OW64184   3.926   0.285  12.670
21387SOL    HW164185   3.846   0.345  12.657
21387SOL    HW264186   3.916   0.236  12.756
21388SOL     OW64187   5.356   1.377  11.253
21388SOL    HW164188   5.324   1.471  11.243
21388SOL    HW264189   5.280   1.314  11.241
21389SOL     OW64190   4.188   1.743  11.495
21389SOL    HW164191   4.221   1.782  11.581
21389SOL    HW264192   4.264   1.736  11.430
21390SOL     OW64193   5.124   0.107  11.598
21390SOL    HW164194   5.100   0.070  11.508
21390SOL    HW264195   5.223   0.123  11.602
21391SOL     OW64196   3.973   1.785  12.413
21391SOL    HW164197   4.030   1.720  12.463
21391SOL    HW264198   3.957   1.752  12.320
21392SOL     OW64199   4.664   1.698  12.076
21392SOL    HW164200   4.744   1.641  12.097
21392SOL    HW264201   4.615   1.658  11.999
21393SOL     OW64202   4.106   0.700  11.652
21393SOL    HW164203   4.151   0.610  11.649
21393SOL    HW264204   4.012   0.689  11.685
21394SOL     OW64205   4.338   0.122  11.289
21394SOL    HW164206   4.436   0.100  11.296
21394SOL    HW264207   4.307   0.105  11.196
21395SOL     OW64208   4.612   1.514  12.367
21395SOL    HW164209   4.589   1.489  12.273
21395SOL    HW264210   4.673   1.445  12.406
21396SOL     OW64211   5.075   0.590  12.605
21396SOL    HW164212   5.103   0.547  12.690
21396SOL    HW264213   5.100   0.686  12.606
21397SOL     OW64214   4.527   1.402  12.096
21397SOL    HW164215   4.617   1.416  12.054
21397SOL    HW264216   4.456   1.404  12.025
21398SOL     OW64217   4.646   0.503  12.071
21398SOL    HW164218   4.621   0.494  11.975
21398SOL    HW264219   4.694   0.421  12.102
21399SOL     OW64220   4.263   0.064  11.684
21399SOL    HW164221   4.182   0.065  11.742
21399SOL    HW264222   4.266   0.147  11.629
21400SOL     OW64223   5.158   1.188  11.213
21400SOL    HW164224   5.190   1.112  11.270
21400SOL    HW264225   5.066   1.215  11.243
21401SOL     OW64226   4.021   0.035  11.343
21401SOL    HW164227   4.070   0.119  11.322
21401SOL    HW264228   4.083  -0.030  11.388
21402SOL     OW64229   4.659   0.236  11.652
21402SOL    HW164230   4.611   0.277  11.574
21402SOL    HW264231   4.758   0.234  11.633
21403SOL     OW64232   4.800   0.683  12.636
21403SOL    HW164233   4.720   0.622  12.639
21403SOL    HW264234   4.881   0.630  12.612
21404SOL     OW64235   4.951   1.570  11.965
21404SOL    HW164236   4.972   1.644  11.900
21404SOL    HW264237   5.019   1.570  12.038
21405SOL     OW64238   4.183   1.152  11.913
21405SOL    HW164239   4.112   1.125  11.978
21405SOL    HW264240   4.157   1.124  11.820
21406SOL     OW64241   4.995   1.797  11.763
21406SOL    HW164242   5.039   1.861  11.699
21406SOL    HW264243   4.945   1.849  11.833
21407SOL     OW64244   4.756   0.549  11.188
21407SOL    HW164245   4.715   0.631  11.149
21407SOL    HW264246   4.820   0.575  11.261
21408SOL     OW64247   3.802   0.556  12.558
21408SOL    HW164248   3.894   0.555  12.517
21408SOL    HW264249   3.796   0.630  12.625
21409SOL     OW64250   4.285   0.222  12.319
21409SOL    HW164251   4.323   0.138  12.356
21409SOL    HW264252   4.197   0.241  12.363
21410SOL     OW64253   4.590   0.454  11.814
21410SOL    HW164254   4.558   0.526  11.752
21410SOL    HW264255   4.614   0.373  11.761
21411SOL     OW64256   4.741   0.039  11.925
21411SOL    HW164257   4.669   0.044  11.856
21411SOL    HW264258   4.717  -0.030  11.994
21412SOL     OW64259   5.153   1.173  12.039
21412SOL    HW164260   5.098   1.089  12.032
21412SOL    HW264261   5.179   1.202  11.947
21413SOL     OW64262   5.190   0.590  12.164
21413SOL    HW164263   5.160   0.495  12.171
21413SOL    HW264264   5.263   0.606  12.230
21414SOL     OW64265   5.581   0.833  11.549
21414SOL    HW164266   5.623   0.769  11.613
21414SOL    HW264267   5.543   0.782  11.471
21415SOL     OW64268   4.212   1.385  11.346
21415SOL    HW164269   4.125   1.370  11.393
21415SOL    HW264270   4.195   1.411  11.251
21416SOL     OW64271   5.388   1.280  11.829
21416SOL    HW164272   5.487   1.288  11.843
21416SOL    HW264273   5.343   1.364  11.860
21417SOL     OW64274   5.114   0.575  11.250
21417SOL    HW164275   5.060   0.554  11.331
21417SOL    HW264276   5.205   0.534  11.259
21418SOL     OW64277   4.251   0.256  11.500
21418SOL    HW164278   4.278   0.197  11.425
21418SOL    HW264279   4.251   0.351  11.469
21419SOL     OW64280   5.478   1.223  12.760
21419SOL    HW164281   5.569   1.184  12.747
21419SOL    HW264282   5.486   1.319  12.784
21420SOL     OW64283   4.788   1.347  12.512
21420SOL    HW164284   4.708   1.324  12.567
21420SOL    HW264285   4.871   1.321  12.561
21421SOL     OW64286   4.835   1.195  12.272
21421SOL    HW164287   4.795   1.239  12.353
21421SOL    HW264288   4.794   1.232  12.189
21422SOL     OW64289   5.362   1.099  12.251
21422SOL    HW164290   5.367   1.180  12.310
21422SOL    HW264291   5.276   1.101  12.200
21423SOL     OW64292   4.639   0.089  12.574
21423SOL    HW164293   4.664   0.069  12.479
21423SOL    HW264294   4.711   0.145  12.616
21424SOL     OW64295   4.429   1.050  11.540
21424SOL    HW164296   4.415   1.057  11.639
21424SOL    HW264297   4.513   0.999  11.522
21425SOL     OW64298   4.134   0.813  12.423
21425SOL    HW164299   4.220   0.825  12.473
21425SOL    HW264300   4.092   0.726  12.450
21426SOL     OW64301   4.998   0.386  12.434
21426SOL    HW164302   5.019   0.460  12.498
21426SOL    HW264303   4.909   0.403  12.391
21427SOL     OW64304   3.788   1.564  12.503
21427SOL    HW164305   3.742   1.646  12.469
21427SOL    HW264306   3.886   1.583  12.512
21428SOL     OW64307   4.091   1.100  11.673
21428SOL    HW164308   4.084   1.183  11.617
21428SOL    HW264309   4.095   1.020  11.613
21429SOL     OW64310   4.290   0.537  12.037
21429SOL    HW164311   4.302   0.603  11.963
21429SOL    HW264312   4.336   0.571  12.120
21430SOL     OW64313   4.976   1.348  11.560
21430SOL    HW164314   5.026   1.425  11.600
21430SOL    HW264315   4.881   1.350  11.592
21431SOL     OW64316   4.996   1.445  12.314
21431SOL    HW164317   5.043   1.458  12.401
21431SOL    HW264318   4.930   1.371  12.323
21432SOL     OW64319   5.306   0.639  11.644
21432SOL    HW164320   5.275   0.700  11.717
21432SOL    HW264321   5.356   0.691  11.575
21433SOL     OW64322   4.078   1.510  12.501
21433SOL    HW164323   4.057   1.466  12.414
21433SOL    HW264324   4.175   1.536  12.504
21434SOL     OW64325   4.126   0.751  12.770
21434SOL    HW164326   4.194   0.806  12.723
21434SOL    HW264327   4.166   0.663  12.797
21435SOL     OW64328   5.311   0.779  12.842
21435SOL    HW164329   5.219   0.817  12.837
21435SOL    HW264330   5.371   0.826  12.777
21436SOL     OW64331   4.297   0.870  12.201
21436SOL    HW164332   4.341   0.959  12.192
21436SOL    HW264333   4.234   0.870  12.278
21437SOL     OW64334   5.084   0.862  12.217
21437SOL    HW164335   5.009   0.862  12.151
21437SOL    HW264336   5.121   0.770  12.226
21438SOL     OW64337   4.933   0.525  11.447
21438SOL    HW164338   4.946   0.441  11.501
21438SOL    HW264339   4.904   0.599  11.507
21439SOL     OW64340   4.031   0.213  12.403
21439SOL    HW164341   4.008   0.250  12.493
21439SOL    HW264342   4.001   0.118  12.397
21440SOL     OW64343   3.761   1.310  12.454
21440SOL    HW164344   3.814   1.261  12.522
21440SOL    HW264345   3.783   1.408  12.459
21441SOL     OW64346   4.456   0.634  12.236
21441SOL    HW164347   4.515   0.608  12.160
21441SOL    HW264348   4.428   0.730  12.225
21442SOL     OW64349   4.031   0.063  11.790
21442SOL    HW164350   4.020   0.157  11.823
21442SOL    HW264351   4.026   0.000  11.867
21443SOL     OW64352   5.346   0.367  11.546
21443SOL    HW164353   5.348   0.291  11.610
21443SOL    HW264354   5.298   0.444  11.586
21444SOL     OW64355   4.747   0.766  12.138
21444SOL    HW164356   4.762   0.787  12.234
21444SOL    HW264357   4.717   0.671  12.129
21445SOL     OW64358   5.264   0.274  11.297
21445SOL    HW164359   5.203   0.199  11.320
21445SOL    HW264360   5.286   0.326  11.380
21446SOL     OW64361   5.027   0.838  11.214
21446SOL    HW164362   5.061   0.745  11.229
21446SOL    HW264363   5.045   0.865  11.119
21447SOL     OW64364   4.792   1.333  12.021
21447SOL    HW164365   4.799   1.249  11.966
21447SOL    HW264366   4.854   1.402  11.985
21448SOL     OW64367   4.043   0.810  12.121
21448SOL    HW164368   4.136   0.846  12.126
21448SOL    HW264369   4.037   0.725  12.173
21449SOL     OW64370   4.063   0.509  12.178
21449SOL    HW164371   4.011   0.426  12.161
21449SOL    HW264372   4.140   0.514  12.114
21450SOL     OW64373   4.884   0.207  12.649
21450SOL    HW164374   4.884   0.271  12.726
21450SOL    HW264375   4.912   0.255  12.566
21451SOL     OW64376   3.732   1.326  11.372
21451SOL    HW164377   3.639   1.347  11.341
21451SOL    HW264378   3.742   1.227  11.385
21452SOL     OW64379   3.812   1.801  12.099
21452SOL    HW164380   3.770   1.715  12.072
21452SOL    HW264381   3.906   1.804  12.065
21453SOL     OW64382   4.228   1.568  12.082
21453SOL    HW164383   4.294   1.642  12.091
21453SOL    HW264384   4.272   1.489  12.040
21454SOL     OW64385   4.726   0.796  12.410
21454SOL    HW164386   4.767   0.764  12.496
21454SOL    HW264387   4.630   0.769  12.407
21455SOL     OW64388   3.764   0.544  12.286
21455SOL    HW164389   3.849   0.511  12.245
21455SOL    HW264390   3.777   0.559  12.384
21456SOL     OW64391   4.539   0.572  11.497
21456SOL    HW164392   4.546   0.483  11.451
21456SOL    HW264393   4.445   0.606  11.489
21457SOL     OW64394   5.381   0.604  12.378
21457SOL    HW164395   5.343   0.535  12.440
21457SOL    HW264396   5.463   0.568  12.334
21458SOL     OW64397   3.976   1.564  12.916
21458SOL    HW164398   3.946   1.621  12.992
21458SOL    HW264399   3.969   1.467  12.942
21459SOL     OW64400   4.395   0.464  12.441
21459SOL    HW164401   4.361   0.375  12.411
21459SOL    HW264402   4.421   0.518  12.361
21460SOL     OW64403   4.654   1.678  12.637
21460SOL    HW164404   4.630   1.660  12.542
21460SOL    HW264405   4.684   1.772  12.647
21461SOL     OW64406   4.197   0.500  11.363
21461SOL    HW164407   4.258   0.580  11.367
21461SOL    HW264408   4.102   0.531  11.370
21462SOL     OW64409   3.883   1.137  12.638
21462SOL    HW164410   3.905   1.076  12.714
21462SOL    HW264411   3.893   1.088  12.552
21463SOL     OW64412   5.071   1.059  12.406
21463SOL    HW164413   5.095   0.996  12.332
21463SOL    HW264414   4.981   1.099  12.388
21464SOL     OW64415   5.026   0.855  11.481
21464SOL    HW164416   4.940   0.824  11.523
21464SOL    HW264417   5.022   0.841  11.382
21465SOL     OW64418   5.483   1.747  12.326
21465SOL    HW164419   5.544   1.777  12.253
21465SOL    HW264420   5.445   1.658  12.304
21466SOL     OW64421   4.976   1.731  12.300
21466SOL    HW164422   5.060   1.736  12.246
21466SOL    HW264423   4.953   1.635  12.318
21467SOL     OW64424   3.807   1.258  12.194
21467SOL    HW164425   3.802   1.257  12.294
21467SOL    HW264426   3.724   1.217  12.156
21468SOL     OW64427   5.450   0.135  11.695
21468SOL    HW164428   5.523   0.118  11.628
21468SOL    HW264429   5.419   0.048  11.733
21469SOL     OW64430   5.112   1.573  11.649
21469SOL    HW164431   5.179   1.585  11.575
21469SOL    HW264432   5.072   1.662  11.672
21470SOL     OW64433   5.004   0.927  11.844
21470SOL    HW164434   5.064   0.846  11.846
21470SOL    HW264435   5.044   0.996  11.784
21471SOL     OW64436   4.554   1.273  12.594
21471SOL    HW164437   4.549   1.306  12.689
21471SOL    HW264438   4.468   1.292  12.548
21472SOL     OW64439   4.396   1.616  11.326
21472SOL    HW164440   4.405   1.626  11.227
21472SOL    HW264441   4.356   1.527  11.347
21473SOL     OW64442   5.374   1.720  12.566
21473SOL    HW164443   5.427   1.730  12.482
21473SOL    HW264444   5.347   1.810  12.600
21474SOL     OW64445   5.565   0.175  12.135
21474SOL    HW164446   5.604   0.090  12.099
21474SOL    HW264447   5.467   0.177  12.116
21475SOL     OW64448   3.987   0.326  11.892
21475SOL    HW164449   3.908   0.377  11.858
21475SOL    HW264450   3.978   0.311  11.990
21476SOL     OW64451   4.918   1.612  11.203
21476SOL    HW164452   4.924   1.519  11.240
21476SOL    HW264453   4.859   1.612  11.123
21477SOL     OW64454   4.546   1.002  12.544
21477SOL    HW164455   4.586   1.001  12.452
21477SOL    HW264456   4.556   1.094  12.584
21478SOL     OW64457   4.640   0.910  11.463
21478SOL    HW164458   4.703   0.948  11.395
21478SOL    HW264459   4.680   0.827  11.502
21479SOL     OW64460   5.228   1.607  11.216
21479SOL    HW164461   5.136   1.644  11.223
21479SOL    HW264462   5.266   1.627  11.126
21480SOL     OW64463   4.096   1.288  12.662
21480SOL    HW164464   4.083   1.381  12.628
21480SOL    HW264465   4.012   1.236  12.649
21481SOL     OW64466   5.338   1.292  12.461
21481SOL    HW164467   5.398   1.295  12.541
21481SOL    HW264468   5.263   1.356  12.474
21482SOL     OW64469   4.763   1.098  11.868
21482SOL    HW164470   4.693   1.051  11.922
21482SOL    HW264471   4.822   1.030  11.825
21483SOL     OW64472   4.738   0.236  12.143
21483SOL    HW164473   4.730   0.200  12.050
21483SOL    HW264474   4.736   0.160  12.208
21484SOL     OW64475   4.314   1.487  11.663
21484SOL    HW164476   4.356   1.429  11.593
21484SOL    HW264477   4.270   1.566  11.619
21485SOL     OW64478   5.433   0.385  12.553
21485SOL    HW164479   5.506   0.454  12.557
21485SOL    HW264480   5.461   0.310  12.494
21486SOL     OW64481   3.979   1.348  11.462
21486SOL    HW164482   3.883   1.349  11.435
21486SOL    HW264483   3.991   1.401  11.546
21487SOL     OW64484   3.829   1.013  12.898
21487SOL    HW164485   3.752   0.980  12.952
21487SOL    HW264486   3.914   0.983  12.940
21488SOL     OW64487   4.396   0.203  12.661
21488SOL    HW164488   4.486   0.187  12.621
21488SOL    HW264489   4.404   0.208  12.760
21489SOL     OW64490   3.799   0.345  11.205
21489SOL    HW164491   3.707   0.317  11.176
21489SOL    HW264492   3.830   0.422  11.149
21490SOL     OW64493   5.164   0.856  12.570
21490SOL    HW164494   5.107   0.908  12.507
21490SOL    HW264495   5.260   0.868  12.546
21491SOL     OW64496   3.796   0.166  11.490
21491SOL    HW164497   3.779   0.249  11.436
21491SOL    HW264498   3.886   0.129  11.468
21492SOL     OW64499   4.907   1.335  11.291
21492SOL    HW164500   4.808   1.324  11.293
21492SOL    HW264501   4.941   1.350  11.384
21493SOL     OW64502   4.337   0.842  12.603
21493SOL    HW164503   4.393   0.923  12.586
21493SOL    HW264504   4.396   0.762  12.606
21494SOL     OW64505   5.217   1.767  12.131
21494SOL    HW164506   5.250   1.831  12.062
21494SOL    HW264507   5.283   1.761  12.206
21495SOL     OW64508   4.440   0.565  12.880
21495SOL    HW164509   4.459   0.630  12.954
21495SOL    HW264510   4.500   0.485  12.889
21496SOL     OW64511   4.114   1.741  12.732
21496SOL    HW164512   4.023   1.782  12.730
21496SOL    HW264513   4.107   1.647  12.764
21497SOL     OW64514   5.398   0.883  12.426
21497SOL    HW164515   5.371   0.794  12.389
21497SOL    HW264516   5.399   0.951  12.353
21498SOL     OW64517   4.949   0.325  11.621
21498SOL    HW164518   5.014   0.251  11.610
21498SOL    HW264519   4.969   0.375  11.705
21499SOL     OW64520   4.318   0.745  11.824
21499SOL    HW164521   4.368   0.830  11.805
21499SOL    HW264522   4.230   0.747  11.776
21500SOL     OW64523   5.501   0.342  12.814
21500SOL    HW164524   5.484   0.373  12.720
21500SOL    HW264525   5.417   0.305  12.852
21501SOL     OW64526   5.454   0.934  12.689
21501SOL    HW164527   5.492   1.025  12.704
21501SOL    HW264528   5.446   0.917  12.590
21502SOL     OW64529   4.583   1.374  11.188
21502SOL    HW164530   4.537   1.389  11.276
21502SOL    HW264531   4.627   1.459  11.158
21503SOL     OW64532   4.385   1.790  12.125
21503SOL    HW164533   4.339   1.878  12.112
21503SOL    HW264534   4.484   1.802  12.118
21504SOL     OW64535   4.583   0.956  12.033
21504SOL    HW164536   4.637   0.887  12.081
21504SOL    HW264537   4.551   1.025  12.099
21505SOL     OW64538   4.807   0.984  11.259
21505SOL    HW164539   4.784   1.037  11.177
21505SOL    HW264540   4.888   0.928  11.240
21506SOL     OW64541   5.585   1.569  12.023
21506SOL    HW164542   5.514   1.557  11.953
21506SOL    HW264543   5.586   1.490  12.083
21507SOL     OW64544   3.803   1.240  11.825
21507SOL    HW164545   3.802   1.193  11.913
21507SOL    HW264546   3.885   1.212  11.774
21508SOL     OW64547   4.396   1.391  12.796
21508SOL    HW164548   4.318   1.341  12.834
21508SOL    HW264549   4.393   1.486  12.827
21509SOL     OW64550   5.548   0.192  12.399
21509SOL    HW164551   5.544   0.102  12.443
21509SOL    HW264552   5.551   0.181  12.300
21510SOL     OW64553   4.152   0.424  11.692
21510SOL    HW164554   4.182   0.352  11.630
21510SOL    HW264555   4.113   0.384  11.775
21511SOL     OW64556   5.429   1.487  12.276
21511SOL    HW164557   5.336   1.462  12.249
21511SOL    HW264558   5.455   1.437  12.358
21512SOL     OW64559   4.041   0.547  12.452
21512SOL    HW164560   4.079   0.488  12.524
21512SOL    HW264561   4.081   0.521  12.364
21513SOL     OW64562   4.536   1.586  11.859
21513SOL    HW164563   4.568   1.596  11.765
21513SOL    HW264564   4.457   1.524  11.861
21514SOL     OW64565   5.148   0.214  12.284
21514SOL    HW164566   5.200   0.149  12.339
21514SOL    HW264567   5.099   0.277  12.345
21515SOL     OW64568   4.725   0.034  12.326
21515SOL    HW164569   4.662  -0.038  12.295
21515SOL    HW264570   4.818  -0.002  12.326
21516SOL     OW64571   4.494   1.330  11.473
21516SOL    HW164572   4.448   1.243  11.490
21516SOL    HW264573   4.585   1.327  11.514
21517SOL     OW64574   4.342   1.567  12.456
21517SOL    HW164575   4.337   1.649  12.513
21517SOL    HW264576   4.431   1.564  12.411
21518SOL     OW64577   5.076   0.052  11.340
21518SOL    HW164578   5.111   0.011  11.256
21518SOL    HW264579   4.986   0.014  11.360
21519SOL     OW64580   5.024   0.453  11.863
21519SOL    HW164581   4.965   0.533  11.867
21519SOL    HW264582   5.039   0.418  11.956
21520SOL     OW64583   5.317   0.221  12.054
21520SOL    HW164584   5.233   0.220  12.108
21520SOL    HW264585   5.319   0.304  11.998
21521SOL     OW64586   3.763   1.077  11.472
21521SOL    HW164587   3.862   1.066  11.463
21521SOL    HW264588   3.723   0.991  11.504
21522SOL     OW64589   4.599   1.646  11.509
21522SOL    HW164590   4.522   1.611  11.455
21522SOL    HW264591   4.567   1.717  11.571
21523SOL     OW64592   3.954   2.490   0.113
21523SOL    HW164593   3.861   2.488   0.150
21523SOL    HW264594   3.955   2.451   0.021
21524SOL     OW64595   3.949   2.137   0.996
21524SOL    HW164596   3.984   2.120   1.088
21524SOL    HW264597   3.861   2.092   0.984
21525SOL     OW64598   3.743   2.230   0.647
21525SOL    HW164599   3.661   2.273   0.686
21525SOL    HW264600   3.715   2.157   0.584
21526SOL     OW64601   4.293   3.137   1.165
21526SOL    HW164602   4.200   3.130   1.128
21526SOL    HW264603   4.304   3.226   1.209
21527SOL     OW64604   5.279   3.373   0.703
21527SOL    HW164605   5.222   3.357   0.784
21527SOL    HW264606   5.220   3.383   0.623
21528SOL     OW64607   4.859   2.565   0.717
21528SOL    HW164608   4.916   2.643   0.692
21528SOL    HW264609   4.799   2.591   0.793
21529SOL     OW64610   5.479   2.469   0.231
21529SOL    HW164611   5.467   2.456   0.132
21529SOL    HW264612   5.449   2.388   0.280
21530SOL     OW64613   4.492   3.006   1.023
21530SOL    HW164614   4.414   3.023   1.083
21530SOL    HW264615   4.526   3.093   0.987
21531SOL     OW64616   4.574   2.660   1.823
21531SOL    HW164617   4.570   2.736   1.888
21531SOL    HW264618   4.596   2.696   1.732
21532SOL     OW64619   4.409   2.874   0.665
21532SOL    HW164620   4.478   2.858   0.735
21532SOL    HW264621   4.336   2.931   0.703
21533SOL     OW64622   4.410   3.023   1.803
21533SOL    HW164623   4.470   3.102   1.817
21533SOL    HW264624   4.324   3.054   1.762
21534SOL     OW64625   4.059   3.297   1.061
21534SOL    HW164626   3.981   3.266   1.008
21534SOL    HW264627   4.117   3.355   1.004
21535SOL     OW64628   5.184   3.367   1.339
21535SOL    HW164629   5.208   3.461   1.365
21535SOL    HW264630   5.168   3.313   1.421
21536SOL     OW64631   4.162   2.254   1.499
21536SOL    HW164632   4.244   2.198   1.508
21536SOL    HW264633   4.081   2.196   1.503
21537SOL     OW64634   5.327   2.309   0.737
21537SOL    HW164635   5.253   2.355   0.687
21537SOL    HW264636   5.378   2.377   0.790
21538SOL     OW64637   3.955   3.575   0.483
21538SOL    HW164638   3.989   3.652   0.537
21538SOL    HW264639   3.999   3.575   0.393
21539SOL     OW64640   4.851   3.203   1.690
21539SOL    HW164641   4.898   3.203   1.778
21539SOL    HW264642   4.803   3.116   1.679
21540SOL     OW64643   3.954   3.296   0.538
21540SOL    HW164644   3.928   3.392   0.538
21540SOL    HW264645   3.883   3.242   0.583
21541SOL     OW64646   3.964   2.953   0.886
21541SOL    HW164647   3.978   2.869   0.938
21541SOL    HW264648   3.909   3.017   0.941
21542SOL     OW64649   4.344   3.648   1.439
21542SOL    HW164650   4.252   3.631   1.474
21542SOL    HW264651   4.372   3.740   1.465
21543SOL     OW64652   4.330   2.826   0.123
21543SOL    HW164653   4.337   2.910   0.069
21543SOL    HW264654   4.376   2.839   0.211
21544SOL     OW64655   5.318   1.976   1.480
21544SOL    HW164656   5.300   2.043   1.408
21544SOL    HW264657   5.315   2.022   1.569
21545SOL     OW64658   3.846   2.505   0.563
21545SOL    HW164659   3.801   2.417   0.580
21545SOL    HW264660   3.845   2.559   0.647
21546SOL     OW64661   5.566   3.629   0.359
21546SOL    HW164662   5.620   3.600   0.439
21546SOL    HW264663   5.596   3.719   0.330
21547SOL     OW64664   3.751   3.458   0.117
21547SOL    HW164665   3.732   3.362   0.138
21547SOL    HW264666   3.718   3.516   0.192
21548SOL     OW64667   5.413   2.784   0.612
21548SOL    HW164668   5.508   2.755   0.620
21548SOL    HW264669   5.405   2.849   0.537
21549SOL     OW64670   5.365   2.970   0.432
21549SOL    HW164671   5.451   2.972   0.380
21549SOL    HW264672   5.379   3.017   0.520
21550SOL     OW64673   3.837   2.599   1.597
21550SOL    HW164674   3.925   2.586   1.642
21550SOL    HW264675   3.824   2.696   1.575
21551SOL     OW64676   4.337   3.227   0.726
21551SOL    HW164677   4.288   3.140   0.735
21551SOL    HW264678   4.314   3.270   0.639
21552SOL     OW64679   5.017   3.090   1.423
21552SOL    HW164680   5.054   3.017   1.365
21552SOL    HW264681   5.069   3.095   1.508
21553SOL     OW64682   4.533   1.866   0.502
21553SOL    HW164683   4.573   1.957   0.493
21553SOL    HW264684   4.433   1.874   0.508
21554SOL     OW64685   3.921   2.838   1.264
21554SOL    HW164686   4.010   2.793   1.250
21554SOL    HW264687   3.848   2.773   1.245
21555SOL     OW64688   5.249   2.861   0.190
21555SOL    HW164689   5.186   2.785   0.203
21555SOL    HW264690   5.297   2.879   0.276
21556SOL     OW64691   4.911   3.654   1.616
21556SOL    HW164692   4.935   3.714   1.540
21556SOL    HW264693   4.918   3.559   1.586
21557SOL     OW64694   4.041   2.113   1.801
21557SOL    HW164695   4.112   2.184   1.807
21557SOL    HW264696   3.953   2.152   1.829
21558SOL     OW64697   5.190   3.279   0.953
21558SOL    HW164698   5.131   3.285   1.033
21558SOL    HW264699   5.175   3.191   0.907
21559SOL     OW64700   5.391   3.576   0.572
21559SOL    HW164701   5.350   3.553   0.484
21559SOL    HW264702   5.373   3.502   0.637
21560SOL     OW64703   4.322   2.591   0.270
21560SOL    HW164704   4.346   2.660   0.202
21560SOL    HW264705   4.244   2.624   0.324
21561SOL     OW64706   5.005   2.207   0.944
21561SOL    HW164707   4.919   2.157   0.931
21561SOL    HW264708   5.067   2.153   1.000
21562SOL     OW64709   5.300   3.524   0.307
21562SOL    HW164710   5.389   3.570   0.310
21562SOL    HW264711   5.279   3.500   0.212
21563SOL     OW64712   4.531   2.467   1.465
21563SOL    HW164713   4.484   2.464   1.554
21563SOL    HW264714   4.480   2.412   1.399
21564SOL     OW64715   5.118   2.331   1.674
21564SOL    HW164716   5.098   2.374   1.762
21564SOL    HW264717   5.196   2.269   1.683
21565SOL     OW64718   4.697   2.752   1.572
21565SOL    HW164719   4.743   2.668   1.543
21565SOL    HW264720   4.641   2.786   1.497
21566SOL     OW64721   4.715   2.272   1.242
21566SOL    HW164722   4.638   2.306   1.296
21566SOL    HW264723   4.681   2.221   1.163
21567SOL     OW64724   4.765   2.563   0.429
21567SOL    HW164725   4.791   2.559   0.525
21567SOL    HW264726   4.680   2.512   0.415
21568SOL     OW64727   3.800   2.673   0.789
21568SOL    HW164728   3.899   2.661   0.798
21568SOL    HW264729   3.776   2.768   0.810
21569SOL     OW64730   3.854   3.683   1.571
21569SOL    HW164731   3.844   3.668   1.670
21569SOL    HW264732   3.768   3.719   1.535
21570SOL     OW64733   4.589   2.210   0.195
21570SOL    HW164734   4.648   2.273   0.146
21570SOL    HW264735   4.608   2.116   0.166
21571SOL     OW64736   5.443   2.447   1.831
21571SOL    HW164737   5.417   2.536   1.795
21571SOL    HW264738   5.441   2.379   1.758
21572SOL     OW64739   5.086   3.006   0.545
21572SOL    HW164740   5.169   2.977   0.497
21572SOL    HW264741   5.037   3.073   0.489
21573SOL     OW64742   4.274   2.058   0.885
21573SOL    HW164743   4.269   2.053   0.985
21573SOL    HW264744   4.276   2.154   0.856
21574SOL     OW64745   4.732   3.318   0.477
21574SOL    HW164746   4.686   3.390   0.425
21574SOL    HW264747   4.728   3.338   0.575
21575SOL     OW64748   4.075   3.663   0.853
21575SOL    HW164749   4.125   3.577   0.859
21575SOL    HW264750   4.140   3.740   0.850
21576SOL     OW64751   5.519   2.928   0.873
21576SOL    HW164752   5.457   2.913   0.797
21576SOL    HW264753   5.467   2.939   0.958
21577SOL     OW64754   4.951   3.412   1.506
21577SOL    HW164755   4.957   3.335   1.570
21577SOL    HW264756   4.899   3.386   1.426
21578SOL     OW64757   4.045   2.805   0.242
21578SOL    HW164758   4.127   2.844   0.200
21578SOL    HW264759   4.018   2.723   0.193
21579SOL     OW64760   5.182   2.597   0.728
21579SOL    HW164761   5.177   2.532   0.803
21579SOL    HW264762   5.262   2.656   0.741
21580SOL     OW64763   4.185   3.128   1.727
21580SOL    HW164764   4.135   3.129   1.641
21580SOL    HW264765   4.122   3.110   1.803
21581SOL     OW64766   4.835   3.638   0.237
21581SOL    HW164767   4.775   3.576   0.287
21581SOL    HW264768   4.866   3.594   0.152
21582SOL     OW64769   3.926   2.147   1.498
21582SOL    HW164770   3.846   2.207   1.485
21582SOL    HW264771   3.916   2.098   1.584
21583SOL     OW64772   5.356   3.239   0.081
21583SOL    HW164773   5.324   3.333   0.071
21583SOL    HW264774   5.280   3.176   0.069
21584SOL     OW64775   4.188   3.605   0.323
21584SOL    HW164776   4.221   3.644   0.409
21584SOL    HW264777   4.264   3.598   0.258
21585SOL     OW64778   5.124   1.969   0.426
21585SOL    HW164779   5.100   1.932   0.336
21585SOL    HW264780   5.223   1.985   0.430
21586SOL     OW64781   3.973   3.647   1.241
21586SOL    HW164782   4.030   3.582   1.291
21586SOL    HW264783   3.957   3.614   1.148
21587SOL     OW64784   4.664   3.560   0.904
21587SOL    HW164785   4.744   3.503   0.925
21587SOL    HW264786   4.615   3.520   0.827
21588SOL     OW64787   4.106   2.562   0.480
21588SOL    HW164788   4.151   2.472   0.477
21588SOL    HW264789   4.012   2.551   0.513
21589SOL     OW64790   5.271   2.084   1.729
21589SOL    HW164791   5.266   2.121   1.821
21589SOL    HW264792   5.199   2.015   1.717
21590SOL     OW64793   4.338   1.984   0.117
21590SOL    HW164794   4.436   1.962   0.124
21590SOL    HW264795   4.307   1.967   0.024
21591SOL     OW64796   4.505   2.126   1.749
21591SOL    HW164797   4.572   2.065   1.792
21591SOL    HW264798   4.432   2.145   1.814
21592SOL     OW64799   4.612   3.376   1.195
21592SOL    HW164800   4.589   3.351   1.101
21592SOL    HW264801   4.673   3.307   1.234
21593SOL     OW64802   5.075   2.452   1.433
21593SOL    HW164803   5.103   2.409   1.518
21593SOL    HW264804   5.100   2.548   1.434
21594SOL     OW64805   4.527   3.264   0.924
21594SOL    HW164806   4.617   3.278   0.882
21594SOL    HW264807   4.456   3.266   0.853
21595SOL     OW64808   4.646   2.365   0.899
21595SOL    HW164809   4.621   2.356   0.803
21595SOL    HW264810   4.694   2.283   0.930
21596SOL     OW64811   4.263   1.926   0.512
21596SOL    HW164812   4.182   1.927   0.570
21596SOL    HW264813   4.266   2.009   0.457
21597SOL     OW64814   5.158   3.050   0.041
21597SOL    HW164815   5.190   2.974   0.098
21597SOL    HW264816   5.066   3.077   0.071
21598SOL     OW64817   4.021   1.897   0.171
21598SOL    HW164818   4.070   1.981   0.150
21598SOL    HW264819   4.083   1.832   0.216
21599SOL     OW64820   4.659   2.098   0.480
21599SOL    HW164821   4.611   2.139   0.402
21599SOL    HW264822   4.758   2.096   0.461
21600SOL     OW64823   4.800   2.545   1.464
21600SOL    HW164824   4.720   2.484   1.467
21600SOL    HW264825   4.881   2.492   1.440
21601SOL     OW64826   4.951   3.432   0.793
21601SOL    HW164827   4.972   3.506   0.728
21601SOL    HW264828   5.019   3.432   0.866
21602SOL     OW64829   4.183   3.014   0.741
21602SOL    HW164830   4.112   2.987   0.806
21602SOL    HW264831   4.157   2.986   0.648
21603SOL     OW64832   4.995   3.659   0.591
21603SOL    HW164833   5.039   3.723   0.527
21603SOL    HW264834   4.945   3.711   0.661
21604SOL     OW64835   4.756   2.411   0.016
21604SOL    HW164836   4.715   2.493  -0.023
21604SOL    HW264837   4.820   2.437   0.089
21605SOL     OW64838   3.802   2.418   1.386
21605SOL    HW164839   3.894   2.417   1.345
21605SOL    HW264840   3.796   2.492   1.453
21606SOL     OW64841   4.285   2.084   1.147
21606SOL    HW164842   4.323   2.000   1.184
21606SOL    HW264843   4.197   2.103   1.191
21607SOL     OW64844   4.590   2.316   0.642
21607SOL    HW164845   4.558   2.388   0.580
21607SOL    HW264846   4.614   2.235   0.589
21608SOL     OW64847   4.741   1.901   0.753
21608SOL    HW164848   4.669   1.906   0.684
21608SOL    HW264849   4.717   1.832   0.822
21609SOL     OW64850   5.153   3.035   0.867
21609SOL    HW164851   5.098   2.951   0.860
21609SOL    HW264852   5.179   3.064   0.775
21610SOL     OW64853   5.190   2.452   0.992
21610SOL    HW164854   5.160   2.357   0.999
21610SOL    HW264855   5.263   2.468   1.058
21611SOL     OW64856   5.581   2.695   0.377
21611SOL    HW164857   5.623   2.631   0.441
21611SOL    HW264858   5.543   2.644   0.299
21612SOL     OW64859   4.212   3.247   0.174
21612SOL    HW164860   4.125   3.232   0.221
21612SOL    HW264861   4.195   3.273   0.079
21613SOL     OW64862   5.388   3.142   0.657
21613SOL    HW164863   5.487   3.150   0.671
21613SOL    HW264864   5.343   3.226   0.688
21614SOL     OW64865   5.114   2.437   0.078
21614SOL    HW164866   5.060   2.416   0.159
21614SOL    HW264867   5.205   2.396   0.087
21615SOL     OW64868   4.251   2.118   0.328
21615SOL    HW164869   4.278   2.059   0.253
21615SOL    HW264870   4.251   2.213   0.297
21616SOL     OW64871   5.478   3.085   1.588
21616SOL    HW164872   5.569   3.046   1.575
21616SOL    HW264873   5.486   3.181   1.612
21617SOL     OW64874   4.788   3.209   1.340
21617SOL    HW164875   4.708   3.186   1.395
21617SOL    HW264876   4.871   3.183   1.389
21618SOL     OW64877   5.316   3.491   1.625
21618SOL    HW164878   5.343   3.525   1.535
21618SOL    HW264879   5.395   3.453   1.671
21619SOL     OW64880   4.835   3.057   1.100
21619SOL    HW164881   4.795   3.101   1.181
21619SOL    HW264882   4.794   3.094   1.017
21620SOL     OW64883   5.362   2.961   1.079
21620SOL    HW164884   5.367   3.042   1.138
21620SOL    HW264885   5.276   2.963   1.028
21621SOL     OW64886   4.639   1.951   1.402
21621SOL    HW164887   4.664   1.931   1.307
21621SOL    HW264888   4.711   2.007   1.444
21622SOL     OW64889   4.704   2.978   1.719
21622SOL    HW164890   4.605   2.984   1.729
21622SOL    HW264891   4.727   2.898   1.663
21623SOL     OW64892   4.429   2.912   0.368
21623SOL    HW164893   4.415   2.919   0.467
21623SOL    HW264894   4.513   2.861   0.350
21624SOL     OW64895   4.134   2.675   1.251
21624SOL    HW164896   4.220   2.687   1.301
21624SOL    HW264897   4.092   2.588   1.278
21625SOL     OW64898   4.998   2.248   1.262
21625SOL    HW164899   5.019   2.322   1.326
21625SOL    HW264900   4.909   2.265   1.219
21626SOL     OW64901   3.788   3.426   1.331
21626SOL    HW164902   3.742   3.508   1.297
21626SOL    HW264903   3.886   3.445   1.340
21627SOL     OW64904   4.091   2.962   0.501
21627SOL    HW164905   4.084   3.045   0.445
21627SOL    HW264906   4.095   2.882   0.441
21628SOL     OW64907   4.290   2.399   0.865
21628SOL    HW164908   4.302   2.465   0.791
21628SOL    HW264909   4.336   2.433   0.948
21629SOL     OW64910   4.976   3.210   0.388
21629SOL    HW164911   5.026   3.287   0.428
21629SOL    HW264912   4.881   3.212   0.420
21630SOL     OW64913   4.996   3.307   1.142
21630SOL    HW164914   5.043   3.320   1.229
21630SOL    HW264915   4.930   3.233   1.151
21631SOL     OW64916   5.306   2.501   0.472
21631SOL    HW164917   5.275   2.562   0.545
21631SOL    HW264918   5.356   2.553   0.403
21632SOL     OW64919   4.078   3.372   1.329
21632SOL    HW164920   4.057   3.328   1.242
21632SOL    HW264921   4.175   3.398   1.332
21633SOL     OW64922   4.126   2.613   1.598
21633SOL    HW164923   4.194   2.668   1.551
21633SOL    HW264924   4.166   2.525   1.625
21634SOL     OW64925   5.311   2.641   1.670
21634SOL    HW164926   5.219   2.679   1.665
21634SOL    HW264927   5.371   2.688   1.605
21635SOL     OW64928   4.737   1.967   1.770
21635SOL    HW164929   4.743   2.052   1.718
21635SOL    HW264930   4.769   1.891   1.713
21636SOL     OW64931   4.228   1.912   1.740
21636SOL    HW164932   4.186   1.855   1.670
21636SOL    HW264933   4.162   1.981   1.772
21637SOL     OW64934   4.297   2.732   1.029
21637SOL    HW164935   4.341   2.821   1.020
21637SOL    HW264936   4.234   2.732   1.106
21638SOL     OW64937   5.084   2.724   1.045
21638SOL    HW164938   5.009   2.724   0.979
21638SOL    HW264939   5.121   2.632   1.054
21639SOL     OW64940   4.933   2.387   0.275
21639SOL    HW164941   4.946   2.303   0.329
21639SOL    HW264942   4.904   2.461   0.335
21640SOL     OW64943   4.031   2.075   1.231
21640SOL    HW164944   4.008   2.112   1.321
21640SOL    HW264945   4.001   1.980   1.225
21641SOL     OW64946   3.761   3.172   1.282
21641SOL    HW164947   3.814   3.123   1.350
21641SOL    HW264948   3.783   3.270   1.287
21642SOL     OW64949   4.456   2.496   1.064
21642SOL    HW164950   4.515   2.470   0.988
21642SOL    HW264951   4.428   2.592   1.053
21643SOL     OW64952   5.452   2.797   1.854
21643SOL    HW164953   5.406   2.790   1.765
21643SOL    HW264954   5.390   2.841   1.920
21644SOL     OW64955   4.031   1.925   0.618
21644SOL    HW164956   4.020   2.019   0.651
21644SOL    HW264957   4.026   1.862   0.695
21645SOL     OW64958   5.346   2.229   0.374
21645SOL    HW164959   5.348   2.153   0.438
21645SOL    HW264960   5.298   2.306   0.414
21646SOL     OW64961   4.747   2.628   0.966
21646SOL    HW164962   4.762   2.649   1.062
21646SOL    HW264963   4.717   2.533   0.957
21647SOL     OW64964   4.704   3.435   1.700
21647SOL    HW164965   4.684   3.479   1.612
21647SOL    HW264966   4.743   3.344   1.684
21648SOL     OW64967   5.583   3.380   1.605
21648SOL    HW164968   5.597   3.407   1.510
21648SOL    HW264969   5.666   3.402   1.658
21649SOL     OW64970   4.074   2.760   1.804
21649SOL    HW164971   4.150   2.804   1.852
21649SOL    HW264972   4.109   2.713   1.722
21650SOL     OW64973   5.264   2.136   0.125
21650SOL    HW164974   5.203   2.061   0.148
21650SOL    HW264975   5.286   2.188   0.208
21651SOL     OW64976   5.027   2.700   0.042
21651SOL    HW164977   5.061   2.607   0.057
21651SOL    HW264978   5.045   2.727  -0.053
21652SOL     OW64979   4.792   3.195   0.849
21652SOL    HW164980   4.799   3.111   0.794
21652SOL    HW264981   4.854   3.264   0.813
21653SOL     OW64982   4.043   2.672   0.949
21653SOL    HW164983   4.136   2.708   0.954
21653SOL    HW264984   4.037   2.587   1.001
21654SOL     OW64985   4.063   2.371   1.006
21654SOL    HW164986   4.011   2.288   0.989
21654SOL    HW264987   4.140   2.376   0.942
21655SOL     OW64988   4.862   2.242   1.678
21655SOL    HW164989   4.817   2.305   1.742
21655SOL    HW264990   4.955   2.273   1.661
21656SOL     OW64991   4.884   2.069   1.477
21656SOL    HW164992   4.884   2.133   1.554
21656SOL    HW264993   4.912   2.117   1.394
21657SOL     OW64994   3.732   3.188   0.200
21657SOL    HW164995   3.639   3.209   0.169
21657SOL    HW264996   3.742   3.089   0.213
21658SOL     OW64997   3.812   3.663   0.927
21658SOL    HW164998   3.770   3.577   0.900
21658SOL    HW264999   3.906   3.666   0.893
21659SOL     OW65000   4.228   3.430   0.910
21659SOL    HW165001   4.294   3.504   0.919
21659SOL    HW265002   4.272   3.351   0.868
21660SOL     OW65003   4.726   2.658   1.238
21660SOL    HW165004   4.767   2.626   1.324
21660SOL    HW265005   4.630   2.631   1.235
21661SOL     OW65006   3.764   2.406   1.114
21661SOL    HW165007   3.849   2.373   1.073
21661SOL    HW265008   3.777   2.421   1.212
21662SOL     OW65009   3.913   2.382   1.722
21662SOL    HW165010   3.972   2.342   1.652
21662SOL    HW265011   3.855   2.453   1.681
21663SOL     OW65012   5.093   2.812   1.660
21663SOL    HW165013   5.132   2.901   1.680
21663SOL    HW265014   5.103   2.792   1.563
21664SOL     OW65015   4.539   2.434   0.325
21664SOL    HW165016   4.546   2.345   0.279
21664SOL    HW265017   4.445   2.468   0.317
21665SOL     OW65018   5.381   2.466   1.206
21665SOL    HW165019   5.343   2.397   1.268
21665SOL    HW265020   5.463   2.430   1.162
21666SOL     OW65021   3.976   3.426   1.744
21666SOL    HW165022   3.946   3.483   1.820
21666SOL    HW265023   3.969   3.329   1.770
21667SOL     OW65024   4.395   2.326   1.269
21667SOL    HW165025   4.361   2.237   1.239
21667SOL    HW265026   4.421   2.380   1.189
21668SOL     OW65027   4.654   3.540   1.465
21668SOL    HW165028   4.630   3.522   1.370
21668SOL    HW265029   4.684   3.634   1.475
21669SOL     OW65030   4.197   2.362   0.191
21669SOL    HW165031   4.258   2.442   0.195
21669SOL    HW265032   4.102   2.393   0.198
21670SOL     OW65033   3.883   2.999   1.466
21670SOL    HW165034   3.905   2.938   1.542
21670SOL    HW265035   3.893   2.950   1.380
21671SOL     OW65036   5.071   2.921   1.234
21671SOL    HW165037   5.095   2.858   1.160
21671SOL    HW265038   4.981   2.961   1.216
21672SOL     OW65039   5.026   2.717   0.309
21672SOL    HW165040   4.940   2.686   0.351
21672SOL    HW265041   5.022   2.703   0.210
21673SOL     OW65042   5.483   3.609   1.154
21673SOL    HW165043   5.544   3.639   1.081
21673SOL    HW265044   5.445   3.520   1.132
21674SOL     OW65045   4.976   3.593   1.128
21674SOL    HW165046   5.060   3.598   1.074
21674SOL    HW265047   4.953   3.497   1.146
21675SOL     OW65048   3.807   3.120   1.022
21675SOL    HW165049   3.802   3.119   1.122
21675SOL    HW265050   3.724   3.079   0.984
21676SOL     OW65051   4.412   3.524   1.716
21676SOL    HW165052   4.356   3.605   1.725
21676SOL    HW265053   4.464   3.528   1.630
21677SOL     OW65054   4.627   1.948   0.133
21677SOL    HW165055   4.678   1.949   0.047
21677SOL    HW265056   4.683   1.906   0.204
21678SOL     OW65057   5.450   1.997   0.523
21678SOL    HW165058   5.523   1.980   0.456
21678SOL    HW265059   5.419   1.910   0.561
21679SOL     OW65060   5.112   3.435   0.477
21679SOL    HW165061   5.179   3.447   0.403
21679SOL    HW265062   5.072   3.524   0.500
21680SOL     OW65063   3.854   3.656   1.851
21680SOL    HW165064   3.813   3.582   1.904
21680SOL    HW265065   3.918   3.707   1.909
21681SOL     OW65066   5.004   2.789   0.672
21681SOL    HW165067   5.064   2.708   0.674
21681SOL    HW265068   5.044   2.858   0.612
21682SOL     OW65069   4.554   3.135   1.422
21682SOL    HW165070   4.549   3.168   1.517
21682SOL    HW265071   4.468   3.154   1.376
21683SOL     OW65072   4.396   3.478   0.154
21683SOL    HW165073   4.405   3.488   0.055
21683SOL    HW265074   4.356   3.389   0.175
21684SOL     OW65075   5.374   3.582   1.394
21684SOL    HW165076   5.427   3.592   1.310
21684SOL    HW265077   5.347   3.672   1.428
21685SOL     OW65078   5.565   2.037   0.963
21685SOL    HW165079   5.604   1.952   0.927
21685SOL    HW265080   5.467   2.039   0.944
21686SOL     OW65081   3.987   2.188   0.720
21686SOL    HW165082   3.908   2.239   0.686
21686SOL    HW265083   3.978   2.173   0.818
21687SOL     OW65084   4.918   3.474   0.031
21687SOL    HW165085   4.924   3.381   0.068
21687SOL    HW265086   4.859   3.474  -0.049
21688SOL     OW65087   4.546   2.864   1.372
21688SOL    HW165088   4.586   2.863   1.280
21688SOL    HW265089   4.556   2.956   1.412
21689SOL     OW65090   4.640   2.772   0.291
21689SOL    HW165091   4.703   2.810   0.223
21689SOL    HW265092   4.680   2.689   0.330
21690SOL     OW65093   5.228   3.469   0.044
21690SOL    HW165094   5.136   3.506   0.051
21690SOL    HW265095   5.266   3.489  -0.046
21691SOL     OW65096   4.096   3.150   1.490
21691SOL    HW165097   4.083   3.243   1.456
21691SOL    HW265098   4.012   3.098   1.477
21692SOL     OW65099   5.338   3.154   1.289
21692SOL    HW165100   5.398   3.157   1.369
21692SOL    HW265101   5.263   3.218   1.302
21693SOL     OW65102   4.763   2.960   0.696
21693SOL    HW165103   4.693   2.913   0.750
21693SOL    HW265104   4.822   2.892   0.653
21694SOL     OW65105   4.738   2.098   0.971
21694SOL    HW165106   4.730   2.062   0.878
21694SOL    HW265107   4.736   2.022   1.036
21695SOL     OW65108   4.314   3.349   0.491
21695SOL    HW165109   4.356   3.291   0.421
21695SOL    HW265110   4.270   3.428   0.447
21696SOL     OW65111   5.433   2.247   1.381
21696SOL    HW165112   5.506   2.316   1.385
21696SOL    HW265113   5.461   2.172   1.322
21697SOL     OW65114   3.979   3.210   0.290
21697SOL    HW165115   3.883   3.211   0.263
21697SOL    HW265116   3.991   3.263   0.374
21698SOL     OW65117   3.829   2.875   1.726
21698SOL    HW165118   3.752   2.842   1.780
21698SOL    HW265119   3.914   2.845   1.768
21699SOL     OW65120   4.396   2.065   1.489
21699SOL    HW165121   4.486   2.049   1.449
21699SOL    HW265122   4.404   2.070   1.588
21700SOL     OW65123   5.164   2.718   1.398
21700SOL    HW165124   5.107   2.770   1.335
21700SOL    HW265125   5.260   2.730   1.374
21701SOL     OW65126   3.796   2.028   0.318
21701SOL    HW165127   3.779   2.111   0.264
21701SOL    HW265128   3.886   1.991   0.296
21702SOL     OW65129   4.907   3.197   0.119
21702SOL    HW165130   4.808   3.186   0.121
21702SOL    HW265131   4.941   3.212   0.212
21703SOL     OW65132   4.337   2.704   1.431
21703SOL    HW165133   4.393   2.785   1.414
21703SOL    HW265134   4.396   2.624   1.434
21704SOL     OW65135   5.217   3.629   0.959
21704SOL    HW165136   5.250   3.693   0.890
21704SOL    HW265137   5.283   3.623   1.034
21705SOL     OW65138   4.440   2.427   1.708
21705SOL    HW165139   4.459   2.492   1.782
21705SOL    HW265140   4.500   2.347   1.717
21706SOL     OW65141   5.174   3.082   1.633
21706SOL    HW165142   5.165   3.072   1.732
21706SOL    HW265143   5.270   3.075   1.607
21707SOL     OW65144   4.114   3.603   1.560
21707SOL    HW165145   4.023   3.644   1.558
21707SOL    HW265146   4.107   3.509   1.592
21708SOL     OW65147   5.398   2.745   1.254
21708SOL    HW165148   5.371   2.656   1.217
21708SOL    HW265149   5.399   2.813   1.181
21709SOL     OW65150   4.949   2.187   0.449
21709SOL    HW165151   5.014   2.113   0.438
21709SOL    HW265152   4.969   2.237   0.533
21710SOL     OW65153   4.318   2.607   0.652
21710SOL    HW165154   4.368   2.692   0.633
21710SOL    HW265155   4.230   2.609   0.604
21711SOL     OW65156   5.501   2.204   1.642
21711SOL    HW165157   5.484   2.235   1.548
21711SOL    HW265158   5.417   2.167   1.680
21712SOL     OW65159   5.454   2.796   1.517
21712SOL    HW165160   5.492   2.887   1.532
21712SOL    HW265161   5.446   2.779   1.418
21713SOL     OW65162   4.583   3.236   0.016
21713SOL    HW165163   4.537   3.251   0.104
21713SOL    HW265164   4.627   3.321  -0.014
21714SOL     OW65165   4.385   3.652   0.953
21714SOL    HW165166   4.339   3.740   0.940
21714SOL    HW265167   4.484   3.664   0.946
21715SOL     OW65168   4.583   2.818   0.861
21715SOL    HW165169   4.637   2.749   0.909
21715SOL    HW265170   4.551   2.887   0.927
21716SOL     OW65171   4.807   2.846   0.087
21716SOL    HW165172   4.784   2.899   0.005
21716SOL    HW265173   4.888   2.790   0.068
21717SOL     OW65174   5.585   3.431   0.851
21717SOL    HW165175   5.514   3.419   0.781
21717SOL    HW265176   5.586   3.352   0.911
21718SOL     OW65177   3.945   3.176   1.844
21718SOL    HW165178   3.880   3.103   1.823
21718SOL    HW265179   3.949   3.190   1.942
21719SOL     OW65180   3.803   3.102   0.653
21719SOL    HW165181   3.802   3.055   0.741
21719SOL    HW265182   3.885   3.074   0.602
21720SOL     OW65183   4.396   3.253   1.624
21720SOL    HW165184   4.318   3.203   1.662
21720SOL    HW265185   4.393   3.348   1.655
21721SOL     OW65186   5.548   2.054   1.227
21721SOL    HW165187   5.544   1.964   1.271
21721SOL    HW265188   5.551   2.043   1.128
21722SOL     OW65189   4.152   2.286   0.520
21722SOL    HW165190   4.182   2.214   0.458
21722SOL    HW265191   4.113   2.246   0.603
21723SOL     OW65192   5.429   3.349   1.104
21723SOL    HW165193   5.336   3.324   1.077
21723SOL    HW265194   5.455   3.299   1.186
21724SOL     OW65195   4.041   2.409   1.280
21724SOL    HW165196   4.079   2.350   1.352
21724SOL    HW265197   4.081   2.383   1.192
21725SOL     OW65198   4.536   3.448   0.687
21725SOL    HW165199   4.568   3.458   0.593
21725SOL    HW265200   4.457   3.386   0.689
21726SOL     OW65201   5.148   2.076   1.112
21726SOL    HW165202   5.200   2.011   1.167
21726SOL    HW265203   5.099   2.139   1.173
21727SOL     OW65204   4.725   1.896   1.154
21727SOL    HW165205   4.662   1.824   1.123
21727SOL    HW265206   4.818   1.860   1.154
21728SOL     OW65207   4.494   3.192   0.301
21728SOL    HW165208   4.448   3.105   0.318
21728SOL    HW265209   4.585   3.189   0.342
21729SOL     OW65210   4.342   3.429   1.284
21729SOL    HW165211   4.337   3.511   1.341
21729SOL    HW265212   4.431   3.426   1.239
21730SOL     OW65213   5.076   1.914   0.168
21730SOL    HW165214   5.111   1.873   0.084
21730SOL    HW265215   4.986   1.876   0.188
21731SOL     OW65216   5.024   2.315   0.691
21731SOL    HW165217   4.965   2.395   0.695
21731SOL    HW265218   5.039   2.280   0.784
21732SOL     OW65219   5.317   2.083   0.882
21732SOL    HW165220   5.233   2.082   0.936
21732SOL    HW265221   5.319   2.166   0.826
21733SOL     OW65222   3.763   2.939   0.300
21733SOL    HW165223   3.862   2.928   0.291
21733SOL    HW265224   3.723   2.853   0.332
21734SOL     OW65225   4.599   3.508   0.337
21734SOL    HW165226   4.522   3.473   0.283
21734SOL    HW265227   4.567   3.579   0.399
21735SOL     OW65228   3.954   2.490   1.975
21735SOL    HW165229   3.861   2.488   2.012
21735SOL    HW265230   3.955   2.451   1.883
21736SOL     OW65231   3.949   2.137   2.858
21736SOL    HW165232   3.984   2.120   2.950
21736SOL    HW265233   3.861   2.092   2.846
21737SOL     OW65234   3.743   2.230   2.509
21737SOL    HW165235   3.661   2.273   2.548
21737SOL    HW265236   3.715   2.157   2.446
21738SOL     OW65237   4.293   3.137   3.027
21738SOL    HW165238   4.200   3.130   2.990
21738SOL    HW265239   4.304   3.226   3.071
21739SOL     OW65240   5.279   3.373   2.565
21739SOL    HW165241   5.222   3.357   2.646
21739SOL    HW265242   5.220   3.383   2.485
21740SOL     OW65243   4.859   2.565   2.579
21740SOL    HW165244   4.916   2.643   2.554
21740SOL    HW265245   4.799   2.591   2.655
21741SOL     OW65246   5.479   2.469   2.093
21741SOL    HW165247   5.467   2.456   1.994
21741SOL    HW265248   5.449   2.388   2.142
21742SOL     OW65249   4.492   3.006   2.885
21742SOL    HW165250   4.414   3.023   2.945
21742SOL    HW265251   4.526   3.093   2.849
21743SOL     OW65252   4.574   2.660   3.685
21743SOL    HW165253   4.570   2.736   3.750
21743SOL    HW265254   4.596   2.696   3.594
21744SOL     OW65255   4.409   2.874   2.527
21744SOL    HW165256   4.478   2.858   2.597
21744SOL    HW265257   4.336   2.931   2.565
21745SOL     OW65258   4.410   3.023   3.665
21745SOL    HW165259   4.470   3.102   3.679
21745SOL    HW265260   4.324   3.054   3.624
21746SOL     OW65261   4.059   3.297   2.923
21746SOL    HW165262   3.981   3.266   2.870
21746SOL    HW265263   4.117   3.355   2.866
21747SOL     OW65264   5.184   3.367   3.201
21747SOL    HW165265   5.208   3.461   3.227
21747SOL    HW265266   5.168   3.313   3.283
21748SOL     OW65267   4.162   2.254   3.361
21748SOL    HW165268   4.244   2.198   3.370
21748SOL    HW265269   4.081   2.196   3.365
21749SOL     OW65270   5.327   2.309   2.599
21749SOL    HW165271   5.253   2.355   2.549
21749SOL    HW265272   5.378   2.377   2.652
21750SOL     OW65273   3.955   3.575   2.345
21750SOL    HW165274   3.989   3.652   2.399
21750SOL    HW265275   3.999   3.575   2.255
21751SOL     OW65276   4.851   3.203   3.552
21751SOL    HW165277   4.898   3.203   3.640
21751SOL    HW265278   4.803   3.116   3.541
21752SOL     OW65279   3.954   3.296   2.400
21752SOL    HW165280   3.928   3.392   2.400
21752SOL    HW265281   3.883   3.242   2.445
21753SOL     OW65282   3.964   2.953   2.748
21753SOL    HW165283   3.978   2.869   2.800
21753SOL    HW265284   3.909   3.017   2.803
21754SOL     OW65285   4.344   3.648   3.301
21754SOL    HW165286   4.252   3.631   3.336
21754SOL    HW265287   4.372   3.740   3.327
21755SOL     OW65288   4.330   2.826   1.985
21755SOL    HW165289   4.337   2.910   1.931
21755SOL    HW265290   4.376   2.839   2.073
21756SOL     OW65291   5.318   1.976   3.342
21756SOL    HW165292   5.300   2.043   3.270
21756SOL    HW265293   5.315   2.022   3.431
21757SOL     OW65294   3.846   2.505   2.425
21757SOL    HW165295   3.801   2.417   2.442
21757SOL    HW265296   3.845   2.559   2.509
21758SOL     OW65297   5.566   3.629   2.221
21758SOL    HW165298   5.620   3.600   2.301
21758SOL    HW265299   5.596   3.719   2.192
21759SOL     OW65300   3.751   3.458   1.979
21759SOL    HW165301   3.732   3.362   2.000
21759SOL    HW265302   3.718   3.516   2.054
21760SOL     OW65303   5.413   2.784   2.474
21760SOL    HW165304   5.508   2.755   2.482
21760SOL    HW265305   5.405   2.849   2.399
21761SOL     OW65306   5.365   2.970   2.294
21761SOL    HW165307   5.451   2.972   2.242
21761SOL    HW265308   5.379   3.017   2.382
21762SOL     OW65309   3.837   2.599   3.459
21762SOL    HW165310   3.925   2.586   3.504
21762SOL    HW265311   3.824   2.696   3.437
21763SOL     OW65312   4.337   3.227   2.588
21763SOL    HW165313   4.288   3.140   2.597
21763SOL    HW265314   4.314   3.270   2.501
21764SOL     OW65315   5.017   3.090   3.285
21764SOL    HW165316   5.054   3.017   3.227
21764SOL    HW265317   5.069   3.095   3.370
21765SOL     OW65318   4.533   1.866   2.364
21765SOL    HW165319   4.573   1.957   2.355
21765SOL    HW265320   4.433   1.874   2.370
21766SOL     OW65321   3.921   2.838   3.126
21766SOL    HW165322   4.010   2.793   3.112
21766SOL    HW265323   3.848   2.773   3.107
21767SOL     OW65324   5.249   2.861   2.052
21767SOL    HW165325   5.186   2.785   2.065
21767SOL    HW265326   5.297   2.879   2.138
21768SOL     OW65327   4.911   3.654   3.478
21768SOL    HW165328   4.935   3.714   3.402
21768SOL    HW265329   4.918   3.559   3.448
21769SOL     OW65330   4.041   2.113   3.663
21769SOL    HW165331   4.112   2.184   3.669
21769SOL    HW265332   3.953   2.152   3.691
21770SOL     OW65333   5.190   3.279   2.815
21770SOL    HW165334   5.131   3.285   2.895
21770SOL    HW265335   5.175   3.191   2.769
21771SOL     OW65336   5.391   3.576   2.434
21771SOL    HW165337   5.350   3.553   2.346
21771SOL    HW265338   5.373   3.502   2.499
21772SOL     OW65339   4.322   2.591   2.132
21772SOL    HW165340   4.346   2.660   2.064
21772SOL    HW265341   4.244   2.624   2.186
21773SOL     OW65342   5.005   2.207   2.806
21773SOL    HW165343   4.919   2.157   2.793
21773SOL    HW265344   5.067   2.153   2.862
21774SOL     OW65345   5.300   3.524   2.169
21774SOL    HW165346   5.389   3.570   2.172
21774SOL    HW265347   5.279   3.500   2.074
21775SOL     OW65348   4.531   2.467   3.327
21775SOL    HW165349   4.484   2.464   3.416
21775SOL    HW265350   4.480   2.412   3.261
21776SOL     OW65351   5.118   2.331   3.536
21776SOL    HW165352   5.098   2.374   3.624
21776SOL    HW265353   5.196   2.269   3.545
21777SOL     OW65354   4.697   2.752   3.434
21777SOL    HW165355   4.743   2.668   3.405
21777SOL    HW265356   4.641   2.786   3.359
21778SOL     OW65357   4.715   2.272   3.104
21778SOL    HW165358   4.638   2.306   3.158
21778SOL    HW265359   4.681   2.221   3.025
21779SOL     OW65360   4.765   2.563   2.291
21779SOL    HW165361   4.791   2.559   2.387
21779SOL    HW265362   4.680   2.512   2.277
21780SOL     OW65363   3.800   2.673   2.651
21780SOL    HW165364   3.899   2.661   2.660
21780SOL    HW265365   3.776   2.768   2.672
21781SOL     OW65366   3.854   3.683   3.433
21781SOL    HW165367   3.844   3.668   3.532
21781SOL    HW265368   3.768   3.719   3.397
21782SOL     OW65369   4.589   2.210   2.057
21782SOL    HW165370   4.648   2.273   2.008
21782SOL    HW265371   4.608   2.116   2.028
21783SOL     OW65372   5.443   2.447   3.693
21783SOL    HW165373   5.417   2.536   3.657
21783SOL    HW265374   5.441   2.379   3.620
21784SOL     OW65375   5.086   3.006   2.407
21784SOL    HW165376   5.169   2.977   2.359
21784SOL    HW265377   5.037   3.073   2.351
21785SOL     OW65378   4.274   2.058   2.747
21785SOL    HW165379   4.269   2.053   2.847
21785SOL    HW265380   4.276   2.154   2.718
21786SOL     OW65381   4.732   3.318   2.339
21786SOL    HW165382   4.686   3.390   2.287
21786SOL    HW265383   4.728   3.338   2.437
21787SOL     OW65384   4.075   3.663   2.715
21787SOL    HW165385   4.125   3.577   2.721
21787SOL    HW265386   4.140   3.740   2.712
21788SOL     OW65387   5.519   2.928   2.735
21788SOL    HW165388   5.457   2.913   2.659
21788SOL    HW265389   5.467   2.939   2.820
21789SOL     OW65390   4.951   3.412   3.368
21789SOL    HW165391   4.957   3.335   3.432
21789SOL    HW265392   4.899   3.386   3.288
21790SOL     OW65393   4.045   2.805   2.104
21790SOL    HW165394   4.127   2.844   2.062
21790SOL    HW265395   4.018   2.723   2.055
21791SOL     OW65396   5.182   2.597   2.590
21791SOL    HW165397   5.177   2.532   2.665
21791SOL    HW265398   5.262   2.656   2.603
21792SOL     OW65399   4.185   3.128   3.589
21792SOL    HW165400   4.135   3.129   3.503
21792SOL    HW265401   4.122   3.110   3.665
21793SOL     OW65402   4.835   3.638   2.099
21793SOL    HW165403   4.775   3.576   2.149
21793SOL    HW265404   4.866   3.594   2.014
21794SOL     OW65405   3.926   2.147   3.360
21794SOL    HW165406   3.846   2.207   3.347
21794SOL    HW265407   3.916   2.098   3.446
21795SOL     OW65408   5.356   3.239   1.943
21795SOL    HW165409   5.324   3.333   1.933
21795SOL    HW265410   5.280   3.176   1.931
21796SOL     OW65411   4.188   3.605   2.185
21796SOL    HW165412   4.221   3.644   2.271
21796SOL    HW265413   4.264   3.598   2.120
21797SOL     OW65414   5.124   1.969   2.288
21797SOL    HW165415   5.100   1.932   2.198
21797SOL    HW265416   5.223   1.985   2.292
21798SOL     OW65417   3.973   3.647   3.103
21798SOL    HW165418   4.030   3.582   3.153
21798SOL    HW265419   3.957   3.614   3.010
21799SOL     OW65420   4.664   3.560   2.766
21799SOL    HW165421   4.744   3.503   2.787
21799SOL    HW265422   4.615   3.520   2.689
21800SOL     OW65423   4.106   2.562   2.342
21800SOL    HW165424   4.151   2.472   2.339
21800SOL    HW265425   4.012   2.551   2.375
21801SOL     OW65426   5.271   2.084   3.591
21801SOL    HW165427   5.266   2.121   3.683
21801SOL    HW265428   5.199   2.015   3.579
21802SOL     OW65429   4.338   1.984   1.979
21802SOL    HW165430   4.436   1.962   1.986
21802SOL    HW265431   4.307   1.967   1.886
21803SOL     OW65432   4.505   2.126   3.611
21803SOL    HW165433   4.572   2.065   3.654
21803SOL    HW265434   4.432   2.145   3.676
21804SOL     OW65435   4.612   3.376   3.057
21804SOL    HW165436   4.589   3.351   2.963
21804SOL    HW265437   4.673   3.307   3.096
21805SOL     OW65438   5.075   2.452   3.295
21805SOL    HW165439   5.103   2.409   3.380
21805SOL    HW265440   5.100   2.548   3.296
21806SOL     OW65441   4.527   3.264   2.786
21806SOL    HW165442   4.617   3.278   2.744
21806SOL    HW265443   4.456   3.266   2.715
21807SOL     OW65444   4.646   2.365   2.761
21807SOL    HW165445   4.621   2.356   2.665
21807SOL    HW265446   4.694   2.283   2.792
21808SOL     OW65447   4.263   1.926   2.374
21808SOL    HW165448   4.182   1.927   2.432
21808SOL    HW265449   4.266   2.009   2.319
21809SOL     OW65450   5.158   3.050   1.903
21809SOL    HW165451   5.190   2.974   1.960
21809SOL    HW265452   5.066   3.077   1.933
21810SOL     OW65453   4.021   1.897   2.033
21810SOL    HW165454   4.070   1.981   2.012
21810SOL    HW265455   4.083   1.832   2.078
21811SOL     OW65456   4.659   2.098   2.342
21811SOL    HW165457   4.611   2.139   2.264
21811SOL    HW265458   4.758   2.096   2.323
21812SOL     OW65459   4.800   2.545   3.326
21812SOL    HW165460   4.720   2.484   3.329
21812SOL    HW265461   4.881   2.492   3.302
21813SOL     OW65462   4.951   3.432   2.655
21813SOL    HW165463   4.972   3.506   2.590
21813SOL    HW265464   5.019   3.432   2.728
21814SOL     OW65465   4.183   3.014   2.603
21814SOL    HW165466   4.112   2.987   2.668
21814SOL    HW265467   4.157   2.986   2.510
21815SOL     OW65468   4.995   3.659   2.453
21815SOL    HW165469   5.039   3.723   2.389
21815SOL    HW265470   4.945   3.711   2.523
21816SOL     OW65471   4.756   2.411   1.878
21816SOL    HW165472   4.715   2.493   1.839
21816SOL    HW265473   4.820   2.437   1.951
21817SOL     OW65474   3.802   2.418   3.248
21817SOL    HW165475   3.894   2.417   3.207
21817SOL    HW265476   3.796   2.492   3.315
21818SOL     OW65477   4.285   2.084   3.009
21818SOL    HW165478   4.323   2.000   3.046
21818SOL    HW265479   4.197   2.103   3.053
21819SOL     OW65480   4.590   2.316   2.504
21819SOL    HW165481   4.558   2.388   2.442
21819SOL    HW265482   4.614   2.235   2.451
21820SOL     OW65483   4.741   1.901   2.615
21820SOL    HW165484   4.669   1.906   2.546
21820SOL    HW265485   4.717   1.832   2.684
21821SOL     OW65486   5.153   3.035   2.729
21821SOL    HW165487   5.098   2.951   2.722
21821SOL    HW265488   5.179   3.064   2.637
21822SOL     OW65489   5.190   2.452   2.854
21822SOL    HW165490   5.160   2.357   2.861
21822SOL    HW265491   5.263   2.468   2.920
21823SOL     OW65492   5.581   2.695   2.239
21823SOL    HW165493   5.623   2.631   2.303
21823SOL    HW265494   5.543   2.644   2.161
21824SOL     OW65495   4.212   3.247   2.036
21824SOL    HW165496   4.125   3.232   2.083
21824SOL    HW265497   4.195   3.273   1.941
21825SOL     OW65498   5.388   3.142   2.519
21825SOL    HW165499   5.487   3.150   2.533
21825SOL    HW265500   5.343   3.226   2.550
21826SOL     OW65501   5.114   2.437   1.940
21826SOL    HW165502   5.060   2.416   2.021
21826SOL    HW265503   5.205   2.396   1.949
21827SOL     OW65504   4.251   2.118   2.190
21827SOL    HW165505   4.278   2.059   2.115
21827SOL    HW265506   4.251   2.213   2.159
21828SOL     OW65507   5.478   3.085   3.450
21828SOL    HW165508   5.569   3.046   3.437
21828SOL    HW265509   5.486   3.181   3.474
21829SOL     OW65510   4.788   3.209   3.202
21829SOL    HW165511   4.708   3.186   3.257
21829SOL    HW265512   4.871   3.183   3.251
21830SOL     OW65513   5.316   3.491   3.487
21830SOL    HW165514   5.343   3.525   3.397
21830SOL    HW265515   5.395   3.453   3.533
21831SOL     OW65516   4.835   3.057   2.962
21831SOL    HW165517   4.795   3.101   3.043
21831SOL    HW265518   4.794   3.094   2.879
21832SOL     OW65519   5.362   2.961   2.941
21832SOL    HW165520   5.367   3.042   3.000
21832SOL    HW265521   5.276   2.963   2.890
21833SOL     OW65522   4.639   1.951   3.264
21833SOL    HW165523   4.664   1.931   3.169
21833SOL    HW265524   4.711   2.007   3.306
21834SOL     OW65525   4.704   2.978   3.581
21834SOL    HW165526   4.605   2.984   3.591
21834SOL    HW265527   4.727   2.898   3.525
21835SOL     OW65528   4.429   2.912   2.230
21835SOL    HW165529   4.415   2.919   2.329
21835SOL    HW265530   4.513   2.861   2.212
21836SOL     OW65531   4.134   2.675   3.113
21836SOL    HW165532   4.220   2.687   3.163
21836SOL    HW265533   4.092   2.588   3.140
21837SOL     OW65534   4.998   2.248   3.124
21837SOL    HW165535   5.019   2.322   3.188
21837SOL    HW265536   4.909   2.265   3.081
21838SOL     OW65537   3.788   3.426   3.193
21838SOL    HW165538   3.742   3.508   3.159
21838SOL    HW265539   3.886   3.445   3.202
21839SOL     OW65540   4.091   2.962   2.363
21839SOL    HW165541   4.084   3.045   2.307
21839SOL    HW265542   4.095   2.882   2.303
21840SOL     OW65543   4.290   2.399   2.727
21840SOL    HW165544   4.302   2.465   2.653
21840SOL    HW265545   4.336   2.433   2.810
21841SOL     OW65546   4.976   3.210   2.250
21841SOL    HW165547   5.026   3.287   2.290
21841SOL    HW265548   4.881   3.212   2.282
21842SOL     OW65549   4.996   3.307   3.004
21842SOL    HW165550   5.043   3.320   3.091
21842SOL    HW265551   4.930   3.233   3.013
21843SOL     OW65552   5.306   2.501   2.334
21843SOL    HW165553   5.275   2.562   2.407
21843SOL    HW265554   5.356   2.553   2.265
21844SOL     OW65555   4.078   3.372   3.191
21844SOL    HW165556   4.057   3.328   3.104
21844SOL    HW265557   4.175   3.398   3.194
21845SOL     OW65558   4.126   2.613   3.460
21845SOL    HW165559   4.194   2.668   3.413
21845SOL    HW265560   4.166   2.525   3.487
21846SOL     OW65561   5.311   2.641   3.532
21846SOL    HW165562   5.219   2.679   3.527
21846SOL    HW265563   5.371   2.688   3.467
21847SOL     OW65564   4.737   1.967   3.632
21847SOL    HW165565   4.743   2.052   3.580
21847SOL    HW265566   4.769   1.891   3.575
21848SOL     OW65567   4.228   1.912   3.602
21848SOL    HW165568   4.186   1.855   3.532
21848SOL    HW265569   4.162   1.981   3.634
21849SOL     OW65570   4.297   2.732   2.891
21849SOL    HW165571   4.341   2.821   2.882
21849SOL    HW265572   4.234   2.732   2.968
21850SOL     OW65573   5.084   2.724   2.907
21850SOL    HW165574   5.009   2.724   2.841
21850SOL    HW265575   5.121   2.632   2.916
21851SOL     OW65576   4.933   2.387   2.137
21851SOL    HW165577   4.946   2.303   2.191
21851SOL    HW265578   4.904   2.461   2.197
21852SOL     OW65579   4.031   2.075   3.093
21852SOL    HW165580   4.008   2.112   3.183
21852SOL    HW265581   4.001   1.980   3.087
21853SOL     OW65582   3.761   3.172   3.144
21853SOL    HW165583   3.814   3.123   3.212
21853SOL    HW265584   3.783   3.270   3.149
21854SOL     OW65585   4.456   2.496   2.926
21854SOL    HW165586   4.515   2.470   2.850
21854SOL    HW265587   4.428   2.592   2.915
21855SOL     OW65588   5.452   2.797   3.716
21855SOL    HW165589   5.406   2.790   3.627
21855SOL    HW265590   5.390   2.841   3.782
21856SOL     OW65591   4.031   1.925   2.480
21856SOL    HW165592   4.020   2.019   2.513
21856SOL    HW265593   4.026   1.862   2.557
21857SOL     OW65594   5.346   2.229   2.236
21857SOL    HW165595   5.348   2.153   2.300
21857SOL    HW265596   5.298   2.306   2.276
21858SOL     OW65597   4.747   2.628   2.828
21858SOL    HW165598   4.762   2.649   2.924
21858SOL    HW265599   4.717   2.533   2.819
21859SOL     OW65600   4.704   3.435   3.562
21859SOL    HW165601   4.684   3.479   3.474
21859SOL    HW265602   4.743   3.344   3.546
21860SOL     OW65603   5.583   3.380   3.467
21860SOL    HW165604   5.597   3.407   3.372
21860SOL    HW265605   5.666   3.402   3.520
21861SOL     OW65606   4.074   2.760   3.666
21861SOL    HW165607   4.150   2.804   3.714
21861SOL    HW265608   4.109   2.713   3.584
21862SOL     OW65609   5.264   2.136   1.987
21862SOL    HW165610   5.203   2.061   2.010
21862SOL    HW265611   5.286   2.188   2.070
21863SOL     OW65612   5.027   2.700   1.904
21863SOL    HW165613   5.061   2.607   1.919
21863SOL    HW265614   5.045   2.727   1.809
21864SOL     OW65615   4.792   3.195   2.711
21864SOL    HW165616   4.799   3.111   2.656
21864SOL    HW265617   4.854   3.264   2.675
21865SOL     OW65618   4.043   2.672   2.811
21865SOL    HW165619   4.136   2.708   2.816
21865SOL    HW265620   4.037   2.587   2.863
21866SOL     OW65621   4.063   2.371   2.868
21866SOL    HW165622   4.011   2.288   2.851
21866SOL    HW265623   4.140   2.376   2.804
21867SOL     OW65624   4.862   2.242   3.540
21867SOL    HW165625   4.817   2.305   3.604
21867SOL    HW265626   4.955   2.273   3.523
21868SOL     OW65627   4.884   2.069   3.339
21868SOL    HW165628   4.884   2.133   3.416
21868SOL    HW265629   4.912   2.117   3.256
21869SOL     OW65630   3.732   3.188   2.062
21869SOL    HW165631   3.639   3.209   2.031
21869SOL    HW265632   3.742   3.089   2.075
21870SOL     OW65633   3.812   3.663   2.789
21870SOL    HW165634   3.770   3.577   2.762
21870SOL    HW265635   3.906   3.666   2.755
21871SOL     OW65636   4.228   3.430   2.772
21871SOL    HW165637   4.294   3.504   2.781
21871SOL    HW265638   4.272   3.351   2.730
21872SOL     OW65639   4.726   2.658   3.100
21872SOL    HW165640   4.767   2.626   3.186
21872SOL    HW265641   4.630   2.631   3.097
21873SOL     OW65642   3.764   2.406   2.976
21873SOL    HW165643   3.849   2.373   2.935
21873SOL    HW265644   3.777   2.421   3.074
21874SOL     OW65645   3.913   2.382   3.584
21874SOL    HW165646   3.972   2.342   3.514
21874SOL    HW265647   3.855   2.453   3.543
21875SOL     OW65648   5.093   2.812   3.522
21875SOL    HW165649   5.132   2.901   3.542
21875SOL    HW265650   5.103   2.792   3.425
21876SOL     OW65651   4.539   2.434   2.187
21876SOL    HW165652   4.546   2.345   2.141
21876SOL    HW265653   4.445   2.468   2.179
21877SOL     OW65654   5.381   2.466   3.068
21877SOL    HW165655   5.343   2.397   3.130
21877SOL    HW265656   5.463   2.430   3.024
21878SOL     OW65657   3.976   3.426   3.606
21878SOL    HW165658   3.946   3.483   3.682
21878SOL    HW265659   3.969   3.329   3.632
21879SOL     OW65660   4.395   2.326   3.131
21879SOL    HW165661   4.361   2.237   3.101
21879SOL    HW265662   4.421   2.380   3.051
21880SOL     OW65663   4.654   3.540   3.327
21880SOL    HW165664   4.630   3.522   3.232
21880SOL    HW265665   4.684   3.634   3.337
21881SOL     OW65666   4.197   2.362   2.053
21881SOL    HW165667   4.258   2.442   2.057
21881SOL    HW265668   4.102   2.393   2.060
21882SOL     OW65669   3.883   2.999   3.328
21882SOL    HW165670   3.905   2.938   3.404
21882SOL    HW265671   3.893   2.950   3.242
21883SOL     OW65672   5.071   2.921   3.096
21883SOL    HW165673   5.095   2.858   3.022
21883SOL    HW265674   4.981   2.961   3.078
21884SOL     OW65675   5.026   2.717   2.171
21884SOL    HW165676   4.940   2.686   2.213
21884SOL    HW265677   5.022   2.703   2.072
21885SOL     OW65678   5.483   3.609   3.016
21885SOL    HW165679   5.544   3.639   2.943
21885SOL    HW265680   5.445   3.520   2.994
21886SOL     OW65681   4.976   3.593   2.990
21886SOL    HW165682   5.060   3.598   2.936
21886SOL    HW265683   4.953   3.497   3.008
21887SOL     OW65684   3.807   3.120   2.884
21887SOL    HW165685   3.802   3.119   2.984
21887SOL    HW265686   3.724   3.079   2.846
21888SOL     OW65687   4.412   3.524   3.578
21888SOL    HW165688   4.356   3.605   3.587
21888SOL    HW265689   4.464   3.528   3.492
21889SOL     OW65690   5.450   1.997   2.385
21889SOL    HW165691   5.523   1.980   2.318
21889SOL    HW265692   5.419   1.910   2.423
21890SOL     OW65693   5.112   3.435   2.339
21890SOL    HW165694   5.179   3.447   2.265
21890SOL    HW265695   5.072   3.524   2.362
21891SOL     OW65696   3.854   3.656   3.713
21891SOL    HW165697   3.813   3.582   3.766
21891SOL    HW265698   3.918   3.707   3.771
21892SOL     OW65699   5.004   2.789   2.534
21892SOL    HW165700   5.064   2.708   2.536
21892SOL    HW265701   5.044   2.858   2.474
21893SOL     OW65702   4.554   3.135   3.284
21893SOL    HW165703   4.549   3.168   3.379
21893SOL    HW265704   4.468   3.154   3.238
21894SOL     OW65705   4.396   3.478   2.016
21894SOL    HW165706   4.405   3.488   1.917
21894SOL    HW265707   4.356   3.389   2.037
21895SOL     OW65708   5.374   3.582   3.256
21895SOL    HW165709   5.427   3.592   3.172
21895SOL    HW265710   5.347   3.672   3.290
21896SOL     OW65711   5.565   2.037   2.825
21896SOL    HW165712   5.604   1.952   2.789
21896SOL    HW265713   5.467   2.039   2.806
21897SOL     OW65714   3.987   2.188   2.582
21897SOL    HW165715   3.908   2.239   2.548
21897SOL    HW265716   3.978   2.173   2.680
21898SOL     OW65717   4.918   3.474   1.893
21898SOL    HW165718   4.924   3.381   1.930
21898SOL    HW265719   4.859   3.474   1.813
21899SOL     OW65720   4.546   2.864   3.234
21899SOL    HW165721   4.586   2.863   3.142
21899SOL    HW265722   4.556   2.956   3.274
21900SOL     OW65723   4.640   2.772   2.153
21900SOL    HW165724   4.703   2.810   2.085
21900SOL    HW265725   4.680   2.689   2.192
21901SOL     OW65726   5.228   3.469   1.906
21901SOL    HW165727   5.136   3.506   1.913
21901SOL    HW265728   5.266   3.489   1.816
21902SOL     OW65729   4.096   3.150   3.352
21902SOL    HW165730   4.083   3.243   3.318
21902SOL    HW265731   4.012   3.098   3.339
21903SOL     OW65732   5.338   3.154   3.151
21903SOL    HW165733   5.398   3.157   3.231
21903SOL    HW265734   5.263   3.218   3.164
21904SOL     OW65735   4.763   2.960   2.558
21904SOL    HW165736   4.693   2.913   2.612
21904SOL    HW265737   4.822   2.892   2.515
21905SOL     OW65738   4.738   2.098   2.833
21905SOL    HW165739   4.730   2.062   2.740
21905SOL    HW265740   4.736   2.022   2.898
21906SOL     OW65741   4.314   3.349   2.353
21906SOL    HW165742   4.356   3.291   2.283
21906SOL    HW265743   4.270   3.428   2.309
21907SOL     OW65744   5.433   2.247   3.243
21907SOL    HW165745   5.506   2.316   3.247
21907SOL    HW265746   5.461   2.172   3.184
21908SOL     OW65747   3.979   3.210   2.152
21908SOL    HW165748   3.883   3.211   2.125
21908SOL    HW265749   3.991   3.263   2.236
21909SOL     OW65750   3.829   2.875   3.588
21909SOL    HW165751   3.752   2.842   3.642
21909SOL    HW265752   3.914   2.845   3.630
21910SOL     OW65753   4.396   2.065   3.351
21910SOL    HW165754   4.486   2.049   3.311
21910SOL    HW265755   4.404   2.070   3.450
21911SOL     OW65756   3.799   2.207   1.895
21911SOL    HW165757   3.707   2.179   1.866
21911SOL    HW265758   3.830   2.284   1.839
21912SOL     OW65759   5.164   2.718   3.260
21912SOL    HW165760   5.107   2.770   3.197
21912SOL    HW265761   5.260   2.730   3.236
21913SOL     OW65762   3.796   2.028   2.180
21913SOL    HW165763   3.779   2.111   2.126
21913SOL    HW265764   3.886   1.991   2.158
21914SOL     OW65765   4.907   3.197   1.981
21914SOL    HW165766   4.808   3.186   1.983
21914SOL    HW265767   4.941   3.212   2.074
21915SOL     OW65768   4.337   2.704   3.293
21915SOL    HW165769   4.393   2.785   3.276
21915SOL    HW265770   4.396   2.624   3.296
21916SOL     OW65771   5.217   3.629   2.821
21916SOL    HW165772   5.250   3.693   2.752
21916SOL    HW265773   5.283   3.623   2.896
21917SOL     OW65774   4.440   2.427   3.570
21917SOL    HW165775   4.459   2.492   3.644
21917SOL    HW265776   4.500   2.347   3.579
21918SOL     OW65777   5.174   3.082   3.495
21918SOL    HW165778   5.165   3.072   3.594
21918SOL    HW265779   5.270   3.075   3.469
21919SOL     OW65780   4.114   3.603   3.422
21919SOL    HW165781   4.023   3.644   3.420
21919SOL    HW265782   4.107   3.509   3.454
21920SOL     OW65783   5.398   2.745   3.116
21920SOL    HW165784   5.371   2.656   3.079
21920SOL    HW265785   5.399   2.813   3.043
21921SOL     OW65786   4.949   2.187   2.311
21921SOL    HW165787   5.014   2.113   2.300
21921SOL    HW265788   4.969   2.237   2.395
21922SOL     OW65789   4.318   2.607   2.514
21922SOL    HW165790   4.368   2.692   2.495
21922SOL    HW265791   4.230   2.609   2.466
21923SOL     OW65792   5.501   2.204   3.504
21923SOL    HW165793   5.484   2.235   3.410
21923SOL    HW265794   5.417   2.167   3.542
21924SOL     OW65795   5.454   2.796   3.379
21924SOL    HW165796   5.492   2.887   3.394
21924SOL    HW265797   5.446   2.779   3.280
21925SOL     OW65798   4.583   3.236   1.878
21925SOL    HW165799   4.537   3.251   1.966
21925SOL    HW265800   4.627   3.321   1.848
21926SOL     OW65801   4.385   3.652   2.815
21926SOL    HW165802   4.339   3.740   2.802
21926SOL    HW265803   4.484   3.664   2.808
21927SOL     OW65804   4.583   2.818   2.723
21927SOL    HW165805   4.637   2.749   2.771
21927SOL    HW265806   4.551   2.887   2.789
21928SOL     OW65807   4.807   2.846   1.949
21928SOL    HW165808   4.784   2.899   1.867
21928SOL    HW265809   4.888   2.790   1.930
21929SOL     OW65810   5.585   3.431   2.713
21929SOL    HW165811   5.514   3.419   2.643
21929SOL    HW265812   5.586   3.352   2.773
21930SOL     OW65813   3.945   3.176   3.706
21930SOL    HW165814   3.880   3.103   3.685
21930SOL    HW265815   3.949   3.190   3.804
21931SOL     OW65816   3.803   3.102   2.515
21931SOL    HW165817   3.802   3.055   2.603
21931SOL    HW265818   3.885   3.074   2.464
21932SOL     OW65819   4.396   3.253   3.486
21932SOL    HW165820   4.318   3.203   3.524
21932SOL    HW265821   4.393   3.348   3.517
21933SOL     OW65822   5.548   2.054   3.089
21933SOL    HW165823   5.544   1.964   3.133
21933SOL    HW265824   5.551   2.043   2.990
21934SOL     OW65825   4.152   2.286   2.382
21934SOL    HW165826   4.182   2.214   2.320
21934SOL    HW265827   4.113   2.246   2.465
21935SOL     OW65828   5.429   3.349   2.966
21935SOL    HW165829   5.336   3.324   2.939
21935SOL    HW265830   5.455   3.299   3.048
21936SOL     OW65831   4.041   2.409   3.142
21936SOL    HW165832   4.079   2.350   3.214
21936SOL    HW265833   4.081   2.383   3.054
21937SOL     OW65834   4.536   3.448   2.549
21937SOL    HW165835   4.568   3.458   2.455
21937SOL    HW265836   4.457   3.386   2.551
21938SOL     OW65837   5.148   2.076   2.974
21938SOL    HW165838   5.200   2.011   3.029
21938SOL    HW265839   5.099   2.139   3.035
21939SOL     OW65840   4.725   1.896   3.016
21939SOL    HW165841   4.662   1.824   2.985
21939SOL    HW265842   4.818   1.860   3.016
21940SOL     OW65843   4.494   3.192   2.163
21940SOL    HW165844   4.448   3.105   2.180
21940SOL    HW265845   4.585   3.189   2.204
21941SOL     OW65846   4.342   3.429   3.146
21941SOL    HW165847   4.337   3.511   3.203
21941SOL    HW265848   4.431   3.426   3.101
21942SOL     OW65849   5.076   1.914   2.030
21942SOL    HW165850   5.111   1.873   1.946
21942SOL    HW265851   4.986   1.876   2.050
21943SOL     OW65852   5.024   2.315   2.553
21943SOL    HW165853   4.965   2.395   2.557
21943SOL    HW265854   5.039   2.280   2.646
21944SOL     OW65855   5.317   2.083   2.744
21944SOL    HW165856   5.233   2.082   2.798
21944SOL    HW265857   5.319   2.166   2.688
21945SOL     OW65858   3.763   2.939   2.162
21945SOL    HW165859   3.862   2.928   2.153
21945SOL    HW265860   3.723   2.853   2.194
21946SOL     OW65861   4.599   3.508   2.199
21946SOL    HW165862   4.522   3.473   2.145
21946SOL    HW265863   4.567   3.579   2.261
21947SOL     OW65864   3.954   2.490   3.837
21947SOL    HW165865   3.861   2.488   3.874
21947SOL    HW265866   3.955   2.451   3.745
21948SOL     OW65867   3.949   2.137   4.720
21948SOL    HW165868   3.984   2.120   4.812
21948SOL    HW265869   3.861   2.092   4.708
21949SOL     OW65870   3.743   2.230   4.371
21949SOL    HW165871   3.661   2.273   4.410
21949SOL    HW265872   3.715   2.157   4.308
21950SOL     OW65873   4.293   3.137   4.889
21950SOL    HW165874   4.200   3.130   4.852
21950SOL    HW265875   4.304   3.226   4.933
21951SOL     OW65876   5.279   3.373   4.427
21951SOL    HW165877   5.222   3.357   4.508
21951SOL    HW265878   5.220   3.383   4.347
21952SOL     OW65879   4.859   2.565   4.441
21952SOL    HW165880   4.916   2.643   4.416
21952SOL    HW265881   4.799   2.591   4.517
21953SOL     OW65882   5.479   2.469   3.955
21953SOL    HW165883   5.467   2.456   3.856
21953SOL    HW265884   5.449   2.388   4.004
21954SOL     OW65885   4.492   3.006   4.747
21954SOL    HW165886   4.414   3.023   4.807
21954SOL    HW265887   4.526   3.093   4.711
21955SOL     OW65888   4.574   2.660   5.547
21955SOL    HW165889   4.570   2.736   5.612
21955SOL    HW265890   4.596   2.696   5.456
21956SOL     OW65891   4.409   2.874   4.389
21956SOL    HW165892   4.478   2.858   4.459
21956SOL    HW265893   4.336   2.931   4.427
21957SOL     OW65894   4.410   3.023   5.527
21957SOL    HW165895   4.470   3.102   5.541
21957SOL    HW265896   4.324   3.054   5.486
21958SOL     OW65897   4.059   3.297   4.785
21958SOL    HW165898   3.981   3.266   4.732
21958SOL    HW265899   4.117   3.355   4.728
21959SOL     OW65900   5.184   3.367   5.063
21959SOL    HW165901   5.208   3.461   5.089
21959SOL    HW265902   5.168   3.313   5.145
21960SOL     OW65903   4.162   2.254   5.223
21960SOL    HW165904   4.244   2.198   5.232
21960SOL    HW265905   4.081   2.196   5.227
21961SOL     OW65906   5.327   2.309   4.461
21961SOL    HW165907   5.253   2.355   4.411
21961SOL    HW265908   5.378   2.377   4.514
21962SOL     OW65909   3.955   3.575   4.207
21962SOL    HW165910   3.989   3.652   4.261
21962SOL    HW265911   3.999   3.575   4.117
21963SOL     OW65912   4.851   3.203   5.414
21963SOL    HW165913   4.898   3.203   5.502
21963SOL    HW265914   4.803   3.116   5.403
21964SOL     OW65915   3.954   3.296   4.262
21964SOL    HW165916   3.928   3.392   4.262
21964SOL    HW265917   3.883   3.242   4.307
21965SOL     OW65918   3.964   2.953   4.610
21965SOL    HW165919   3.978   2.869   4.662
21965SOL    HW265920   3.909   3.017   4.665
21966SOL     OW65921   4.344   3.648   5.163
21966SOL    HW165922   4.252   3.631   5.198
21966SOL    HW265923   4.372   3.740   5.189
21967SOL     OW65924   4.330   2.826   3.847
21967SOL    HW165925   4.337   2.910   3.793
21967SOL    HW265926   4.376   2.839   3.935
21968SOL     OW65927   5.318   1.976   5.204
21968SOL    HW165928   5.300   2.043   5.132
21968SOL    HW265929   5.315   2.022   5.293
21969SOL     OW65930   3.846   2.505   4.287
21969SOL    HW165931   3.801   2.417   4.304
21969SOL    HW265932   3.845   2.559   4.371
21970SOL     OW65933   5.566   3.629   4.083
21970SOL    HW165934   5.620   3.600   4.163
21970SOL    HW265935   5.596   3.719   4.054
21971SOL     OW65936   3.751   3.458   3.841
21971SOL    HW165937   3.732   3.362   3.862
21971SOL    HW265938   3.718   3.516   3.916
21972SOL     OW65939   5.413   2.784   4.336
21972SOL    HW165940   5.508   2.755   4.344
21972SOL    HW265941   5.405   2.849   4.261
21973SOL     OW65942   5.365   2.970   4.156
21973SOL    HW165943   5.451   2.972   4.104
21973SOL    HW265944   5.379   3.017   4.244
21974SOL     OW65945   3.837   2.599   5.321
21974SOL    HW165946   3.925   2.586   5.366
21974SOL    HW265947   3.824   2.696   5.299
21975SOL     OW65948   4.337   3.227   4.450
21975SOL    HW165949   4.288   3.140   4.459
21975SOL    HW265950   4.314   3.270   4.363
21976SOL     OW65951   5.017   3.090   5.147
21976SOL    HW165952   5.054   3.017   5.089
21976SOL    HW265953   5.069   3.095   5.232
21977SOL     OW65954   4.533   1.866   4.226
21977SOL    HW165955   4.573   1.957   4.217
21977SOL    HW265956   4.433   1.874   4.232
21978SOL     OW65957   3.921   2.838   4.988
21978SOL    HW165958   4.010   2.793   4.974
21978SOL    HW265959   3.848   2.773   4.969
21979SOL     OW65960   5.249   2.861   3.914
21979SOL    HW165961   5.186   2.785   3.927
21979SOL    HW265962   5.297   2.879   4.000
21980SOL     OW65963   4.911   3.654   5.340
21980SOL    HW165964   4.935   3.714   5.264
21980SOL    HW265965   4.918   3.559   5.310
21981SOL     OW65966   4.041   2.113   5.525
21981SOL    HW165967   4.112   2.184   5.531
21981SOL    HW265968   3.953   2.152   5.553
21982SOL     OW65969   5.190   3.279   4.677
21982SOL    HW165970   5.131   3.285   4.757
21982SOL    HW265971   5.175   3.191   4.631
21983SOL     OW65972   5.391   3.576   4.296
21983SOL    HW165973   5.350   3.553   4.208
21983SOL    HW265974   5.373   3.502   4.361
21984SOL     OW65975   4.322   2.591   3.994
21984SOL    HW165976   4.346   2.660   3.926
21984SOL    HW265977   4.244   2.624   4.048
21985SOL     OW65978   5.005   2.207   4.668
21985SOL    HW165979   4.919   2.157   4.655
21985SOL    HW265980   5.067   2.153   4.724
21986SOL     OW65981   5.300   3.524   4.031
21986SOL    HW165982   5.389   3.570   4.034
21986SOL    HW265983   5.279   3.500   3.936
21987SOL     OW65984   4.531   2.467   5.189
21987SOL    HW165985   4.484   2.464   5.278
21987SOL    HW265986   4.480   2.412   5.123
21988SOL     OW65987   5.118   2.331   5.398
21988SOL    HW165988   5.098   2.374   5.486
21988SOL    HW265989   5.196   2.269   5.407
21989SOL     OW65990   4.697   2.752   5.296
21989SOL    HW165991   4.743   2.668   5.267
21989SOL    HW265992   4.641   2.786   5.221
21990SOL     OW65993   4.715   2.272   4.966
21990SOL    HW165994   4.638   2.306   5.020
21990SOL    HW265995   4.681   2.221   4.887
21991SOL     OW65996   4.765   2.563   4.153
21991SOL    HW165997   4.791   2.559   4.249
21991SOL    HW265998   4.680   2.512   4.139
21992SOL     OW65999   3.800   2.673   4.513
21992SOL    HW166000   3.899   2.661   4.522
21992SOL    HW266001   3.776   2.768   4.534
21993SOL     OW66002   3.854   3.683   5.295
21993SOL    HW166003   3.844   3.668   5.394
21993SOL    HW266004   3.768   3.719   5.259
21994SOL     OW66005   4.589   2.210   3.919
21994SOL    HW166006   4.648   2.273   3.870
21994SOL    HW266007   4.608   2.116   3.890
21995SOL     OW66008   5.443   2.447   5.555
21995SOL    HW166009   5.417   2.536   5.519
21995SOL    HW266010   5.441   2.379   5.482
21996SOL     OW66011   5.086   3.006   4.269
21996SOL    HW166012   5.169   2.977   4.221
21996SOL    HW266013   5.037   3.073   4.213
21997SOL     OW66014   4.274   2.058   4.609
21997SOL    HW166015   4.269   2.053   4.709
21997SOL    HW266016   4.276   2.154   4.580
21998SOL     OW66017   4.732   3.318   4.201
21998SOL    HW166018   4.686   3.390   4.149
21998SOL    HW266019   4.728   3.338   4.299
21999SOL     OW66020   4.075   3.663   4.577
21999SOL    HW166021   4.125   3.577   4.583
21999SOL    HW266022   4.140   3.740   4.574
22000SOL     OW66023   5.519   2.928   4.597
22000SOL    HW166024   5.457   2.913   4.521
22000SOL    HW266025   5.467   2.939   4.682
22001SOL     OW66026   4.951   3.412   5.230
22001SOL    HW166027   4.957   3.335   5.294
22001SOL    HW266028   4.899   3.386   5.150
22002SOL     OW66029   4.045   2.805   3.966
22002SOL    HW166030   4.127   2.844   3.924
22002SOL    HW266031   4.018   2.723   3.917
22003SOL     OW66032   5.182   2.597   4.452
22003SOL    HW166033   5.177   2.532   4.527
22003SOL    HW266034   5.262   2.656   4.465
22004SOL     OW66035   4.185   3.128   5.451
22004SOL    HW166036   4.135   3.129   5.365
22004SOL    HW266037   4.122   3.110   5.527
22005SOL     OW66038   4.835   3.638   3.961
22005SOL    HW166039   4.775   3.576   4.011
22005SOL    HW266040   4.866   3.594   3.876
22006SOL     OW66041   3.926   2.147   5.222
22006SOL    HW166042   3.846   2.207   5.209
22006SOL    HW266043   3.916   2.098   5.308
22007SOL     OW66044   5.356   3.239   3.805
22007SOL    HW166045   5.324   3.333   3.795
22007SOL    HW266046   5.280   3.176   3.793
22008SOL     OW66047   4.188   3.605   4.047
22008SOL    HW166048   4.221   3.644   4.133
22008SOL    HW266049   4.264   3.598   3.982
22009SOL     OW66050   5.124   1.969   4.150
22009SOL    HW166051   5.100   1.932   4.060
22009SOL    HW266052   5.223   1.985   4.154
22010SOL     OW66053   3.973   3.647   4.965
22010SOL    HW166054   4.030   3.582   5.015
22010SOL    HW266055   3.957   3.614   4.872
22011SOL     OW66056   4.664   3.560   4.628
22011SOL    HW166057   4.744   3.503   4.649
22011SOL    HW266058   4.615   3.520   4.551
22012SOL     OW66059   4.106   2.562   4.204
22012SOL    HW166060   4.151   2.472   4.201
22012SOL    HW266061   4.012   2.551   4.237
22013SOL     OW66062   5.271   2.084   5.453
22013SOL    HW166063   5.266   2.121   5.545
22013SOL    HW266064   5.199   2.015   5.441
22014SOL     OW66065   4.338   1.984   3.841
22014SOL    HW166066   4.436   1.962   3.848
22014SOL    HW266067   4.307   1.967   3.748
22015SOL     OW66068   4.505   2.126   5.473
22015SOL    HW166069   4.572   2.065   5.516
22015SOL    HW266070   4.432   2.145   5.538
22016SOL     OW66071   4.612   3.376   4.919
22016SOL    HW166072   4.589   3.351   4.825
22016SOL    HW266073   4.673   3.307   4.958
22017SOL     OW66074   5.075   2.452   5.157
22017SOL    HW166075   5.103   2.409   5.242
22017SOL    HW266076   5.100   2.548   5.158
22018SOL     OW66077   4.527   3.264   4.648
22018SOL    HW166078   4.617   3.278   4.606
22018SOL    HW266079   4.456   3.266   4.577
22019SOL     OW66080   4.646   2.365   4.623
22019SOL    HW166081   4.621   2.356   4.527
22019SOL    HW266082   4.694   2.283   4.654
22020SOL     OW66083   4.263   1.926   4.236
22020SOL    HW166084   4.182   1.927   4.294
22020SOL    HW266085   4.266   2.009   4.181
22021SOL     OW66086   5.158   3.050   3.765
22021SOL    HW166087   5.190   2.974   3.822
22021SOL    HW266088   5.066   3.077   3.795
22022SOL     OW66089   4.021   1.897   3.895
22022SOL    HW166090   4.070   1.981   3.874
22022SOL    HW266091   4.083   1.832   3.940
22023SOL     OW66092   4.659   2.098   4.204
22023SOL    HW166093   4.611   2.139   4.126
22023SOL    HW266094   4.758   2.096   4.185
22024SOL     OW66095   4.800   2.545   5.188
22024SOL    HW166096   4.720   2.484   5.191
22024SOL    HW266097   4.881   2.492   5.164
22025SOL     OW66098   4.951   3.432   4.517
22025SOL    HW166099   4.972   3.506   4.452
22025SOL    HW266100   5.019   3.432   4.590
22026SOL     OW66101   4.183   3.014   4.465
22026SOL    HW166102   4.112   2.987   4.530
22026SOL    HW266103   4.157   2.986   4.372
22027SOL     OW66104   4.995   3.659   4.315
22027SOL    HW166105   5.039   3.723   4.251
22027SOL    HW266106   4.945   3.711   4.385
22028SOL     OW66107   4.756   2.411   3.740
22028SOL    HW166108   4.715   2.493   3.701
22028SOL    HW266109   4.820   2.437   3.813
22029SOL     OW66110   3.802   2.418   5.110
22029SOL    HW166111   3.894   2.417   5.069
22029SOL    HW266112   3.796   2.492   5.177
22030SOL     OW66113   4.285   2.084   4.871
22030SOL    HW166114   4.323   2.000   4.908
22030SOL    HW266115   4.197   2.103   4.915
22031SOL     OW66116   4.590   2.316   4.366
22031SOL    HW166117   4.558   2.388   4.304
22031SOL    HW266118   4.614   2.235   4.313
22032SOL     OW66119   4.741   1.901   4.477
22032SOL    HW166120   4.669   1.906   4.408
22032SOL    HW266121   4.717   1.832   4.546
22033SOL     OW66122   5.153   3.035   4.591
22033SOL    HW166123   5.098   2.951   4.584
22033SOL    HW266124   5.179   3.064   4.499
22034SOL     OW66125   5.190   2.452   4.716
22034SOL    HW166126   5.160   2.357   4.723
22034SOL    HW266127   5.263   2.468   4.782
22035SOL     OW66128   5.581   2.695   4.101
22035SOL    HW166129   5.623   2.631   4.165
22035SOL    HW266130   5.543   2.644   4.023
22036SOL     OW66131   4.212   3.247   3.898
22036SOL    HW166132   4.125   3.232   3.945
22036SOL    HW266133   4.195   3.273   3.803
22037SOL     OW66134   5.388   3.142   4.381
22037SOL    HW166135   5.487   3.150   4.395
22037SOL    HW266136   5.343   3.226   4.412
22038SOL     OW66137   5.114   2.437   3.802
22038SOL    HW166138   5.060   2.416   3.883
22038SOL    HW266139   5.205   2.396   3.811
22039SOL     OW66140   4.251   2.118   4.052
22039SOL    HW166141   4.278   2.059   3.977
22039SOL    HW266142   4.251   2.213   4.021
22040SOL     OW66143   5.478   3.085   5.312
22040SOL    HW166144   5.569   3.046   5.299
22040SOL    HW266145   5.486   3.181   5.336
22041SOL     OW66146   4.788   3.209   5.064
22041SOL    HW166147   4.708   3.186   5.119
22041SOL    HW266148   4.871   3.183   5.113
22042SOL     OW66149   5.316   3.491   5.349
22042SOL    HW166150   5.343   3.525   5.259
22042SOL    HW266151   5.395   3.453   5.395
22043SOL     OW66152   4.835   3.057   4.824
22043SOL    HW166153   4.795   3.101   4.905
22043SOL    HW266154   4.794   3.094   4.741
22044SOL     OW66155   5.362   2.961   4.803
22044SOL    HW166156   5.367   3.042   4.862
22044SOL    HW266157   5.276   2.963   4.752
22045SOL     OW66158   4.639   1.951   5.126
22045SOL    HW166159   4.664   1.931   5.031
22045SOL    HW266160   4.711   2.007   5.168
22046SOL     OW66161   4.704   2.978   5.443
22046SOL    HW166162   4.605   2.984   5.453
22046SOL    HW266163   4.727   2.898   5.387
22047SOL     OW66164   4.429   2.912   4.092
22047SOL    HW166165   4.415   2.919   4.191
22047SOL    HW266166   4.513   2.861   4.074
22048SOL     OW66167   4.134   2.675   4.975
22048SOL    HW166168   4.220   2.687   5.025
22048SOL    HW266169   4.092   2.588   5.002
22049SOL     OW66170   4.998   2.248   4.986
22049SOL    HW166171   5.019   2.322   5.050
22049SOL    HW266172   4.909   2.265   4.943
22050SOL     OW66173   3.788   3.426   5.055
22050SOL    HW166174   3.742   3.508   5.021
22050SOL    HW266175   3.886   3.445   5.064
22051SOL     OW66176   4.091   2.962   4.225
22051SOL    HW166177   4.084   3.045   4.169
22051SOL    HW266178   4.095   2.882   4.165
22052SOL     OW66179   4.290   2.399   4.589
22052SOL    HW166180   4.302   2.465   4.515
22052SOL    HW266181   4.336   2.433   4.672
22053SOL     OW66182   4.976   3.210   4.112
22053SOL    HW166183   5.026   3.287   4.152
22053SOL    HW266184   4.881   3.212   4.144
22054SOL     OW66185   4.996   3.307   4.866
22054SOL    HW166186   5.043   3.320   4.953
22054SOL    HW266187   4.930   3.233   4.875
22055SOL     OW66188   5.306   2.501   4.196
22055SOL    HW166189   5.275   2.562   4.269
22055SOL    HW266190   5.356   2.553   4.127
22056SOL     OW66191   4.078   3.372   5.053
22056SOL    HW166192   4.057   3.328   4.966
22056SOL    HW266193   4.175   3.398   5.056
22057SOL     OW66194   4.126   2.613   5.322
22057SOL    HW166195   4.194   2.668   5.275
22057SOL    HW266196   4.166   2.525   5.349
22058SOL     OW66197   5.311   2.641   5.394
22058SOL    HW166198   5.219   2.679   5.389
22058SOL    HW266199   5.371   2.688   5.329
22059SOL     OW66200   4.737   1.967   5.494
22059SOL    HW166201   4.743   2.052   5.442
22059SOL    HW266202   4.769   1.891   5.437
22060SOL     OW66203   4.228   1.912   5.464
22060SOL    HW166204   4.186   1.855   5.394
22060SOL    HW266205   4.162   1.981   5.496
22061SOL     OW66206   4.297   2.732   4.753
22061SOL    HW166207   4.341   2.821   4.744
22061SOL    HW266208   4.234   2.732   4.830
22062SOL     OW66209   5.084   2.724   4.769
22062SOL    HW166210   5.009   2.724   4.703
22062SOL    HW266211   5.121   2.632   4.778
22063SOL     OW66212   4.933   2.387   3.999
22063SOL    HW166213   4.946   2.303   4.053
22063SOL    HW266214   4.904   2.461   4.059
22064SOL     OW66215   4.031   2.075   4.955
22064SOL    HW166216   4.008   2.112   5.045
22064SOL    HW266217   4.001   1.980   4.949
22065SOL     OW66218   3.761   3.172   5.006
22065SOL    HW166219   3.814   3.123   5.074
22065SOL    HW266220   3.783   3.270   5.011
22066SOL     OW66221   4.456   2.496   4.788
22066SOL    HW166222   4.515   2.470   4.712
22066SOL    HW266223   4.428   2.592   4.777
22067SOL     OW66224   5.452   2.797   5.578
22067SOL    HW166225   5.406   2.790   5.489
22067SOL    HW266226   5.390   2.841   5.644
22068SOL     OW66227   4.031   1.925   4.342
22068SOL    HW166228   4.020   2.019   4.375
22068SOL    HW266229   4.026   1.862   4.419
22069SOL     OW66230   5.346   2.229   4.098
22069SOL    HW166231   5.348   2.153   4.162
22069SOL    HW266232   5.298   2.306   4.138
22070SOL     OW66233   4.747   2.628   4.690
22070SOL    HW166234   4.762   2.649   4.786
22070SOL    HW266235   4.717   2.533   4.681
22071SOL     OW66236   4.704   3.435   5.424
22071SOL    HW166237   4.684   3.479   5.336
22071SOL    HW266238   4.743   3.344   5.408
22072SOL     OW66239   5.583   3.380   5.329
22072SOL    HW166240   5.597   3.407   5.234
22072SOL    HW266241   5.666   3.402   5.382
22073SOL     OW66242   4.074   2.760   5.528
22073SOL    HW166243   4.150   2.804   5.576
22073SOL    HW266244   4.109   2.713   5.446
22074SOL     OW66245   5.264   2.136   3.849
22074SOL    HW166246   5.203   2.061   3.872
22074SOL    HW266247   5.286   2.188   3.932
22075SOL     OW66248   5.027   2.700   3.766
22075SOL    HW166249   5.061   2.607   3.781
22075SOL    HW266250   5.045   2.727   3.671
22076SOL     OW66251   4.792   3.195   4.573
22076SOL    HW166252   4.799   3.111   4.518
22076SOL    HW266253   4.854   3.264   4.537
22077SOL     OW66254   4.043   2.672   4.673
22077SOL    HW166255   4.136   2.708   4.678
22077SOL    HW266256   4.037   2.587   4.725
22078SOL     OW66257   4.063   2.371   4.730
22078SOL    HW166258   4.011   2.288   4.713
22078SOL    HW266259   4.140   2.376   4.666
22079SOL     OW66260   4.862   2.242   5.402
22079SOL    HW166261   4.817   2.305   5.466
22079SOL    HW266262   4.955   2.273   5.385
22080SOL     OW66263   4.884   2.069   5.201
22080SOL    HW166264   4.884   2.133   5.278
22080SOL    HW266265   4.912   2.117   5.118
22081SOL     OW66266   3.732   3.188   3.924
22081SOL    HW166267   3.639   3.209   3.893
22081SOL    HW266268   3.742   3.089   3.937
22082SOL     OW66269   3.812   3.663   4.651
22082SOL    HW166270   3.770   3.577   4.624
22082SOL    HW266271   3.906   3.666   4.617
22083SOL     OW66272   4.228   3.430   4.634
22083SOL    HW166273   4.294   3.504   4.643
22083SOL    HW266274   4.272   3.351   4.592
22084SOL     OW66275   4.726   2.658   4.962
22084SOL    HW166276   4.767   2.626   5.048
22084SOL    HW266277   4.630   2.631   4.959
22085SOL     OW66278   3.764   2.406   4.838
22085SOL    HW166279   3.849   2.373   4.797
22085SOL    HW266280   3.777   2.421   4.936
22086SOL     OW66281   3.913   2.382   5.446
22086SOL    HW166282   3.972   2.342   5.376
22086SOL    HW266283   3.855   2.453   5.405
22087SOL     OW66284   5.093   2.812   5.384
22087SOL    HW166285   5.132   2.901   5.404
22087SOL    HW266286   5.103   2.792   5.287
22088SOL     OW66287   4.539   2.434   4.049
22088SOL    HW166288   4.546   2.345   4.003
22088SOL    HW266289   4.445   2.468   4.041
22089SOL     OW66290   5.381   2.466   4.930
22089SOL    HW166291   5.343   2.397   4.992
22089SOL    HW266292   5.463   2.430   4.886
22090SOL     OW66293   3.976   3.426   5.468
22090SOL    HW166294   3.946   3.483   5.544
22090SOL    HW266295   3.969   3.329   5.494
22091SOL     OW66296   4.395   2.326   4.993
22091SOL    HW166297   4.361   2.237   4.963
22091SOL    HW266298   4.421   2.380   4.913
22092SOL     OW66299   4.654   3.540   5.189
22092SOL    HW166300   4.630   3.522   5.094
22092SOL    HW266301   4.684   3.634   5.199
22093SOL     OW66302   4.197   2.362   3.915
22093SOL    HW166303   4.258   2.442   3.919
22093SOL    HW266304   4.102   2.393   3.922
22094SOL     OW66305   3.883   2.999   5.190
22094SOL    HW166306   3.905   2.938   5.266
22094SOL    HW266307   3.893   2.950   5.104
22095SOL     OW66308   5.071   2.921   4.958
22095SOL    HW166309   5.095   2.858   4.884
22095SOL    HW266310   4.981   2.961   4.940
22096SOL     OW66311   5.026   2.717   4.033
22096SOL    HW166312   4.940   2.686   4.075
22096SOL    HW266313   5.022   2.703   3.934
22097SOL     OW66314   5.483   3.609   4.878
22097SOL    HW166315   5.544   3.639   4.805
22097SOL    HW266316   5.445   3.520   4.856
22098SOL     OW66317   4.976   3.593   4.852
22098SOL    HW166318   5.060   3.598   4.798
22098SOL    HW266319   4.953   3.497   4.870
22099SOL     OW66320   3.807   3.120   4.746
22099SOL    HW166321   3.802   3.119   4.846
22099SOL    HW266322   3.724   3.079   4.708
22100SOL     OW66323   4.412   3.524   5.440
22100SOL    HW166324   4.356   3.605   5.449
22100SOL    HW266325   4.464   3.528   5.354
22101SOL     OW66326   5.450   1.997   4.247
22101SOL    HW166327   5.523   1.980   4.180
22101SOL    HW266328   5.419   1.910   4.285
22102SOL     OW66329   5.112   3.435   4.201
22102SOL    HW166330   5.179   3.447   4.127
22102SOL    HW266331   5.072   3.524   4.224
22103SOL     OW66332   3.854   3.656   5.575
22103SOL    HW166333   3.813   3.582   5.628
22103SOL    HW266334   3.918   3.707   5.633
22104SOL     OW66335   5.004   2.789   4.396
22104SOL    HW166336   5.064   2.708   4.398
22104SOL    HW266337   5.044   2.858   4.336
22105SOL     OW66338   4.554   3.135   5.146
22105SOL    HW166339   4.549   3.168   5.241
22105SOL    HW266340   4.468   3.154   5.100
22106SOL     OW66341   4.396   3.478   3.878
22106SOL    HW166342   4.405   3.488   3.779
22106SOL    HW266343   4.356   3.389   3.899
22107SOL     OW66344   5.374   3.582   5.118
22107SOL    HW166345   5.427   3.592   5.034
22107SOL    HW266346   5.347   3.672   5.152
22108SOL     OW66347   5.565   2.037   4.687
22108SOL    HW166348   5.604   1.952   4.651
22108SOL    HW266349   5.467   2.039   4.668
22109SOL     OW66350   3.987   2.188   4.444
22109SOL    HW166351   3.908   2.239   4.410
22109SOL    HW266352   3.978   2.173   4.542
22110SOL     OW66353   4.918   3.474   3.755
22110SOL    HW166354   4.924   3.381   3.792
22110SOL    HW266355   4.859   3.474   3.675
22111SOL     OW66356   4.546   2.864   5.096
22111SOL    HW166357   4.586   2.863   5.004
22111SOL    HW266358   4.556   2.956   5.136
22112SOL     OW66359   4.640   2.772   4.015
22112SOL    HW166360   4.703   2.810   3.947
22112SOL    HW266361   4.680   2.689   4.054
22113SOL     OW66362   5.228   3.469   3.768
22113SOL    HW166363   5.136   3.506   3.775
22113SOL    HW266364   5.266   3.489   3.678
22114SOL     OW66365   4.096   3.150   5.214
22114SOL    HW166366   4.083   3.243   5.180
22114SOL    HW266367   4.012   3.098   5.201
22115SOL     OW66368   5.338   3.154   5.013
22115SOL    HW166369   5.398   3.157   5.093
22115SOL    HW266370   5.263   3.218   5.026
22116SOL     OW66371   4.763   2.960   4.420
22116SOL    HW166372   4.693   2.913   4.474
22116SOL    HW266373   4.822   2.892   4.377
22117SOL     OW66374   4.738   2.098   4.695
22117SOL    HW166375   4.730   2.062   4.602
22117SOL    HW266376   4.736   2.022   4.760
22118SOL     OW66377   4.314   3.349   4.215
22118SOL    HW166378   4.356   3.291   4.145
22118SOL    HW266379   4.270   3.428   4.171
22119SOL     OW66380   5.433   2.247   5.105
22119SOL    HW166381   5.506   2.316   5.109
22119SOL    HW266382   5.461   2.172   5.046
22120SOL     OW66383   3.979   3.210   4.014
22120SOL    HW166384   3.883   3.211   3.987
22120SOL    HW266385   3.991   3.263   4.098
22121SOL     OW66386   3.829   2.875   5.450
22121SOL    HW166387   3.752   2.842   5.504
22121SOL    HW266388   3.914   2.845   5.492
22122SOL     OW66389   4.396   2.065   5.213
22122SOL    HW166390   4.486   2.049   5.173
22122SOL    HW266391   4.404   2.070   5.312
22123SOL     OW66392   3.799   2.207   3.757
22123SOL    HW166393   3.707   2.179   3.728
22123SOL    HW266394   3.830   2.284   3.701
22124SOL     OW66395   5.164   2.718   5.122
22124SOL    HW166396   5.107   2.770   5.059
22124SOL    HW266397   5.260   2.730   5.098
22125SOL     OW66398   3.796   2.028   4.042
22125SOL    HW166399   3.779   2.111   3.988
22125SOL    HW266400   3.886   1.991   4.020
22126SOL     OW66401   4.907   3.197   3.843
22126SOL    HW166402   4.808   3.186   3.845
22126SOL    HW266403   4.941   3.212   3.936
22127SOL     OW66404   4.337   2.704   5.155
22127SOL    HW166405   4.393   2.785   5.138
22127SOL    HW266406   4.396   2.624   5.158
22128SOL     OW66407   5.217   3.629   4.683
22128SOL    HW166408   5.250   3.693   4.614
22128SOL    HW266409   5.283   3.623   4.758
22129SOL     OW66410   4.440   2.427   5.432
22129SOL    HW166411   4.459   2.492   5.506
22129SOL    HW266412   4.500   2.347   5.441
22130SOL     OW66413   5.174   3.082   5.357
22130SOL    HW166414   5.165   3.072   5.456
22130SOL    HW266415   5.270   3.075   5.331
22131SOL     OW66416   4.114   3.603   5.284
22131SOL    HW166417   4.023   3.644   5.282
22131SOL    HW266418   4.107   3.509   5.316
22132SOL     OW66419   5.398   2.745   4.978
22132SOL    HW166420   5.371   2.656   4.941
22132SOL    HW266421   5.399   2.813   4.905
22133SOL     OW66422   4.949   2.187   4.173
22133SOL    HW166423   5.014   2.113   4.162
22133SOL    HW266424   4.969   2.237   4.257
22134SOL     OW66425   4.318   2.607   4.376
22134SOL    HW166426   4.368   2.692   4.357
22134SOL    HW266427   4.230   2.609   4.328
22135SOL     OW66428   5.501   2.204   5.366
22135SOL    HW166429   5.484   2.235   5.272
22135SOL    HW266430   5.417   2.167   5.404
22136SOL     OW66431   5.454   2.796   5.241
22136SOL    HW166432   5.492   2.887   5.256
22136SOL    HW266433   5.446   2.779   5.142
22137SOL     OW66434   4.583   3.236   3.740
22137SOL    HW166435   4.537   3.251   3.828
22137SOL    HW266436   4.627   3.321   3.710
22138SOL     OW66437   4.385   3.652   4.677
22138SOL    HW166438   4.339   3.740   4.664
22138SOL    HW266439   4.484   3.664   4.670
22139SOL     OW66440   4.583   2.818   4.585
22139SOL    HW166441   4.637   2.749   4.633
22139SOL    HW266442   4.551   2.887   4.651
22140SOL     OW66443   4.807   2.846   3.811
22140SOL    HW166444   4.784   2.899   3.729
22140SOL    HW266445   4.888   2.790   3.792
22141SOL     OW66446   5.585   3.431   4.575
22141SOL    HW166447   5.514   3.419   4.505
22141SOL    HW266448   5.586   3.352   4.635
22142SOL     OW66449   3.945   3.176   5.568
22142SOL    HW166450   3.880   3.103   5.547
22142SOL    HW266451   3.949   3.190   5.666
22143SOL     OW66452   3.803   3.102   4.377
22143SOL    HW166453   3.802   3.055   4.465
22143SOL    HW266454   3.885   3.074   4.326
22144SOL     OW66455   4.396   3.253   5.348
22144SOL    HW166456   4.318   3.203   5.386
22144SOL    HW266457   4.393   3.348   5.379
22145SOL     OW66458   5.548   2.054   4.951
22145SOL    HW166459   5.544   1.964   4.995
22145SOL    HW266460   5.551   2.043   4.852
22146SOL     OW66461   4.152   2.286   4.244
22146SOL    HW166462   4.182   2.214   4.182
22146SOL    HW266463   4.113   2.246   4.327
22147SOL     OW66464   5.429   3.349   4.828
22147SOL    HW166465   5.336   3.324   4.801
22147SOL    HW266466   5.455   3.299   4.910
22148SOL     OW66467   4.041   2.409   5.004
22148SOL    HW166468   4.079   2.350   5.076
22148SOL    HW266469   4.081   2.383   4.916
22149SOL     OW66470   4.536   3.448   4.411
22149SOL    HW166471   4.568   3.458   4.317
22149SOL    HW266472   4.457   3.386   4.413
22150SOL     OW66473   5.148   2.076   4.836
22150SOL    HW166474   5.200   2.011   4.891
22150SOL    HW266475   5.099   2.139   4.897
22151SOL     OW66476   4.725   1.896   4.878
22151SOL    HW166477   4.662   1.824   4.847
22151SOL    HW266478   4.818   1.860   4.878
22152SOL     OW66479   4.494   3.192   4.025
22152SOL    HW166480   4.448   3.105   4.042
22152SOL    HW266481   4.585   3.189   4.066
22153SOL     OW66482   4.342   3.429   5.008
22153SOL    HW166483   4.337   3.511   5.065
22153SOL    HW266484   4.431   3.426   4.963
22154SOL     OW66485   5.076   1.914   3.892
22154SOL    HW166486   5.111   1.873   3.808
22154SOL    HW266487   4.986   1.876   3.912
22155SOL     OW66488   5.024   2.315   4.415
22155SOL    HW166489   4.965   2.395   4.419
22155SOL    HW266490   5.039   2.280   4.508
22156SOL     OW66491   5.317   2.083   4.606
22156SOL    HW166492   5.233   2.082   4.660
22156SOL    HW266493   5.319   2.166   4.550
22157SOL     OW66494   3.763   2.939   4.024
22157SOL    HW166495   3.862   2.928   4.015
22157SOL    HW266496   3.723   2.853   4.056
22158SOL     OW66497   4.599   3.508   4.061
22158SOL    HW166498   4.522   3.473   4.007
22158SOL    HW266499   4.567   3.579   4.123
22159SOL     OW66500   3.954   2.490   5.699
22159SOL    HW166501   3.861   2.488   5.736
22159SOL    HW266502   3.955   2.451   5.607
22160SOL     OW66503   3.949   2.137   6.582
22160SOL    HW166504   3.984   2.120   6.674
22160SOL    HW266505   3.861   2.092   6.570
22161SOL     OW66506   3.743   2.230   6.233
22161SOL    HW166507   3.661   2.273   6.272
22161SOL    HW266508   3.715   2.157   6.170
22162SOL     OW66509   4.293   3.137   6.751
22162SOL    HW166510   4.200   3.130   6.714
22162SOL    HW266511   4.304   3.226   6.795
22163SOL     OW66512   5.279   3.373   6.289
22163SOL    HW166513   5.222   3.357   6.370
22163SOL    HW266514   5.220   3.383   6.209
22164SOL     OW66515   4.859   2.565   6.303
22164SOL    HW166516   4.916   2.643   6.278
22164SOL    HW266517   4.799   2.591   6.379
22165SOL     OW66518   5.479   2.469   5.817
22165SOL    HW166519   5.467   2.456   5.718
22165SOL    HW266520   5.449   2.388   5.866
22166SOL     OW66521   4.492   3.006   6.609
22166SOL    HW166522   4.414   3.023   6.669
22166SOL    HW266523   4.526   3.093   6.573
22167SOL     OW66524   4.574   2.660   7.409
22167SOL    HW166525   4.570   2.736   7.474
22167SOL    HW266526   4.596   2.696   7.318
22168SOL     OW66527   4.409   2.874   6.251
22168SOL    HW166528   4.478   2.858   6.321
22168SOL    HW266529   4.336   2.931   6.289
22169SOL     OW66530   4.410   3.023   7.389
22169SOL    HW166531   4.470   3.102   7.403
22169SOL    HW266532   4.324   3.054   7.348
22170SOL     OW66533   4.059   3.297   6.647
22170SOL    HW166534   3.981   3.266   6.594
22170SOL    HW266535   4.117   3.355   6.590
22171SOL     OW66536   5.184   3.367   6.925
22171SOL    HW166537   5.208   3.461   6.951
22171SOL    HW266538   5.168   3.313   7.007
22172SOL     OW66539   4.162   2.254   7.085
22172SOL    HW166540   4.244   2.198   7.094
22172SOL    HW266541   4.081   2.196   7.089
22173SOL     OW66542   5.327   2.309   6.323
22173SOL    HW166543   5.253   2.355   6.273
22173SOL    HW266544   5.378   2.377   6.376
22174SOL     OW66545   3.955   3.575   6.069
22174SOL    HW166546   3.989   3.652   6.123
22174SOL    HW266547   3.999   3.575   5.979
22175SOL     OW66548   4.851   3.203   7.276
22175SOL    HW166549   4.898   3.203   7.364
22175SOL    HW266550   4.803   3.116   7.265
22176SOL     OW66551   3.954   3.296   6.124
22176SOL    HW166552   3.928   3.392   6.124
22176SOL    HW266553   3.883   3.242   6.169
22177SOL     OW66554   3.964   2.953   6.472
22177SOL    HW166555   3.978   2.869   6.524
22177SOL    HW266556   3.909   3.017   6.527
22178SOL     OW66557   4.344   3.648   7.025
22178SOL    HW166558   4.252   3.631   7.060
22178SOL    HW266559   4.372   3.740   7.051
22179SOL     OW66560   4.330   2.826   5.709
22179SOL    HW166561   4.337   2.910   5.655
22179SOL    HW266562   4.376   2.839   5.797
22180SOL     OW66563   5.318   1.976   7.066
22180SOL    HW166564   5.300   2.043   6.994
22180SOL    HW266565   5.315   2.022   7.155
22181SOL     OW66566   3.846   2.505   6.149
22181SOL    HW166567   3.801   2.417   6.166
22181SOL    HW266568   3.845   2.559   6.233
22182SOL     OW66569   5.566   3.629   5.945
22182SOL    HW166570   5.620   3.600   6.025
22182SOL    HW266571   5.596   3.719   5.916
22183SOL     OW66572   3.751   3.458   5.703
22183SOL    HW166573   3.732   3.362   5.724
22183SOL    HW266574   3.718   3.516   5.778
22184SOL     OW66575   5.413   2.784   6.198
22184SOL    HW166576   5.508   2.755   6.206
22184SOL    HW266577   5.405   2.849   6.123
22185SOL     OW66578   5.365   2.970   6.018
22185SOL    HW166579   5.451   2.972   5.966
22185SOL    HW266580   5.379   3.017   6.106
22186SOL     OW66581   3.837   2.599   7.183
22186SOL    HW166582   3.925   2.586   7.228
22186SOL    HW266583   3.824   2.696   7.161
22187SOL     OW66584   4.337   3.227   6.312
22187SOL    HW166585   4.288   3.140   6.321
22187SOL    HW266586   4.314   3.270   6.225
22188SOL     OW66587   5.017   3.090   7.009
22188SOL    HW166588   5.054   3.017   6.951
22188SOL    HW266589   5.069   3.095   7.094
22189SOL     OW66590   4.533   1.866   6.088
22189SOL    HW166591   4.573   1.957   6.079
22189SOL    HW266592   4.433   1.874   6.094
22190SOL     OW66593   3.921   2.838   6.850
22190SOL    HW166594   4.010   2.793   6.836
22190SOL    HW266595   3.848   2.773   6.831
22191SOL     OW66596   5.249   2.861   5.776
22191SOL    HW166597   5.186   2.785   5.789
22191SOL    HW266598   5.297   2.879   5.862
22192SOL     OW66599   4.911   3.654   7.202
22192SOL    HW166600   4.935   3.714   7.126
22192SOL    HW266601   4.918   3.559   7.172
22193SOL     OW66602   4.041   2.113   7.387
22193SOL    HW166603   4.112   2.184   7.393
22193SOL    HW266604   3.953   2.152   7.415
22194SOL     OW66605   5.190   3.279   6.539
22194SOL    HW166606   5.131   3.285   6.619
22194SOL    HW266607   5.175   3.191   6.493
22195SOL     OW66608   5.391   3.576   6.158
22195SOL    HW166609   5.350   3.553   6.070
22195SOL    HW266610   5.373   3.502   6.223
22196SOL     OW66611   4.322   2.591   5.856
22196SOL    HW166612   4.346   2.660   5.788
22196SOL    HW266613   4.244   2.624   5.910
22197SOL     OW66614   5.005   2.207   6.530
22197SOL    HW166615   4.919   2.157   6.517
22197SOL    HW266616   5.067   2.153   6.586
22198SOL     OW66617   5.300   3.524   5.893
22198SOL    HW166618   5.389   3.570   5.896
22198SOL    HW266619   5.279   3.500   5.798
22199SOL     OW66620   4.531   2.467   7.051
22199SOL    HW166621   4.484   2.464   7.140
22199SOL    HW266622   4.480   2.412   6.985
22200SOL     OW66623   5.118   2.331   7.260
22200SOL    HW166624   5.098   2.374   7.348
22200SOL    HW266625   5.196   2.269   7.269
22201SOL     OW66626   4.697   2.752   7.158
22201SOL    HW166627   4.743   2.668   7.129
22201SOL    HW266628   4.641   2.786   7.083
22202SOL     OW66629   4.715   2.272   6.828
22202SOL    HW166630   4.638   2.306   6.882
22202SOL    HW266631   4.681   2.221   6.749
22203SOL     OW66632   4.765   2.563   6.015
22203SOL    HW166633   4.791   2.559   6.111
22203SOL    HW266634   4.680   2.512   6.001
22204SOL     OW66635   3.800   2.673   6.375
22204SOL    HW166636   3.899   2.661   6.384
22204SOL    HW266637   3.776   2.768   6.396
22205SOL     OW66638   3.854   3.683   7.157
22205SOL    HW166639   3.844   3.668   7.256
22205SOL    HW266640   3.768   3.719   7.121
22206SOL     OW66641   4.589   2.210   5.781
22206SOL    HW166642   4.648   2.273   5.732
22206SOL    HW266643   4.608   2.116   5.752
22207SOL     OW66644   5.443   2.447   7.417
22207SOL    HW166645   5.417   2.536   7.381
22207SOL    HW266646   5.441   2.379   7.344
22208SOL     OW66647   5.086   3.006   6.131
22208SOL    HW166648   5.169   2.977   6.083
22208SOL    HW266649   5.037   3.073   6.075
22209SOL     OW66650   4.274   2.058   6.471
22209SOL    HW166651   4.269   2.053   6.571
22209SOL    HW266652   4.276   2.154   6.442
22210SOL     OW66653   4.732   3.318   6.063
22210SOL    HW166654   4.686   3.390   6.011
22210SOL    HW266655   4.728   3.338   6.161
22211SOL     OW66656   4.075   3.663   6.439
22211SOL    HW166657   4.125   3.577   6.445
22211SOL    HW266658   4.140   3.740   6.436
22212SOL     OW66659   5.519   2.928   6.459
22212SOL    HW166660   5.457   2.913   6.383
22212SOL    HW266661   5.467   2.939   6.544
22213SOL     OW66662   4.951   3.412   7.092
22213SOL    HW166663   4.957   3.335   7.156
22213SOL    HW266664   4.899   3.386   7.012
22214SOL     OW66665   4.045   2.805   5.828
22214SOL    HW166666   4.127   2.844   5.786
22214SOL    HW266667   4.018   2.723   5.779
22215SOL     OW66668   5.182   2.597   6.314
22215SOL    HW166669   5.177   2.532   6.389
22215SOL    HW266670   5.262   2.656   6.327
22216SOL     OW66671   4.185   3.128   7.313
22216SOL    HW166672   4.135   3.129   7.227
22216SOL    HW266673   4.122   3.110   7.389
22217SOL     OW66674   4.835   3.638   5.823
22217SOL    HW166675   4.775   3.576   5.873
22217SOL    HW266676   4.866   3.594   5.738
22218SOL     OW66677   3.926   2.147   7.084
22218SOL    HW166678   3.846   2.207   7.071
22218SOL    HW266679   3.916   2.098   7.170
22219SOL     OW66680   5.356   3.239   5.667
22219SOL    HW166681   5.324   3.333   5.657
22219SOL    HW266682   5.280   3.176   5.655
22220SOL     OW66683   4.188   3.605   5.909
22220SOL    HW166684   4.221   3.644   5.995
22220SOL    HW266685   4.264   3.598   5.844
22221SOL     OW66686   5.124   1.969   6.012
22221SOL    HW166687   5.100   1.932   5.922
22221SOL    HW266688   5.223   1.985   6.016
22222SOL     OW66689   3.973   3.647   6.827
22222SOL    HW166690   4.030   3.582   6.877
22222SOL    HW266691   3.957   3.614   6.734
22223SOL     OW66692   4.664   3.560   6.490
22223SOL    HW166693   4.744   3.503   6.511
22223SOL    HW266694   4.615   3.520   6.413
22224SOL     OW66695   4.106   2.562   6.066
22224SOL    HW166696   4.151   2.472   6.063
22224SOL    HW266697   4.012   2.551   6.099
22225SOL     OW66698   5.271   2.084   7.315
22225SOL    HW166699   5.266   2.121   7.407
22225SOL    HW266700   5.199   2.015   7.303
22226SOL     OW66701   4.338   1.984   5.703
22226SOL    HW166702   4.436   1.962   5.710
22226SOL    HW266703   4.307   1.967   5.610
22227SOL     OW66704   4.505   2.126   7.335
22227SOL    HW166705   4.572   2.065   7.378
22227SOL    HW266706   4.432   2.145   7.400
22228SOL     OW66707   4.612   3.376   6.781
22228SOL    HW166708   4.589   3.351   6.687
22228SOL    HW266709   4.673   3.307   6.820
22229SOL     OW66710   5.075   2.452   7.019
22229SOL    HW166711   5.103   2.409   7.104
22229SOL    HW266712   5.100   2.548   7.020
22230SOL     OW66713   4.527   3.264   6.510
22230SOL    HW166714   4.617   3.278   6.468
22230SOL    HW266715   4.456   3.266   6.439
22231SOL     OW66716   4.646   2.365   6.485
22231SOL    HW166717   4.621   2.356   6.389
22231SOL    HW266718   4.694   2.283   6.516
22232SOL     OW66719   4.263   1.926   6.098
22232SOL    HW166720   4.182   1.927   6.156
22232SOL    HW266721   4.266   2.009   6.043
22233SOL     OW66722   5.158   3.050   5.627
22233SOL    HW166723   5.190   2.974   5.684
22233SOL    HW266724   5.066   3.077   5.657
22234SOL     OW66725   4.021   1.897   5.757
22234SOL    HW166726   4.070   1.981   5.736
22234SOL    HW266727   4.083   1.832   5.802
22235SOL     OW66728   4.659   2.098   6.066
22235SOL    HW166729   4.611   2.139   5.988
22235SOL    HW266730   4.758   2.096   6.047
22236SOL     OW66731   4.800   2.545   7.050
22236SOL    HW166732   4.720   2.484   7.053
22236SOL    HW266733   4.881   2.492   7.026
22237SOL     OW66734   4.951   3.432   6.379
22237SOL    HW166735   4.972   3.506   6.314
22237SOL    HW266736   5.019   3.432   6.452
22238SOL     OW66737   4.183   3.014   6.327
22238SOL    HW166738   4.112   2.987   6.392
22238SOL    HW266739   4.157   2.986   6.234
22239SOL     OW66740   4.995   3.659   6.177
22239SOL    HW166741   5.039   3.723   6.113
22239SOL    HW266742   4.945   3.711   6.247
22240SOL     OW66743   4.756   2.411   5.602
22240SOL    HW166744   4.715   2.493   5.563
22240SOL    HW266745   4.820   2.437   5.675
22241SOL     OW66746   3.802   2.418   6.972
22241SOL    HW166747   3.894   2.417   6.931
22241SOL    HW266748   3.796   2.492   7.039
22242SOL     OW66749   4.285   2.084   6.733
22242SOL    HW166750   4.323   2.000   6.770
22242SOL    HW266751   4.197   2.103   6.777
22243SOL     OW66752   4.590   2.316   6.228
22243SOL    HW166753   4.558   2.388   6.166
22243SOL    HW266754   4.614   2.235   6.175
22244SOL     OW66755   4.741   1.901   6.339
22244SOL    HW166756   4.669   1.906   6.270
22244SOL    HW266757   4.717   1.832   6.408
22245SOL     OW66758   5.153   3.035   6.453
22245SOL    HW166759   5.098   2.951   6.446
22245SOL    HW266760   5.179   3.064   6.361
22246SOL     OW66761   5.190   2.452   6.578
22246SOL    HW166762   5.160   2.357   6.585
22246SOL    HW266763   5.263   2.468   6.644
22247SOL     OW66764   5.581   2.695   5.963
22247SOL    HW166765   5.623   2.631   6.027
22247SOL    HW266766   5.543   2.644   5.885
22248SOL     OW66767   4.212   3.247   5.760
22248SOL    HW166768   4.125   3.232   5.807
22248SOL    HW266769   4.195   3.273   5.665
22249SOL     OW66770   5.388   3.142   6.243
22249SOL    HW166771   5.487   3.150   6.257
22249SOL    HW266772   5.343   3.226   6.274
22250SOL     OW66773   5.114   2.437   5.664
22250SOL    HW166774   5.060   2.416   5.745
22250SOL    HW266775   5.205   2.396   5.673
22251SOL     OW66776   4.251   2.118   5.914
22251SOL    HW166777   4.278   2.059   5.839
22251SOL    HW266778   4.251   2.213   5.883
22252SOL     OW66779   5.478   3.085   7.174
22252SOL    HW166780   5.569   3.046   7.161
22252SOL    HW266781   5.486   3.181   7.198
22253SOL     OW66782   4.788   3.209   6.926
22253SOL    HW166783   4.708   3.186   6.981
22253SOL    HW266784   4.871   3.183   6.975
22254SOL     OW66785   5.316   3.491   7.211
22254SOL    HW166786   5.343   3.525   7.121
22254SOL    HW266787   5.395   3.453   7.257
22255SOL     OW66788   4.835   3.057   6.686
22255SOL    HW166789   4.795   3.101   6.767
22255SOL    HW266790   4.794   3.094   6.603
22256SOL     OW66791   5.362   2.961   6.665
22256SOL    HW166792   5.367   3.042   6.724
22256SOL    HW266793   5.276   2.963   6.614
22257SOL     OW66794   4.639   1.951   6.988
22257SOL    HW166795   4.664   1.931   6.893
22257SOL    HW266796   4.711   2.007   7.030
22258SOL     OW66797   4.704   2.978   7.305
22258SOL    HW166798   4.605   2.984   7.315
22258SOL    HW266799   4.727   2.898   7.249
22259SOL     OW66800   4.429   2.912   5.954
22259SOL    HW166801   4.415   2.919   6.053
22259SOL    HW266802   4.513   2.861   5.936
22260SOL     OW66803   4.134   2.675   6.837
22260SOL    HW166804   4.220   2.687   6.887
22260SOL    HW266805   4.092   2.588   6.864
22261SOL     OW66806   4.998   2.248   6.848
22261SOL    HW166807   5.019   2.322   6.912
22261SOL    HW266808   4.909   2.265   6.805
22262SOL     OW66809   3.788   3.426   6.917
22262SOL    HW166810   3.742   3.508   6.883
22262SOL    HW266811   3.886   3.445   6.926
22263SOL     OW66812   4.091   2.962   6.087
22263SOL    HW166813   4.084   3.045   6.031
22263SOL    HW266814   4.095   2.882   6.027
22264SOL     OW66815   4.290   2.399   6.451
22264SOL    HW166816   4.302   2.465   6.377
22264SOL    HW266817   4.336   2.433   6.534
22265SOL     OW66818   4.976   3.210   5.974
22265SOL    HW166819   5.026   3.287   6.014
22265SOL    HW266820   4.881   3.212   6.006
22266SOL     OW66821   4.996   3.307   6.728
22266SOL    HW166822   5.043   3.320   6.815
22266SOL    HW266823   4.930   3.233   6.737
22267SOL     OW66824   5.306   2.501   6.058
22267SOL    HW166825   5.275   2.562   6.131
22267SOL    HW266826   5.356   2.553   5.989
22268SOL     OW66827   4.078   3.372   6.915
22268SOL    HW166828   4.057   3.328   6.828
22268SOL    HW266829   4.175   3.398   6.918
22269SOL     OW66830   4.126   2.613   7.184
22269SOL    HW166831   4.194   2.668   7.137
22269SOL    HW266832   4.166   2.525   7.211
22270SOL     OW66833   5.311   2.641   7.256
22270SOL    HW166834   5.219   2.679   7.251
22270SOL    HW266835   5.371   2.688   7.191
22271SOL     OW66836   4.737   1.967   7.356
22271SOL    HW166837   4.743   2.052   7.304
22271SOL    HW266838   4.769   1.891   7.299
22272SOL     OW66839   4.228   1.912   7.326
22272SOL    HW166840   4.186   1.855   7.256
22272SOL    HW266841   4.162   1.981   7.358
22273SOL     OW66842   4.297   2.732   6.615
22273SOL    HW166843   4.341   2.821   6.606
22273SOL    HW266844   4.234   2.732   6.692
22274SOL     OW66845   5.084   2.724   6.631
22274SOL    HW166846   5.009   2.724   6.565
22274SOL    HW266847   5.121   2.632   6.640
22275SOL     OW66848   4.933   2.387   5.861
22275SOL    HW166849   4.946   2.303   5.915
22275SOL    HW266850   4.904   2.461   5.921
22276SOL     OW66851   4.031   2.075   6.817
22276SOL    HW166852   4.008   2.112   6.907
22276SOL    HW266853   4.001   1.980   6.811
22277SOL     OW66854   3.761   3.172   6.868
22277SOL    HW166855   3.814   3.123   6.936
22277SOL    HW266856   3.783   3.270   6.873
22278SOL     OW66857   4.456   2.496   6.650
22278SOL    HW166858   4.515   2.470   6.574
22278SOL    HW266859   4.428   2.592   6.639
22279SOL     OW66860   5.452   2.797   7.440
22279SOL    HW166861   5.406   2.790   7.351
22279SOL    HW266862   5.390   2.841   7.506
22280SOL     OW66863   4.031   1.925   6.204
22280SOL    HW166864   4.020   2.019   6.237
22280SOL    HW266865   4.026   1.862   6.281
22281SOL     OW66866   5.346   2.229   5.960
22281SOL    HW166867   5.348   2.153   6.024
22281SOL    HW266868   5.298   2.306   6.000
22282SOL     OW66869   4.747   2.628   6.552
22282SOL    HW166870   4.762   2.649   6.648
22282SOL    HW266871   4.717   2.533   6.543
22283SOL     OW66872   4.704   3.435   7.286
22283SOL    HW166873   4.684   3.479   7.198
22283SOL    HW266874   4.743   3.344   7.270
22284SOL     OW66875   5.583   3.380   7.191
22284SOL    HW166876   5.597   3.407   7.096
22284SOL    HW266877   5.666   3.402   7.244
22285SOL     OW66878   4.074   2.760   7.390
22285SOL    HW166879   4.150   2.804   7.438
22285SOL    HW266880   4.109   2.713   7.308
22286SOL     OW66881   5.264   2.136   5.711
22286SOL    HW166882   5.203   2.061   5.734
22286SOL    HW266883   5.286   2.188   5.794
22287SOL     OW66884   5.027   2.700   5.628
22287SOL    HW166885   5.061   2.607   5.643
22287SOL    HW266886   5.045   2.727   5.533
22288SOL     OW66887   4.792   3.195   6.435
22288SOL    HW166888   4.799   3.111   6.380
22288SOL    HW266889   4.854   3.264   6.399
22289SOL     OW66890   4.043   2.672   6.535
22289SOL    HW166891   4.136   2.708   6.540
22289SOL    HW266892   4.037   2.587   6.587
22290SOL     OW66893   4.063   2.371   6.592
22290SOL    HW166894   4.011   2.288   6.575
22290SOL    HW266895   4.140   2.376   6.528
22291SOL     OW66896   4.862   2.242   7.264
22291SOL    HW166897   4.817   2.305   7.328
22291SOL    HW266898   4.955   2.273   7.247
22292SOL     OW66899   4.884   2.069   7.063
22292SOL    HW166900   4.884   2.133   7.140
22292SOL    HW266901   4.912   2.117   6.980
22293SOL     OW66902   3.732   3.188   5.786
22293SOL    HW166903   3.639   3.209   5.755
22293SOL    HW266904   3.742   3.089   5.799
22294SOL     OW66905   3.812   3.663   6.513
22294SOL    HW166906   3.770   3.577   6.486
22294SOL    HW266907   3.906   3.666   6.479
22295SOL     OW66908   4.228   3.430   6.496
22295SOL    HW166909   4.294   3.504   6.505
22295SOL    HW266910   4.272   3.351   6.454
22296SOL     OW66911   4.726   2.658   6.824
22296SOL    HW166912   4.767   2.626   6.910
22296SOL    HW266913   4.630   2.631   6.821
22297SOL     OW66914   3.764   2.406   6.700
22297SOL    HW166915   3.849   2.373   6.659
22297SOL    HW266916   3.777   2.421   6.798
22298SOL     OW66917   3.913   2.382   7.308
22298SOL    HW166918   3.972   2.342   7.238
22298SOL    HW266919   3.855   2.453   7.267
22299SOL     OW66920   5.093   2.812   7.246
22299SOL    HW166921   5.132   2.901   7.266
22299SOL    HW266922   5.103   2.792   7.149
22300SOL     OW66923   4.539   2.434   5.911
22300SOL    HW166924   4.546   2.345   5.865
22300SOL    HW266925   4.445   2.468   5.903
22301SOL     OW66926   5.381   2.466   6.792
22301SOL    HW166927   5.343   2.397   6.854
22301SOL    HW266928   5.463   2.430   6.748
22302SOL     OW66929   3.976   3.426   7.330
22302SOL    HW166930   3.946   3.483   7.406
22302SOL    HW266931   3.969   3.329   7.356
22303SOL     OW66932   4.395   2.326   6.855
22303SOL    HW166933   4.361   2.237   6.825
22303SOL    HW266934   4.421   2.380   6.775
22304SOL     OW66935   4.654   3.540   7.051
22304SOL    HW166936   4.630   3.522   6.956
22304SOL    HW266937   4.684   3.634   7.061
22305SOL     OW66938   4.197   2.362   5.777
22305SOL    HW166939   4.258   2.442   5.781
22305SOL    HW266940   4.102   2.393   5.784
22306SOL     OW66941   3.883   2.999   7.052
22306SOL    HW166942   3.905   2.938   7.128
22306SOL    HW266943   3.893   2.950   6.966
22307SOL     OW66944   5.071   2.921   6.820
22307SOL    HW166945   5.095   2.858   6.746
22307SOL    HW266946   4.981   2.961   6.802
22308SOL     OW66947   5.026   2.717   5.895
22308SOL    HW166948   4.940   2.686   5.937
22308SOL    HW266949   5.022   2.703   5.796
22309SOL     OW66950   5.483   3.609   6.740
22309SOL    HW166951   5.544   3.639   6.667
22309SOL    HW266952   5.445   3.520   6.718
22310SOL     OW66953   4.976   3.593   6.714
22310SOL    HW166954   5.060   3.598   6.660
22310SOL    HW266955   4.953   3.497   6.732
22311SOL     OW66956   3.807   3.120   6.608
22311SOL    HW166957   3.802   3.119   6.708
22311SOL    HW266958   3.724   3.079   6.570
22312SOL     OW66959   4.412   3.524   7.302
22312SOL    HW166960   4.356   3.605   7.311
22312SOL    HW266961   4.464   3.528   7.216
22313SOL     OW66962   5.450   1.997   6.109
22313SOL    HW166963   5.523   1.980   6.042
22313SOL    HW266964   5.419   1.910   6.147
22314SOL     OW66965   5.112   3.435   6.063
22314SOL    HW166966   5.179   3.447   5.989
22314SOL    HW266967   5.072   3.524   6.086
22315SOL     OW66968   3.854   3.656   7.437
22315SOL    HW166969   3.813   3.582   7.490
22315SOL    HW266970   3.918   3.707   7.495
22316SOL     OW66971   5.004   2.789   6.258
22316SOL    HW166972   5.064   2.708   6.260
22316SOL    HW266973   5.044   2.858   6.198
22317SOL     OW66974   4.554   3.135   7.008
22317SOL    HW166975   4.549   3.168   7.103
22317SOL    HW266976   4.468   3.154   6.962
22318SOL     OW66977   4.396   3.478   5.740
22318SOL    HW166978   4.405   3.488   5.641
22318SOL    HW266979   4.356   3.389   5.761
22319SOL     OW66980   5.374   3.582   6.980
22319SOL    HW166981   5.427   3.592   6.896
22319SOL    HW266982   5.347   3.672   7.014
22320SOL     OW66983   5.565   2.037   6.549
22320SOL    HW166984   5.604   1.952   6.513
22320SOL    HW266985   5.467   2.039   6.530
22321SOL     OW66986   3.987   2.188   6.306
22321SOL    HW166987   3.908   2.239   6.272
22321SOL    HW266988   3.978   2.173   6.404
22322SOL     OW66989   4.918   3.474   5.617
22322SOL    HW166990   4.924   3.381   5.654
22322SOL    HW266991   4.859   3.474   5.537
22323SOL     OW66992   4.546   2.864   6.958
22323SOL    HW166993   4.586   2.863   6.866
22323SOL    HW266994   4.556   2.956   6.998
22324SOL     OW66995   4.640   2.772   5.877
22324SOL    HW166996   4.703   2.810   5.809
22324SOL    HW266997   4.680   2.689   5.916
22325SOL     OW66998   5.228   3.469   5.630
22325SOL    HW166999   5.136   3.506   5.637
22325SOL    HW267000   5.266   3.489   5.540
22326SOL     OW67001   4.096   3.150   7.076
22326SOL    HW167002   4.083   3.243   7.042
22326SOL    HW267003   4.012   3.098   7.063
22327SOL     OW67004   5.338   3.154   6.875
22327SOL    HW167005   5.398   3.157   6.955
22327SOL    HW267006   5.263   3.218   6.888
22328SOL     OW67007   4.763   2.960   6.282
22328SOL    HW167008   4.693   2.913   6.336
22328SOL    HW267009   4.822   2.892   6.239
22329SOL     OW67010   4.738   2.098   6.557
22329SOL    HW167011   4.730   2.062   6.464
22329SOL    HW267012   4.736   2.022   6.622
22330SOL     OW67013   4.314   3.349   6.077
22330SOL    HW167014   4.356   3.291   6.007
22330SOL    HW267015   4.270   3.428   6.033
22331SOL     OW67016   5.433   2.247   6.967
22331SOL    HW167017   5.506   2.316   6.971
22331SOL    HW267018   5.461   2.172   6.908
22332SOL     OW67019   3.979   3.210   5.876
22332SOL    HW167020   3.883   3.211   5.849
22332SOL    HW267021   3.991   3.263   5.960
22333SOL     OW67022   3.829   2.875   7.312
22333SOL    HW167023   3.752   2.842   7.366
22333SOL    HW267024   3.914   2.845   7.354
22334SOL     OW67025   4.396   2.065   7.075
22334SOL    HW167026   4.486   2.049   7.035
22334SOL    HW267027   4.404   2.070   7.174
22335SOL     OW67028   3.799   2.207   5.619
22335SOL    HW167029   3.707   2.179   5.590
22335SOL    HW267030   3.830   2.284   5.563
22336SOL     OW67031   5.164   2.718   6.984
22336SOL    HW167032   5.107   2.770   6.921
22336SOL    HW267033   5.260   2.730   6.960
22337SOL     OW67034   3.796   2.028   5.904
22337SOL    HW167035   3.779   2.111   5.850
22337SOL    HW267036   3.886   1.991   5.882
22338SOL     OW67037   4.907   3.197   5.705
22338SOL    HW167038   4.808   3.186   5.707
22338SOL    HW267039   4.941   3.212   5.798
22339SOL     OW67040   4.337   2.704   7.017
22339SOL    HW167041   4.393   2.785   7.000
22339SOL    HW267042   4.396   2.624   7.020
22340SOL     OW67043   5.217   3.629   6.545
22340SOL    HW167044   5.250   3.693   6.476
22340SOL    HW267045   5.283   3.623   6.620
22341SOL     OW67046   4.440   2.427   7.294
22341SOL    HW167047   4.459   2.492   7.368
22341SOL    HW267048   4.500   2.347   7.303
22342SOL     OW67049   5.174   3.082   7.219
22342SOL    HW167050   5.165   3.072   7.318
22342SOL    HW267051   5.270   3.075   7.193
22343SOL     OW67052   4.114   3.603   7.146
22343SOL    HW167053   4.023   3.644   7.144
22343SOL    HW267054   4.107   3.509   7.178
22344SOL     OW67055   5.398   2.745   6.840
22344SOL    HW167056   5.371   2.656   6.803
22344SOL    HW267057   5.399   2.813   6.767
22345SOL     OW67058   4.949   2.187   6.035
22345SOL    HW167059   5.014   2.113   6.024
22345SOL    HW267060   4.969   2.237   6.119
22346SOL     OW67061   4.318   2.607   6.238
22346SOL    HW167062   4.368   2.692   6.219
22346SOL    HW267063   4.230   2.609   6.190
22347SOL     OW67064   5.501   2.204   7.228
22347SOL    HW167065   5.484   2.235   7.134
22347SOL    HW267066   5.417   2.167   7.266
22348SOL     OW67067   5.454   2.796   7.103
22348SOL    HW167068   5.492   2.887   7.118
22348SOL    HW267069   5.446   2.779   7.004
22349SOL     OW67070   4.583   3.236   5.602
22349SOL    HW167071   4.537   3.251   5.690
22349SOL    HW267072   4.627   3.321   5.572
22350SOL     OW67073   4.385   3.652   6.539
22350SOL    HW167074   4.339   3.740   6.526
22350SOL    HW267075   4.484   3.664   6.532
22351SOL     OW67076   4.583   2.818   6.447
22351SOL    HW167077   4.637   2.749   6.495
22351SOL    HW267078   4.551   2.887   6.513
22352SOL     OW67079   4.807   2.846   5.673
22352SOL    HW167080   4.784   2.899   5.591
22352SOL    HW267081   4.888   2.790   5.654
22353SOL     OW67082   5.585   3.431   6.437
22353SOL    HW167083   5.514   3.419   6.367
22353SOL    HW267084   5.586   3.352   6.497
22354SOL     OW67085   3.945   3.176   7.430
22354SOL    HW167086   3.880   3.103   7.409
22354SOL    HW267087   3.949   3.190   7.528
22355SOL     OW67088   3.803   3.102   6.239
22355SOL    HW167089   3.802   3.055   6.327
22355SOL    HW267090   3.885   3.074   6.188
22356SOL     OW67091   4.396   3.253   7.210
22356SOL    HW167092   4.318   3.203   7.248
22356SOL    HW267093   4.393   3.348   7.241
22357SOL     OW67094   5.548   2.054   6.813
22357SOL    HW167095   5.544   1.964   6.857
22357SOL    HW267096   5.551   2.043   6.714
22358SOL     OW67097   4.152   2.286   6.106
22358SOL    HW167098   4.182   2.214   6.044
22358SOL    HW267099   4.113   2.246   6.189
22359SOL     OW67100   5.429   3.349   6.690
22359SOL    HW167101   5.336   3.324   6.663
22359SOL    HW267102   5.455   3.299   6.772
22360SOL     OW67103   4.041   2.409   6.866
22360SOL    HW167104   4.079   2.350   6.938
22360SOL    HW267105   4.081   2.383   6.778
22361SOL     OW67106   4.536   3.448   6.273
22361SOL    HW167107   4.568   3.458   6.179
22361SOL    HW267108   4.457   3.386   6.275
22362SOL     OW67109   5.148   2.076   6.698
22362SOL    HW167110   5.200   2.011   6.753
22362SOL    HW267111   5.099   2.139   6.759
22363SOL     OW67112   4.725   1.896   6.740
22363SOL    HW167113   4.662   1.824   6.709
22363SOL    HW267114   4.818   1.860   6.740
22364SOL     OW67115   4.494   3.192   5.887
22364SOL    HW167116   4.448   3.105   5.904
22364SOL    HW267117   4.585   3.189   5.928
22365SOL     OW67118   4.342   3.429   6.870
22365SOL    HW167119   4.337   3.511   6.927
22365SOL    HW267120   4.431   3.426   6.825
22366SOL     OW67121   5.076   1.914   5.754
22366SOL    HW167122   5.111   1.873   5.670
22366SOL    HW267123   4.986   1.876   5.774
22367SOL     OW67124   5.024   2.315   6.277
22367SOL    HW167125   4.965   2.395   6.281
22367SOL    HW267126   5.039   2.280   6.370
22368SOL     OW67127   5.317   2.083   6.468
22368SOL    HW167128   5.233   2.082   6.522
22368SOL    HW267129   5.319   2.166   6.412
22369SOL     OW67130   3.763   2.939   5.886
22369SOL    HW167131   3.862   2.928   5.877
22369SOL    HW267132   3.723   2.853   5.918
22370SOL     OW67133   4.599   3.508   5.923
22370SOL    HW167134   4.522   3.473   5.869
22370SOL    HW267135   4.567   3.579   5.985
22371SOL     OW67136   3.954   2.490   7.561
22371SOL    HW167137   3.861   2.488   7.598
22371SOL    HW267138   3.955   2.451   7.469
22372SOL     OW67139   3.949   2.137   8.444
22372SOL    HW167140   3.984   2.120   8.536
22372SOL    HW267141   3.861   2.092   8.432
22373SOL     OW67142   3.743   2.230   8.095
22373SOL    HW167143   3.661   2.273   8.134
22373SOL    HW267144   3.715   2.157   8.032
22374SOL     OW67145   4.293   3.137   8.613
22374SOL    HW167146   4.200   3.130   8.576
22374SOL    HW267147   4.304   3.226   8.657
22375SOL     OW67148   5.279   3.373   8.151
22375SOL    HW167149   5.222   3.357   8.232
22375SOL    HW267150   5.220   3.383   8.071
22376SOL     OW67151   4.859   2.565   8.165
22376SOL    HW167152   4.916   2.643   8.140
22376SOL    HW267153   4.799   2.591   8.241
22377SOL     OW67154   5.479   2.469   7.679
22377SOL    HW167155   5.467   2.456   7.580
22377SOL    HW267156   5.449   2.388   7.728
22378SOL     OW67157   4.492   3.006   8.471
22378SOL    HW167158   4.414   3.023   8.531
22378SOL    HW267159   4.526   3.093   8.435
22379SOL     OW67160   4.574   2.660   9.271
22379SOL    HW167161   4.570   2.736   9.336
22379SOL    HW267162   4.596   2.696   9.180
22380SOL     OW67163   4.409   2.874   8.113
22380SOL    HW167164   4.478   2.858   8.183
22380SOL    HW267165   4.336   2.931   8.151
22381SOL     OW67166   4.410   3.023   9.251
22381SOL    HW167167   4.470   3.102   9.265
22381SOL    HW267168   4.324   3.054   9.210
22382SOL     OW67169   4.059   3.297   8.509
22382SOL    HW167170   3.981   3.266   8.456
22382SOL    HW267171   4.117   3.355   8.452
22383SOL     OW67172   5.184   3.367   8.787
22383SOL    HW167173   5.208   3.461   8.813
22383SOL    HW267174   5.168   3.313   8.869
22384SOL     OW67175   4.162   2.254   8.947
22384SOL    HW167176   4.244   2.198   8.956
22384SOL    HW267177   4.081   2.196   8.951
22385SOL     OW67178   5.327   2.309   8.185
22385SOL    HW167179   5.253   2.355   8.135
22385SOL    HW267180   5.378   2.377   8.238
22386SOL     OW67181   3.955   3.575   7.931
22386SOL    HW167182   3.989   3.652   7.985
22386SOL    HW267183   3.999   3.575   7.841
22387SOL     OW67184   4.851   3.203   9.138
22387SOL    HW167185   4.898   3.203   9.226
22387SOL    HW267186   4.803   3.116   9.127
22388SOL     OW67187   3.954   3.296   7.986
22388SOL    HW167188   3.928   3.392   7.986
22388SOL    HW267189   3.883   3.242   8.031
22389SOL     OW67190   3.964   2.953   8.334
22389SOL    HW167191   3.978   2.869   8.386
22389SOL    HW267192   3.909   3.017   8.389
22390SOL     OW67193   4.344   3.648   8.887
22390SOL    HW167194   4.252   3.631   8.922
22390SOL    HW267195   4.372   3.740   8.913
22391SOL     OW67196   4.330   2.826   7.571
22391SOL    HW167197   4.337   2.910   7.517
22391SOL    HW267198   4.376   2.839   7.659
22392SOL     OW67199   5.318   1.976   8.928
22392SOL    HW167200   5.300   2.043   8.856
22392SOL    HW267201   5.315   2.022   9.017
22393SOL     OW67202   3.846   2.505   8.011
22393SOL    HW167203   3.801   2.417   8.028
22393SOL    HW267204   3.845   2.559   8.095
22394SOL     OW67205   5.566   3.629   7.807
22394SOL    HW167206   5.620   3.600   7.887
22394SOL    HW267207   5.596   3.719   7.778
22395SOL     OW67208   3.751   3.458   7.565
22395SOL    HW167209   3.732   3.362   7.586
22395SOL    HW267210   3.718   3.516   7.640
22396SOL     OW67211   5.413   2.784   8.060
22396SOL    HW167212   5.508   2.755   8.068
22396SOL    HW267213   5.405   2.849   7.985
22397SOL     OW67214   5.365   2.970   7.880
22397SOL    HW167215   5.451   2.972   7.828
22397SOL    HW267216   5.379   3.017   7.968
22398SOL     OW67217   3.837   2.599   9.045
22398SOL    HW167218   3.925   2.586   9.090
22398SOL    HW267219   3.824   2.696   9.023
22399SOL     OW67220   4.337   3.227   8.174
22399SOL    HW167221   4.288   3.140   8.183
22399SOL    HW267222   4.314   3.270   8.087
22400SOL     OW67223   5.017   3.090   8.871
22400SOL    HW167224   5.054   3.017   8.813
22400SOL    HW267225   5.069   3.095   8.956
22401SOL     OW67226   4.533   1.866   7.950
22401SOL    HW167227   4.573   1.957   7.941
22401SOL    HW267228   4.433   1.874   7.956
22402SOL     OW67229   3.921   2.838   8.712
22402SOL    HW167230   4.010   2.793   8.698
22402SOL    HW267231   3.848   2.773   8.693
22403SOL     OW67232   5.249   2.861   7.638
22403SOL    HW167233   5.186   2.785   7.651
22403SOL    HW267234   5.297   2.879   7.724
22404SOL     OW67235   4.911   3.654   9.064
22404SOL    HW167236   4.935   3.714   8.988
22404SOL    HW267237   4.918   3.559   9.034
22405SOL     OW67238   4.041   2.113   9.249
22405SOL    HW167239   4.112   2.184   9.255
22405SOL    HW267240   3.953   2.152   9.277
22406SOL     OW67241   5.190   3.279   8.401
22406SOL    HW167242   5.131   3.285   8.481
22406SOL    HW267243   5.175   3.191   8.355
22407SOL     OW67244   5.391   3.576   8.020
22407SOL    HW167245   5.350   3.553   7.932
22407SOL    HW267246   5.373   3.502   8.085
22408SOL     OW67247   4.322   2.591   7.718
22408SOL    HW167248   4.346   2.660   7.650
22408SOL    HW267249   4.244   2.624   7.772
22409SOL     OW67250   5.005   2.207   8.392
22409SOL    HW167251   4.919   2.157   8.379
22409SOL    HW267252   5.067   2.153   8.448
22410SOL     OW67253   5.300   3.524   7.755
22410SOL    HW167254   5.389   3.570   7.758
22410SOL    HW267255   5.279   3.500   7.660
22411SOL     OW67256   4.531   2.467   8.913
22411SOL    HW167257   4.484   2.464   9.002
22411SOL    HW267258   4.480   2.412   8.847
22412SOL     OW67259   5.118   2.331   9.122
22412SOL    HW167260   5.098   2.374   9.210
22412SOL    HW267261   5.196   2.269   9.131
22413SOL     OW67262   4.697   2.752   9.020
22413SOL    HW167263   4.743   2.668   8.991
22413SOL    HW267264   4.641   2.786   8.945
22414SOL     OW67265   4.715   2.272   8.690
22414SOL    HW167266   4.638   2.306   8.744
22414SOL    HW267267   4.681   2.221   8.611
22415SOL     OW67268   4.765   2.563   7.877
22415SOL    HW167269   4.791   2.559   7.973
22415SOL    HW267270   4.680   2.512   7.863
22416SOL     OW67271   3.800   2.673   8.237
22416SOL    HW167272   3.899   2.661   8.246
22416SOL    HW267273   3.776   2.768   8.258
22417SOL     OW67274   3.854   3.683   9.019
22417SOL    HW167275   3.844   3.668   9.118
22417SOL    HW267276   3.768   3.719   8.983
22418SOL     OW67277   4.589   2.210   7.643
22418SOL    HW167278   4.648   2.273   7.594
22418SOL    HW267279   4.608   2.116   7.614
22419SOL     OW67280   5.443   2.447   9.279
22419SOL    HW167281   5.417   2.536   9.243
22419SOL    HW267282   5.441   2.379   9.206
22420SOL     OW67283   5.086   3.006   7.993
22420SOL    HW167284   5.169   2.977   7.945
22420SOL    HW267285   5.037   3.073   7.937
22421SOL     OW67286   4.274   2.058   8.333
22421SOL    HW167287   4.269   2.053   8.433
22421SOL    HW267288   4.276   2.154   8.304
22422SOL     OW67289   4.732   3.318   7.925
22422SOL    HW167290   4.686   3.390   7.873
22422SOL    HW267291   4.728   3.338   8.023
22423SOL     OW67292   4.075   3.663   8.301
22423SOL    HW167293   4.125   3.577   8.307
22423SOL    HW267294   4.140   3.740   8.298
22424SOL     OW67295   5.519   2.928   8.321
22424SOL    HW167296   5.457   2.913   8.245
22424SOL    HW267297   5.467   2.939   8.406
22425SOL     OW67298   4.951   3.412   8.954
22425SOL    HW167299   4.957   3.335   9.018
22425SOL    HW267300   4.899   3.386   8.874
22426SOL     OW67301   4.045   2.805   7.690
22426SOL    HW167302   4.127   2.844   7.648
22426SOL    HW267303   4.018   2.723   7.641
22427SOL     OW67304   5.182   2.597   8.176
22427SOL    HW167305   5.177   2.532   8.251
22427SOL    HW267306   5.262   2.656   8.189
22428SOL     OW67307   4.185   3.128   9.175
22428SOL    HW167308   4.135   3.129   9.089
22428SOL    HW267309   4.122   3.110   9.251
22429SOL     OW67310   4.835   3.638   7.685
22429SOL    HW167311   4.775   3.576   7.735
22429SOL    HW267312   4.866   3.594   7.600
22430SOL     OW67313   3.926   2.147   8.946
22430SOL    HW167314   3.846   2.207   8.933
22430SOL    HW267315   3.916   2.098   9.032
22431SOL     OW67316   5.356   3.239   7.529
22431SOL    HW167317   5.324   3.333   7.519
22431SOL    HW267318   5.280   3.176   7.517
22432SOL     OW67319   4.188   3.605   7.771
22432SOL    HW167320   4.221   3.644   7.857
22432SOL    HW267321   4.264   3.598   7.706
22433SOL     OW67322   5.124   1.969   7.874
22433SOL    HW167323   5.100   1.932   7.784
22433SOL    HW267324   5.223   1.985   7.878
22434SOL     OW67325   3.973   3.647   8.689
22434SOL    HW167326   4.030   3.582   8.739
22434SOL    HW267327   3.957   3.614   8.596
22435SOL     OW67328   4.664   3.560   8.352
22435SOL    HW167329   4.744   3.503   8.373
22435SOL    HW267330   4.615   3.520   8.275
22436SOL     OW67331   4.106   2.562   7.928
22436SOL    HW167332   4.151   2.472   7.925
22436SOL    HW267333   4.012   2.551   7.961
22437SOL     OW67334   5.271   2.084   9.177
22437SOL    HW167335   5.266   2.121   9.269
22437SOL    HW267336   5.199   2.015   9.165
22438SOL     OW67337   4.338   1.984   7.565
22438SOL    HW167338   4.436   1.962   7.572
22438SOL    HW267339   4.307   1.967   7.472
22439SOL     OW67340   4.505   2.126   9.197
22439SOL    HW167341   4.572   2.065   9.240
22439SOL    HW267342   4.432   2.145   9.262
22440SOL     OW67343   4.612   3.376   8.643
22440SOL    HW167344   4.589   3.351   8.549
22440SOL    HW267345   4.673   3.307   8.682
22441SOL     OW67346   5.075   2.452   8.881
22441SOL    HW167347   5.103   2.409   8.966
22441SOL    HW267348   5.100   2.548   8.882
22442SOL     OW67349   4.527   3.264   8.372
22442SOL    HW167350   4.617   3.278   8.330
22442SOL    HW267351   4.456   3.266   8.301
22443SOL     OW67352   4.646   2.365   8.347
22443SOL    HW167353   4.621   2.356   8.251
22443SOL    HW267354   4.694   2.283   8.378
22444SOL     OW67355   4.263   1.926   7.960
22444SOL    HW167356   4.182   1.927   8.018
22444SOL    HW267357   4.266   2.009   7.905
22445SOL     OW67358   5.158   3.050   7.489
22445SOL    HW167359   5.190   2.974   7.546
22445SOL    HW267360   5.066   3.077   7.519
22446SOL     OW67361   4.021   1.897   7.619
22446SOL    HW167362   4.070   1.981   7.598
22446SOL    HW267363   4.083   1.832   7.664
22447SOL     OW67364   4.659   2.098   7.928
22447SOL    HW167365   4.611   2.139   7.850
22447SOL    HW267366   4.758   2.096   7.909
22448SOL     OW67367   4.800   2.545   8.912
22448SOL    HW167368   4.720   2.484   8.915
22448SOL    HW267369   4.881   2.492   8.888
22449SOL     OW67370   4.951   3.432   8.241
22449SOL    HW167371   4.972   3.506   8.176
22449SOL    HW267372   5.019   3.432   8.314
22450SOL     OW67373   4.183   3.014   8.189
22450SOL    HW167374   4.112   2.987   8.254
22450SOL    HW267375   4.157   2.986   8.096
22451SOL     OW67376   4.995   3.659   8.039
22451SOL    HW167377   5.039   3.723   7.975
22451SOL    HW267378   4.945   3.711   8.109
22452SOL     OW67379   4.756   2.411   7.464
22452SOL    HW167380   4.715   2.493   7.425
22452SOL    HW267381   4.820   2.437   7.537
22453SOL     OW67382   3.802   2.418   8.834
22453SOL    HW167383   3.894   2.417   8.793
22453SOL    HW267384   3.796   2.492   8.901
22454SOL     OW67385   4.285   2.084   8.595
22454SOL    HW167386   4.323   2.000   8.632
22454SOL    HW267387   4.197   2.103   8.639
22455SOL     OW67388   4.590   2.316   8.090
22455SOL    HW167389   4.558   2.388   8.028
22455SOL    HW267390   4.614   2.235   8.037
22456SOL     OW67391   4.741   1.901   8.201
22456SOL    HW167392   4.669   1.906   8.132
22456SOL    HW267393   4.717   1.832   8.270
22457SOL     OW67394   5.153   3.035   8.315
22457SOL    HW167395   5.098   2.951   8.308
22457SOL    HW267396   5.179   3.064   8.223
22458SOL     OW67397   5.190   2.452   8.440
22458SOL    HW167398   5.160   2.357   8.447
22458SOL    HW267399   5.263   2.468   8.506
22459SOL     OW67400   5.581   2.695   7.825
22459SOL    HW167401   5.623   2.631   7.889
22459SOL    HW267402   5.543   2.644   7.747
22460SOL     OW67403   4.212   3.247   7.622
22460SOL    HW167404   4.125   3.232   7.669
22460SOL    HW267405   4.195   3.273   7.527
22461SOL     OW67406   5.388   3.142   8.105
22461SOL    HW167407   5.487   3.150   8.119
22461SOL    HW267408   5.343   3.226   8.136
22462SOL     OW67409   5.114   2.437   7.526
22462SOL    HW167410   5.060   2.416   7.607
22462SOL    HW267411   5.205   2.396   7.535
22463SOL     OW67412   4.251   2.118   7.776
22463SOL    HW167413   4.278   2.059   7.701
22463SOL    HW267414   4.251   2.213   7.745
22464SOL     OW67415   5.478   3.085   9.036
22464SOL    HW167416   5.569   3.046   9.023
22464SOL    HW267417   5.486   3.181   9.060
22465SOL     OW67418   4.788   3.209   8.788
22465SOL    HW167419   4.708   3.186   8.843
22465SOL    HW267420   4.871   3.183   8.837
22466SOL     OW67421   5.316   3.491   9.073
22466SOL    HW167422   5.343   3.525   8.983
22466SOL    HW267423   5.395   3.453   9.119
22467SOL     OW67424   4.835   3.057   8.548
22467SOL    HW167425   4.795   3.101   8.629
22467SOL    HW267426   4.794   3.094   8.465
22468SOL     OW67427   5.362   2.961   8.527
22468SOL    HW167428   5.367   3.042   8.586
22468SOL    HW267429   5.276   2.963   8.476
22469SOL     OW67430   4.639   1.951   8.850
22469SOL    HW167431   4.664   1.931   8.755
22469SOL    HW267432   4.711   2.007   8.892
22470SOL     OW67433   4.704   2.978   9.167
22470SOL    HW167434   4.605   2.984   9.177
22470SOL    HW267435   4.727   2.898   9.111
22471SOL     OW67436   4.429   2.912   7.816
22471SOL    HW167437   4.415   2.919   7.915
22471SOL    HW267438   4.513   2.861   7.798
22472SOL     OW67439   4.134   2.675   8.699
22472SOL    HW167440   4.220   2.687   8.749
22472SOL    HW267441   4.092   2.588   8.726
22473SOL     OW67442   4.998   2.248   8.710
22473SOL    HW167443   5.019   2.322   8.774
22473SOL    HW267444   4.909   2.265   8.667
22474SOL     OW67445   3.788   3.426   8.779
22474SOL    HW167446   3.742   3.508   8.745
22474SOL    HW267447   3.886   3.445   8.788
22475SOL     OW67448   4.091   2.962   7.949
22475SOL    HW167449   4.084   3.045   7.893
22475SOL    HW267450   4.095   2.882   7.889
22476SOL     OW67451   4.290   2.399   8.313
22476SOL    HW167452   4.302   2.465   8.239
22476SOL    HW267453   4.336   2.433   8.396
22477SOL     OW67454   4.976   3.210   7.836
22477SOL    HW167455   5.026   3.287   7.876
22477SOL    HW267456   4.881   3.212   7.868
22478SOL     OW67457   4.996   3.307   8.590
22478SOL    HW167458   5.043   3.320   8.677
22478SOL    HW267459   4.930   3.233   8.599
22479SOL     OW67460   5.306   2.501   7.920
22479SOL    HW167461   5.275   2.562   7.993
22479SOL    HW267462   5.356   2.553   7.851
22480SOL     OW67463   4.078   3.372   8.777
22480SOL    HW167464   4.057   3.328   8.690
22480SOL    HW267465   4.175   3.398   8.780
22481SOL     OW67466   4.126   2.613   9.046
22481SOL    HW167467   4.194   2.668   8.999
22481SOL    HW267468   4.166   2.525   9.073
22482SOL     OW67469   5.311   2.641   9.118
22482SOL    HW167470   5.219   2.679   9.113
22482SOL    HW267471   5.371   2.688   9.053
22483SOL     OW67472   4.737   1.967   9.218
22483SOL    HW167473   4.743   2.052   9.166
22483SOL    HW267474   4.769   1.891   9.161
22484SOL     OW67475   4.228   1.912   9.188
22484SOL    HW167476   4.186   1.855   9.118
22484SOL    HW267477   4.162   1.981   9.220
22485SOL     OW67478   4.297   2.732   8.477
22485SOL    HW167479   4.341   2.821   8.468
22485SOL    HW267480   4.234   2.732   8.554
22486SOL     OW67481   5.084   2.724   8.493
22486SOL    HW167482   5.009   2.724   8.427
22486SOL    HW267483   5.121   2.632   8.502
22487SOL     OW67484   4.933   2.387   7.723
22487SOL    HW167485   4.946   2.303   7.777
22487SOL    HW267486   4.904   2.461   7.783
22488SOL     OW67487   4.031   2.075   8.679
22488SOL    HW167488   4.008   2.112   8.769
22488SOL    HW267489   4.001   1.980   8.673
22489SOL     OW67490   3.761   3.172   8.730
22489SOL    HW167491   3.814   3.123   8.798
22489SOL    HW267492   3.783   3.270   8.735
22490SOL     OW67493   4.456   2.496   8.512
22490SOL    HW167494   4.515   2.470   8.436
22490SOL    HW267495   4.428   2.592   8.501
22491SOL     OW67496   5.452   2.797   9.302
22491SOL    HW167497   5.406   2.790   9.213
22491SOL    HW267498   5.390   2.841   9.368
22492SOL     OW67499   4.031   1.925   8.066
22492SOL    HW167500   4.020   2.019   8.099
22492SOL    HW267501   4.026   1.862   8.143
22493SOL     OW67502   5.346   2.229   7.822
22493SOL    HW167503   5.348   2.153   7.886
22493SOL    HW267504   5.298   2.306   7.862
22494SOL     OW67505   4.747   2.628   8.414
22494SOL    HW167506   4.762   2.649   8.510
22494SOL    HW267507   4.717   2.533   8.405
22495SOL     OW67508   4.704   3.435   9.148
22495SOL    HW167509   4.684   3.479   9.060
22495SOL    HW267510   4.743   3.344   9.132
22496SOL     OW67511   5.583   3.380   9.053
22496SOL    HW167512   5.597   3.407   8.958
22496SOL    HW267513   5.666   3.402   9.106
22497SOL     OW67514   4.074   2.760   9.252
22497SOL    HW167515   4.150   2.804   9.300
22497SOL    HW267516   4.109   2.713   9.170
22498SOL     OW67517   5.264   2.136   7.573
22498SOL    HW167518   5.203   2.061   7.596
22498SOL    HW267519   5.286   2.188   7.656
22499SOL     OW67520   5.027   2.700   7.490
22499SOL    HW167521   5.061   2.607   7.505
22499SOL    HW267522   5.045   2.727   7.395
22500SOL     OW67523   4.792   3.195   8.297
22500SOL    HW167524   4.799   3.111   8.242
22500SOL    HW267525   4.854   3.264   8.261
22501SOL     OW67526   4.043   2.672   8.397
22501SOL    HW167527   4.136   2.708   8.402
22501SOL    HW267528   4.037   2.587   8.449
22502SOL     OW67529   4.063   2.371   8.454
22502SOL    HW167530   4.011   2.288   8.437
22502SOL    HW267531   4.140   2.376   8.390
22503SOL     OW67532   4.862   2.242   9.126
22503SOL    HW167533   4.817   2.305   9.190
22503SOL    HW267534   4.955   2.273   9.109
22504SOL     OW67535   4.884   2.069   8.925
22504SOL    HW167536   4.884   2.133   9.002
22504SOL    HW267537   4.912   2.117   8.842
22505SOL     OW67538   3.732   3.188   7.648
22505SOL    HW167539   3.639   3.209   7.617
22505SOL    HW267540   3.742   3.089   7.661
22506SOL     OW67541   3.812   3.663   8.375
22506SOL    HW167542   3.770   3.577   8.348
22506SOL    HW267543   3.906   3.666   8.341
22507SOL     OW67544   4.228   3.430   8.358
22507SOL    HW167545   4.294   3.504   8.367
22507SOL    HW267546   4.272   3.351   8.316
22508SOL     OW67547   4.726   2.658   8.686
22508SOL    HW167548   4.767   2.626   8.772
22508SOL    HW267549   4.630   2.631   8.683
22509SOL     OW67550   3.764   2.406   8.562
22509SOL    HW167551   3.849   2.373   8.521
22509SOL    HW267552   3.777   2.421   8.660
22510SOL     OW67553   3.913   2.382   9.170
22510SOL    HW167554   3.972   2.342   9.100
22510SOL    HW267555   3.855   2.453   9.129
22511SOL     OW67556   5.093   2.812   9.108
22511SOL    HW167557   5.132   2.901   9.128
22511SOL    HW267558   5.103   2.792   9.011
22512SOL     OW67559   4.539   2.434   7.773
22512SOL    HW167560   4.546   2.345   7.727
22512SOL    HW267561   4.445   2.468   7.765
22513SOL     OW67562   5.381   2.466   8.654
22513SOL    HW167563   5.343   2.397   8.716
22513SOL    HW267564   5.463   2.430   8.610
22514SOL     OW67565   3.976   3.426   9.192
22514SOL    HW167566   3.946   3.483   9.268
22514SOL    HW267567   3.969   3.329   9.218
22515SOL     OW67568   4.395   2.326   8.717
22515SOL    HW167569   4.361   2.237   8.687
22515SOL    HW267570   4.421   2.380   8.637
22516SOL     OW67571   4.654   3.540   8.913
22516SOL    HW167572   4.630   3.522   8.818
22516SOL    HW267573   4.684   3.634   8.923
22517SOL     OW67574   4.197   2.362   7.639
22517SOL    HW167575   4.258   2.442   7.643
22517SOL    HW267576   4.102   2.393   7.646
22518SOL     OW67577   3.883   2.999   8.914
22518SOL    HW167578   3.905   2.938   8.990
22518SOL    HW267579   3.893   2.950   8.828
22519SOL     OW67580   5.071   2.921   8.682
22519SOL    HW167581   5.095   2.858   8.608
22519SOL    HW267582   4.981   2.961   8.664
22520SOL     OW67583   5.026   2.717   7.757
22520SOL    HW167584   4.940   2.686   7.799
22520SOL    HW267585   5.022   2.703   7.658
22521SOL     OW67586   5.483   3.609   8.602
22521SOL    HW167587   5.544   3.639   8.529
22521SOL    HW267588   5.445   3.520   8.580
22522SOL     OW67589   4.976   3.593   8.576
22522SOL    HW167590   5.060   3.598   8.522
22522SOL    HW267591   4.953   3.497   8.594
22523SOL     OW67592   3.807   3.120   8.470
22523SOL    HW167593   3.802   3.119   8.570
22523SOL    HW267594   3.724   3.079   8.432
22524SOL     OW67595   4.412   3.524   9.164
22524SOL    HW167596   4.356   3.605   9.173
22524SOL    HW267597   4.464   3.528   9.078
22525SOL     OW67598   5.450   1.997   7.971
22525SOL    HW167599   5.523   1.980   7.904
22525SOL    HW267600   5.419   1.910   8.009
22526SOL     OW67601   5.112   3.435   7.925
22526SOL    HW167602   5.179   3.447   7.851
22526SOL    HW267603   5.072   3.524   7.948
22527SOL     OW67604   3.854   3.656   9.299
22527SOL    HW167605   3.813   3.582   9.352
22527SOL    HW267606   3.918   3.707   9.357
22528SOL     OW67607   5.004   2.789   8.120
22528SOL    HW167608   5.064   2.708   8.122
22528SOL    HW267609   5.044   2.858   8.060
22529SOL     OW67610   4.554   3.135   8.870
22529SOL    HW167611   4.549   3.168   8.965
22529SOL    HW267612   4.468   3.154   8.824
22530SOL     OW67613   4.396   3.478   7.602
22530SOL    HW167614   4.405   3.488   7.503
22530SOL    HW267615   4.356   3.389   7.623
22531SOL     OW67616   5.374   3.582   8.842
22531SOL    HW167617   5.427   3.592   8.758
22531SOL    HW267618   5.347   3.672   8.876
22532SOL     OW67619   5.565   2.037   8.411
22532SOL    HW167620   5.604   1.952   8.375
22532SOL    HW267621   5.467   2.039   8.392
22533SOL     OW67622   3.987   2.188   8.168
22533SOL    HW167623   3.908   2.239   8.134
22533SOL    HW267624   3.978   2.173   8.266
22534SOL     OW67625   4.918   3.474   7.479
22534SOL    HW167626   4.924   3.381   7.516
22534SOL    HW267627   4.859   3.474   7.399
22535SOL     OW67628   4.546   2.864   8.820
22535SOL    HW167629   4.586   2.863   8.728
22535SOL    HW267630   4.556   2.956   8.860
22536SOL     OW67631   4.640   2.772   7.739
22536SOL    HW167632   4.703   2.810   7.671
22536SOL    HW267633   4.680   2.689   7.778
22537SOL     OW67634   5.228   3.469   7.492
22537SOL    HW167635   5.136   3.506   7.499
22537SOL    HW267636   5.266   3.489   7.402
22538SOL     OW67637   4.096   3.150   8.938
22538SOL    HW167638   4.083   3.243   8.904
22538SOL    HW267639   4.012   3.098   8.925
22539SOL     OW67640   5.338   3.154   8.737
22539SOL    HW167641   5.398   3.157   8.817
22539SOL    HW267642   5.263   3.218   8.750
22540SOL     OW67643   4.763   2.960   8.144
22540SOL    HW167644   4.693   2.913   8.198
22540SOL    HW267645   4.822   2.892   8.101
22541SOL     OW67646   4.738   2.098   8.419
22541SOL    HW167647   4.730   2.062   8.326
22541SOL    HW267648   4.736   2.022   8.484
22542SOL     OW67649   4.314   3.349   7.939
22542SOL    HW167650   4.356   3.291   7.869
22542SOL    HW267651   4.270   3.428   7.895
22543SOL     OW67652   5.433   2.247   8.829
22543SOL    HW167653   5.506   2.316   8.833
22543SOL    HW267654   5.461   2.172   8.770
22544SOL     OW67655   3.979   3.210   7.738
22544SOL    HW167656   3.883   3.211   7.711
22544SOL    HW267657   3.991   3.263   7.822
22545SOL     OW67658   3.829   2.875   9.174
22545SOL    HW167659   3.752   2.842   9.228
22545SOL    HW267660   3.914   2.845   9.216
22546SOL     OW67661   4.396   2.065   8.937
22546SOL    HW167662   4.486   2.049   8.897
22546SOL    HW267663   4.404   2.070   9.036
22547SOL     OW67664   3.799   2.207   7.481
22547SOL    HW167665   3.707   2.179   7.452
22547SOL    HW267666   3.830   2.284   7.425
22548SOL     OW67667   5.164   2.718   8.846
22548SOL    HW167668   5.107   2.770   8.783
22548SOL    HW267669   5.260   2.730   8.822
22549SOL     OW67670   3.796   2.028   7.766
22549SOL    HW167671   3.779   2.111   7.712
22549SOL    HW267672   3.886   1.991   7.744
22550SOL     OW67673   4.907   3.197   7.567
22550SOL    HW167674   4.808   3.186   7.569
22550SOL    HW267675   4.941   3.212   7.660
22551SOL     OW67676   4.337   2.704   8.879
22551SOL    HW167677   4.393   2.785   8.862
22551SOL    HW267678   4.396   2.624   8.882
22552SOL     OW67679   5.217   3.629   8.407
22552SOL    HW167680   5.250   3.693   8.338
22552SOL    HW267681   5.283   3.623   8.482
22553SOL     OW67682   4.440   2.427   9.156
22553SOL    HW167683   4.459   2.492   9.230
22553SOL    HW267684   4.500   2.347   9.165
22554SOL     OW67685   5.174   3.082   9.081
22554SOL    HW167686   5.165   3.072   9.180
22554SOL    HW267687   5.270   3.075   9.055
22555SOL     OW67688   4.114   3.603   9.008
22555SOL    HW167689   4.023   3.644   9.006
22555SOL    HW267690   4.107   3.509   9.040
22556SOL     OW67691   5.398   2.745   8.702
22556SOL    HW167692   5.371   2.656   8.665
22556SOL    HW267693   5.399   2.813   8.629
22557SOL     OW67694   4.949   2.187   7.897
22557SOL    HW167695   5.014   2.113   7.886
22557SOL    HW267696   4.969   2.237   7.981
22558SOL     OW67697   4.318   2.607   8.100
22558SOL    HW167698   4.368   2.692   8.081
22558SOL    HW267699   4.230   2.609   8.052
22559SOL     OW67700   5.501   2.204   9.090
22559SOL    HW167701   5.484   2.235   8.996
22559SOL    HW267702   5.417   2.167   9.128
22560SOL     OW67703   5.454   2.796   8.965
22560SOL    HW167704   5.492   2.887   8.980
22560SOL    HW267705   5.446   2.779   8.866
22561SOL     OW67706   4.583   3.236   7.464
22561SOL    HW167707   4.537   3.251   7.552
22561SOL    HW267708   4.627   3.321   7.434
22562SOL     OW67709   4.385   3.652   8.401
22562SOL    HW167710   4.339   3.740   8.388
22562SOL    HW267711   4.484   3.664   8.394
22563SOL     OW67712   4.583   2.818   8.309
22563SOL    HW167713   4.637   2.749   8.357
22563SOL    HW267714   4.551   2.887   8.375
22564SOL     OW67715   4.807   2.846   7.535
22564SOL    HW167716   4.784   2.899   7.453
22564SOL    HW267717   4.888   2.790   7.516
22565SOL     OW67718   5.585   3.431   8.299
22565SOL    HW167719   5.514   3.419   8.229
22565SOL    HW267720   5.586   3.352   8.359
22566SOL     OW67721   3.945   3.176   9.292
22566SOL    HW167722   3.880   3.103   9.271
22566SOL    HW267723   3.949   3.190   9.390
22567SOL     OW67724   3.803   3.102   8.101
22567SOL    HW167725   3.802   3.055   8.189
22567SOL    HW267726   3.885   3.074   8.050
22568SOL     OW67727   4.396   3.253   9.072
22568SOL    HW167728   4.318   3.203   9.110
22568SOL    HW267729   4.393   3.348   9.103
22569SOL     OW67730   5.548   2.054   8.675
22569SOL    HW167731   5.544   1.964   8.719
22569SOL    HW267732   5.551   2.043   8.576
22570SOL     OW67733   4.152   2.286   7.968
22570SOL    HW167734   4.182   2.214   7.906
22570SOL    HW267735   4.113   2.246   8.051
22571SOL     OW67736   5.429   3.349   8.552
22571SOL    HW167737   5.336   3.324   8.525
22571SOL    HW267738   5.455   3.299   8.634
22572SOL     OW67739   4.041   2.409   8.728
22572SOL    HW167740   4.079   2.350   8.800
22572SOL    HW267741   4.081   2.383   8.640
22573SOL     OW67742   4.536   3.448   8.135
22573SOL    HW167743   4.568   3.458   8.041
22573SOL    HW267744   4.457   3.386   8.137
22574SOL     OW67745   5.148   2.076   8.560
22574SOL    HW167746   5.200   2.011   8.615
22574SOL    HW267747   5.099   2.139   8.621
22575SOL     OW67748   4.725   1.896   8.602
22575SOL    HW167749   4.662   1.824   8.571
22575SOL    HW267750   4.818   1.860   8.602
22576SOL     OW67751   4.494   3.192   7.749
22576SOL    HW167752   4.448   3.105   7.766
22576SOL    HW267753   4.585   3.189   7.790
22577SOL     OW67754   4.342   3.429   8.732
22577SOL    HW167755   4.337   3.511   8.789
22577SOL    HW267756   4.431   3.426   8.687
22578SOL     OW67757   5.076   1.914   7.616
22578SOL    HW167758   5.111   1.873   7.532
22578SOL    HW267759   4.986   1.876   7.636
22579SOL     OW67760   5.024   2.315   8.139
22579SOL    HW167761   4.965   2.395   8.143
22579SOL    HW267762   5.039   2.280   8.232
22580SOL     OW67763   5.317   2.083   8.330
22580SOL    HW167764   5.233   2.082   8.384
22580SOL    HW267765   5.319   2.166   8.274
22581SOL     OW67766   3.763   2.939   7.748
22581SOL    HW167767   3.862   2.928   7.739
22581SOL    HW267768   3.723   2.853   7.780
22582SOL     OW67769   4.599   3.508   7.785
22582SOL    HW167770   4.522   3.473   7.731
22582SOL    HW267771   4.567   3.579   7.847
22583SOL     OW67772   3.954   2.490   9.423
22583SOL    HW167773   3.861   2.488   9.460
22583SOL    HW267774   3.955   2.451   9.331
22584SOL     OW67775   3.949   2.137  10.306
22584SOL    HW167776   3.984   2.120  10.398
22584SOL    HW267777   3.861   2.092  10.294
22585SOL     OW67778   3.743   2.230   9.957
22585SOL    HW167779   3.661   2.273   9.996
22585SOL    HW267780   3.715   2.157   9.894
22586SOL     OW67781   4.293   3.137  10.475
22586SOL    HW167782   4.200   3.130  10.438
22586SOL    HW267783   4.304   3.226  10.519
22587SOL     OW67784   5.279   3.373  10.013
22587SOL    HW167785   5.222   3.357  10.094
22587SOL    HW267786   5.220   3.383   9.933
22588SOL     OW67787   4.859   2.565  10.027
22588SOL    HW167788   4.916   2.643  10.002
22588SOL    HW267789   4.799   2.591  10.103
22589SOL     OW67790   5.479   2.469   9.541
22589SOL    HW167791   5.467   2.456   9.442
22589SOL    HW267792   5.449   2.388   9.590
22590SOL     OW67793   4.492   3.006  10.333
22590SOL    HW167794   4.414   3.023  10.393
22590SOL    HW267795   4.526   3.093  10.297
22591SOL     OW67796   4.574   2.660  11.133
22591SOL    HW167797   4.570   2.736  11.198
22591SOL    HW267798   4.596   2.696  11.042
22592SOL     OW67799   4.409   2.874   9.975
22592SOL    HW167800   4.478   2.858  10.045
22592SOL    HW267801   4.336   2.931  10.013
22593SOL     OW67802   4.410   3.023  11.113
22593SOL    HW167803   4.470   3.102  11.127
22593SOL    HW267804   4.324   3.054  11.072
22594SOL     OW67805   4.059   3.297  10.371
22594SOL    HW167806   3.981   3.266  10.318
22594SOL    HW267807   4.117   3.355  10.314
22595SOL     OW67808   5.184   3.367  10.649
22595SOL    HW167809   5.208   3.461  10.675
22595SOL    HW267810   5.168   3.313  10.731
22596SOL     OW67811   4.162   2.254  10.809
22596SOL    HW167812   4.244   2.198  10.818
22596SOL    HW267813   4.081   2.196  10.813
22597SOL     OW67814   5.327   2.309  10.047
22597SOL    HW167815   5.253   2.355   9.997
22597SOL    HW267816   5.378   2.377  10.100
22598SOL     OW67817   3.955   3.575   9.793
22598SOL    HW167818   3.989   3.652   9.847
22598SOL    HW267819   3.999   3.575   9.703
22599SOL     OW67820   4.851   3.203  11.000
22599SOL    HW167821   4.898   3.203  11.088
22599SOL    HW267822   4.803   3.116  10.989
22600SOL     OW67823   3.954   3.296   9.848
22600SOL    HW167824   3.928   3.392   9.848
22600SOL    HW267825   3.883   3.242   9.893
22601SOL     OW67826   3.964   2.953  10.196
22601SOL    HW167827   3.978   2.869  10.248
22601SOL    HW267828   3.909   3.017  10.251
22602SOL     OW67829   4.344   3.648  10.749
22602SOL    HW167830   4.252   3.631  10.784
22602SOL    HW267831   4.372   3.740  10.775
22603SOL     OW67832   4.330   2.826   9.433
22603SOL    HW167833   4.337   2.910   9.379
22603SOL    HW267834   4.376   2.839   9.521
22604SOL     OW67835   5.318   1.976  10.790
22604SOL    HW167836   5.300   2.043  10.718
22604SOL    HW267837   5.315   2.022  10.879
22605SOL     OW67838   3.846   2.505   9.873
22605SOL    HW167839   3.801   2.417   9.890
22605SOL    HW267840   3.845   2.559   9.957
22606SOL     OW67841   5.566   3.629   9.669
22606SOL    HW167842   5.620   3.600   9.749
22606SOL    HW267843   5.596   3.719   9.640
22607SOL     OW67844   3.751   3.458   9.427
22607SOL    HW167845   3.732   3.362   9.448
22607SOL    HW267846   3.718   3.516   9.502
22608SOL     OW67847   5.413   2.784   9.922
22608SOL    HW167848   5.508   2.755   9.930
22608SOL    HW267849   5.405   2.849   9.847
22609SOL     OW67850   5.365   2.970   9.742
22609SOL    HW167851   5.451   2.972   9.690
22609SOL    HW267852   5.379   3.017   9.830
22610SOL     OW67853   3.837   2.599  10.907
22610SOL    HW167854   3.925   2.586  10.952
22610SOL    HW267855   3.824   2.696  10.885
22611SOL     OW67856   4.337   3.227  10.036
22611SOL    HW167857   4.288   3.140  10.045
22611SOL    HW267858   4.314   3.270   9.949
22612SOL     OW67859   5.017   3.090  10.733
22612SOL    HW167860   5.054   3.017  10.675
22612SOL    HW267861   5.069   3.095  10.818
22613SOL     OW67862   4.533   1.866   9.812
22613SOL    HW167863   4.573   1.957   9.803
22613SOL    HW267864   4.433   1.874   9.818
22614SOL     OW67865   3.921   2.838  10.574
22614SOL    HW167866   4.010   2.793  10.560
22614SOL    HW267867   3.848   2.773  10.555
22615SOL     OW67868   5.249   2.861   9.500
22615SOL    HW167869   5.186   2.785   9.513
22615SOL    HW267870   5.297   2.879   9.586
22616SOL     OW67871   4.911   3.654  10.926
22616SOL    HW167872   4.935   3.714  10.850
22616SOL    HW267873   4.918   3.559  10.896
22617SOL     OW67874   4.041   2.113  11.111
22617SOL    HW167875   4.112   2.184  11.117
22617SOL    HW267876   3.953   2.152  11.139
22618SOL     OW67877   5.190   3.279  10.263
22618SOL    HW167878   5.131   3.285  10.343
22618SOL    HW267879   5.175   3.191  10.217
22619SOL     OW67880   5.391   3.576   9.882
22619SOL    HW167881   5.350   3.553   9.794
22619SOL    HW267882   5.373   3.502   9.947
22620SOL     OW67883   4.322   2.591   9.580
22620SOL    HW167884   4.346   2.660   9.512
22620SOL    HW267885   4.244   2.624   9.634
22621SOL     OW67886   5.005   2.207  10.254
22621SOL    HW167887   4.919   2.157  10.241
22621SOL    HW267888   5.067   2.153  10.310
22622SOL     OW67889   5.300   3.524   9.617
22622SOL    HW167890   5.389   3.570   9.620
22622SOL    HW267891   5.279   3.500   9.522
22623SOL     OW67892   4.531   2.467  10.775
22623SOL    HW167893   4.484   2.464  10.864
22623SOL    HW267894   4.480   2.412  10.709
22624SOL     OW67895   5.118   2.331  10.984
22624SOL    HW167896   5.098   2.374  11.072
22624SOL    HW267897   5.196   2.269  10.993
22625SOL     OW67898   4.697   2.752  10.882
22625SOL    HW167899   4.743   2.668  10.853
22625SOL    HW267900   4.641   2.786  10.807
22626SOL     OW67901   4.715   2.272  10.552
22626SOL    HW167902   4.638   2.306  10.606
22626SOL    HW267903   4.681   2.221  10.473
22627SOL     OW67904   4.765   2.563   9.739
22627SOL    HW167905   4.791   2.559   9.835
22627SOL    HW267906   4.680   2.512   9.725
22628SOL     OW67907   3.800   2.673  10.099
22628SOL    HW167908   3.899   2.661  10.108
22628SOL    HW267909   3.776   2.768  10.120
22629SOL     OW67910   3.854   3.683  10.881
22629SOL    HW167911   3.844   3.668  10.980
22629SOL    HW267912   3.768   3.719  10.845
22630SOL     OW67913   4.589   2.210   9.505
22630SOL    HW167914   4.648   2.273   9.456
22630SOL    HW267915   4.608   2.116   9.476
22631SOL     OW67916   5.443   2.447  11.141
22631SOL    HW167917   5.417   2.536  11.105
22631SOL    HW267918   5.441   2.379  11.068
22632SOL     OW67919   5.086   3.006   9.855
22632SOL    HW167920   5.169   2.977   9.807
22632SOL    HW267921   5.037   3.073   9.799
22633SOL     OW67922   4.274   2.058  10.195
22633SOL    HW167923   4.269   2.053  10.295
22633SOL    HW267924   4.276   2.154  10.166
22634SOL     OW67925   4.732   3.318   9.787
22634SOL    HW167926   4.686   3.390   9.735
22634SOL    HW267927   4.728   3.338   9.885
22635SOL     OW67928   4.075   3.663  10.163
22635SOL    HW167929   4.125   3.577  10.169
22635SOL    HW267930   4.140   3.740  10.160
22636SOL     OW67931   5.519   2.928  10.183
22636SOL    HW167932   5.457   2.913  10.107
22636SOL    HW267933   5.467   2.939  10.268
22637SOL     OW67934   4.951   3.412  10.816
22637SOL    HW167935   4.957   3.335  10.880
22637SOL    HW267936   4.899   3.386  10.736
22638SOL     OW67937   4.045   2.805   9.552
22638SOL    HW167938   4.127   2.844   9.510
22638SOL    HW267939   4.018   2.723   9.503
22639SOL     OW67940   5.182   2.597  10.038
22639SOL    HW167941   5.177   2.532  10.113
22639SOL    HW267942   5.262   2.656  10.051
22640SOL     OW67943   4.185   3.128  11.037
22640SOL    HW167944   4.135   3.129  10.951
22640SOL    HW267945   4.122   3.110  11.113
22641SOL     OW67946   4.835   3.638   9.547
22641SOL    HW167947   4.775   3.576   9.597
22641SOL    HW267948   4.866   3.594   9.462
22642SOL     OW67949   3.926   2.147  10.808
22642SOL    HW167950   3.846   2.207  10.795
22642SOL    HW267951   3.916   2.098  10.894
22643SOL     OW67952   5.356   3.239   9.391
22643SOL    HW167953   5.324   3.333   9.381
22643SOL    HW267954   5.280   3.176   9.379
22644SOL     OW67955   4.188   3.605   9.633
22644SOL    HW167956   4.221   3.644   9.719
22644SOL    HW267957   4.264   3.598   9.568
22645SOL     OW67958   5.124   1.969   9.736
22645SOL    HW167959   5.100   1.932   9.646
22645SOL    HW267960   5.223   1.985   9.740
22646SOL     OW67961   3.973   3.647  10.551
22646SOL    HW167962   4.030   3.582  10.601
22646SOL    HW267963   3.957   3.614  10.458
22647SOL     OW67964   4.664   3.560  10.214
22647SOL    HW167965   4.744   3.503  10.235
22647SOL    HW267966   4.615   3.520  10.137
22648SOL     OW67967   4.106   2.562   9.790
22648SOL    HW167968   4.151   2.472   9.787
22648SOL    HW267969   4.012   2.551   9.823
22649SOL     OW67970   5.271   2.084  11.039
22649SOL    HW167971   5.266   2.121  11.131
22649SOL    HW267972   5.199   2.015  11.027
22650SOL     OW67973   4.338   1.984   9.427
22650SOL    HW167974   4.436   1.962   9.434
22650SOL    HW267975   4.307   1.967   9.334
22651SOL     OW67976   4.505   2.126  11.059
22651SOL    HW167977   4.572   2.065  11.102
22651SOL    HW267978   4.432   2.145  11.124
22652SOL     OW67979   4.612   3.376  10.505
22652SOL    HW167980   4.589   3.351  10.411
22652SOL    HW267981   4.673   3.307  10.544
22653SOL     OW67982   5.075   2.452  10.743
22653SOL    HW167983   5.103   2.409  10.828
22653SOL    HW267984   5.100   2.548  10.744
22654SOL     OW67985   4.527   3.264  10.234
22654SOL    HW167986   4.617   3.278  10.192
22654SOL    HW267987   4.456   3.266  10.163
22655SOL     OW67988   4.646   2.365  10.209
22655SOL    HW167989   4.621   2.356  10.113
22655SOL    HW267990   4.694   2.283  10.240
22656SOL     OW67991   4.263   1.926   9.822
22656SOL    HW167992   4.182   1.927   9.880
22656SOL    HW267993   4.266   2.009   9.767
22657SOL     OW67994   5.158   3.050   9.351
22657SOL    HW167995   5.190   2.974   9.408
22657SOL    HW267996   5.066   3.077   9.381
22658SOL     OW67997   4.021   1.897   9.481
22658SOL    HW167998   4.070   1.981   9.460
22658SOL    HW267999   4.083   1.832   9.526
22659SOL     OW68000   4.659   2.098   9.790
22659SOL    HW168001   4.611   2.139   9.712
22659SOL    HW268002   4.758   2.096   9.771
22660SOL     OW68003   4.800   2.545  10.774
22660SOL    HW168004   4.720   2.484  10.777
22660SOL    HW268005   4.881   2.492  10.750
22661SOL     OW68006   4.951   3.432  10.103
22661SOL    HW168007   4.972   3.506  10.038
22661SOL    HW268008   5.019   3.432  10.176
22662SOL     OW68009   4.183   3.014  10.051
22662SOL    HW168010   4.112   2.987  10.116
22662SOL    HW268011   4.157   2.986   9.958
22663SOL     OW68012   4.995   3.659   9.901
22663SOL    HW168013   5.039   3.723   9.837
22663SOL    HW268014   4.945   3.711   9.971
22664SOL     OW68015   4.756   2.411   9.326
22664SOL    HW168016   4.715   2.493   9.287
22664SOL    HW268017   4.820   2.437   9.399
22665SOL     OW68018   3.802   2.418  10.696
22665SOL    HW168019   3.894   2.417  10.655
22665SOL    HW268020   3.796   2.492  10.763
22666SOL     OW68021   4.285   2.084  10.457
22666SOL    HW168022   4.323   2.000  10.494
22666SOL    HW268023   4.197   2.103  10.501
22667SOL     OW68024   4.590   2.316   9.952
22667SOL    HW168025   4.558   2.388   9.890
22667SOL    HW268026   4.614   2.235   9.899
22668SOL     OW68027   4.741   1.901  10.063
22668SOL    HW168028   4.669   1.906   9.994
22668SOL    HW268029   4.717   1.832  10.132
22669SOL     OW68030   5.153   3.035  10.177
22669SOL    HW168031   5.098   2.951  10.170
22669SOL    HW268032   5.179   3.064  10.085
22670SOL     OW68033   5.190   2.452  10.302
22670SOL    HW168034   5.160   2.357  10.309
22670SOL    HW268035   5.263   2.468  10.368
22671SOL     OW68036   5.581   2.695   9.687
22671SOL    HW168037   5.623   2.631   9.751
22671SOL    HW268038   5.543   2.644   9.609
22672SOL     OW68039   4.212   3.247   9.484
22672SOL    HW168040   4.125   3.232   9.531
22672SOL    HW268041   4.195   3.273   9.389
22673SOL     OW68042   5.388   3.142   9.967
22673SOL    HW168043   5.487   3.150   9.981
22673SOL    HW268044   5.343   3.226   9.998
22674SOL     OW68045   5.114   2.437   9.388
22674SOL    HW168046   5.060   2.416   9.469
22674SOL    HW268047   5.205   2.396   9.397
22675SOL     OW68048   4.251   2.118   9.638
22675SOL    HW168049   4.278   2.059   9.563
22675SOL    HW268050   4.251   2.213   9.607
22676SOL     OW68051   5.478   3.085  10.898
22676SOL    HW168052   5.569   3.046  10.885
22676SOL    HW268053   5.486   3.181  10.922
22677SOL     OW68054   4.788   3.209  10.650
22677SOL    HW168055   4.708   3.186  10.705
22677SOL    HW268056   4.871   3.183  10.699
22678SOL     OW68057   5.316   3.491  10.935
22678SOL    HW168058   5.343   3.525  10.845
22678SOL    HW268059   5.395   3.453  10.981
22679SOL     OW68060   4.835   3.057  10.410
22679SOL    HW168061   4.795   3.101  10.491
22679SOL    HW268062   4.794   3.094  10.327
22680SOL     OW68063   5.362   2.961  10.389
22680SOL    HW168064   5.367   3.042  10.448
22680SOL    HW268065   5.276   2.963  10.338
22681SOL     OW68066   4.639   1.951  10.712
22681SOL    HW168067   4.664   1.931  10.617
22681SOL    HW268068   4.711   2.007  10.754
22682SOL     OW68069   4.704   2.978  11.029
22682SOL    HW168070   4.605   2.984  11.039
22682SOL    HW268071   4.727   2.898  10.973
22683SOL     OW68072   4.429   2.912   9.678
22683SOL    HW168073   4.415   2.919   9.777
22683SOL    HW268074   4.513   2.861   9.660
22684SOL     OW68075   4.134   2.675  10.561
22684SOL    HW168076   4.220   2.687  10.611
22684SOL    HW268077   4.092   2.588  10.588
22685SOL     OW68078   4.998   2.248  10.572
22685SOL    HW168079   5.019   2.322  10.636
22685SOL    HW268080   4.909   2.265  10.529
22686SOL     OW68081   3.788   3.426  10.641
22686SOL    HW168082   3.742   3.508  10.607
22686SOL    HW268083   3.886   3.445  10.650
22687SOL     OW68084   4.091   2.962   9.811
22687SOL    HW168085   4.084   3.045   9.755
22687SOL    HW268086   4.095   2.882   9.751
22688SOL     OW68087   4.290   2.399  10.175
22688SOL    HW168088   4.302   2.465  10.101
22688SOL    HW268089   4.336   2.433  10.258
22689SOL     OW68090   4.976   3.210   9.698
22689SOL    HW168091   5.026   3.287   9.738
22689SOL    HW268092   4.881   3.212   9.730
22690SOL     OW68093   4.996   3.307  10.452
22690SOL    HW168094   5.043   3.320  10.539
22690SOL    HW268095   4.930   3.233  10.461
22691SOL     OW68096   5.306   2.501   9.782
22691SOL    HW168097   5.275   2.562   9.855
22691SOL    HW268098   5.356   2.553   9.713
22692SOL     OW68099   4.078   3.372  10.639
22692SOL    HW168100   4.057   3.328  10.552
22692SOL    HW268101   4.175   3.398  10.642
22693SOL     OW68102   4.126   2.613  10.908
22693SOL    HW168103   4.194   2.668  10.861
22693SOL    HW268104   4.166   2.525  10.935
22694SOL     OW68105   5.311   2.641  10.980
22694SOL    HW168106   5.219   2.679  10.975
22694SOL    HW268107   5.371   2.688  10.915
22695SOL     OW68108   4.737   1.967  11.080
22695SOL    HW168109   4.743   2.052  11.028
22695SOL    HW268110   4.769   1.891  11.023
22696SOL     OW68111   4.228   1.912  11.050
22696SOL    HW168112   4.186   1.855  10.980
22696SOL    HW268113   4.162   1.981  11.082
22697SOL     OW68114   4.297   2.732  10.339
22697SOL    HW168115   4.341   2.821  10.330
22697SOL    HW268116   4.234   2.732  10.416
22698SOL     OW68117   5.084   2.724  10.355
22698SOL    HW168118   5.009   2.724  10.289
22698SOL    HW268119   5.121   2.632  10.364
22699SOL     OW68120   4.933   2.387   9.585
22699SOL    HW168121   4.946   2.303   9.639
22699SOL    HW268122   4.904   2.461   9.645
22700SOL     OW68123   4.031   2.075  10.541
22700SOL    HW168124   4.008   2.112  10.631
22700SOL    HW268125   4.001   1.980  10.535
22701SOL     OW68126   3.761   3.172  10.592
22701SOL    HW168127   3.814   3.123  10.660
22701SOL    HW268128   3.783   3.270  10.597
22702SOL     OW68129   4.456   2.496  10.374
22702SOL    HW168130   4.515   2.470  10.298
22702SOL    HW268131   4.428   2.592  10.363
22703SOL     OW68132   5.452   2.797  11.164
22703SOL    HW168133   5.406   2.790  11.075
22703SOL    HW268134   5.390   2.841  11.230
22704SOL     OW68135   4.031   1.925   9.928
22704SOL    HW168136   4.020   2.019   9.961
22704SOL    HW268137   4.026   1.862  10.005
22705SOL     OW68138   5.346   2.229   9.684
22705SOL    HW168139   5.348   2.153   9.748
22705SOL    HW268140   5.298   2.306   9.724
22706SOL     OW68141   4.747   2.628  10.276
22706SOL    HW168142   4.762   2.649  10.372
22706SOL    HW268143   4.717   2.533  10.267
22707SOL     OW68144   4.704   3.435  11.010
22707SOL    HW168145   4.684   3.479  10.922
22707SOL    HW268146   4.743   3.344  10.994
22708SOL     OW68147   5.583   3.380  10.915
22708SOL    HW168148   5.597   3.407  10.820
22708SOL    HW268149   5.666   3.402  10.968
22709SOL     OW68150   4.074   2.760  11.114
22709SOL    HW168151   4.150   2.804  11.162
22709SOL    HW268152   4.109   2.713  11.032
22710SOL     OW68153   5.264   2.136   9.435
22710SOL    HW168154   5.203   2.061   9.458
22710SOL    HW268155   5.286   2.188   9.518
22711SOL     OW68156   5.027   2.700   9.352
22711SOL    HW168157   5.061   2.607   9.367
22711SOL    HW268158   5.045   2.727   9.257
22712SOL     OW68159   4.792   3.195  10.159
22712SOL    HW168160   4.799   3.111  10.104
22712SOL    HW268161   4.854   3.264  10.123
22713SOL     OW68162   4.043   2.672  10.259
22713SOL    HW168163   4.136   2.708  10.264
22713SOL    HW268164   4.037   2.587  10.311
22714SOL     OW68165   4.063   2.371  10.316
22714SOL    HW168166   4.011   2.288  10.299
22714SOL    HW268167   4.140   2.376  10.252
22715SOL     OW68168   4.862   2.242  10.988
22715SOL    HW168169   4.817   2.305  11.052
22715SOL    HW268170   4.955   2.273  10.971
22716SOL     OW68171   4.884   2.069  10.787
22716SOL    HW168172   4.884   2.133  10.864
22716SOL    HW268173   4.912   2.117  10.704
22717SOL     OW68174   3.732   3.188   9.510
22717SOL    HW168175   3.639   3.209   9.479
22717SOL    HW268176   3.742   3.089   9.523
22718SOL     OW68177   3.812   3.663  10.237
22718SOL    HW168178   3.770   3.577  10.210
22718SOL    HW268179   3.906   3.666  10.203
22719SOL     OW68180   4.228   3.430  10.220
22719SOL    HW168181   4.294   3.504  10.229
22719SOL    HW268182   4.272   3.351  10.178
22720SOL     OW68183   4.726   2.658  10.548
22720SOL    HW168184   4.767   2.626  10.634
22720SOL    HW268185   4.630   2.631  10.545
22721SOL     OW68186   3.764   2.406  10.424
22721SOL    HW168187   3.849   2.373  10.383
22721SOL    HW268188   3.777   2.421  10.522
22722SOL     OW68189   3.913   2.382  11.032
22722SOL    HW168190   3.972   2.342  10.962
22722SOL    HW268191   3.855   2.453  10.991
22723SOL     OW68192   5.093   2.812  10.970
22723SOL    HW168193   5.132   2.901  10.990
22723SOL    HW268194   5.103   2.792  10.873
22724SOL     OW68195   4.539   2.434   9.635
22724SOL    HW168196   4.546   2.345   9.589
22724SOL    HW268197   4.445   2.468   9.627
22725SOL     OW68198   5.381   2.466  10.516
22725SOL    HW168199   5.343   2.397  10.578
22725SOL    HW268200   5.463   2.430  10.472
22726SOL     OW68201   3.976   3.426  11.054
22726SOL    HW168202   3.946   3.483  11.130
22726SOL    HW268203   3.969   3.329  11.080
22727SOL     OW68204   4.395   2.326  10.579
22727SOL    HW168205   4.361   2.237  10.549
22727SOL    HW268206   4.421   2.380  10.499
22728SOL     OW68207   4.654   3.540  10.775
22728SOL    HW168208   4.630   3.522  10.680
22728SOL    HW268209   4.684   3.634  10.785
22729SOL     OW68210   4.197   2.362   9.501
22729SOL    HW168211   4.258   2.442   9.505
22729SOL    HW268212   4.102   2.393   9.508
22730SOL     OW68213   3.883   2.999  10.776
22730SOL    HW168214   3.905   2.938  10.852
22730SOL    HW268215   3.893   2.950  10.690
22731SOL     OW68216   5.071   2.921  10.544
22731SOL    HW168217   5.095   2.858  10.470
22731SOL    HW268218   4.981   2.961  10.526
22732SOL     OW68219   5.026   2.717   9.619
22732SOL    HW168220   4.940   2.686   9.661
22732SOL    HW268221   5.022   2.703   9.520
22733SOL     OW68222   5.483   3.609  10.464
22733SOL    HW168223   5.544   3.639  10.391
22733SOL    HW268224   5.445   3.520  10.442
22734SOL     OW68225   4.976   3.593  10.438
22734SOL    HW168226   5.060   3.598  10.384
22734SOL    HW268227   4.953   3.497  10.456
22735SOL     OW68228   3.807   3.120  10.332
22735SOL    HW168229   3.802   3.119  10.432
22735SOL    HW268230   3.724   3.079  10.294
22736SOL     OW68231   4.412   3.524  11.026
22736SOL    HW168232   4.356   3.605  11.035
22736SOL    HW268233   4.464   3.528  10.940
22737SOL     OW68234   5.450   1.997   9.833
22737SOL    HW168235   5.523   1.980   9.766
22737SOL    HW268236   5.419   1.910   9.871
22738SOL     OW68237   5.112   3.435   9.787
22738SOL    HW168238   5.179   3.447   9.713
22738SOL    HW268239   5.072   3.524   9.810
22739SOL     OW68240   3.854   3.656  11.161
22739SOL    HW168241   3.813   3.582  11.214
22739SOL    HW268242   3.918   3.707  11.219
22740SOL     OW68243   5.004   2.789   9.982
22740SOL    HW168244   5.064   2.708   9.984
22740SOL    HW268245   5.044   2.858   9.922
22741SOL     OW68246   4.554   3.135  10.732
22741SOL    HW168247   4.549   3.168  10.827
22741SOL    HW268248   4.468   3.154  10.686
22742SOL     OW68249   4.396   3.478   9.464
22742SOL    HW168250   4.405   3.488   9.365
22742SOL    HW268251   4.356   3.389   9.485
22743SOL     OW68252   5.374   3.582  10.704
22743SOL    HW168253   5.427   3.592  10.620
22743SOL    HW268254   5.347   3.672  10.738
22744SOL     OW68255   5.565   2.037  10.273
22744SOL    HW168256   5.604   1.952  10.237
22744SOL    HW268257   5.467   2.039  10.254
22745SOL     OW68258   3.987   2.188  10.030
22745SOL    HW168259   3.908   2.239   9.996
22745SOL    HW268260   3.978   2.173  10.128
22746SOL     OW68261   4.918   3.474   9.341
22746SOL    HW168262   4.924   3.381   9.378
22746SOL    HW268263   4.859   3.474   9.261
22747SOL     OW68264   4.546   2.864  10.682
22747SOL    HW168265   4.586   2.863  10.590
22747SOL    HW268266   4.556   2.956  10.722
22748SOL     OW68267   4.640   2.772   9.601
22748SOL    HW168268   4.703   2.810   9.533
22748SOL    HW268269   4.680   2.689   9.640
22749SOL     OW68270   5.228   3.469   9.354
22749SOL    HW168271   5.136   3.506   9.361
22749SOL    HW268272   5.266   3.489   9.264
22750SOL     OW68273   4.096   3.150  10.800
22750SOL    HW168274   4.083   3.243  10.766
22750SOL    HW268275   4.012   3.098  10.787
22751SOL     OW68276   5.338   3.154  10.599
22751SOL    HW168277   5.398   3.157  10.679
22751SOL    HW268278   5.263   3.218  10.612
22752SOL     OW68279   4.763   2.960  10.006
22752SOL    HW168280   4.693   2.913  10.060
22752SOL    HW268281   4.822   2.892   9.963
22753SOL     OW68282   4.738   2.098  10.281
22753SOL    HW168283   4.730   2.062  10.188
22753SOL    HW268284   4.736   2.022  10.346
22754SOL     OW68285   4.314   3.349   9.801
22754SOL    HW168286   4.356   3.291   9.731
22754SOL    HW268287   4.270   3.428   9.757
22755SOL     OW68288   5.433   2.247  10.691
22755SOL    HW168289   5.506   2.316  10.695
22755SOL    HW268290   5.461   2.172  10.632
22756SOL     OW68291   3.979   3.210   9.600
22756SOL    HW168292   3.883   3.211   9.573
22756SOL    HW268293   3.991   3.263   9.684
22757SOL     OW68294   3.829   2.875  11.036
22757SOL    HW168295   3.752   2.842  11.090
22757SOL    HW268296   3.914   2.845  11.078
22758SOL     OW68297   4.396   2.065  10.799
22758SOL    HW168298   4.486   2.049  10.759
22758SOL    HW268299   4.404   2.070  10.898
22759SOL     OW68300   3.799   2.207   9.343
22759SOL    HW168301   3.707   2.179   9.314
22759SOL    HW268302   3.830   2.284   9.287
22760SOL     OW68303   5.164   2.718  10.708
22760SOL    HW168304   5.107   2.770  10.645
22760SOL    HW268305   5.260   2.730  10.684
22761SOL     OW68306   3.796   2.028   9.628
22761SOL    HW168307   3.779   2.111   9.574
22761SOL    HW268308   3.886   1.991   9.606
22762SOL     OW68309   4.907   3.197   9.429
22762SOL    HW168310   4.808   3.186   9.431
22762SOL    HW268311   4.941   3.212   9.522
22763SOL     OW68312   4.337   2.704  10.741
22763SOL    HW168313   4.393   2.785  10.724
22763SOL    HW268314   4.396   2.624  10.744
22764SOL     OW68315   5.217   3.629  10.269
22764SOL    HW168316   5.250   3.693  10.200
22764SOL    HW268317   5.283   3.623  10.344
22765SOL     OW68318   4.440   2.427  11.018
22765SOL    HW168319   4.459   2.492  11.092
22765SOL    HW268320   4.500   2.347  11.027
22766SOL     OW68321   5.174   3.082  10.943
22766SOL    HW168322   5.165   3.072  11.042
22766SOL    HW268323   5.270   3.075  10.917
22767SOL     OW68324   4.114   3.603  10.870
22767SOL    HW168325   4.023   3.644  10.868
22767SOL    HW268326   4.107   3.509  10.902
22768SOL     OW68327   5.398   2.745  10.564
22768SOL    HW168328   5.371   2.656  10.527
22768SOL    HW268329   5.399   2.813  10.491
22769SOL     OW68330   4.949   2.187   9.759
22769SOL    HW168331   5.014   2.113   9.748
22769SOL    HW268332   4.969   2.237   9.843
22770SOL     OW68333   4.318   2.607   9.962
22770SOL    HW168334   4.368   2.692   9.943
22770SOL    HW268335   4.230   2.609   9.914
22771SOL     OW68336   5.501   2.204  10.952
22771SOL    HW168337   5.484   2.235  10.858
22771SOL    HW268338   5.417   2.167  10.990
22772SOL     OW68339   5.454   2.796  10.827
22772SOL    HW168340   5.492   2.887  10.842
22772SOL    HW268341   5.446   2.779  10.728
22773SOL     OW68342   4.583   3.236   9.326
22773SOL    HW168343   4.537   3.251   9.414
22773SOL    HW268344   4.627   3.321   9.296
22774SOL     OW68345   4.385   3.652  10.263
22774SOL    HW168346   4.339   3.740  10.250
22774SOL    HW268347   4.484   3.664  10.256
22775SOL     OW68348   4.583   2.818  10.171
22775SOL    HW168349   4.637   2.749  10.219
22775SOL    HW268350   4.551   2.887  10.237
22776SOL     OW68351   4.807   2.846   9.397
22776SOL    HW168352   4.784   2.899   9.315
22776SOL    HW268353   4.888   2.790   9.378
22777SOL     OW68354   5.585   3.431  10.161
22777SOL    HW168355   5.514   3.419  10.091
22777SOL    HW268356   5.586   3.352  10.221
22778SOL     OW68357   3.945   3.176  11.154
22778SOL    HW168358   3.880   3.103  11.133
22778SOL    HW268359   3.949   3.190  11.252
22779SOL     OW68360   3.803   3.102   9.963
22779SOL    HW168361   3.802   3.055  10.051
22779SOL    HW268362   3.885   3.074   9.912
22780SOL     OW68363   4.396   3.253  10.934
22780SOL    HW168364   4.318   3.203  10.972
22780SOL    HW268365   4.393   3.348  10.965
22781SOL     OW68366   5.548   2.054  10.537
22781SOL    HW168367   5.544   1.964  10.581
22781SOL    HW268368   5.551   2.043  10.438
22782SOL     OW68369   4.152   2.286   9.830
22782SOL    HW168370   4.182   2.214   9.768
22782SOL    HW268371   4.113   2.246   9.913
22783SOL     OW68372   5.429   3.349  10.414
22783SOL    HW168373   5.336   3.324  10.387
22783SOL    HW268374   5.455   3.299  10.496
22784SOL     OW68375   4.041   2.409  10.590
22784SOL    HW168376   4.079   2.350  10.662
22784SOL    HW268377   4.081   2.383  10.502
22785SOL     OW68378   4.536   3.448   9.997
22785SOL    HW168379   4.568   3.458   9.903
22785SOL    HW268380   4.457   3.386   9.999
22786SOL     OW68381   5.148   2.076  10.422
22786SOL    HW168382   5.200   2.011  10.477
22786SOL    HW268383   5.099   2.139  10.483
22787SOL     OW68384   4.725   1.896  10.464
22787SOL    HW168385   4.662   1.824  10.433
22787SOL    HW268386   4.818   1.860  10.464
22788SOL     OW68387   4.494   3.192   9.611
22788SOL    HW168388   4.448   3.105   9.628
22788SOL    HW268389   4.585   3.189   9.652
22789SOL     OW68390   4.342   3.429  10.594
22789SOL    HW168391   4.337   3.511  10.651
22789SOL    HW268392   4.431   3.426  10.549
22790SOL     OW68393   5.076   1.914   9.478
22790SOL    HW168394   5.111   1.873   9.394
22790SOL    HW268395   4.986   1.876   9.498
22791SOL     OW68396   5.024   2.315  10.001
22791SOL    HW168397   4.965   2.395  10.005
22791SOL    HW268398   5.039   2.280  10.094
22792SOL     OW68399   5.317   2.083  10.192
22792SOL    HW168400   5.233   2.082  10.246
22792SOL    HW268401   5.319   2.166  10.136
22793SOL     OW68402   3.763   2.939   9.610
22793SOL    HW168403   3.862   2.928   9.601
22793SOL    HW268404   3.723   2.853   9.642
22794SOL     OW68405   4.599   3.508   9.647
22794SOL    HW168406   4.522   3.473   9.593
22794SOL    HW268407   4.567   3.579   9.709
22795SOL     OW68408   3.954   2.490  11.285
22795SOL    HW168409   3.861   2.488  11.322
22795SOL    HW268410   3.955   2.451  11.193
22796SOL     OW68411   3.949   2.137  12.168
22796SOL    HW168412   3.984   2.120  12.260
22796SOL    HW268413   3.861   2.092  12.156
22797SOL     OW68414   3.743   2.230  11.819
22797SOL    HW168415   3.661   2.273  11.858
22797SOL    HW268416   3.715   2.157  11.756
22798SOL     OW68417   4.293   3.137  12.337
22798SOL    HW168418   4.200   3.130  12.300
22798SOL    HW268419   4.304   3.226  12.381
22799SOL     OW68420   5.279   3.373  11.875
22799SOL    HW168421   5.222   3.357  11.956
22799SOL    HW268422   5.220   3.383  11.795
22800SOL     OW68423   4.859   2.565  11.889
22800SOL    HW168424   4.916   2.643  11.864
22800SOL    HW268425   4.799   2.591  11.965
22801SOL     OW68426   5.479   2.469  11.403
22801SOL    HW168427   5.467   2.456  11.304
22801SOL    HW268428   5.449   2.388  11.452
22802SOL     OW68429   4.492   3.006  12.195
22802SOL    HW168430   4.414   3.023  12.255
22802SOL    HW268431   4.526   3.093  12.159
22803SOL     OW68432   4.409   2.874  11.837
22803SOL    HW168433   4.478   2.858  11.907
22803SOL    HW268434   4.336   2.931  11.875
22804SOL     OW68435   4.059   3.297  12.233
22804SOL    HW168436   3.981   3.266  12.180
22804SOL    HW268437   4.117   3.355  12.176
22805SOL     OW68438   5.184   3.367  12.511
22805SOL    HW168439   5.208   3.461  12.537
22805SOL    HW268440   5.168   3.313  12.593
22806SOL     OW68441   4.162   2.254  12.671
22806SOL    HW168442   4.244   2.198  12.680
22806SOL    HW268443   4.081   2.196  12.675
22807SOL     OW68444   5.327   2.309  11.909
22807SOL    HW168445   5.253   2.355  11.859
22807SOL    HW268446   5.378   2.377  11.962
22808SOL     OW68447   3.955   3.575  11.655
22808SOL    HW168448   3.989   3.652  11.709
22808SOL    HW268449   3.999   3.575  11.565
22809SOL     OW68450   3.954   3.296  11.710
22809SOL    HW168451   3.928   3.392  11.710
22809SOL    HW268452   3.883   3.242  11.755
22810SOL     OW68453   3.964   2.953  12.058
22810SOL    HW168454   3.978   2.869  12.110
22810SOL    HW268455   3.909   3.017  12.113
22811SOL     OW68456   4.344   3.648  12.611
22811SOL    HW168457   4.252   3.631  12.646
22811SOL    HW268458   4.372   3.740  12.637
22812SOL     OW68459   4.330   2.826  11.295
22812SOL    HW168460   4.337   2.910  11.241
22812SOL    HW268461   4.376   2.839  11.383
22813SOL     OW68462   5.318   1.976  12.652
22813SOL    HW168463   5.300   2.043  12.580
22813SOL    HW268464   5.315   2.022  12.741
22814SOL     OW68465   3.846   2.505  11.735
22814SOL    HW168466   3.801   2.417  11.752
22814SOL    HW268467   3.845   2.559  11.819
22815SOL     OW68468   5.566   3.629  11.531
22815SOL    HW168469   5.620   3.600  11.611
22815SOL    HW268470   5.596   3.719  11.502
22816SOL     OW68471   3.751   3.458  11.289
22816SOL    HW168472   3.732   3.362  11.310
22816SOL    HW268473   3.718   3.516  11.364
22817SOL     OW68474   5.413   2.784  11.784
22817SOL    HW168475   5.508   2.755  11.792
22817SOL    HW268476   5.405   2.849  11.709
22818SOL     OW68477   5.365   2.970  11.604
22818SOL    HW168478   5.451   2.972  11.552
22818SOL    HW268479   5.379   3.017  11.692
22819SOL     OW68480   3.837   2.599  12.769
22819SOL    HW168481   3.925   2.586  12.814
22819SOL    HW268482   3.824   2.696  12.747
22820SOL     OW68483   4.337   3.227  11.898
22820SOL    HW168484   4.288   3.140  11.907
22820SOL    HW268485   4.314   3.270  11.811
22821SOL     OW68486   5.017   3.090  12.595
22821SOL    HW168487   5.054   3.017  12.537
22821SOL    HW268488   5.069   3.095  12.680
22822SOL     OW68489   4.533   1.866  11.674
22822SOL    HW168490   4.573   1.957  11.665
22822SOL    HW268491   4.433   1.874  11.680
22823SOL     OW68492   3.921   2.838  12.436
22823SOL    HW168493   4.010   2.793  12.422
22823SOL    HW268494   3.848   2.773  12.417
22824SOL     OW68495   5.249   2.861  11.362
22824SOL    HW168496   5.186   2.785  11.375
22824SOL    HW268497   5.297   2.879  11.448
22825SOL     OW68498   5.190   3.279  12.125
22825SOL    HW168499   5.131   3.285  12.205
22825SOL    HW268500   5.175   3.191  12.079
22826SOL     OW68501   5.391   3.576  11.744
22826SOL    HW168502   5.350   3.553  11.656
22826SOL    HW268503   5.373   3.502  11.809
22827SOL     OW68504   4.322   2.591  11.442
22827SOL    HW168505   4.346   2.660  11.374
22827SOL    HW268506   4.244   2.624  11.496
22828SOL     OW68507   5.005   2.207  12.116
22828SOL    HW168508   4.919   2.157  12.103
22828SOL    HW268509   5.067   2.153  12.172
22829SOL     OW68510   5.300   3.524  11.479
22829SOL    HW168511   5.389   3.570  11.482
22829SOL    HW268512   5.279   3.500  11.384
22830SOL     OW68513   4.531   2.467  12.637
22830SOL    HW168514   4.484   2.464  12.726
22830SOL    HW268515   4.480   2.412  12.571
22831SOL     OW68516   4.697   2.752  12.744
22831SOL    HW168517   4.743   2.668  12.715
22831SOL    HW268518   4.641   2.786  12.669
22832SOL     OW68519   4.715   2.272  12.414
22832SOL    HW168520   4.638   2.306  12.468
22832SOL    HW268521   4.681   2.221  12.335
22833SOL     OW68522   4.765   2.563  11.601
22833SOL    HW168523   4.791   2.559  11.697
22833SOL    HW268524   4.680   2.512  11.587
22834SOL     OW68525   3.800   2.673  11.961
22834SOL    HW168526   3.899   2.661  11.970
22834SOL    HW268527   3.776   2.768  11.982
22835SOL     OW68528   3.854   3.683  12.743
22835SOL    HW168529   3.844   3.668  12.842
22835SOL    HW268530   3.768   3.719  12.707
22836SOL     OW68531   4.589   2.210  11.367
22836SOL    HW168532   4.648   2.273  11.318
22836SOL    HW268533   4.608   2.116  11.338
22837SOL     OW68534   5.086   3.006  11.717
22837SOL    HW168535   5.169   2.977  11.669
22837SOL    HW268536   5.037   3.073  11.661
22838SOL     OW68537   4.274   2.058  12.057
22838SOL    HW168538   4.269   2.053  12.157
22838SOL    HW268539   4.276   2.154  12.028
22839SOL     OW68540   4.732   3.318  11.649
22839SOL    HW168541   4.686   3.390  11.597
22839SOL    HW268542   4.728   3.338  11.747
22840SOL     OW68543   4.075   3.663  12.025
22840SOL    HW168544   4.125   3.577  12.031
22840SOL    HW268545   4.140   3.740  12.022
22841SOL     OW68546   5.519   2.928  12.045
22841SOL    HW168547   5.457   2.913  11.969
22841SOL    HW268548   5.467   2.939  12.130
22842SOL     OW68549   4.951   3.412  12.678
22842SOL    HW168550   4.957   3.335  12.742
22842SOL    HW268551   4.899   3.386  12.598
22843SOL     OW68552   4.045   2.805  11.414
22843SOL    HW168553   4.127   2.844  11.372
22843SOL    HW268554   4.018   2.723  11.365
22844SOL     OW68555   5.182   2.597  11.900
22844SOL    HW168556   5.177   2.532  11.975
22844SOL    HW268557   5.262   2.656  11.913
22845SOL     OW68558   4.835   3.638  11.409
22845SOL    HW168559   4.775   3.576  11.459
22845SOL    HW268560   4.866   3.594  11.324
22846SOL     OW68561   3.926   2.147  12.670
22846SOL    HW168562   3.846   2.207  12.657
22846SOL    HW268563   3.916   2.098  12.756
22847SOL     OW68564   5.356   3.239  11.253
22847SOL    HW168565   5.324   3.333  11.243
22847SOL    HW268566   5.280   3.176  11.241
22848SOL     OW68567   4.188   3.605  11.495
22848SOL    HW168568   4.221   3.644  11.581
22848SOL    HW268569   4.264   3.598  11.430
22849SOL     OW68570   5.124   1.969  11.598
22849SOL    HW168571   5.100   1.932  11.508
22849SOL    HW268572   5.223   1.985  11.602
22850SOL     OW68573   3.973   3.647  12.413
22850SOL    HW168574   4.030   3.582  12.463
22850SOL    HW268575   3.957   3.614  12.320
22851SOL     OW68576   4.664   3.560  12.076
22851SOL    HW168577   4.744   3.503  12.097
22851SOL    HW268578   4.615   3.520  11.999
22852SOL     OW68579   4.106   2.562  11.652
22852SOL    HW168580   4.151   2.472  11.649
22852SOL    HW268581   4.012   2.551  11.685
22853SOL     OW68582   4.338   1.984  11.289
22853SOL    HW168583   4.436   1.962  11.296
22853SOL    HW268584   4.307   1.967  11.196
22854SOL     OW68585   4.612   3.376  12.367
22854SOL    HW168586   4.589   3.351  12.273
22854SOL    HW268587   4.673   3.307  12.406
22855SOL     OW68588   5.075   2.452  12.605
22855SOL    HW168589   5.103   2.409  12.690
22855SOL    HW268590   5.100   2.548  12.606
22856SOL     OW68591   4.527   3.264  12.096
22856SOL    HW168592   4.617   3.278  12.054
22856SOL    HW268593   4.456   3.266  12.025
22857SOL     OW68594   4.646   2.365  12.071
22857SOL    HW168595   4.621   2.356  11.975
22857SOL    HW268596   4.694   2.283  12.102
22858SOL     OW68597   4.263   1.926  11.684
22858SOL    HW168598   4.182   1.927  11.742
22858SOL    HW268599   4.266   2.009  11.629
22859SOL     OW68600   5.158   3.050  11.213
22859SOL    HW168601   5.190   2.974  11.270
22859SOL    HW268602   5.066   3.077  11.243
22860SOL     OW68603   4.021   1.897  11.343
22860SOL    HW168604   4.070   1.981  11.322
22860SOL    HW268605   4.083   1.832  11.388
22861SOL     OW68606   4.659   2.098  11.652
22861SOL    HW168607   4.611   2.139  11.574
22861SOL    HW268608   4.758   2.096  11.633
22862SOL     OW68609   4.800   2.545  12.636
22862SOL    HW168610   4.720   2.484  12.639
22862SOL    HW268611   4.881   2.492  12.612
22863SOL     OW68612   4.951   3.432  11.965
22863SOL    HW168613   4.972   3.506  11.900
22863SOL    HW268614   5.019   3.432  12.038
22864SOL     OW68615   4.183   3.014  11.913
22864SOL    HW168616   4.112   2.987  11.978
22864SOL    HW268617   4.157   2.986  11.820
22865SOL     OW68618   4.995   3.659  11.763
22865SOL    HW168619   5.039   3.723  11.699
22865SOL    HW268620   4.945   3.711  11.833
22866SOL     OW68621   4.756   2.411  11.188
22866SOL    HW168622   4.715   2.493  11.149
22866SOL    HW268623   4.820   2.437  11.261
22867SOL     OW68624   3.802   2.418  12.558
22867SOL    HW168625   3.894   2.417  12.517
22867SOL    HW268626   3.796   2.492  12.625
22868SOL     OW68627   4.285   2.084  12.319
22868SOL    HW168628   4.323   2.000  12.356
22868SOL    HW268629   4.197   2.103  12.363
22869SOL     OW68630   4.590   2.316  11.814
22869SOL    HW168631   4.558   2.388  11.752
22869SOL    HW268632   4.614   2.235  11.761
22870SOL     OW68633   4.741   1.901  11.925
22870SOL    HW168634   4.669   1.906  11.856
22870SOL    HW268635   4.717   1.832  11.994
22871SOL     OW68636   5.153   3.035  12.039
22871SOL    HW168637   5.098   2.951  12.032
22871SOL    HW268638   5.179   3.064  11.947
22872SOL     OW68639   5.190   2.452  12.164
22872SOL    HW168640   5.160   2.357  12.171
22872SOL    HW268641   5.263   2.468  12.230
22873SOL     OW68642   5.581   2.695  11.549
22873SOL    HW168643   5.623   2.631  11.613
22873SOL    HW268644   5.543   2.644  11.471
22874SOL     OW68645   4.212   3.247  11.346
22874SOL    HW168646   4.125   3.232  11.393
22874SOL    HW268647   4.195   3.273  11.251
22875SOL     OW68648   5.388   3.142  11.829
22875SOL    HW168649   5.487   3.150  11.843
22875SOL    HW268650   5.343   3.226  11.860
22876SOL     OW68651   5.114   2.437  11.250
22876SOL    HW168652   5.060   2.416  11.331
22876SOL    HW268653   5.205   2.396  11.259
22877SOL     OW68654   4.251   2.118  11.500
22877SOL    HW168655   4.278   2.059  11.425
22877SOL    HW268656   4.251   2.213  11.469
22878SOL     OW68657   5.478   3.085  12.760
22878SOL    HW168658   5.569   3.046  12.747
22878SOL    HW268659   5.486   3.181  12.784
22879SOL     OW68660   4.788   3.209  12.512
22879SOL    HW168661   4.708   3.186  12.567
22879SOL    HW268662   4.871   3.183  12.561
22880SOL     OW68663   4.835   3.057  12.272
22880SOL    HW168664   4.795   3.101  12.353
22880SOL    HW268665   4.794   3.094  12.189
22881SOL     OW68666   5.362   2.961  12.251
22881SOL    HW168667   5.367   3.042  12.310
22881SOL    HW268668   5.276   2.963  12.200
22882SOL     OW68669   4.639   1.951  12.574
22882SOL    HW168670   4.664   1.931  12.479
22882SOL    HW268671   4.711   2.007  12.616
22883SOL     OW68672   4.429   2.912  11.540
22883SOL    HW168673   4.415   2.919  11.639
22883SOL    HW268674   4.513   2.861  11.522
22884SOL     OW68675   4.134   2.675  12.423
22884SOL    HW168676   4.220   2.687  12.473
22884SOL    HW268677   4.092   2.588  12.450
22885SOL     OW68678   4.998   2.248  12.434
22885SOL    HW168679   5.019   2.322  12.498
22885SOL    HW268680   4.909   2.265  12.391
22886SOL     OW68681   3.788   3.426  12.503
22886SOL    HW168682   3.742   3.508  12.469
22886SOL    HW268683   3.886   3.445  12.512
22887SOL     OW68684   4.091   2.962  11.673
22887SOL    HW168685   4.084   3.045  11.617
22887SOL    HW268686   4.095   2.882  11.613
22888SOL     OW68687   4.290   2.399  12.037
22888SOL    HW168688   4.302   2.465  11.963
22888SOL    HW268689   4.336   2.433  12.120
22889SOL     OW68690   4.976   3.210  11.560
22889SOL    HW168691   5.026   3.287  11.600
22889SOL    HW268692   4.881   3.212  11.592
22890SOL     OW68693   4.996   3.307  12.314
22890SOL    HW168694   5.043   3.320  12.401
22890SOL    HW268695   4.930   3.233  12.323
22891SOL     OW68696   5.306   2.501  11.644
22891SOL    HW168697   5.275   2.562  11.717
22891SOL    HW268698   5.356   2.553  11.575
22892SOL     OW68699   4.078   3.372  12.501
22892SOL    HW168700   4.057   3.328  12.414
22892SOL    HW268701   4.175   3.398  12.504
22893SOL     OW68702   4.126   2.613  12.770
22893SOL    HW168703   4.194   2.668  12.723
22893SOL    HW268704   4.166   2.525  12.797
22894SOL     OW68705   5.311   2.641  12.842
22894SOL    HW168706   5.219   2.679  12.837
22894SOL    HW268707   5.371   2.688  12.777
22895SOL     OW68708   4.297   2.732  12.201
22895SOL    HW168709   4.341   2.821  12.192
22895SOL    HW268710   4.234   2.732  12.278
22896SOL     OW68711   5.084   2.724  12.217
22896SOL    HW168712   5.009   2.724  12.151
22896SOL    HW268713   5.121   2.632  12.226
22897SOL     OW68714   4.933   2.387  11.447
22897SOL    HW168715   4.946   2.303  11.501
22897SOL    HW268716   4.904   2.461  11.507
22898SOL     OW68717   4.031   2.075  12.403
22898SOL    HW168718   4.008   2.112  12.493
22898SOL    HW268719   4.001   1.980  12.397
22899SOL     OW68720   3.761   3.172  12.454
22899SOL    HW168721   3.814   3.123  12.522
22899SOL    HW268722   3.783   3.270  12.459
22900SOL     OW68723   4.456   2.496  12.236
22900SOL    HW168724   4.515   2.470  12.160
22900SOL    HW268725   4.428   2.592  12.225
22901SOL     OW68726   4.031   1.925  11.790
22901SOL    HW168727   4.020   2.019  11.823
22901SOL    HW268728   4.026   1.862  11.867
22902SOL     OW68729   5.346   2.229  11.546
22902SOL    HW168730   5.348   2.153  11.610
22902SOL    HW268731   5.298   2.306  11.586
22903SOL     OW68732   4.747   2.628  12.138
22903SOL    HW168733   4.762   2.649  12.234
22903SOL    HW268734   4.717   2.533  12.129
22904SOL     OW68735   5.264   2.136  11.297
22904SOL    HW168736   5.203   2.061  11.320
22904SOL    HW268737   5.286   2.188  11.380
22905SOL     OW68738   5.027   2.700  11.214
22905SOL    HW168739   5.061   2.607  11.229
22905SOL    HW268740   5.045   2.727  11.119
22906SOL     OW68741   4.792   3.195  12.021
22906SOL    HW168742   4.799   3.111  11.966
22906SOL    HW268743   4.854   3.264  11.985
22907SOL     OW68744   4.043   2.672  12.121
22907SOL    HW168745   4.136   2.708  12.126
22907SOL    HW268746   4.037   2.587  12.173
22908SOL     OW68747   4.063   2.371  12.178
22908SOL    HW168748   4.011   2.288  12.161
22908SOL    HW268749   4.140   2.376  12.114
22909SOL     OW68750   4.884   2.069  12.649
22909SOL    HW168751   4.884   2.133  12.726
22909SOL    HW268752   4.912   2.117  12.566
22910SOL     OW68753   3.732   3.188  11.372
22910SOL    HW168754   3.639   3.209  11.341
22910SOL    HW268755   3.742   3.089  11.385
22911SOL     OW68756   3.812   3.663  12.099
22911SOL    HW168757   3.770   3.577  12.072
22911SOL    HW268758   3.906   3.666  12.065
22912SOL     OW68759   4.228   3.430  12.082
22912SOL    HW168760   4.294   3.504  12.091
22912SOL    HW268761   4.272   3.351  12.040
22913SOL     OW68762   4.726   2.658  12.410
22913SOL    HW168763   4.767   2.626  12.496
22913SOL    HW268764   4.630   2.631  12.407
22914SOL     OW68765   3.764   2.406  12.286
22914SOL    HW168766   3.849   2.373  12.245
22914SOL    HW268767   3.777   2.421  12.384
22915SOL     OW68768   4.539   2.434  11.497
22915SOL    HW168769   4.546   2.345  11.451
22915SOL    HW268770   4.445   2.468  11.489
22916SOL     OW68771   5.381   2.466  12.378
22916SOL    HW168772   5.343   2.397  12.440
22916SOL    HW268773   5.463   2.430  12.334
22917SOL     OW68774   3.976   3.426  12.916
22917SOL    HW168775   3.946   3.483  12.992
22917SOL    HW268776   3.969   3.329  12.942
22918SOL     OW68777   4.395   2.326  12.441
22918SOL    HW168778   4.361   2.237  12.411
22918SOL    HW268779   4.421   2.380  12.361
22919SOL     OW68780   4.654   3.540  12.637
22919SOL    HW168781   4.630   3.522  12.542
22919SOL    HW268782   4.684   3.634  12.647
22920SOL     OW68783   4.197   2.362  11.363
22920SOL    HW168784   4.258   2.442  11.367
22920SOL    HW268785   4.102   2.393  11.370
22921SOL     OW68786   3.883   2.999  12.638
22921SOL    HW168787   3.905   2.938  12.714
22921SOL    HW268788   3.893   2.950  12.552
22922SOL     OW68789   5.071   2.921  12.406
22922SOL    HW168790   5.095   2.858  12.332
22922SOL    HW268791   4.981   2.961  12.388
22923SOL     OW68792   5.026   2.717  11.481
22923SOL    HW168793   4.940   2.686  11.523
22923SOL    HW268794   5.022   2.703  11.382
22924SOL     OW68795   5.483   3.609  12.326
22924SOL    HW168796   5.544   3.639  12.253
22924SOL    HW268797   5.445   3.520  12.304
22925SOL     OW68798   4.976   3.593  12.300
22925SOL    HW168799   5.060   3.598  12.246
22925SOL    HW268800   4.953   3.497  12.318
22926SOL     OW68801   3.807   3.120  12.194
22926SOL    HW168802   3.802   3.119  12.294
22926SOL    HW268803   3.724   3.079  12.156
22927SOL     OW68804   5.450   1.997  11.695
22927SOL    HW168805   5.523   1.980  11.628
22927SOL    HW268806   5.419   1.910  11.733
22928SOL     OW68807   5.112   3.435  11.649
22928SOL    HW168808   5.179   3.447  11.575
22928SOL    HW268809   5.072   3.524  11.672
22929SOL     OW68810   5.004   2.789  11.844
22929SOL    HW168811   5.064   2.708  11.846
22929SOL    HW268812   5.044   2.858  11.784
22930SOL     OW68813   4.554   3.135  12.594
22930SOL    HW168814   4.549   3.168  12.689
22930SOL    HW268815   4.468   3.154  12.548
22931SOL     OW68816   4.396   3.478  11.326
22931SOL    HW168817   4.405   3.488  11.227
22931SOL    HW268818   4.356   3.389  11.347
22932SOL     OW68819   5.374   3.582  12.566
22932SOL    HW168820   5.427   3.592  12.482
22932SOL    HW268821   5.347   3.672  12.600
22933SOL     OW68822   5.565   2.037  12.135
22933SOL    HW168823   5.604   1.952  12.099
22933SOL    HW268824   5.467   2.039  12.116
22934SOL     OW68825   3.987   2.188  11.892
22934SOL    HW168826   3.908   2.239  11.858
22934SOL    HW268827   3.978   2.173  11.990
22935SOL     OW68828   4.918   3.474  11.203
22935SOL    HW168829   4.924   3.381  11.240
22935SOL    HW268830   4.859   3.474  11.123
22936SOL     OW68831   4.546   2.864  12.544
22936SOL    HW168832   4.586   2.863  12.452
22936SOL    HW268833   4.556   2.956  12.584
22937SOL     OW68834   4.640   2.772  11.463
22937SOL    HW168835   4.703   2.810  11.395
22937SOL    HW268836   4.680   2.689  11.502
22938SOL     OW68837   5.228   3.469  11.216
22938SOL    HW168838   5.136   3.506  11.223
22938SOL    HW268839   5.266   3.489  11.126
22939SOL     OW68840   4.096   3.150  12.662
22939SOL    HW168841   4.083   3.243  12.628
22939SOL    HW268842   4.012   3.098  12.649
22940SOL     OW68843   5.338   3.154  12.461
22940SOL    HW168844   5.398   3.157  12.541
22940SOL    HW268845   5.263   3.218  12.474
22941SOL     OW68846   4.763   2.960  11.868
22941SOL    HW168847   4.693   2.913  11.922
22941SOL    HW268848   4.822   2.892  11.825
22942SOL     OW68849   4.738   2.098  12.143
22942SOL    HW168850   4.730   2.062  12.050
22942SOL    HW268851   4.736   2.022  12.208
22943SOL     OW68852   4.314   3.349  11.663
22943SOL    HW168853   4.356   3.291  11.593
22943SOL    HW268854   4.270   3.428  11.619
22944SOL     OW68855   5.433   2.247  12.553
22944SOL    HW168856   5.506   2.316  12.557
22944SOL    HW268857   5.461   2.172  12.494
22945SOL     OW68858   3.979   3.210  11.462
22945SOL    HW168859   3.883   3.211  11.435
22945SOL    HW268860   3.991   3.263  11.546
22946SOL     OW68861   3.829   2.875  12.898
22946SOL    HW168862   3.752   2.842  12.952
22946SOL    HW268863   3.914   2.845  12.940
22947SOL     OW68864   4.396   2.065  12.661
22947SOL    HW168865   4.486   2.049  12.621
22947SOL    HW268866   4.404   2.070  12.760
22948SOL     OW68867   3.799   2.207  11.205
22948SOL    HW168868   3.707   2.179  11.176
22948SOL    HW268869   3.830   2.284  11.149
22949SOL     OW68870   5.164   2.718  12.570
22949SOL    HW168871   5.107   2.770  12.507
22949SOL    HW268872   5.260   2.730  12.546
22950SOL     OW68873   3.796   2.028  11.490
22950SOL    HW168874   3.779   2.111  11.436
22950SOL    HW268875   3.886   1.991  11.468
22951SOL     OW68876   4.907   3.197  11.291
22951SOL    HW168877   4.808   3.186  11.293
22951SOL    HW268878   4.941   3.212  11.384
22952SOL     OW68879   4.337   2.704  12.603
22952SOL    HW168880   4.393   2.785  12.586
22952SOL    HW268881   4.396   2.624  12.606
22953SOL     OW68882   5.217   3.629  12.131
22953SOL    HW168883   5.250   3.693  12.062
22953SOL    HW268884   5.283   3.623  12.206
22954SOL     OW68885   4.440   2.427  12.880
22954SOL    HW168886   4.459   2.492  12.954
22954SOL    HW268887   4.500   2.347  12.889
22955SOL     OW68888   4.114   3.603  12.732
22955SOL    HW168889   4.023   3.644  12.730
22955SOL    HW268890   4.107   3.509  12.764
22956SOL     OW68891   5.398   2.745  12.426
22956SOL    HW168892   5.371   2.656  12.389
22956SOL    HW268893   5.399   2.813  12.353
22957SOL     OW68894   4.949   2.187  11.621
22957SOL    HW168895   5.014   2.113  11.610
22957SOL    HW268896   4.969   2.237  11.705
22958SOL     OW68897   4.318   2.607  11.824
22958SOL    HW168898   4.368   2.692  11.805
22958SOL    HW268899   4.230   2.609  11.776
22959SOL     OW68900   5.501   2.204  12.814
22959SOL    HW168901   5.484   2.235  12.720
22959SOL    HW268902   5.417   2.167  12.852
22960SOL     OW68903   5.454   2.796  12.689
22960SOL    HW168904   5.492   2.887  12.704
22960SOL    HW268905   5.446   2.779  12.590
22961SOL     OW68906   4.583   3.236  11.188
22961SOL    HW168907   4.537   3.251  11.276
22961SOL    HW268908   4.627   3.321  11.158
22962SOL     OW68909   4.385   3.652  12.125
22962SOL    HW168910   4.339   3.740  12.112
22962SOL    HW268911   4.484   3.664  12.118
22963SOL     OW68912   4.583   2.818  12.033
22963SOL    HW168913   4.637   2.749  12.081
22963SOL    HW268914   4.551   2.887  12.099
22964SOL     OW68915   4.807   2.846  11.259
22964SOL    HW168916   4.784   2.899  11.177
22964SOL    HW268917   4.888   2.790  11.240
22965SOL     OW68918   5.585   3.431  12.023
22965SOL    HW168919   5.514   3.419  11.953
22965SOL    HW268920   5.586   3.352  12.083
22966SOL     OW68921   3.803   3.102  11.825
22966SOL    HW168922   3.802   3.055  11.913
22966SOL    HW268923   3.885   3.074  11.774
22967SOL     OW68924   4.396   3.253  12.796
22967SOL    HW168925   4.318   3.203  12.834
22967SOL    HW268926   4.393   3.348  12.827
22968SOL     OW68927   5.548   2.054  12.399
22968SOL    HW168928   5.544   1.964  12.443
22968SOL    HW268929   5.551   2.043  12.300
22969SOL     OW68930   4.152   2.286  11.692
22969SOL    HW168931   4.182   2.214  11.630
22969SOL    HW268932   4.113   2.246  11.775
22970SOL     OW68933   5.429   3.349  12.276
22970SOL    HW168934   5.336   3.324  12.249
22970SOL    HW268935   5.455   3.299  12.358
22971SOL     OW68936   4.041   2.409  12.452
22971SOL    HW168937   4.079   2.350  12.524
22971SOL    HW268938   4.081   2.383  12.364
22972SOL     OW68939   4.536   3.448  11.859
22972SOL    HW168940   4.568   3.458  11.765
22972SOL    HW268941   4.457   3.386  11.861
22973SOL     OW68942   5.148   2.076  12.284
22973SOL    HW168943   5.200   2.011  12.339
22973SOL    HW268944   5.099   2.139  12.345
22974SOL     OW68945   4.725   1.896  12.326
22974SOL    HW168946   4.662   1.824  12.295
22974SOL    HW268947   4.818   1.860  12.326
22975SOL     OW68948   4.494   3.192  11.473
22975SOL    HW168949   4.448   3.105  11.490
22975SOL    HW268950   4.585   3.189  11.514
22976SOL     OW68951   4.342   3.429  12.456
22976SOL    HW168952   4.337   3.511  12.513
22976SOL    HW268953   4.431   3.426  12.411
22977SOL     OW68954   5.076   1.914  11.340
22977SOL    HW168955   5.111   1.873  11.256
22977SOL    HW268956   4.986   1.876  11.360
22978SOL     OW68957   5.024   2.315  11.863
22978SOL    HW168958   4.965   2.395  11.867
22978SOL    HW268959   5.039   2.280  11.956
22979SOL     OW68960   5.317   2.083  12.054
22979SOL    HW168961   5.233   2.082  12.108
22979SOL    HW268962   5.319   2.166  11.998
22980SOL     OW68963   3.763   2.939  11.472
22980SOL    HW168964   3.862   2.928  11.463
22980SOL    HW268965   3.723   2.853  11.504
22981SOL     OW68966   4.599   3.508  11.509
22981SOL    HW168967   4.522   3.473  11.455
22981SOL    HW268968   4.567   3.579  11.571
22982SOL     OW68969   3.954   4.352   0.113
22982SOL    HW168970   3.861   4.350   0.150
22982SOL    HW268971   3.955   4.313   0.021
22983SOL     OW68972   3.949   3.999   0.996
22983SOL    HW168973   3.984   3.982   1.088
22983SOL    HW268974   3.861   3.954   0.984
22984SOL     OW68975   3.743   4.092   0.647
22984SOL    HW168976   3.661   4.135   0.686
22984SOL    HW268977   3.715   4.019   0.584
22985SOL     OW68978   4.293   4.999   1.165
22985SOL    HW168979   4.200   4.992   1.128
22985SOL    HW268980   4.304   5.088   1.209
22986SOL     OW68981   5.279   5.235   0.703
22986SOL    HW168982   5.222   5.219   0.784
22986SOL    HW268983   5.220   5.245   0.623
22987SOL     OW68984   4.859   4.427   0.717
22987SOL    HW168985   4.916   4.505   0.692
22987SOL    HW268986   4.799   4.453   0.793
22988SOL     OW68987   5.479   4.331   0.231
22988SOL    HW168988   5.467   4.318   0.132
22988SOL    HW268989   5.449   4.250   0.280
22989SOL     OW68990   4.492   4.868   1.023
22989SOL    HW168991   4.414   4.885   1.083
22989SOL    HW268992   4.526   4.955   0.987
22990SOL     OW68993   4.574   4.522   1.823
22990SOL    HW168994   4.570   4.598   1.888
22990SOL    HW268995   4.596   4.558   1.732
22991SOL     OW68996   4.409   4.736   0.665
22991SOL    HW168997   4.478   4.720   0.735
22991SOL    HW268998   4.336   4.793   0.703
22992SOL     OW68999   4.410   4.885   1.803
22992SOL    HW169000   4.470   4.964   1.817
22992SOL    HW269001   4.324   4.916   1.762
22993SOL     OW69002   4.059   5.159   1.061
22993SOL    HW169003   3.981   5.128   1.008
22993SOL    HW269004   4.117   5.217   1.004
22994SOL     OW69005   5.184   5.229   1.339
22994SOL    HW169006   5.208   5.323   1.365
22994SOL    HW269007   5.168   5.175   1.421
22995SOL     OW69008   4.162   4.116   1.499
22995SOL    HW169009   4.244   4.060   1.508
22995SOL    HW269010   4.081   4.058   1.503
22996SOL     OW69011   5.327   4.171   0.737
22996SOL    HW169012   5.253   4.217   0.687
22996SOL    HW269013   5.378   4.239   0.790
22997SOL     OW69014   3.955   5.437   0.483
22997SOL    HW169015   3.989   5.514   0.537
22997SOL    HW269016   3.999   5.437   0.393
22998SOL     OW69017   4.851   5.065   1.690
22998SOL    HW169018   4.898   5.065   1.778
22998SOL    HW269019   4.803   4.978   1.679
22999SOL     OW69020   3.954   5.158   0.538
22999SOL    HW169021   3.928   5.254   0.538
22999SOL    HW269022   3.883   5.104   0.583
23000SOL     OW69023   3.964   4.815   0.886
23000SOL    HW169024   3.978   4.731   0.938
23000SOL    HW269025   3.909   4.879   0.941
23001SOL     OW69026   4.344   5.510   1.439
23001SOL    HW169027   4.252   5.493   1.474
23001SOL    HW269028   4.372   5.602   1.465
23002SOL     OW69029   4.330   4.688   0.123
23002SOL    HW169030   4.337   4.772   0.069
23002SOL    HW269031   4.376   4.701   0.211
23003SOL     OW69032   5.318   3.838   1.480
23003SOL    HW169033   5.300   3.905   1.408
23003SOL    HW269034   5.315   3.884   1.569
23004SOL     OW69035   3.846   4.367   0.563
23004SOL    HW169036   3.801   4.279   0.580
23004SOL    HW269037   3.845   4.421   0.647
23005SOL     OW69038   5.566   5.491   0.359
23005SOL    HW169039   5.620   5.462   0.439
23005SOL    HW269040   5.596   5.581   0.330
23006SOL     OW69041   3.751   5.320   0.117
23006SOL    HW169042   3.732   5.224   0.138
23006SOL    HW269043   3.718   5.378   0.192
23007SOL     OW69044   5.413   4.646   0.612
23007SOL    HW169045   5.508   4.617   0.620
23007SOL    HW269046   5.405   4.711   0.537
23008SOL     OW69047   5.365   4.832   0.432
23008SOL    HW169048   5.451   4.834   0.380
23008SOL    HW269049   5.379   4.879   0.520
23009SOL     OW69050   3.837   4.461   1.597
23009SOL    HW169051   3.925   4.448   1.642
23009SOL    HW269052   3.824   4.558   1.575
23010SOL     OW69053   4.337   5.089   0.726
23010SOL    HW169054   4.288   5.002   0.735
23010SOL    HW269055   4.314   5.132   0.639
23011SOL     OW69056   5.017   4.952   1.423
23011SOL    HW169057   5.054   4.879   1.365
23011SOL    HW269058   5.069   4.957   1.508
23012SOL     OW69059   4.533   3.728   0.502
23012SOL    HW169060   4.573   3.819   0.493
23012SOL    HW269061   4.433   3.736   0.508
23013SOL     OW69062   3.921   4.700   1.264
23013SOL    HW169063   4.010   4.655   1.250
23013SOL    HW269064   3.848   4.635   1.245
23014SOL     OW69065   5.249   4.723   0.190
23014SOL    HW169066   5.186   4.647   0.203
23014SOL    HW269067   5.297   4.741   0.276
23015SOL     OW69068   4.911   5.516   1.616
23015SOL    HW169069   4.935   5.576   1.540
23015SOL    HW269070   4.918   5.421   1.586
23016SOL     OW69071   4.041   3.975   1.801
23016SOL    HW169072   4.112   4.046   1.807
23016SOL    HW269073   3.953   4.014   1.829
23017SOL     OW69074   5.190   5.141   0.953
23017SOL    HW169075   5.131   5.147   1.033
23017SOL    HW269076   5.175   5.053   0.907
23018SOL     OW69077   5.391   5.438   0.572
23018SOL    HW169078   5.350   5.415   0.484
23018SOL    HW269079   5.373   5.364   0.637
23019SOL     OW69080   4.322   4.453   0.270
23019SOL    HW169081   4.346   4.522   0.202
23019SOL    HW269082   4.244   4.486   0.324
23020SOL     OW69083   5.005   4.069   0.944
23020SOL    HW169084   4.919   4.019   0.931
23020SOL    HW269085   5.067   4.015   1.000
23021SOL     OW69086   5.300   5.386   0.307
23021SOL    HW169087   5.389   5.432   0.310
23021SOL    HW269088   5.279   5.362   0.212
23022SOL     OW69089   4.531   4.329   1.465
23022SOL    HW169090   4.484   4.326   1.554
23022SOL    HW269091   4.480   4.274   1.399
23023SOL     OW69092   5.118   4.193   1.674
23023SOL    HW169093   5.098   4.236   1.762
23023SOL    HW269094   5.196   4.131   1.683
23024SOL     OW69095   4.697   4.614   1.572
23024SOL    HW169096   4.743   4.530   1.543
23024SOL    HW269097   4.641   4.648   1.497
23025SOL     OW69098   4.715   4.134   1.242
23025SOL    HW169099   4.638   4.168   1.296
23025SOL    HW269100   4.681   4.083   1.163
23026SOL     OW69101   4.765   4.425   0.429
23026SOL    HW169102   4.791   4.421   0.525
23026SOL    HW269103   4.680   4.374   0.415
23027SOL     OW69104   3.800   4.535   0.789
23027SOL    HW169105   3.899   4.523   0.798
23027SOL    HW269106   3.776   4.630   0.810
23028SOL     OW69107   3.854   5.545   1.571
23028SOL    HW169108   3.844   5.530   1.670
23028SOL    HW269109   3.768   5.581   1.535
23029SOL     OW69110   4.589   4.072   0.195
23029SOL    HW169111   4.648   4.135   0.146
23029SOL    HW269112   4.608   3.978   0.166
23030SOL     OW69113   5.443   4.309   1.831
23030SOL    HW169114   5.417   4.398   1.795
23030SOL    HW269115   5.441   4.241   1.758
23031SOL     OW69116   5.086   4.868   0.545
23031SOL    HW169117   5.169   4.839   0.497
23031SOL    HW269118   5.037   4.935   0.489
23032SOL     OW69119   4.274   3.920   0.885
23032SOL    HW169120   4.269   3.915   0.985
23032SOL    HW269121   4.276   4.016   0.856
23033SOL     OW69122   4.732   5.180   0.477
23033SOL    HW169123   4.686   5.252   0.425
23033SOL    HW269124   4.728   5.200   0.575
23034SOL     OW69125   4.075   5.525   0.853
23034SOL    HW169126   4.125   5.439   0.859
23034SOL    HW269127   4.140   5.602   0.850
23035SOL     OW69128   5.519   4.790   0.873
23035SOL    HW169129   5.457   4.775   0.797
23035SOL    HW269130   5.467   4.801   0.958
23036SOL     OW69131   4.951   5.274   1.506
23036SOL    HW169132   4.957   5.197   1.570
23036SOL    HW269133   4.899   5.248   1.426
23037SOL     OW69134   4.045   4.667   0.242
23037SOL    HW169135   4.127   4.706   0.200
23037SOL    HW269136   4.018   4.585   0.193
23038SOL     OW69137   5.182   4.459   0.728
23038SOL    HW169138   5.177   4.394   0.803
23038SOL    HW269139   5.262   4.518   0.741
23039SOL     OW69140   4.185   4.990   1.727
23039SOL    HW169141   4.135   4.991   1.641
23039SOL    HW269142   4.122   4.972   1.803
23040SOL     OW69143   4.835   5.500   0.237
23040SOL    HW169144   4.775   5.438   0.287
23040SOL    HW269145   4.866   5.456   0.152
23041SOL     OW69146   3.926   4.009   1.498
23041SOL    HW169147   3.846   4.069   1.485
23041SOL    HW269148   3.916   3.960   1.584
23042SOL     OW69149   5.356   5.101   0.081
23042SOL    HW169150   5.324   5.195   0.071
23042SOL    HW269151   5.280   5.038   0.069
23043SOL     OW69152   4.188   5.467   0.323
23043SOL    HW169153   4.221   5.506   0.409
23043SOL    HW269154   4.264   5.460   0.258
23044SOL     OW69155   5.124   3.831   0.426
23044SOL    HW169156   5.100   3.794   0.336
23044SOL    HW269157   5.223   3.847   0.430
23045SOL     OW69158   3.973   5.509   1.241
23045SOL    HW169159   4.030   5.444   1.291
23045SOL    HW269160   3.957   5.476   1.148
23046SOL     OW69161   4.664   5.422   0.904
23046SOL    HW169162   4.744   5.365   0.925
23046SOL    HW269163   4.615   5.382   0.827
23047SOL     OW69164   4.106   4.424   0.480
23047SOL    HW169165   4.151   4.334   0.477
23047SOL    HW269166   4.012   4.413   0.513
23048SOL     OW69167   5.271   3.946   1.729
23048SOL    HW169168   5.266   3.983   1.821
23048SOL    HW269169   5.199   3.877   1.717
23049SOL     OW69170   4.338   3.846   0.117
23049SOL    HW169171   4.436   3.824   0.124
23049SOL    HW269172   4.307   3.829   0.024
23050SOL     OW69173   4.505   3.988   1.749
23050SOL    HW169174   4.572   3.927   1.792
23050SOL    HW269175   4.432   4.007   1.814
23051SOL     OW69176   4.612   5.238   1.195
23051SOL    HW169177   4.589   5.213   1.101
23051SOL    HW269178   4.673   5.169   1.234
23052SOL     OW69179   5.075   4.314   1.433
23052SOL    HW169180   5.103   4.271   1.518
23052SOL    HW269181   5.100   4.410   1.434
23053SOL     OW69182   4.527   5.126   0.924
23053SOL    HW169183   4.617   5.140   0.882
23053SOL    HW269184   4.456   5.128   0.853
23054SOL     OW69185   4.646   4.227   0.899
23054SOL    HW169186   4.621   4.218   0.803
23054SOL    HW269187   4.694   4.145   0.930
23055SOL     OW69188   4.263   3.788   0.512
23055SOL    HW169189   4.182   3.789   0.570
23055SOL    HW269190   4.266   3.871   0.457
23056SOL     OW69191   5.158   4.912   0.041
23056SOL    HW169192   5.190   4.836   0.098
23056SOL    HW269193   5.066   4.939   0.071
23057SOL     OW69194   4.021   3.759   0.171
23057SOL    HW169195   4.070   3.843   0.150
23057SOL    HW269196   4.083   3.694   0.216
23058SOL     OW69197   4.659   3.960   0.480
23058SOL    HW169198   4.611   4.001   0.402
23058SOL    HW269199   4.758   3.958   0.461
23059SOL     OW69200   4.800   4.407   1.464
23059SOL    HW169201   4.720   4.346   1.467
23059SOL    HW269202   4.881   4.354   1.440
23060SOL     OW69203   4.951   5.294   0.793
23060SOL    HW169204   4.972   5.368   0.728
23060SOL    HW269205   5.019   5.294   0.866
23061SOL     OW69206   4.183   4.876   0.741
23061SOL    HW169207   4.112   4.849   0.806
23061SOL    HW269208   4.157   4.848   0.648
23062SOL     OW69209   4.995   5.521   0.591
23062SOL    HW169210   5.039   5.585   0.527
23062SOL    HW269211   4.945   5.573   0.661
23063SOL     OW69212   4.756   4.273   0.016
23063SOL    HW169213   4.715   4.355  -0.023
23063SOL    HW269214   4.820   4.299   0.089
23064SOL     OW69215   3.802   4.280   1.386
23064SOL    HW169216   3.894   4.279   1.345
23064SOL    HW269217   3.796   4.354   1.453
23065SOL     OW69218   4.285   3.946   1.147
23065SOL    HW169219   4.323   3.862   1.184
23065SOL    HW269220   4.197   3.965   1.191
23066SOL     OW69221   4.590   4.178   0.642
23066SOL    HW169222   4.558   4.250   0.580
23066SOL    HW269223   4.614   4.097   0.589
23067SOL     OW69224   4.741   3.763   0.753
23067SOL    HW169225   4.669   3.768   0.684
23067SOL    HW269226   4.717   3.694   0.822
23068SOL     OW69227   5.153   4.897   0.867
23068SOL    HW169228   5.098   4.813   0.860
23068SOL    HW269229   5.179   4.926   0.775
23069SOL     OW69230   5.190   4.314   0.992
23069SOL    HW169231   5.160   4.219   0.999
23069SOL    HW269232   5.263   4.330   1.058
23070SOL     OW69233   5.581   4.557   0.377
23070SOL    HW169234   5.623   4.493   0.441
23070SOL    HW269235   5.543   4.506   0.299
23071SOL     OW69236   4.212   5.109   0.174
23071SOL    HW169237   4.125   5.094   0.221
23071SOL    HW269238   4.195   5.135   0.079
23072SOL     OW69239   5.388   5.004   0.657
23072SOL    HW169240   5.487   5.012   0.671
23072SOL    HW269241   5.343   5.088   0.688
23073SOL     OW69242   5.114   4.299   0.078
23073SOL    HW169243   5.060   4.278   0.159
23073SOL    HW269244   5.205   4.258   0.087
23074SOL     OW69245   4.251   3.980   0.328
23074SOL    HW169246   4.278   3.921   0.253
23074SOL    HW269247   4.251   4.075   0.297
23075SOL     OW69248   5.478   4.947   1.588
23075SOL    HW169249   5.569   4.908   1.575
23075SOL    HW269250   5.486   5.043   1.612
23076SOL     OW69251   4.788   5.071   1.340
23076SOL    HW169252   4.708   5.048   1.395
23076SOL    HW269253   4.871   5.045   1.389
23077SOL     OW69254   5.316   5.353   1.625
23077SOL    HW169255   5.343   5.387   1.535
23077SOL    HW269256   5.395   5.315   1.671
23078SOL     OW69257   4.835   4.919   1.100
23078SOL    HW169258   4.795   4.963   1.181
23078SOL    HW269259   4.794   4.956   1.017
23079SOL     OW69260   5.362   4.823   1.079
23079SOL    HW169261   5.367   4.904   1.138
23079SOL    HW269262   5.276   4.825   1.028
23080SOL     OW69263   4.639   3.813   1.402
23080SOL    HW169264   4.664   3.793   1.307
23080SOL    HW269265   4.711   3.869   1.444
23081SOL     OW69266   4.704   4.840   1.719
23081SOL    HW169267   4.605   4.846   1.729
23081SOL    HW269268   4.727   4.760   1.663
23082SOL     OW69269   4.429   4.774   0.368
23082SOL    HW169270   4.415   4.781   0.467
23082SOL    HW269271   4.513   4.723   0.350
23083SOL     OW69272   4.134   4.537   1.251
23083SOL    HW169273   4.220   4.549   1.301
23083SOL    HW269274   4.092   4.450   1.278
23084SOL     OW69275   4.998   4.110   1.262
23084SOL    HW169276   5.019   4.184   1.326
23084SOL    HW269277   4.909   4.127   1.219
23085SOL     OW69278   3.788   5.288   1.331
23085SOL    HW169279   3.742   5.370   1.297
23085SOL    HW269280   3.886   5.307   1.340
23086SOL     OW69281   4.091   4.824   0.501
23086SOL    HW169282   4.084   4.907   0.445
23086SOL    HW269283   4.095   4.744   0.441
23087SOL     OW69284   4.290   4.261   0.865
23087SOL    HW169285   4.302   4.327   0.791
23087SOL    HW269286   4.336   4.295   0.948
23088SOL     OW69287   4.976   5.072   0.388
23088SOL    HW169288   5.026   5.149   0.428
23088SOL    HW269289   4.881   5.074   0.420
23089SOL     OW69290   4.996   5.169   1.142
23089SOL    HW169291   5.043   5.182   1.229
23089SOL    HW269292   4.930   5.095   1.151
23090SOL     OW69293   5.306   4.363   0.472
23090SOL    HW169294   5.275   4.424   0.545
23090SOL    HW269295   5.356   4.415   0.403
23091SOL     OW69296   4.078   5.234   1.329
23091SOL    HW169297   4.057   5.190   1.242
23091SOL    HW269298   4.175   5.260   1.332
23092SOL     OW69299   4.126   4.475   1.598
23092SOL    HW169300   4.194   4.530   1.551
23092SOL    HW269301   4.166   4.387   1.625
23093SOL     OW69302   5.311   4.503   1.670
23093SOL    HW169303   5.219   4.541   1.665
23093SOL    HW269304   5.371   4.550   1.605
23094SOL     OW69305   4.737   3.829   1.770
23094SOL    HW169306   4.743   3.914   1.718
23094SOL    HW269307   4.769   3.753   1.713
23095SOL     OW69308   4.228   3.774   1.740
23095SOL    HW169309   4.186   3.717   1.670
23095SOL    HW269310   4.162   3.843   1.772
23096SOL     OW69311   4.297   4.594   1.029
23096SOL    HW169312   4.341   4.683   1.020
23096SOL    HW269313   4.234   4.594   1.106
23097SOL     OW69314   5.084   4.586   1.045
23097SOL    HW169315   5.009   4.586   0.979
23097SOL    HW269316   5.121   4.494   1.054
23098SOL     OW69317   4.933   4.249   0.275
23098SOL    HW169318   4.946   4.165   0.329
23098SOL    HW269319   4.904   4.323   0.335
23099SOL     OW69320   4.031   3.937   1.231
23099SOL    HW169321   4.008   3.974   1.321
23099SOL    HW269322   4.001   3.842   1.225
23100SOL     OW69323   3.761   5.034   1.282
23100SOL    HW169324   3.814   4.985   1.350
23100SOL    HW269325   3.783   5.132   1.287
23101SOL     OW69326   4.456   4.358   1.064
23101SOL    HW169327   4.515   4.332   0.988
23101SOL    HW269328   4.428   4.454   1.053
23102SOL     OW69329   5.452   4.659   1.854
23102SOL    HW169330   5.406   4.652   1.765
23102SOL    HW269331   5.390   4.703   1.920
23103SOL     OW69332   4.031   3.787   0.618
23103SOL    HW169333   4.020   3.881   0.651
23103SOL    HW269334   4.026   3.724   0.695
23104SOL     OW69335   5.346   4.091   0.374
23104SOL    HW169336   5.348   4.015   0.438
23104SOL    HW269337   5.298   4.168   0.414
23105SOL     OW69338   4.747   4.490   0.966
23105SOL    HW169339   4.762   4.511   1.062
23105SOL    HW269340   4.717   4.395   0.957
23106SOL     OW69341   4.704   5.297   1.700
23106SOL    HW169342   4.684   5.341   1.612
23106SOL    HW269343   4.743   5.206   1.684
23107SOL     OW69344   5.583   5.242   1.605
23107SOL    HW169345   5.597   5.269   1.510
23107SOL    HW269346   5.666   5.264   1.658
23108SOL     OW69347   4.074   4.622   1.804
23108SOL    HW169348   4.150   4.666   1.852
23108SOL    HW269349   4.109   4.575   1.722
23109SOL     OW69350   5.264   3.998   0.125
23109SOL    HW169351   5.203   3.923   0.148
23109SOL    HW269352   5.286   4.050   0.208
23110SOL     OW69353   5.027   4.562   0.042
23110SOL    HW169354   5.061   4.469   0.057
23110SOL    HW269355   5.045   4.589  -0.053
23111SOL     OW69356   4.792   5.057   0.849
23111SOL    HW169357   4.799   4.973   0.794
23111SOL    HW269358   4.854   5.126   0.813
23112SOL     OW69359   4.043   4.534   0.949
23112SOL    HW169360   4.136   4.570   0.954
23112SOL    HW269361   4.037   4.449   1.001
23113SOL     OW69362   4.063   4.233   1.006
23113SOL    HW169363   4.011   4.150   0.989
23113SOL    HW269364   4.140   4.238   0.942
23114SOL     OW69365   4.862   4.104   1.678
23114SOL    HW169366   4.817   4.167   1.742
23114SOL    HW269367   4.955   4.135   1.661
23115SOL     OW69368   4.884   3.931   1.477
23115SOL    HW169369   4.884   3.995   1.554
23115SOL    HW269370   4.912   3.979   1.394
23116SOL     OW69371   3.732   5.050   0.200
23116SOL    HW169372   3.639   5.071   0.169
23116SOL    HW269373   3.742   4.951   0.213
23117SOL     OW69374   3.812   5.525   0.927
23117SOL    HW169375   3.770   5.439   0.900
23117SOL    HW269376   3.906   5.528   0.893
23118SOL     OW69377   4.228   5.292   0.910
23118SOL    HW169378   4.294   5.366   0.919
23118SOL    HW269379   4.272   5.213   0.868
23119SOL     OW69380   4.726   4.520   1.238
23119SOL    HW169381   4.767   4.488   1.324
23119SOL    HW269382   4.630   4.493   1.235
23120SOL     OW69383   3.764   4.268   1.114
23120SOL    HW169384   3.849   4.235   1.073
23120SOL    HW269385   3.777   4.283   1.212
23121SOL     OW69386   3.913   4.244   1.722
23121SOL    HW169387   3.972   4.204   1.652
23121SOL    HW269388   3.855   4.315   1.681
23122SOL     OW69389   5.093   4.674   1.660
23122SOL    HW169390   5.132   4.763   1.680
23122SOL    HW269391   5.103   4.654   1.563
23123SOL     OW69392   4.539   4.296   0.325
23123SOL    HW169393   4.546   4.207   0.279
23123SOL    HW269394   4.445   4.330   0.317
23124SOL     OW69395   5.381   4.328   1.206
23124SOL    HW169396   5.343   4.259   1.268
23124SOL    HW269397   5.463   4.292   1.162
23125SOL     OW69398   3.976   5.288   1.744
23125SOL    HW169399   3.946   5.345   1.820
23125SOL    HW269400   3.969   5.191   1.770
23126SOL     OW69401   4.395   4.188   1.269
23126SOL    HW169402   4.361   4.099   1.239
23126SOL    HW269403   4.421   4.242   1.189
23127SOL     OW69404   4.654   5.402   1.465
23127SOL    HW169405   4.630   5.384   1.370
23127SOL    HW269406   4.684   5.496   1.475
23128SOL     OW69407   4.197   4.224   0.191
23128SOL    HW169408   4.258   4.304   0.195
23128SOL    HW269409   4.102   4.255   0.198
23129SOL     OW69410   3.883   4.861   1.466
23129SOL    HW169411   3.905   4.800   1.542
23129SOL    HW269412   3.893   4.812   1.380
23130SOL     OW69413   5.071   4.783   1.234
23130SOL    HW169414   5.095   4.720   1.160
23130SOL    HW269415   4.981   4.823   1.216
23131SOL     OW69416   5.026   4.579   0.309
23131SOL    HW169417   4.940   4.548   0.351
23131SOL    HW269418   5.022   4.565   0.210
23132SOL     OW69419   5.483   5.471   1.154
23132SOL    HW169420   5.544   5.501   1.081
23132SOL    HW269421   5.445   5.382   1.132
23133SOL     OW69422   4.976   5.455   1.128
23133SOL    HW169423   5.060   5.460   1.074
23133SOL    HW269424   4.953   5.359   1.146
23134SOL     OW69425   3.807   4.982   1.022
23134SOL    HW169426   3.802   4.981   1.122
23134SOL    HW269427   3.724   4.941   0.984
23135SOL     OW69428   4.412   5.386   1.716
23135SOL    HW169429   4.356   5.467   1.725
23135SOL    HW269430   4.464   5.390   1.630
23136SOL     OW69431   4.627   3.810   0.133
23136SOL    HW169432   4.678   3.811   0.047
23136SOL    HW269433   4.683   3.768   0.204
23137SOL     OW69434   5.450   3.859   0.523
23137SOL    HW169435   5.523   3.842   0.456
23137SOL    HW269436   5.419   3.772   0.561
23138SOL     OW69437   5.112   5.297   0.477
23138SOL    HW169438   5.179   5.309   0.403
23138SOL    HW269439   5.072   5.386   0.500
23139SOL     OW69440   3.854   5.518   1.851
23139SOL    HW169441   3.813   5.444   1.904
23139SOL    HW269442   3.918   5.569   1.909
23140SOL     OW69443   5.004   4.651   0.672
23140SOL    HW169444   5.064   4.570   0.674
23140SOL    HW269445   5.044   4.720   0.612
23141SOL     OW69446   4.554   4.997   1.422
23141SOL    HW169447   4.549   5.030   1.517
23141SOL    HW269448   4.468   5.016   1.376
23142SOL     OW69449   4.396   5.340   0.154
23142SOL    HW169450   4.405   5.350   0.055
23142SOL    HW269451   4.356   5.251   0.175
23143SOL     OW69452   5.374   5.444   1.394
23143SOL    HW169453   5.427   5.454   1.310
23143SOL    HW269454   5.347   5.534   1.428
23144SOL     OW69455   5.565   3.899   0.963
23144SOL    HW169456   5.604   3.814   0.927
23144SOL    HW269457   5.467   3.901   0.944
23145SOL     OW69458   3.987   4.050   0.720
23145SOL    HW169459   3.908   4.101   0.686
23145SOL    HW269460   3.978   4.035   0.818
23146SOL     OW69461   4.918   5.336   0.031
23146SOL    HW169462   4.924   5.243   0.068
23146SOL    HW269463   4.859   5.336  -0.049
23147SOL     OW69464   4.546   4.726   1.372
23147SOL    HW169465   4.586   4.725   1.280
23147SOL    HW269466   4.556   4.818   1.412
23148SOL     OW69467   4.640   4.634   0.291
23148SOL    HW169468   4.703   4.672   0.223
23148SOL    HW269469   4.680   4.551   0.330
23149SOL     OW69470   5.228   5.331   0.044
23149SOL    HW169471   5.136   5.368   0.051
23149SOL    HW269472   5.266   5.351  -0.046
23150SOL     OW69473   4.096   5.012   1.490
23150SOL    HW169474   4.083   5.105   1.456
23150SOL    HW269475   4.012   4.960   1.477
23151SOL     OW69476   5.338   5.016   1.289
23151SOL    HW169477   5.398   5.019   1.369
23151SOL    HW269478   5.263   5.080   1.302
23152SOL     OW69479   4.763   4.822   0.696
23152SOL    HW169480   4.693   4.775   0.750
23152SOL    HW269481   4.822   4.754   0.653
23153SOL     OW69482   4.738   3.960   0.971
23153SOL    HW169483   4.730   3.924   0.878
23153SOL    HW269484   4.736   3.884   1.036
23154SOL     OW69485   4.314   5.211   0.491
23154SOL    HW169486   4.356   5.153   0.421
23154SOL    HW269487   4.270   5.290   0.447
23155SOL     OW69488   5.433   4.109   1.381
23155SOL    HW169489   5.506   4.178   1.385
23155SOL    HW269490   5.461   4.034   1.322
23156SOL     OW69491   3.979   5.072   0.290
23156SOL    HW169492   3.883   5.073   0.263
23156SOL    HW269493   3.991   5.125   0.374
23157SOL     OW69494   3.829   4.737   1.726
23157SOL    HW169495   3.752   4.704   1.780
23157SOL    HW269496   3.914   4.707   1.768
23158SOL     OW69497   4.396   3.927   1.489
23158SOL    HW169498   4.486   3.911   1.449
23158SOL    HW269499   4.404   3.932   1.588
23159SOL     OW69500   5.164   4.580   1.398
23159SOL    HW169501   5.107   4.632   1.335
23159SOL    HW269502   5.260   4.592   1.374
23160SOL     OW69503   3.796   3.890   0.318
23160SOL    HW169504   3.779   3.973   0.264
23160SOL    HW269505   3.886   3.853   0.296
23161SOL     OW69506   4.907   5.059   0.119
23161SOL    HW169507   4.808   5.048   0.121
23161SOL    HW269508   4.941   5.074   0.212
23162SOL     OW69509   4.337   4.566   1.431
23162SOL    HW169510   4.393   4.647   1.414
23162SOL    HW269511   4.396   4.486   1.434
23163SOL     OW69512   5.217   5.491   0.959
23163SOL    HW169513   5.250   5.555   0.890
23163SOL    HW269514   5.283   5.485   1.034
23164SOL     OW69515   4.440   4.289   1.708
23164SOL    HW169516   4.459   4.354   1.782
23164SOL    HW269517   4.500   4.209   1.717
23165SOL     OW69518   5.174   4.944   1.633
23165SOL    HW169519   5.165   4.934   1.732
23165SOL    HW269520   5.270   4.937   1.607
23166SOL     OW69521   4.114   5.465   1.560
23166SOL    HW169522   4.023   5.506   1.558
23166SOL    HW269523   4.107   5.371   1.592
23167SOL     OW69524   5.398   4.607   1.254
23167SOL    HW169525   5.371   4.518   1.217
23167SOL    HW269526   5.399   4.675   1.181
23168SOL     OW69527   4.949   4.049   0.449
23168SOL    HW169528   5.014   3.975   0.438
23168SOL    HW269529   4.969   4.099   0.533
23169SOL     OW69530   4.318   4.469   0.652
23169SOL    HW169531   4.368   4.554   0.633
23169SOL    HW269532   4.230   4.471   0.604
23170SOL     OW69533   5.501   4.066   1.642
23170SOL    HW169534   5.484   4.097   1.548
23170SOL    HW269535   5.417   4.029   1.680
23171SOL     OW69536   5.454   4.658   1.517
23171SOL    HW169537   5.492   4.749   1.532
23171SOL    HW269538   5.446   4.641   1.418
23172SOL     OW69539   4.583   5.098   0.016
23172SOL    HW169540   4.537   5.113   0.104
23172SOL    HW269541   4.627   5.183  -0.014
23173SOL     OW69542   4.385   5.514   0.953
23173SOL    HW169543   4.339   5.602   0.940
23173SOL    HW269544   4.484   5.526   0.946
23174SOL     OW69545   4.583   4.680   0.861
23174SOL    HW169546   4.637   4.611   0.909
23174SOL    HW269547   4.551   4.749   0.927
23175SOL     OW69548   4.807   4.708   0.087
23175SOL    HW169549   4.784   4.761   0.005
23175SOL    HW269550   4.888   4.652   0.068
23176SOL     OW69551   5.585   5.293   0.851
23176SOL    HW169552   5.514   5.281   0.781
23176SOL    HW269553   5.586   5.214   0.911
23177SOL     OW69554   3.945   5.038   1.844
23177SOL    HW169555   3.880   4.965   1.823
23177SOL    HW269556   3.949   5.052   1.942
23178SOL     OW69557   3.803   4.964   0.653
23178SOL    HW169558   3.802   4.917   0.741
23178SOL    HW269559   3.885   4.936   0.602
23179SOL     OW69560   4.396   5.115   1.624
23179SOL    HW169561   4.318   5.065   1.662
23179SOL    HW269562   4.393   5.210   1.655
23180SOL     OW69563   5.548   3.916   1.227
23180SOL    HW169564   5.544   3.826   1.271
23180SOL    HW269565   5.551   3.905   1.128
23181SOL     OW69566   4.152   4.148   0.520
23181SOL    HW169567   4.182   4.076   0.458
23181SOL    HW269568   4.113   4.108   0.603
23182SOL     OW69569   5.429   5.211   1.104
23182SOL    HW169570   5.336   5.186   1.077
23182SOL    HW269571   5.455   5.161   1.186
23183SOL     OW69572   4.041   4.271   1.280
23183SOL    HW169573   4.079   4.212   1.352
23183SOL    HW269574   4.081   4.245   1.192
23184SOL     OW69575   4.536   5.310   0.687
23184SOL    HW169576   4.568   5.320   0.593
23184SOL    HW269577   4.457   5.248   0.689
23185SOL     OW69578   5.148   3.938   1.112
23185SOL    HW169579   5.200   3.873   1.167
23185SOL    HW269580   5.099   4.001   1.173
23186SOL     OW69581   4.725   3.758   1.154
23186SOL    HW169582   4.662   3.686   1.123
23186SOL    HW269583   4.818   3.722   1.154
23187SOL     OW69584   4.494   5.054   0.301
23187SOL    HW169585   4.448   4.967   0.318
23187SOL    HW269586   4.585   5.051   0.342
23188SOL     OW69587   4.342   5.291   1.284
23188SOL    HW169588   4.337   5.373   1.341
23188SOL    HW269589   4.431   5.288   1.239
23189SOL     OW69590   5.076   3.776   0.168
23189SOL    HW169591   5.111   3.735   0.084
23189SOL    HW269592   4.986   3.738   0.188
23190SOL     OW69593   5.024   4.177   0.691
23190SOL    HW169594   4.965   4.257   0.695
23190SOL    HW269595   5.039   4.142   0.784
23191SOL     OW69596   5.317   3.945   0.882
23191SOL    HW169597   5.233   3.944   0.936
23191SOL    HW269598   5.319   4.028   0.826
23192SOL     OW69599   3.763   4.801   0.300
23192SOL    HW169600   3.862   4.790   0.291
23192SOL    HW269601   3.723   4.715   0.332
23193SOL     OW69602   4.599   5.370   0.337
23193SOL    HW169603   4.522   5.335   0.283
23193SOL    HW269604   4.567   5.441   0.399
23194SOL     OW69605   3.954   4.352   1.975
23194SOL    HW169606   3.861   4.350   2.012
23194SOL    HW269607   3.955   4.313   1.883
23195SOL     OW69608   3.949   3.999   2.858
23195SOL    HW169609   3.984   3.982   2.950
23195SOL    HW269610   3.861   3.954   2.846
23196SOL     OW69611   3.743   4.092   2.509
23196SOL    HW169612   3.661   4.135   2.548
23196SOL    HW269613   3.715   4.019   2.446
23197SOL     OW69614   4.293   4.999   3.027
23197SOL    HW169615   4.200   4.992   2.990
23197SOL    HW269616   4.304   5.088   3.071
23198SOL     OW69617   5.279   5.235   2.565
23198SOL    HW169618   5.222   5.219   2.646
23198SOL    HW269619   5.220   5.245   2.485
23199SOL     OW69620   4.859   4.427   2.579
23199SOL    HW169621   4.916   4.505   2.554
23199SOL    HW269622   4.799   4.453   2.655
23200SOL     OW69623   5.479   4.331   2.093
23200SOL    HW169624   5.467   4.318   1.994
23200SOL    HW269625   5.449   4.250   2.142
23201SOL     OW69626   4.492   4.868   2.885
23201SOL    HW169627   4.414   4.885   2.945
23201SOL    HW269628   4.526   4.955   2.849
23202SOL     OW69629   4.574   4.522   3.685
23202SOL    HW169630   4.570   4.598   3.750
23202SOL    HW269631   4.596   4.558   3.594
23203SOL     OW69632   4.409   4.736   2.527
23203SOL    HW169633   4.478   4.720   2.597
23203SOL    HW269634   4.336   4.793   2.565
23204SOL     OW69635   4.410   4.885   3.665
23204SOL    HW169636   4.470   4.964   3.679
23204SOL    HW269637   4.324   4.916   3.624
23205SOL     OW69638   4.059   5.159   2.923
23205SOL    HW169639   3.981   5.128   2.870
23205SOL    HW269640   4.117   5.217   2.866
23206SOL     OW69641   5.184   5.229   3.201
23206SOL    HW169642   5.208   5.323   3.227
23206SOL    HW269643   5.168   5.175   3.283
23207SOL     OW69644   4.162   4.116   3.361
23207SOL    HW169645   4.244   4.060   3.370
23207SOL    HW269646   4.081   4.058   3.365
23208SOL     OW69647   5.327   4.171   2.599
23208SOL    HW169648   5.253   4.217   2.549
23208SOL    HW269649   5.378   4.239   2.652
23209SOL     OW69650   3.955   5.437   2.345
23209SOL    HW169651   3.989   5.514   2.399
23209SOL    HW269652   3.999   5.437   2.255
23210SOL     OW69653   4.851   5.065   3.552
23210SOL    HW169654   4.898   5.065   3.640
23210SOL    HW269655   4.803   4.978   3.541
23211SOL     OW69656   3.954   5.158   2.400
23211SOL    HW169657   3.928   5.254   2.400
23211SOL    HW269658   3.883   5.104   2.445
23212SOL     OW69659   3.964   4.815   2.748
23212SOL    HW169660   3.978   4.731   2.800
23212SOL    HW269661   3.909   4.879   2.803
23213SOL     OW69662   4.344   5.510   3.301
23213SOL    HW169663   4.252   5.493   3.336
23213SOL    HW269664   4.372   5.602   3.327
23214SOL     OW69665   4.330   4.688   1.985
23214SOL    HW169666   4.337   4.772   1.931
23214SOL    HW269667   4.376   4.701   2.073
23215SOL     OW69668   5.318   3.838   3.342
23215SOL    HW169669   5.300   3.905   3.270
23215SOL    HW269670   5.315   3.884   3.431
23216SOL     OW69671   3.846   4.367   2.425
23216SOL    HW169672   3.801   4.279   2.442
23216SOL    HW269673   3.845   4.421   2.509
23217SOL     OW69674   5.566   5.491   2.221
23217SOL    HW169675   5.620   5.462   2.301
23217SOL    HW269676   5.596   5.581   2.192
23218SOL     OW69677   3.751   5.320   1.979
23218SOL    HW169678   3.732   5.224   2.000
23218SOL    HW269679   3.718   5.378   2.054
23219SOL     OW69680   5.413   4.646   2.474
23219SOL    HW169681   5.508   4.617   2.482
23219SOL    HW269682   5.405   4.711   2.399
23220SOL     OW69683   5.365   4.832   2.294
23220SOL    HW169684   5.451   4.834   2.242
23220SOL    HW269685   5.379   4.879   2.382
23221SOL     OW69686   3.837   4.461   3.459
23221SOL    HW169687   3.925   4.448   3.504
23221SOL    HW269688   3.824   4.558   3.437
23222SOL     OW69689   4.337   5.089   2.588
23222SOL    HW169690   4.288   5.002   2.597
23222SOL    HW269691   4.314   5.132   2.501
23223SOL     OW69692   5.017   4.952   3.285
23223SOL    HW169693   5.054   4.879   3.227
23223SOL    HW269694   5.069   4.957   3.370
23224SOL     OW69695   4.533   3.728   2.364
23224SOL    HW169696   4.573   3.819   2.355
23224SOL    HW269697   4.433   3.736   2.370
23225SOL     OW69698   3.921   4.700   3.126
23225SOL    HW169699   4.010   4.655   3.112
23225SOL    HW269700   3.848   4.635   3.107
23226SOL     OW69701   5.249   4.723   2.052
23226SOL    HW169702   5.186   4.647   2.065
23226SOL    HW269703   5.297   4.741   2.138
23227SOL     OW69704   4.911   5.516   3.478
23227SOL    HW169705   4.935   5.576   3.402
23227SOL    HW269706   4.918   5.421   3.448
23228SOL     OW69707   4.041   3.975   3.663
23228SOL    HW169708   4.112   4.046   3.669
23228SOL    HW269709   3.953   4.014   3.691
23229SOL     OW69710   5.190   5.141   2.815
23229SOL    HW169711   5.131   5.147   2.895
23229SOL    HW269712   5.175   5.053   2.769
23230SOL     OW69713   5.391   5.438   2.434
23230SOL    HW169714   5.350   5.415   2.346
23230SOL    HW269715   5.373   5.364   2.499
23231SOL     OW69716   4.322   4.453   2.132
23231SOL    HW169717   4.346   4.522   2.064
23231SOL    HW269718   4.244   4.486   2.186
23232SOL     OW69719   5.005   4.069   2.806
23232SOL    HW169720   4.919   4.019   2.793
23232SOL    HW269721   5.067   4.015   2.862
23233SOL     OW69722   5.300   5.386   2.169
23233SOL    HW169723   5.389   5.432   2.172
23233SOL    HW269724   5.279   5.362   2.074
23234SOL     OW69725   4.531   4.329   3.327
23234SOL    HW169726   4.484   4.326   3.416
23234SOL    HW269727   4.480   4.274   3.261
23235SOL     OW69728   5.118   4.193   3.536
23235SOL    HW169729   5.098   4.236   3.624
23235SOL    HW269730   5.196   4.131   3.545
23236SOL     OW69731   4.697   4.614   3.434
23236SOL    HW169732   4.743   4.530   3.405
23236SOL    HW269733   4.641   4.648   3.359
23237SOL     OW69734   4.715   4.134   3.104
23237SOL    HW169735   4.638   4.168   3.158
23237SOL    HW269736   4.681   4.083   3.025
23238SOL     OW69737   4.765   4.425   2.291
23238SOL    HW169738   4.791   4.421   2.387
23238SOL    HW269739   4.680   4.374   2.277
23239SOL     OW69740   3.800   4.535   2.651
23239SOL    HW169741   3.899   4.523   2.660
23239SOL    HW269742   3.776   4.630   2.672
23240SOL     OW69743   3.854   5.545   3.433
23240SOL    HW169744   3.844   5.530   3.532
23240SOL    HW269745   3.768   5.581   3.397
23241SOL     OW69746   4.589   4.072   2.057
23241SOL    HW169747   4.648   4.135   2.008
23241SOL    HW269748   4.608   3.978   2.028
23242SOL     OW69749   5.443   4.309   3.693
23242SOL    HW169750   5.417   4.398   3.657
23242SOL    HW269751   5.441   4.241   3.620
23243SOL     OW69752   5.086   4.868   2.407
23243SOL    HW169753   5.169   4.839   2.359
23243SOL    HW269754   5.037   4.935   2.351
23244SOL     OW69755   4.274   3.920   2.747
23244SOL    HW169756   4.269   3.915   2.847
23244SOL    HW269757   4.276   4.016   2.718
23245SOL     OW69758   4.732   5.180   2.339
23245SOL    HW169759   4.686   5.252   2.287
23245SOL    HW269760   4.728   5.200   2.437
23246SOL     OW69761   4.075   5.525   2.715
23246SOL    HW169762   4.125   5.439   2.721
23246SOL    HW269763   4.140   5.602   2.712
23247SOL     OW69764   5.519   4.790   2.735
23247SOL    HW169765   5.457   4.775   2.659
23247SOL    HW269766   5.467   4.801   2.820
23248SOL     OW69767   4.951   5.274   3.368
23248SOL    HW169768   4.957   5.197   3.432
23248SOL    HW269769   4.899   5.248   3.288
23249SOL     OW69770   4.045   4.667   2.104
23249SOL    HW169771   4.127   4.706   2.062
23249SOL    HW269772   4.018   4.585   2.055
23250SOL     OW69773   5.182   4.459   2.590
23250SOL    HW169774   5.177   4.394   2.665
23250SOL    HW269775   5.262   4.518   2.603
23251SOL     OW69776   4.185   4.990   3.589
23251SOL    HW169777   4.135   4.991   3.503
23251SOL    HW269778   4.122   4.972   3.665
23252SOL     OW69779   4.835   5.500   2.099
23252SOL    HW169780   4.775   5.438   2.149
23252SOL    HW269781   4.866   5.456   2.014
23253SOL     OW69782   3.926   4.009   3.360
23253SOL    HW169783   3.846   4.069   3.347
23253SOL    HW269784   3.916   3.960   3.446
23254SOL     OW69785   5.356   5.101   1.943
23254SOL    HW169786   5.324   5.195   1.933
23254SOL    HW269787   5.280   5.038   1.931
23255SOL     OW69788   4.188   5.467   2.185
23255SOL    HW169789   4.221   5.506   2.271
23255SOL    HW269790   4.264   5.460   2.120
23256SOL     OW69791   5.124   3.831   2.288
23256SOL    HW169792   5.100   3.794   2.198
23256SOL    HW269793   5.223   3.847   2.292
23257SOL     OW69794   3.973   5.509   3.103
23257SOL    HW169795   4.030   5.444   3.153
23257SOL    HW269796   3.957   5.476   3.010
23258SOL     OW69797   4.664   5.422   2.766
23258SOL    HW169798   4.744   5.365   2.787
23258SOL    HW269799   4.615   5.382   2.689
23259SOL     OW69800   4.106   4.424   2.342
23259SOL    HW169801   4.151   4.334   2.339
23259SOL    HW269802   4.012   4.413   2.375
23260SOL     OW69803   5.271   3.946   3.591
23260SOL    HW169804   5.266   3.983   3.683
23260SOL    HW269805   5.199   3.877   3.579
23261SOL     OW69806   4.338   3.846   1.979
23261SOL    HW169807   4.436   3.824   1.986
23261SOL    HW269808   4.307   3.829   1.886
23262SOL     OW69809   4.505   3.988   3.611
23262SOL    HW169810   4.572   3.927   3.654
23262SOL    HW269811   4.432   4.007   3.676
23263SOL     OW69812   4.612   5.238   3.057
23263SOL    HW169813   4.589   5.213   2.963
23263SOL    HW269814   4.673   5.169   3.096
23264SOL     OW69815   5.075   4.314   3.295
23264SOL    HW169816   5.103   4.271   3.380
23264SOL    HW269817   5.100   4.410   3.296
23265SOL     OW69818   4.527   5.126   2.786
23265SOL    HW169819   4.617   5.140   2.744
23265SOL    HW269820   4.456   5.128   2.715
23266SOL     OW69821   4.646   4.227   2.761
23266SOL    HW169822   4.621   4.218   2.665
23266SOL    HW269823   4.694   4.145   2.792
23267SOL     OW69824   4.263   3.788   2.374
23267SOL    HW169825   4.182   3.789   2.432
23267SOL    HW269826   4.266   3.871   2.319
23268SOL     OW69827   5.158   4.912   1.903
23268SOL    HW169828   5.190   4.836   1.960
23268SOL    HW269829   5.066   4.939   1.933
23269SOL     OW69830   4.021   3.759   2.033
23269SOL    HW169831   4.070   3.843   2.012
23269SOL    HW269832   4.083   3.694   2.078
23270SOL     OW69833   4.659   3.960   2.342
23270SOL    HW169834   4.611   4.001   2.264
23270SOL    HW269835   4.758   3.958   2.323
23271SOL     OW69836   4.800   4.407   3.326
23271SOL    HW169837   4.720   4.346   3.329
23271SOL    HW269838   4.881   4.354   3.302
23272SOL     OW69839   4.951   5.294   2.655
23272SOL    HW169840   4.972   5.368   2.590
23272SOL    HW269841   5.019   5.294   2.728
23273SOL     OW69842   4.183   4.876   2.603
23273SOL    HW169843   4.112   4.849   2.668
23273SOL    HW269844   4.157   4.848   2.510
23274SOL     OW69845   4.995   5.521   2.453
23274SOL    HW169846   5.039   5.585   2.389
23274SOL    HW269847   4.945   5.573   2.523
23275SOL     OW69848   4.756   4.273   1.878
23275SOL    HW169849   4.715   4.355   1.839
23275SOL    HW269850   4.820   4.299   1.951
23276SOL     OW69851   3.802   4.280   3.248
23276SOL    HW169852   3.894   4.279   3.207
23276SOL    HW269853   3.796   4.354   3.315
23277SOL     OW69854   4.285   3.946   3.009
23277SOL    HW169855   4.323   3.862   3.046
23277SOL    HW269856   4.197   3.965   3.053
23278SOL     OW69857   4.590   4.178   2.504
23278SOL    HW169858   4.558   4.250   2.442
23278SOL    HW269859   4.614   4.097   2.451
23279SOL     OW69860   4.741   3.763   2.615
23279SOL    HW169861   4.669   3.768   2.546
23279SOL    HW269862   4.717   3.694   2.684
23280SOL     OW69863   5.153   4.897   2.729
23280SOL    HW169864   5.098   4.813   2.722
23280SOL    HW269865   5.179   4.926   2.637
23281SOL     OW69866   5.190   4.314   2.854
23281SOL    HW169867   5.160   4.219   2.861
23281SOL    HW269868   5.263   4.330   2.920
23282SOL     OW69869   5.581   4.557   2.239
23282SOL    HW169870   5.623   4.493   2.303
23282SOL    HW269871   5.543   4.506   2.161
23283SOL     OW69872   4.212   5.109   2.036
23283SOL    HW169873   4.125   5.094   2.083
23283SOL    HW269874   4.195   5.135   1.941
23284SOL     OW69875   5.388   5.004   2.519
23284SOL    HW169876   5.487   5.012   2.533
23284SOL    HW269877   5.343   5.088   2.550
23285SOL     OW69878   5.114   4.299   1.940
23285SOL    HW169879   5.060   4.278   2.021
23285SOL    HW269880   5.205   4.258   1.949
23286SOL     OW69881   4.251   3.980   2.190
23286SOL    HW169882   4.278   3.921   2.115
23286SOL    HW269883   4.251   4.075   2.159
23287SOL     OW69884   5.478   4.947   3.450
23287SOL    HW169885   5.569   4.908   3.437
23287SOL    HW269886   5.486   5.043   3.474
23288SOL     OW69887   4.788   5.071   3.202
23288SOL    HW169888   4.708   5.048   3.257
23288SOL    HW269889   4.871   5.045   3.251
23289SOL     OW69890   5.316   5.353   3.487
23289SOL    HW169891   5.343   5.387   3.397
23289SOL    HW269892   5.395   5.315   3.533
23290SOL     OW69893   4.835   4.919   2.962
23290SOL    HW169894   4.795   4.963   3.043
23290SOL    HW269895   4.794   4.956   2.879
23291SOL     OW69896   5.362   4.823   2.941
23291SOL    HW169897   5.367   4.904   3.000
23291SOL    HW269898   5.276   4.825   2.890
23292SOL     OW69899   4.639   3.813   3.264
23292SOL    HW169900   4.664   3.793   3.169
23292SOL    HW269901   4.711   3.869   3.306
23293SOL     OW69902   4.704   4.840   3.581
23293SOL    HW169903   4.605   4.846   3.591
23293SOL    HW269904   4.727   4.760   3.525
23294SOL     OW69905   4.429   4.774   2.230
23294SOL    HW169906   4.415   4.781   2.329
23294SOL    HW269907   4.513   4.723   2.212
23295SOL     OW69908   4.134   4.537   3.113
23295SOL    HW169909   4.220   4.549   3.163
23295SOL    HW269910   4.092   4.450   3.140
23296SOL     OW69911   4.998   4.110   3.124
23296SOL    HW169912   5.019   4.184   3.188
23296SOL    HW269913   4.909   4.127   3.081
23297SOL     OW69914   3.788   5.288   3.193
23297SOL    HW169915   3.742   5.370   3.159
23297SOL    HW269916   3.886   5.307   3.202
23298SOL     OW69917   4.091   4.824   2.363
23298SOL    HW169918   4.084   4.907   2.307
23298SOL    HW269919   4.095   4.744   2.303
23299SOL     OW69920   4.290   4.261   2.727
23299SOL    HW169921   4.302   4.327   2.653
23299SOL    HW269922   4.336   4.295   2.810
23300SOL     OW69923   4.976   5.072   2.250
23300SOL    HW169924   5.026   5.149   2.290
23300SOL    HW269925   4.881   5.074   2.282
23301SOL     OW69926   4.996   5.169   3.004
23301SOL    HW169927   5.043   5.182   3.091
23301SOL    HW269928   4.930   5.095   3.013
23302SOL     OW69929   5.306   4.363   2.334
23302SOL    HW169930   5.275   4.424   2.407
23302SOL    HW269931   5.356   4.415   2.265
23303SOL     OW69932   4.078   5.234   3.191
23303SOL    HW169933   4.057   5.190   3.104
23303SOL    HW269934   4.175   5.260   3.194
23304SOL     OW69935   4.126   4.475   3.460
23304SOL    HW169936   4.194   4.530   3.413
23304SOL    HW269937   4.166   4.387   3.487
23305SOL     OW69938   5.311   4.503   3.532
23305SOL    HW169939   5.219   4.541   3.527
23305SOL    HW269940   5.371   4.550   3.467
23306SOL     OW69941   4.737   3.829   3.632
23306SOL    HW169942   4.743   3.914   3.580
23306SOL    HW269943   4.769   3.753   3.575
23307SOL     OW69944   4.228   3.774   3.602
23307SOL    HW169945   4.186   3.717   3.532
23307SOL    HW269946   4.162   3.843   3.634
23308SOL     OW69947   4.297   4.594   2.891
23308SOL    HW169948   4.341   4.683   2.882
23308SOL    HW269949   4.234   4.594   2.968
23309SOL     OW69950   5.084   4.586   2.907
23309SOL    HW169951   5.009   4.586   2.841
23309SOL    HW269952   5.121   4.494   2.916
23310SOL     OW69953   4.933   4.249   2.137
23310SOL    HW169954   4.946   4.165   2.191
23310SOL    HW269955   4.904   4.323   2.197
23311SOL     OW69956   4.031   3.937   3.093
23311SOL    HW169957   4.008   3.974   3.183
23311SOL    HW269958   4.001   3.842   3.087
23312SOL     OW69959   3.761   5.034   3.144
23312SOL    HW169960   3.814   4.985   3.212
23312SOL    HW269961   3.783   5.132   3.149
23313SOL     OW69962   4.456   4.358   2.926
23313SOL    HW169963   4.515   4.332   2.850
23313SOL    HW269964   4.428   4.454   2.915
23314SOL     OW69965   5.452   4.659   3.716
23314SOL    HW169966   5.406   4.652   3.627
23314SOL    HW269967   5.390   4.703   3.782
23315SOL     OW69968   4.031   3.787   2.480
23315SOL    HW169969   4.020   3.881   2.513
23315SOL    HW269970   4.026   3.724   2.557
23316SOL     OW69971   5.346   4.091   2.236
23316SOL    HW169972   5.348   4.015   2.300
23316SOL    HW269973   5.298   4.168   2.276
23317SOL     OW69974   4.747   4.490   2.828
23317SOL    HW169975   4.762   4.511   2.924
23317SOL    HW269976   4.717   4.395   2.819
23318SOL     OW69977   4.704   5.297   3.562
23318SOL    HW169978   4.684   5.341   3.474
23318SOL    HW269979   4.743   5.206   3.546
23319SOL     OW69980   5.583   5.242   3.467
23319SOL    HW169981   5.597   5.269   3.372
23319SOL    HW269982   5.666   5.264   3.520
23320SOL     OW69983   4.074   4.622   3.666
23320SOL    HW169984   4.150   4.666   3.714
23320SOL    HW269985   4.109   4.575   3.584
23321SOL     OW69986   5.264   3.998   1.987
23321SOL    HW169987   5.203   3.923   2.010
23321SOL    HW269988   5.286   4.050   2.070
23322SOL     OW69989   5.027   4.562   1.904
23322SOL    HW169990   5.061   4.469   1.919
23322SOL    HW269991   5.045   4.589   1.809
23323SOL     OW69992   4.792   5.057   2.711
23323SOL    HW169993   4.799   4.973   2.656
23323SOL    HW269994   4.854   5.126   2.675
23324SOL     OW69995   4.043   4.534   2.811
23324SOL    HW169996   4.136   4.570   2.816
23324SOL    HW269997   4.037   4.449   2.863
23325SOL     OW69998   4.063   4.233   2.868
23325SOL    HW169999   4.011   4.150   2.851
23325SOL    HW270000   4.140   4.238   2.804
23326SOL     OW70001   4.862   4.104   3.540
23326SOL    HW170002   4.817   4.167   3.604
23326SOL    HW270003   4.955   4.135   3.523
23327SOL     OW70004   4.884   3.931   3.339
23327SOL    HW170005   4.884   3.995   3.416
23327SOL    HW270006   4.912   3.979   3.256
23328SOL     OW70007   3.732   5.050   2.062
23328SOL    HW170008   3.639   5.071   2.031
23328SOL    HW270009   3.742   4.951   2.075
23329SOL     OW70010   3.812   5.525   2.789
23329SOL    HW170011   3.770   5.439   2.762
23329SOL    HW270012   3.906   5.528   2.755
23330SOL     OW70013   4.228   5.292   2.772
23330SOL    HW170014   4.294   5.366   2.781
23330SOL    HW270015   4.272   5.213   2.730
23331SOL     OW70016   4.726   4.520   3.100
23331SOL    HW170017   4.767   4.488   3.186
23331SOL    HW270018   4.630   4.493   3.097
23332SOL     OW70019   3.764   4.268   2.976
23332SOL    HW170020   3.849   4.235   2.935
23332SOL    HW270021   3.777   4.283   3.074
23333SOL     OW70022   3.913   4.244   3.584
23333SOL    HW170023   3.972   4.204   3.514
23333SOL    HW270024   3.855   4.315   3.543
23334SOL     OW70025   5.093   4.674   3.522
23334SOL    HW170026   5.132   4.763   3.542
23334SOL    HW270027   5.103   4.654   3.425
23335SOL     OW70028   4.539   4.296   2.187
23335SOL    HW170029   4.546   4.207   2.141
23335SOL    HW270030   4.445   4.330   2.179
23336SOL     OW70031   5.381   4.328   3.068
23336SOL    HW170032   5.343   4.259   3.130
23336SOL    HW270033   5.463   4.292   3.024
23337SOL     OW70034   3.976   5.288   3.606
23337SOL    HW170035   3.946   5.345   3.682
23337SOL    HW270036   3.969   5.191   3.632
23338SOL     OW70037   4.395   4.188   3.131
23338SOL    HW170038   4.361   4.099   3.101
23338SOL    HW270039   4.421   4.242   3.051
23339SOL     OW70040   4.654   5.402   3.327
23339SOL    HW170041   4.630   5.384   3.232
23339SOL    HW270042   4.684   5.496   3.337
23340SOL     OW70043   4.197   4.224   2.053
23340SOL    HW170044   4.258   4.304   2.057
23340SOL    HW270045   4.102   4.255   2.060
23341SOL     OW70046   3.883   4.861   3.328
23341SOL    HW170047   3.905   4.800   3.404
23341SOL    HW270048   3.893   4.812   3.242
23342SOL     OW70049   5.071   4.783   3.096
23342SOL    HW170050   5.095   4.720   3.022
23342SOL    HW270051   4.981   4.823   3.078
23343SOL     OW70052   5.026   4.579   2.171
23343SOL    HW170053   4.940   4.548   2.213
23343SOL    HW270054   5.022   4.565   2.072
23344SOL     OW70055   5.483   5.471   3.016
23344SOL    HW170056   5.544   5.501   2.943
23344SOL    HW270057   5.445   5.382   2.994
23345SOL     OW70058   4.976   5.455   2.990
23345SOL    HW170059   5.060   5.460   2.936
23345SOL    HW270060   4.953   5.359   3.008
23346SOL     OW70061   3.807   4.982   2.884
23346SOL    HW170062   3.802   4.981   2.984
23346SOL    HW270063   3.724   4.941   2.846
23347SOL     OW70064   4.412   5.386   3.578
23347SOL    HW170065   4.356   5.467   3.587
23347SOL    HW270066   4.464   5.390   3.492
23348SOL     OW70067   5.450   3.859   2.385
23348SOL    HW170068   5.523   3.842   2.318
23348SOL    HW270069   5.419   3.772   2.423
23349SOL     OW70070   5.112   5.297   2.339
23349SOL    HW170071   5.179   5.309   2.265
23349SOL    HW270072   5.072   5.386   2.362
23350SOL     OW70073   3.854   5.518   3.713
23350SOL    HW170074   3.813   5.444   3.766
23350SOL    HW270075   3.918   5.569   3.771
23351SOL     OW70076   5.004   4.651   2.534
23351SOL    HW170077   5.064   4.570   2.536
23351SOL    HW270078   5.044   4.720   2.474
23352SOL     OW70079   4.554   4.997   3.284
23352SOL    HW170080   4.549   5.030   3.379
23352SOL    HW270081   4.468   5.016   3.238
23353SOL     OW70082   4.396   5.340   2.016
23353SOL    HW170083   4.405   5.350   1.917
23353SOL    HW270084   4.356   5.251   2.037
23354SOL     OW70085   5.374   5.444   3.256
23354SOL    HW170086   5.427   5.454   3.172
23354SOL    HW270087   5.347   5.534   3.290
23355SOL     OW70088   5.565   3.899   2.825
23355SOL    HW170089   5.604   3.814   2.789
23355SOL    HW270090   5.467   3.901   2.806
23356SOL     OW70091   3.987   4.050   2.582
23356SOL    HW170092   3.908   4.101   2.548
23356SOL    HW270093   3.978   4.035   2.680
23357SOL     OW70094   4.918   5.336   1.893
23357SOL    HW170095   4.924   5.243   1.930
23357SOL    HW270096   4.859   5.336   1.813
23358SOL     OW70097   4.546   4.726   3.234
23358SOL    HW170098   4.586   4.725   3.142
23358SOL    HW270099   4.556   4.818   3.274
23359SOL     OW70100   4.640   4.634   2.153
23359SOL    HW170101   4.703   4.672   2.085
23359SOL    HW270102   4.680   4.551   2.192
23360SOL     OW70103   5.228   5.331   1.906
23360SOL    HW170104   5.136   5.368   1.913
23360SOL    HW270105   5.266   5.351   1.816
23361SOL     OW70106   4.096   5.012   3.352
23361SOL    HW170107   4.083   5.105   3.318
23361SOL    HW270108   4.012   4.960   3.339
23362SOL     OW70109   5.338   5.016   3.151
23362SOL    HW170110   5.398   5.019   3.231
23362SOL    HW270111   5.263   5.080   3.164
23363SOL     OW70112   4.763   4.822   2.558
23363SOL    HW170113   4.693   4.775   2.612
23363SOL    HW270114   4.822   4.754   2.515
23364SOL     OW70115   4.738   3.960   2.833
23364SOL    HW170116   4.730   3.924   2.740
23364SOL    HW270117   4.736   3.884   2.898
23365SOL     OW70118   4.314   5.211   2.353
23365SOL    HW170119   4.356   5.153   2.283
23365SOL    HW270120   4.270   5.290   2.309
23366SOL     OW70121   5.433   4.109   3.243
23366SOL    HW170122   5.506   4.178   3.247
23366SOL    HW270123   5.461   4.034   3.184
23367SOL     OW70124   3.979   5.072   2.152
23367SOL    HW170125   3.883   5.073   2.125
23367SOL    HW270126   3.991   5.125   2.236
23368SOL     OW70127   3.829   4.737   3.588
23368SOL    HW170128   3.752   4.704   3.642
23368SOL    HW270129   3.914   4.707   3.630
23369SOL     OW70130   4.396   3.927   3.351
23369SOL    HW170131   4.486   3.911   3.311
23369SOL    HW270132   4.404   3.932   3.450
23370SOL     OW70133   3.799   4.069   1.895
23370SOL    HW170134   3.707   4.041   1.866
23370SOL    HW270135   3.830   4.146   1.839
23371SOL     OW70136   5.164   4.580   3.260
23371SOL    HW170137   5.107   4.632   3.197
23371SOL    HW270138   5.260   4.592   3.236
23372SOL     OW70139   3.796   3.890   2.180
23372SOL    HW170140   3.779   3.973   2.126
23372SOL    HW270141   3.886   3.853   2.158
23373SOL     OW70142   4.907   5.059   1.981
23373SOL    HW170143   4.808   5.048   1.983
23373SOL    HW270144   4.941   5.074   2.074
23374SOL     OW70145   4.337   4.566   3.293
23374SOL    HW170146   4.393   4.647   3.276
23374SOL    HW270147   4.396   4.486   3.296
23375SOL     OW70148   5.217   5.491   2.821
23375SOL    HW170149   5.250   5.555   2.752
23375SOL    HW270150   5.283   5.485   2.896
23376SOL     OW70151   4.440   4.289   3.570
23376SOL    HW170152   4.459   4.354   3.644
23376SOL    HW270153   4.500   4.209   3.579
23377SOL     OW70154   5.174   4.944   3.495
23377SOL    HW170155   5.165   4.934   3.594
23377SOL    HW270156   5.270   4.937   3.469
23378SOL     OW70157   4.114   5.465   3.422
23378SOL    HW170158   4.023   5.506   3.420
23378SOL    HW270159   4.107   5.371   3.454
23379SOL     OW70160   5.398   4.607   3.116
23379SOL    HW170161   5.371   4.518   3.079
23379SOL    HW270162   5.399   4.675   3.043
23380SOL     OW70163   4.949   4.049   2.311
23380SOL    HW170164   5.014   3.975   2.300
23380SOL    HW270165   4.969   4.099   2.395
23381SOL     OW70166   4.318   4.469   2.514
23381SOL    HW170167   4.368   4.554   2.495
23381SOL    HW270168   4.230   4.471   2.466
23382SOL     OW70169   5.501   4.066   3.504
23382SOL    HW170170   5.484   4.097   3.410
23382SOL    HW270171   5.417   4.029   3.542
23383SOL     OW70172   5.454   4.658   3.379
23383SOL    HW170173   5.492   4.749   3.394
23383SOL    HW270174   5.446   4.641   3.280
23384SOL     OW70175   4.583   5.098   1.878
23384SOL    HW170176   4.537   5.113   1.966
23384SOL    HW270177   4.627   5.183   1.848
23385SOL     OW70178   4.385   5.514   2.815
23385SOL    HW170179   4.339   5.602   2.802
23385SOL    HW270180   4.484   5.526   2.808
23386SOL     OW70181   4.583   4.680   2.723
23386SOL    HW170182   4.637   4.611   2.771
23386SOL    HW270183   4.551   4.749   2.789
23387SOL     OW70184   4.807   4.708   1.949
23387SOL    HW170185   4.784   4.761   1.867
23387SOL    HW270186   4.888   4.652   1.930
23388SOL     OW70187   5.585   5.293   2.713
23388SOL    HW170188   5.514   5.281   2.643
23388SOL    HW270189   5.586   5.214   2.773
23389SOL     OW70190   3.945   5.038   3.706
23389SOL    HW170191   3.880   4.965   3.685
23389SOL    HW270192   3.949   5.052   3.804
23390SOL     OW70193   3.803   4.964   2.515
23390SOL    HW170194   3.802   4.917   2.603
23390SOL    HW270195   3.885   4.936   2.464
23391SOL     OW70196   4.396   5.115   3.486
23391SOL    HW170197   4.318   5.065   3.524
23391SOL    HW270198   4.393   5.210   3.517
23392SOL     OW70199   5.548   3.916   3.089
23392SOL    HW170200   5.544   3.826   3.133
23392SOL    HW270201   5.551   3.905   2.990
23393SOL     OW70202   4.152   4.148   2.382
23393SOL    HW170203   4.182   4.076   2.320
23393SOL    HW270204   4.113   4.108   2.465
23394SOL     OW70205   5.429   5.211   2.966
23394SOL    HW170206   5.336   5.186   2.939
23394SOL    HW270207   5.455   5.161   3.048
23395SOL     OW70208   4.041   4.271   3.142
23395SOL    HW170209   4.079   4.212   3.214
23395SOL    HW270210   4.081   4.245   3.054
23396SOL     OW70211   4.536   5.310   2.549
23396SOL    HW170212   4.568   5.320   2.455
23396SOL    HW270213   4.457   5.248   2.551
23397SOL     OW70214   5.148   3.938   2.974
23397SOL    HW170215   5.200   3.873   3.029
23397SOL    HW270216   5.099   4.001   3.035
23398SOL     OW70217   4.725   3.758   3.016
23398SOL    HW170218   4.662   3.686   2.985
23398SOL    HW270219   4.818   3.722   3.016
23399SOL     OW70220   4.494   5.054   2.163
23399SOL    HW170221   4.448   4.967   2.180
23399SOL    HW270222   4.585   5.051   2.204
23400SOL     OW70223   4.342   5.291   3.146
23400SOL    HW170224   4.337   5.373   3.203
23400SOL    HW270225   4.431   5.288   3.101
23401SOL     OW70226   5.076   3.776   2.030
23401SOL    HW170227   5.111   3.735   1.946
23401SOL    HW270228   4.986   3.738   2.050
23402SOL     OW70229   5.024   4.177   2.553
23402SOL    HW170230   4.965   4.257   2.557
23402SOL    HW270231   5.039   4.142   2.646
23403SOL     OW70232   5.317   3.945   2.744
23403SOL    HW170233   5.233   3.944   2.798
23403SOL    HW270234   5.319   4.028   2.688
23404SOL     OW70235   3.763   4.801   2.162
23404SOL    HW170236   3.862   4.790   2.153
23404SOL    HW270237   3.723   4.715   2.194
23405SOL     OW70238   4.599   5.370   2.199
23405SOL    HW170239   4.522   5.335   2.145
23405SOL    HW270240   4.567   5.441   2.261
23406SOL     OW70241   3.954   4.352   3.837
23406SOL    HW170242   3.861   4.350   3.874
23406SOL    HW270243   3.955   4.313   3.745
23407SOL     OW70244   3.949   3.999   4.720
23407SOL    HW170245   3.984   3.982   4.812
23407SOL    HW270246   3.861   3.954   4.708
23408SOL     OW70247   3.743   4.092   4.371
23408SOL    HW170248   3.661   4.135   4.410
23408SOL    HW270249   3.715   4.019   4.308
23409SOL     OW70250   4.293   4.999   4.889
23409SOL    HW170251   4.200   4.992   4.852
23409SOL    HW270252   4.304   5.088   4.933
23410SOL     OW70253   5.279   5.235   4.427
23410SOL    HW170254   5.222   5.219   4.508
23410SOL    HW270255   5.220   5.245   4.347
23411SOL     OW70256   4.859   4.427   4.441
23411SOL    HW170257   4.916   4.505   4.416
23411SOL    HW270258   4.799   4.453   4.517
23412SOL     OW70259   5.479   4.331   3.955
23412SOL    HW170260   5.467   4.318   3.856
23412SOL    HW270261   5.449   4.250   4.004
23413SOL     OW70262   4.492   4.868   4.747
23413SOL    HW170263   4.414   4.885   4.807
23413SOL    HW270264   4.526   4.955   4.711
23414SOL     OW70265   4.574   4.522   5.547
23414SOL    HW170266   4.570   4.598   5.612
23414SOL    HW270267   4.596   4.558   5.456
23415SOL     OW70268   4.409   4.736   4.389
23415SOL    HW170269   4.478   4.720   4.459
23415SOL    HW270270   4.336   4.793   4.427
23416SOL     OW70271   4.410   4.885   5.527
23416SOL    HW170272   4.470   4.964   5.541
23416SOL    HW270273   4.324   4.916   5.486
23417SOL     OW70274   4.059   5.159   4.785
23417SOL    HW170275   3.981   5.128   4.732
23417SOL    HW270276   4.117   5.217   4.728
23418SOL     OW70277   5.184   5.229   5.063
23418SOL    HW170278   5.208   5.323   5.089
23418SOL    HW270279   5.168   5.175   5.145
23419SOL     OW70280   4.162   4.116   5.223
23419SOL    HW170281   4.244   4.060   5.232
23419SOL    HW270282   4.081   4.058   5.227
23420SOL     OW70283   5.327   4.171   4.461
23420SOL    HW170284   5.253   4.217   4.411
23420SOL    HW270285   5.378   4.239   4.514
23421SOL     OW70286   3.955   5.437   4.207
23421SOL    HW170287   3.989   5.514   4.261
23421SOL    HW270288   3.999   5.437   4.117
23422SOL     OW70289   4.851   5.065   5.414
23422SOL    HW170290   4.898   5.065   5.502
23422SOL    HW270291   4.803   4.978   5.403
23423SOL     OW70292   3.954   5.158   4.262
23423SOL    HW170293   3.928   5.254   4.262
23423SOL    HW270294   3.883   5.104   4.307
23424SOL     OW70295   3.964   4.815   4.610
23424SOL    HW170296   3.978   4.731   4.662
23424SOL    HW270297   3.909   4.879   4.665
23425SOL     OW70298   4.344   5.510   5.163
23425SOL    HW170299   4.252   5.493   5.198
23425SOL    HW270300   4.372   5.602   5.189
23426SOL     OW70301   4.330   4.688   3.847
23426SOL    HW170302   4.337   4.772   3.793
23426SOL    HW270303   4.376   4.701   3.935
23427SOL     OW70304   5.318   3.838   5.204
23427SOL    HW170305   5.300   3.905   5.132
23427SOL    HW270306   5.315   3.884   5.293
23428SOL     OW70307   3.846   4.367   4.287
23428SOL    HW170308   3.801   4.279   4.304
23428SOL    HW270309   3.845   4.421   4.371
23429SOL     OW70310   5.566   5.491   4.083
23429SOL    HW170311   5.620   5.462   4.163
23429SOL    HW270312   5.596   5.581   4.054
23430SOL     OW70313   3.751   5.320   3.841
23430SOL    HW170314   3.732   5.224   3.862
23430SOL    HW270315   3.718   5.378   3.916
23431SOL     OW70316   5.413   4.646   4.336
23431SOL    HW170317   5.508   4.617   4.344
23431SOL    HW270318   5.405   4.711   4.261
23432SOL     OW70319   5.365   4.832   4.156
23432SOL    HW170320   5.451   4.834   4.104
23432SOL    HW270321   5.379   4.879   4.244
23433SOL     OW70322   3.837   4.461   5.321
23433SOL    HW170323   3.925   4.448   5.366
23433SOL    HW270324   3.824   4.558   5.299
23434SOL     OW70325   4.337   5.089   4.450
23434SOL    HW170326   4.288   5.002   4.459
23434SOL    HW270327   4.314   5.132   4.363
23435SOL     OW70328   5.017   4.952   5.147
23435SOL    HW170329   5.054   4.879   5.089
23435SOL    HW270330   5.069   4.957   5.232
23436SOL     OW70331   4.533   3.728   4.226
23436SOL    HW170332   4.573   3.819   4.217
23436SOL    HW270333   4.433   3.736   4.232
23437SOL     OW70334   3.921   4.700   4.988
23437SOL    HW170335   4.010   4.655   4.974
23437SOL    HW270336   3.848   4.635   4.969
23438SOL     OW70337   5.249   4.723   3.914
23438SOL    HW170338   5.186   4.647   3.927
23438SOL    HW270339   5.297   4.741   4.000
23439SOL     OW70340   4.911   5.516   5.340
23439SOL    HW170341   4.935   5.576   5.264
23439SOL    HW270342   4.918   5.421   5.310
23440SOL     OW70343   4.041   3.975   5.525
23440SOL    HW170344   4.112   4.046   5.531
23440SOL    HW270345   3.953   4.014   5.553
23441SOL     OW70346   5.190   5.141   4.677
23441SOL    HW170347   5.131   5.147   4.757
23441SOL    HW270348   5.175   5.053   4.631
23442SOL     OW70349   5.391   5.438   4.296
23442SOL    HW170350   5.350   5.415   4.208
23442SOL    HW270351   5.373   5.364   4.361
23443SOL     OW70352   4.322   4.453   3.994
23443SOL    HW170353   4.346   4.522   3.926
23443SOL    HW270354   4.244   4.486   4.048
23444SOL     OW70355   5.005   4.069   4.668
23444SOL    HW170356   4.919   4.019   4.655
23444SOL    HW270357   5.067   4.015   4.724
23445SOL     OW70358   5.300   5.386   4.031
23445SOL    HW170359   5.389   5.432   4.034
23445SOL    HW270360   5.279   5.362   3.936
23446SOL     OW70361   4.531   4.329   5.189
23446SOL    HW170362   4.484   4.326   5.278
23446SOL    HW270363   4.480   4.274   5.123
23447SOL     OW70364   5.118   4.193   5.398
23447SOL    HW170365   5.098   4.236   5.486
23447SOL    HW270366   5.196   4.131   5.407
23448SOL     OW70367   4.697   4.614   5.296
23448SOL    HW170368   4.743   4.530   5.267
23448SOL    HW270369   4.641   4.648   5.221
23449SOL     OW70370   4.715   4.134   4.966
23449SOL    HW170371   4.638   4.168   5.020
23449SOL    HW270372   4.681   4.083   4.887
23450SOL     OW70373   4.765   4.425   4.153
23450SOL    HW170374   4.791   4.421   4.249
23450SOL    HW270375   4.680   4.374   4.139
23451SOL     OW70376   3.800   4.535   4.513
23451SOL    HW170377   3.899   4.523   4.522
23451SOL    HW270378   3.776   4.630   4.534
23452SOL     OW70379   3.854   5.545   5.295
23452SOL    HW170380   3.844   5.530   5.394
23452SOL    HW270381   3.768   5.581   5.259
23453SOL     OW70382   4.589   4.072   3.919
23453SOL    HW170383   4.648   4.135   3.870
23453SOL    HW270384   4.608   3.978   3.890
23454SOL     OW70385   5.443   4.309   5.555
23454SOL    HW170386   5.417   4.398   5.519
23454SOL    HW270387   5.441   4.241   5.482
23455SOL     OW70388   5.086   4.868   4.269
23455SOL    HW170389   5.169   4.839   4.221
23455SOL    HW270390   5.037   4.935   4.213
23456SOL     OW70391   4.274   3.920   4.609
23456SOL    HW170392   4.269   3.915   4.709
23456SOL    HW270393   4.276   4.016   4.580
23457SOL     OW70394   4.732   5.180   4.201
23457SOL    HW170395   4.686   5.252   4.149
23457SOL    HW270396   4.728   5.200   4.299
23458SOL     OW70397   4.075   5.525   4.577
23458SOL    HW170398   4.125   5.439   4.583
23458SOL    HW270399   4.140   5.602   4.574
23459SOL     OW70400   5.519   4.790   4.597
23459SOL    HW170401   5.457   4.775   4.521
23459SOL    HW270402   5.467   4.801   4.682
23460SOL     OW70403   4.951   5.274   5.230
23460SOL    HW170404   4.957   5.197   5.294
23460SOL    HW270405   4.899   5.248   5.150
23461SOL     OW70406   4.045   4.667   3.966
23461SOL    HW170407   4.127   4.706   3.924
23461SOL    HW270408   4.018   4.585   3.917
23462SOL     OW70409   5.182   4.459   4.452
23462SOL    HW170410   5.177   4.394   4.527
23462SOL    HW270411   5.262   4.518   4.465
23463SOL     OW70412   4.185   4.990   5.451
23463SOL    HW170413   4.135   4.991   5.365
23463SOL    HW270414   4.122   4.972   5.527
23464SOL     OW70415   4.835   5.500   3.961
23464SOL    HW170416   4.775   5.438   4.011
23464SOL    HW270417   4.866   5.456   3.876
23465SOL     OW70418   3.926   4.009   5.222
23465SOL    HW170419   3.846   4.069   5.209
23465SOL    HW270420   3.916   3.960   5.308
23466SOL     OW70421   5.356   5.101   3.805
23466SOL    HW170422   5.324   5.195   3.795
23466SOL    HW270423   5.280   5.038   3.793
23467SOL     OW70424   4.188   5.467   4.047
23467SOL    HW170425   4.221   5.506   4.133
23467SOL    HW270426   4.264   5.460   3.982
23468SOL     OW70427   5.124   3.831   4.150
23468SOL    HW170428   5.100   3.794   4.060
23468SOL    HW270429   5.223   3.847   4.154
23469SOL     OW70430   3.973   5.509   4.965
23469SOL    HW170431   4.030   5.444   5.015
23469SOL    HW270432   3.957   5.476   4.872
23470SOL     OW70433   4.664   5.422   4.628
23470SOL    HW170434   4.744   5.365   4.649
23470SOL    HW270435   4.615   5.382   4.551
23471SOL     OW70436   4.106   4.424   4.204
23471SOL    HW170437   4.151   4.334   4.201
23471SOL    HW270438   4.012   4.413   4.237
23472SOL     OW70439   5.271   3.946   5.453
23472SOL    HW170440   5.266   3.983   5.545
23472SOL    HW270441   5.199   3.877   5.441
23473SOL     OW70442   4.338   3.846   3.841
23473SOL    HW170443   4.436   3.824   3.848
23473SOL    HW270444   4.307   3.829   3.748
23474SOL     OW70445   4.505   3.988   5.473
23474SOL    HW170446   4.572   3.927   5.516
23474SOL    HW270447   4.432   4.007   5.538
23475SOL     OW70448   4.612   5.238   4.919
23475SOL    HW170449   4.589   5.213   4.825
23475SOL    HW270450   4.673   5.169   4.958
23476SOL     OW70451   5.075   4.314   5.157
23476SOL    HW170452   5.103   4.271   5.242
23476SOL    HW270453   5.100   4.410   5.158
23477SOL     OW70454   4.527   5.126   4.648
23477SOL    HW170455   4.617   5.140   4.606
23477SOL    HW270456   4.456   5.128   4.577
23478SOL     OW70457   4.646   4.227   4.623
23478SOL    HW170458   4.621   4.218   4.527
23478SOL    HW270459   4.694   4.145   4.654
23479SOL     OW70460   4.263   3.788   4.236
23479SOL    HW170461   4.182   3.789   4.294
23479SOL    HW270462   4.266   3.871   4.181
23480SOL     OW70463   5.158   4.912   3.765
23480SOL    HW170464   5.190   4.836   3.822
23480SOL    HW270465   5.066   4.939   3.795
23481SOL     OW70466   4.021   3.759   3.895
23481SOL    HW170467   4.070   3.843   3.874
23481SOL    HW270468   4.083   3.694   3.940
23482SOL     OW70469   4.659   3.960   4.204
23482SOL    HW170470   4.611   4.001   4.126
23482SOL    HW270471   4.758   3.958   4.185
23483SOL     OW70472   4.800   4.407   5.188
23483SOL    HW170473   4.720   4.346   5.191
23483SOL    HW270474   4.881   4.354   5.164
23484SOL     OW70475   4.951   5.294   4.517
23484SOL    HW170476   4.972   5.368   4.452
23484SOL    HW270477   5.019   5.294   4.590
23485SOL     OW70478   4.183   4.876   4.465
23485SOL    HW170479   4.112   4.849   4.530
23485SOL    HW270480   4.157   4.848   4.372
23486SOL     OW70481   4.995   5.521   4.315
23486SOL    HW170482   5.039   5.585   4.251
23486SOL    HW270483   4.945   5.573   4.385
23487SOL     OW70484   4.756   4.273   3.740
23487SOL    HW170485   4.715   4.355   3.701
23487SOL    HW270486   4.820   4.299   3.813
23488SOL     OW70487   3.802   4.280   5.110
23488SOL    HW170488   3.894   4.279   5.069
23488SOL    HW270489   3.796   4.354   5.177
23489SOL     OW70490   4.285   3.946   4.871
23489SOL    HW170491   4.323   3.862   4.908
23489SOL    HW270492   4.197   3.965   4.915
23490SOL     OW70493   4.590   4.178   4.366
23490SOL    HW170494   4.558   4.250   4.304
23490SOL    HW270495   4.614   4.097   4.313
23491SOL     OW70496   4.741   3.763   4.477
23491SOL    HW170497   4.669   3.768   4.408
23491SOL    HW270498   4.717   3.694   4.546
23492SOL     OW70499   5.153   4.897   4.591
23492SOL    HW170500   5.098   4.813   4.584
23492SOL    HW270501   5.179   4.926   4.499
23493SOL     OW70502   5.190   4.314   4.716
23493SOL    HW170503   5.160   4.219   4.723
23493SOL    HW270504   5.263   4.330   4.782
23494SOL     OW70505   5.581   4.557   4.101
23494SOL    HW170506   5.623   4.493   4.165
23494SOL    HW270507   5.543   4.506   4.023
23495SOL     OW70508   4.212   5.109   3.898
23495SOL    HW170509   4.125   5.094   3.945
23495SOL    HW270510   4.195   5.135   3.803
23496SOL     OW70511   5.388   5.004   4.381
23496SOL    HW170512   5.487   5.012   4.395
23496SOL    HW270513   5.343   5.088   4.412
23497SOL     OW70514   5.114   4.299   3.802
23497SOL    HW170515   5.060   4.278   3.883
23497SOL    HW270516   5.205   4.258   3.811
23498SOL     OW70517   4.251   3.980   4.052
23498SOL    HW170518   4.278   3.921   3.977
23498SOL    HW270519   4.251   4.075   4.021
23499SOL     OW70520   5.478   4.947   5.312
23499SOL    HW170521   5.569   4.908   5.299
23499SOL    HW270522   5.486   5.043   5.336
23500SOL     OW70523   4.788   5.071   5.064
23500SOL    HW170524   4.708   5.048   5.119
23500SOL    HW270525   4.871   5.045   5.113
23501SOL     OW70526   5.316   5.353   5.349
23501SOL    HW170527   5.343   5.387   5.259
23501SOL    HW270528   5.395   5.315   5.395
23502SOL     OW70529   4.835   4.919   4.824
23502SOL    HW170530   4.795   4.963   4.905
23502SOL    HW270531   4.794   4.956   4.741
23503SOL     OW70532   5.362   4.823   4.803
23503SOL    HW170533   5.367   4.904   4.862
23503SOL    HW270534   5.276   4.825   4.752
23504SOL     OW70535   4.639   3.813   5.126
23504SOL    HW170536   4.664   3.793   5.031
23504SOL    HW270537   4.711   3.869   5.168
23505SOL     OW70538   4.704   4.840   5.443
23505SOL    HW170539   4.605   4.846   5.453
23505SOL    HW270540   4.727   4.760   5.387
23506SOL     OW70541   4.429   4.774   4.092
23506SOL    HW170542   4.415   4.781   4.191
23506SOL    HW270543   4.513   4.723   4.074
23507SOL     OW70544   4.134   4.537   4.975
23507SOL    HW170545   4.220   4.549   5.025
23507SOL    HW270546   4.092   4.450   5.002
23508SOL     OW70547   4.998   4.110   4.986
23508SOL    HW170548   5.019   4.184   5.050
23508SOL    HW270549   4.909   4.127   4.943
23509SOL     OW70550   3.788   5.288   5.055
23509SOL    HW170551   3.742   5.370   5.021
23509SOL    HW270552   3.886   5.307   5.064
23510SOL     OW70553   4.091   4.824   4.225
23510SOL    HW170554   4.084   4.907   4.169
23510SOL    HW270555   4.095   4.744   4.165
23511SOL     OW70556   4.290   4.261   4.589
23511SOL    HW170557   4.302   4.327   4.515
23511SOL    HW270558   4.336   4.295   4.672
23512SOL     OW70559   4.976   5.072   4.112
23512SOL    HW170560   5.026   5.149   4.152
23512SOL    HW270561   4.881   5.074   4.144
23513SOL     OW70562   4.996   5.169   4.866
23513SOL    HW170563   5.043   5.182   4.953
23513SOL    HW270564   4.930   5.095   4.875
23514SOL     OW70565   5.306   4.363   4.196
23514SOL    HW170566   5.275   4.424   4.269
23514SOL    HW270567   5.356   4.415   4.127
23515SOL     OW70568   4.078   5.234   5.053
23515SOL    HW170569   4.057   5.190   4.966
23515SOL    HW270570   4.175   5.260   5.056
23516SOL     OW70571   4.126   4.475   5.322
23516SOL    HW170572   4.194   4.530   5.275
23516SOL    HW270573   4.166   4.387   5.349
23517SOL     OW70574   5.311   4.503   5.394
23517SOL    HW170575   5.219   4.541   5.389
23517SOL    HW270576   5.371   4.550   5.329
23518SOL     OW70577   4.737   3.829   5.494
23518SOL    HW170578   4.743   3.914   5.442
23518SOL    HW270579   4.769   3.753   5.437
23519SOL     OW70580   4.228   3.774   5.464
23519SOL    HW170581   4.186   3.717   5.394
23519SOL    HW270582   4.162   3.843   5.496
23520SOL     OW70583   4.297   4.594   4.753
23520SOL    HW170584   4.341   4.683   4.744
23520SOL    HW270585   4.234   4.594   4.830
23521SOL     OW70586   5.084   4.586   4.769
23521SOL    HW170587   5.009   4.586   4.703
23521SOL    HW270588   5.121   4.494   4.778
23522SOL     OW70589   4.933   4.249   3.999
23522SOL    HW170590   4.946   4.165   4.053
23522SOL    HW270591   4.904   4.323   4.059
23523SOL     OW70592   4.031   3.937   4.955
23523SOL    HW170593   4.008   3.974   5.045
23523SOL    HW270594   4.001   3.842   4.949
23524SOL     OW70595   3.761   5.034   5.006
23524SOL    HW170596   3.814   4.985   5.074
23524SOL    HW270597   3.783   5.132   5.011
23525SOL     OW70598   4.456   4.358   4.788
23525SOL    HW170599   4.515   4.332   4.712
23525SOL    HW270600   4.428   4.454   4.777
23526SOL     OW70601   5.452   4.659   5.578
23526SOL    HW170602   5.406   4.652   5.489
23526SOL    HW270603   5.390   4.703   5.644
23527SOL     OW70604   4.031   3.787   4.342
23527SOL    HW170605   4.020   3.881   4.375
23527SOL    HW270606   4.026   3.724   4.419
23528SOL     OW70607   5.346   4.091   4.098
23528SOL    HW170608   5.348   4.015   4.162
23528SOL    HW270609   5.298   4.168   4.138
23529SOL     OW70610   4.747   4.490   4.690
23529SOL    HW170611   4.762   4.511   4.786
23529SOL    HW270612   4.717   4.395   4.681
23530SOL     OW70613   4.704   5.297   5.424
23530SOL    HW170614   4.684   5.341   5.336
23530SOL    HW270615   4.743   5.206   5.408
23531SOL     OW70616   5.583   5.242   5.329
23531SOL    HW170617   5.597   5.269   5.234
23531SOL    HW270618   5.666   5.264   5.382
23532SOL     OW70619   4.074   4.622   5.528
23532SOL    HW170620   4.150   4.666   5.576
23532SOL    HW270621   4.109   4.575   5.446
23533SOL     OW70622   5.264   3.998   3.849
23533SOL    HW170623   5.203   3.923   3.872
23533SOL    HW270624   5.286   4.050   3.932
23534SOL     OW70625   5.027   4.562   3.766
23534SOL    HW170626   5.061   4.469   3.781
23534SOL    HW270627   5.045   4.589   3.671
23535SOL     OW70628   4.792   5.057   4.573
23535SOL    HW170629   4.799   4.973   4.518
23535SOL    HW270630   4.854   5.126   4.537
23536SOL     OW70631   4.043   4.534   4.673
23536SOL    HW170632   4.136   4.570   4.678
23536SOL    HW270633   4.037   4.449   4.725
23537SOL     OW70634   4.063   4.233   4.730
23537SOL    HW170635   4.011   4.150   4.713
23537SOL    HW270636   4.140   4.238   4.666
23538SOL     OW70637   4.862   4.104   5.402
23538SOL    HW170638   4.817   4.167   5.466
23538SOL    HW270639   4.955   4.135   5.385
23539SOL     OW70640   4.884   3.931   5.201
23539SOL    HW170641   4.884   3.995   5.278
23539SOL    HW270642   4.912   3.979   5.118
23540SOL     OW70643   3.732   5.050   3.924
23540SOL    HW170644   3.639   5.071   3.893
23540SOL    HW270645   3.742   4.951   3.937
23541SOL     OW70646   3.812   5.525   4.651
23541SOL    HW170647   3.770   5.439   4.624
23541SOL    HW270648   3.906   5.528   4.617
23542SOL     OW70649   4.228   5.292   4.634
23542SOL    HW170650   4.294   5.366   4.643
23542SOL    HW270651   4.272   5.213   4.592
23543SOL     OW70652   4.726   4.520   4.962
23543SOL    HW170653   4.767   4.488   5.048
23543SOL    HW270654   4.630   4.493   4.959
23544SOL     OW70655   3.764   4.268   4.838
23544SOL    HW170656   3.849   4.235   4.797
23544SOL    HW270657   3.777   4.283   4.936
23545SOL     OW70658   3.913   4.244   5.446
23545SOL    HW170659   3.972   4.204   5.376
23545SOL    HW270660   3.855   4.315   5.405
23546SOL     OW70661   5.093   4.674   5.384
23546SOL    HW170662   5.132   4.763   5.404
23546SOL    HW270663   5.103   4.654   5.287
23547SOL     OW70664   4.539   4.296   4.049
23547SOL    HW170665   4.546   4.207   4.003
23547SOL    HW270666   4.445   4.330   4.041
23548SOL     OW70667   5.381   4.328   4.930
23548SOL    HW170668   5.343   4.259   4.992
23548SOL    HW270669   5.463   4.292   4.886
23549SOL     OW70670   3.976   5.288   5.468
23549SOL    HW170671   3.946   5.345   5.544
23549SOL    HW270672   3.969   5.191   5.494
23550SOL     OW70673   4.395   4.188   4.993
23550SOL    HW170674   4.361   4.099   4.963
23550SOL    HW270675   4.421   4.242   4.913
23551SOL     OW70676   4.654   5.402   5.189
23551SOL    HW170677   4.630   5.384   5.094
23551SOL    HW270678   4.684   5.496   5.199
23552SOL     OW70679   4.197   4.224   3.915
23552SOL    HW170680   4.258   4.304   3.919
23552SOL    HW270681   4.102   4.255   3.922
23553SOL     OW70682   3.883   4.861   5.190
23553SOL    HW170683   3.905   4.800   5.266
23553SOL    HW270684   3.893   4.812   5.104
23554SOL     OW70685   5.071   4.783   4.958
23554SOL    HW170686   5.095   4.720   4.884
23554SOL    HW270687   4.981   4.823   4.940
23555SOL     OW70688   5.026   4.579   4.033
23555SOL    HW170689   4.940   4.548   4.075
23555SOL    HW270690   5.022   4.565   3.934
23556SOL     OW70691   5.483   5.471   4.878
23556SOL    HW170692   5.544   5.501   4.805
23556SOL    HW270693   5.445   5.382   4.856
23557SOL     OW70694   4.976   5.455   4.852
23557SOL    HW170695   5.060   5.460   4.798
23557SOL    HW270696   4.953   5.359   4.870
23558SOL     OW70697   3.807   4.982   4.746
23558SOL    HW170698   3.802   4.981   4.846
23558SOL    HW270699   3.724   4.941   4.708
23559SOL     OW70700   4.412   5.386   5.440
23559SOL    HW170701   4.356   5.467   5.449
23559SOL    HW270702   4.464   5.390   5.354
23560SOL     OW70703   5.450   3.859   4.247
23560SOL    HW170704   5.523   3.842   4.180
23560SOL    HW270705   5.419   3.772   4.285
23561SOL     OW70706   5.112   5.297   4.201
23561SOL    HW170707   5.179   5.309   4.127
23561SOL    HW270708   5.072   5.386   4.224
23562SOL     OW70709   3.854   5.518   5.575
23562SOL    HW170710   3.813   5.444   5.628
23562SOL    HW270711   3.918   5.569   5.633
23563SOL     OW70712   5.004   4.651   4.396
23563SOL    HW170713   5.064   4.570   4.398
23563SOL    HW270714   5.044   4.720   4.336
23564SOL     OW70715   4.554   4.997   5.146
23564SOL    HW170716   4.549   5.030   5.241
23564SOL    HW270717   4.468   5.016   5.100
23565SOL     OW70718   4.396   5.340   3.878
23565SOL    HW170719   4.405   5.350   3.779
23565SOL    HW270720   4.356   5.251   3.899
23566SOL     OW70721   5.374   5.444   5.118
23566SOL    HW170722   5.427   5.454   5.034
23566SOL    HW270723   5.347   5.534   5.152
23567SOL     OW70724   5.565   3.899   4.687
23567SOL    HW170725   5.604   3.814   4.651
23567SOL    HW270726   5.467   3.901   4.668
23568SOL     OW70727   3.987   4.050   4.444
23568SOL    HW170728   3.908   4.101   4.410
23568SOL    HW270729   3.978   4.035   4.542
23569SOL     OW70730   4.918   5.336   3.755
23569SOL    HW170731   4.924   5.243   3.792
23569SOL    HW270732   4.859   5.336   3.675
23570SOL     OW70733   4.546   4.726   5.096
23570SOL    HW170734   4.586   4.725   5.004
23570SOL    HW270735   4.556   4.818   5.136
23571SOL     OW70736   4.640   4.634   4.015
23571SOL    HW170737   4.703   4.672   3.947
23571SOL    HW270738   4.680   4.551   4.054
23572SOL     OW70739   5.228   5.331   3.768
23572SOL    HW170740   5.136   5.368   3.775
23572SOL    HW270741   5.266   5.351   3.678
23573SOL     OW70742   4.096   5.012   5.214
23573SOL    HW170743   4.083   5.105   5.180
23573SOL    HW270744   4.012   4.960   5.201
23574SOL     OW70745   5.338   5.016   5.013
23574SOL    HW170746   5.398   5.019   5.093
23574SOL    HW270747   5.263   5.080   5.026
23575SOL     OW70748   4.763   4.822   4.420
23575SOL    HW170749   4.693   4.775   4.474
23575SOL    HW270750   4.822   4.754   4.377
23576SOL     OW70751   4.738   3.960   4.695
23576SOL    HW170752   4.730   3.924   4.602
23576SOL    HW270753   4.736   3.884   4.760
23577SOL     OW70754   4.314   5.211   4.215
23577SOL    HW170755   4.356   5.153   4.145
23577SOL    HW270756   4.270   5.290   4.171
23578SOL     OW70757   5.433   4.109   5.105
23578SOL    HW170758   5.506   4.178   5.109
23578SOL    HW270759   5.461   4.034   5.046
23579SOL     OW70760   3.979   5.072   4.014
23579SOL    HW170761   3.883   5.073   3.987
23579SOL    HW270762   3.991   5.125   4.098
23580SOL     OW70763   3.829   4.737   5.450
23580SOL    HW170764   3.752   4.704   5.504
23580SOL    HW270765   3.914   4.707   5.492
23581SOL     OW70766   4.396   3.927   5.213
23581SOL    HW170767   4.486   3.911   5.173
23581SOL    HW270768   4.404   3.932   5.312
23582SOL     OW70769   3.799   4.069   3.757
23582SOL    HW170770   3.707   4.041   3.728
23582SOL    HW270771   3.830   4.146   3.701
23583SOL     OW70772   5.164   4.580   5.122
23583SOL    HW170773   5.107   4.632   5.059
23583SOL    HW270774   5.260   4.592   5.098
23584SOL     OW70775   3.796   3.890   4.042
23584SOL    HW170776   3.779   3.973   3.988
23584SOL    HW270777   3.886   3.853   4.020
23585SOL     OW70778   4.907   5.059   3.843
23585SOL    HW170779   4.808   5.048   3.845
23585SOL    HW270780   4.941   5.074   3.936
23586SOL     OW70781   4.337   4.566   5.155
23586SOL    HW170782   4.393   4.647   5.138
23586SOL    HW270783   4.396   4.486   5.158
23587SOL     OW70784   5.217   5.491   4.683
23587SOL    HW170785   5.250   5.555   4.614
23587SOL    HW270786   5.283   5.485   4.758
23588SOL     OW70787   4.440   4.289   5.432
23588SOL    HW170788   4.459   4.354   5.506
23588SOL    HW270789   4.500   4.209   5.441
23589SOL     OW70790   5.174   4.944   5.357
23589SOL    HW170791   5.165   4.934   5.456
23589SOL    HW270792   5.270   4.937   5.331
23590SOL     OW70793   4.114   5.465   5.284
23590SOL    HW170794   4.023   5.506   5.282
23590SOL    HW270795   4.107   5.371   5.316
23591SOL     OW70796   5.398   4.607   4.978
23591SOL    HW170797   5.371   4.518   4.941
23591SOL    HW270798   5.399   4.675   4.905
23592SOL     OW70799   4.949   4.049   4.173
23592SOL    HW170800   5.014   3.975   4.162
23592SOL    HW270801   4.969   4.099   4.257
23593SOL     OW70802   4.318   4.469   4.376
23593SOL    HW170803   4.368   4.554   4.357
23593SOL    HW270804   4.230   4.471   4.328
23594SOL     OW70805   5.501   4.066   5.366
23594SOL    HW170806   5.484   4.097   5.272
23594SOL    HW270807   5.417   4.029   5.404
23595SOL     OW70808   5.454   4.658   5.241
23595SOL    HW170809   5.492   4.749   5.256
23595SOL    HW270810   5.446   4.641   5.142
23596SOL     OW70811   4.583   5.098   3.740
23596SOL    HW170812   4.537   5.113   3.828
23596SOL    HW270813   4.627   5.183   3.710
23597SOL     OW70814   4.385   5.514   4.677
23597SOL    HW170815   4.339   5.602   4.664
23597SOL    HW270816   4.484   5.526   4.670
23598SOL     OW70817   4.583   4.680   4.585
23598SOL    HW170818   4.637   4.611   4.633
23598SOL    HW270819   4.551   4.749   4.651
23599SOL     OW70820   4.807   4.708   3.811
23599SOL    HW170821   4.784   4.761   3.729
23599SOL    HW270822   4.888   4.652   3.792
23600SOL     OW70823   5.585   5.293   4.575
23600SOL    HW170824   5.514   5.281   4.505
23600SOL    HW270825   5.586   5.214   4.635
23601SOL     OW70826   3.945   5.038   5.568
23601SOL    HW170827   3.880   4.965   5.547
23601SOL    HW270828   3.949   5.052   5.666
23602SOL     OW70829   3.803   4.964   4.377
23602SOL    HW170830   3.802   4.917   4.465
23602SOL    HW270831   3.885   4.936   4.326
23603SOL     OW70832   4.396   5.115   5.348
23603SOL    HW170833   4.318   5.065   5.386
23603SOL    HW270834   4.393   5.210   5.379
23604SOL     OW70835   5.548   3.916   4.951
23604SOL    HW170836   5.544   3.826   4.995
23604SOL    HW270837   5.551   3.905   4.852
23605SOL     OW70838   4.152   4.148   4.244
23605SOL    HW170839   4.182   4.076   4.182
23605SOL    HW270840   4.113   4.108   4.327
23606SOL     OW70841   5.429   5.211   4.828
23606SOL    HW170842   5.336   5.186   4.801
23606SOL    HW270843   5.455   5.161   4.910
23607SOL     OW70844   4.041   4.271   5.004
23607SOL    HW170845   4.079   4.212   5.076
23607SOL    HW270846   4.081   4.245   4.916
23608SOL     OW70847   4.536   5.310   4.411
23608SOL    HW170848   4.568   5.320   4.317
23608SOL    HW270849   4.457   5.248   4.413
23609SOL     OW70850   5.148   3.938   4.836
23609SOL    HW170851   5.200   3.873   4.891
23609SOL    HW270852   5.099   4.001   4.897
23610SOL     OW70853   4.725   3.758   4.878
23610SOL    HW170854   4.662   3.686   4.847
23610SOL    HW270855   4.818   3.722   4.878
23611SOL     OW70856   4.494   5.054   4.025
23611SOL    HW170857   4.448   4.967   4.042
23611SOL    HW270858   4.585   5.051   4.066
23612SOL     OW70859   4.342   5.291   5.008
23612SOL    HW170860   4.337   5.373   5.065
23612SOL    HW270861   4.431   5.288   4.963
23613SOL     OW70862   5.076   3.776   3.892
23613SOL    HW170863   5.111   3.735   3.808
23613SOL    HW270864   4.986   3.738   3.912
23614SOL     OW70865   5.024   4.177   4.415
23614SOL    HW170866   4.965   4.257   4.419
23614SOL    HW270867   5.039   4.142   4.508
23615SOL     OW70868   5.317   3.945   4.606
23615SOL    HW170869   5.233   3.944   4.660
23615SOL    HW270870   5.319   4.028   4.550
23616SOL     OW70871   3.763   4.801   4.024
23616SOL    HW170872   3.862   4.790   4.015
23616SOL    HW270873   3.723   4.715   4.056
23617SOL     OW70874   4.599   5.370   4.061
23617SOL    HW170875   4.522   5.335   4.007
23617SOL    HW270876   4.567   5.441   4.123
23618SOL     OW70877   3.954   4.352   5.699
23618SOL    HW170878   3.861   4.350   5.736
23618SOL    HW270879   3.955   4.313   5.607
23619SOL     OW70880   3.949   3.999   6.582
23619SOL    HW170881   3.984   3.982   6.674
23619SOL    HW270882   3.861   3.954   6.570
23620SOL     OW70883   3.743   4.092   6.233
23620SOL    HW170884   3.661   4.135   6.272
23620SOL    HW270885   3.715   4.019   6.170
23621SOL     OW70886   4.293   4.999   6.751
23621SOL    HW170887   4.200   4.992   6.714
23621SOL    HW270888   4.304   5.088   6.795
23622SOL     OW70889   5.279   5.235   6.289
23622SOL    HW170890   5.222   5.219   6.370
23622SOL    HW270891   5.220   5.245   6.209
23623SOL     OW70892   4.859   4.427   6.303
23623SOL    HW170893   4.916   4.505   6.278
23623SOL    HW270894   4.799   4.453   6.379
23624SOL     OW70895   5.479   4.331   5.817
23624SOL    HW170896   5.467   4.318   5.718
23624SOL    HW270897   5.449   4.250   5.866
23625SOL     OW70898   4.492   4.868   6.609
23625SOL    HW170899   4.414   4.885   6.669
23625SOL    HW270900   4.526   4.955   6.573
23626SOL     OW70901   4.574   4.522   7.409
23626SOL    HW170902   4.570   4.598   7.474
23626SOL    HW270903   4.596   4.558   7.318
23627SOL     OW70904   4.409   4.736   6.251
23627SOL    HW170905   4.478   4.720   6.321
23627SOL    HW270906   4.336   4.793   6.289
23628SOL     OW70907   4.410   4.885   7.389
23628SOL    HW170908   4.470   4.964   7.403
23628SOL    HW270909   4.324   4.916   7.348
23629SOL     OW70910   4.059   5.159   6.647
23629SOL    HW170911   3.981   5.128   6.594
23629SOL    HW270912   4.117   5.217   6.590
23630SOL     OW70913   5.184   5.229   6.925
23630SOL    HW170914   5.208   5.323   6.951
23630SOL    HW270915   5.168   5.175   7.007
23631SOL     OW70916   4.162   4.116   7.085
23631SOL    HW170917   4.244   4.060   7.094
23631SOL    HW270918   4.081   4.058   7.089
23632SOL     OW70919   5.327   4.171   6.323
23632SOL    HW170920   5.253   4.217   6.273
23632SOL    HW270921   5.378   4.239   6.376
23633SOL     OW70922   3.955   5.437   6.069
23633SOL    HW170923   3.989   5.514   6.123
23633SOL    HW270924   3.999   5.437   5.979
23634SOL     OW70925   4.851   5.065   7.276
23634SOL    HW170926   4.898   5.065   7.364
23634SOL    HW270927   4.803   4.978   7.265
23635SOL     OW70928   3.954   5.158   6.124
23635SOL    HW170929   3.928   5.254   6.124
23635SOL    HW270930   3.883   5.104   6.169
23636SOL     OW70931   3.964   4.815   6.472
23636SOL    HW170932   3.978   4.731   6.524
23636SOL    HW270933   3.909   4.879   6.527
23637SOL     OW70934   4.344   5.510   7.025
23637SOL    HW170935   4.252   5.493   7.060
23637SOL    HW270936   4.372   5.602   7.051
23638SOL     OW70937   4.330   4.688   5.709
23638SOL    HW170938   4.337   4.772   5.655
23638SOL    HW270939   4.376   4.701   5.797
23639SOL     OW70940   5.318   3.838   7.066
23639SOL    HW170941   5.300   3.905   6.994
23639SOL    HW270942   5.315   3.884   7.155
23640SOL     OW70943   3.846   4.367   6.149
23640SOL    HW170944   3.801   4.279   6.166
23640SOL    HW270945   3.845   4.421   6.233
23641SOL     OW70946   5.566   5.491   5.945
23641SOL    HW170947   5.620   5.462   6.025
23641SOL    HW270948   5.596   5.581   5.916
23642SOL     OW70949   3.751   5.320   5.703
23642SOL    HW170950   3.732   5.224   5.724
23642SOL    HW270951   3.718   5.378   5.778
23643SOL     OW70952   5.413   4.646   6.198
23643SOL    HW170953   5.508   4.617   6.206
23643SOL    HW270954   5.405   4.711   6.123
23644SOL     OW70955   5.365   4.832   6.018
23644SOL    HW170956   5.451   4.834   5.966
23644SOL    HW270957   5.379   4.879   6.106
23645SOL     OW70958   3.837   4.461   7.183
23645SOL    HW170959   3.925   4.448   7.228
23645SOL    HW270960   3.824   4.558   7.161
23646SOL     OW70961   4.337   5.089   6.312
23646SOL    HW170962   4.288   5.002   6.321
23646SOL    HW270963   4.314   5.132   6.225
23647SOL     OW70964   5.017   4.952   7.009
23647SOL    HW170965   5.054   4.879   6.951
23647SOL    HW270966   5.069   4.957   7.094
23648SOL     OW70967   4.533   3.728   6.088
23648SOL    HW170968   4.573   3.819   6.079
23648SOL    HW270969   4.433   3.736   6.094
23649SOL     OW70970   3.921   4.700   6.850
23649SOL    HW170971   4.010   4.655   6.836
23649SOL    HW270972   3.848   4.635   6.831
23650SOL     OW70973   5.249   4.723   5.776
23650SOL    HW170974   5.186   4.647   5.789
23650SOL    HW270975   5.297   4.741   5.862
23651SOL     OW70976   4.911   5.516   7.202
23651SOL    HW170977   4.935   5.576   7.126
23651SOL    HW270978   4.918   5.421   7.172
23652SOL     OW70979   4.041   3.975   7.387
23652SOL    HW170980   4.112   4.046   7.393
23652SOL    HW270981   3.953   4.014   7.415
23653SOL     OW70982   5.190   5.141   6.539
23653SOL    HW170983   5.131   5.147   6.619
23653SOL    HW270984   5.175   5.053   6.493
23654SOL     OW70985   5.391   5.438   6.158
23654SOL    HW170986   5.350   5.415   6.070
23654SOL    HW270987   5.373   5.364   6.223
23655SOL     OW70988   4.322   4.453   5.856
23655SOL    HW170989   4.346   4.522   5.788
23655SOL    HW270990   4.244   4.486   5.910
23656SOL     OW70991   5.005   4.069   6.530
23656SOL    HW170992   4.919   4.019   6.517
23656SOL    HW270993   5.067   4.015   6.586
23657SOL     OW70994   5.300   5.386   5.893
23657SOL    HW170995   5.389   5.432   5.896
23657SOL    HW270996   5.279   5.362   5.798
23658SOL     OW70997   4.531   4.329   7.051
23658SOL    HW170998   4.484   4.326   7.140
23658SOL    HW270999   4.480   4.274   6.985
23659SOL     OW71000   5.118   4.193   7.260
23659SOL    HW171001   5.098   4.236   7.348
23659SOL    HW271002   5.196   4.131   7.269
23660SOL     OW71003   4.697   4.614   7.158
23660SOL    HW171004   4.743   4.530   7.129
23660SOL    HW271005   4.641   4.648   7.083
23661SOL     OW71006   4.715   4.134   6.828
23661SOL    HW171007   4.638   4.168   6.882
23661SOL    HW271008   4.681   4.083   6.749
23662SOL     OW71009   4.765   4.425   6.015
23662SOL    HW171010   4.791   4.421   6.111
23662SOL    HW271011   4.680   4.374   6.001
23663SOL     OW71012   3.800   4.535   6.375
23663SOL    HW171013   3.899   4.523   6.384
23663SOL    HW271014   3.776   4.630   6.396
23664SOL     OW71015   3.854   5.545   7.157
23664SOL    HW171016   3.844   5.530   7.256
23664SOL    HW271017   3.768   5.581   7.121
23665SOL     OW71018   4.589   4.072   5.781
23665SOL    HW171019   4.648   4.135   5.732
23665SOL    HW271020   4.608   3.978   5.752
23666SOL     OW71021   5.443   4.309   7.417
23666SOL    HW171022   5.417   4.398   7.381
23666SOL    HW271023   5.441   4.241   7.344
23667SOL     OW71024   5.086   4.868   6.131
23667SOL    HW171025   5.169   4.839   6.083
23667SOL    HW271026   5.037   4.935   6.075
23668SOL     OW71027   4.274   3.920   6.471
23668SOL    HW171028   4.269   3.915   6.571
23668SOL    HW271029   4.276   4.016   6.442
23669SOL     OW71030   4.732   5.180   6.063
23669SOL    HW171031   4.686   5.252   6.011
23669SOL    HW271032   4.728   5.200   6.161
23670SOL     OW71033   4.075   5.525   6.439
23670SOL    HW171034   4.125   5.439   6.445
23670SOL    HW271035   4.140   5.602   6.436
23671SOL     OW71036   5.519   4.790   6.459
23671SOL    HW171037   5.457   4.775   6.383
23671SOL    HW271038   5.467   4.801   6.544
23672SOL     OW71039   4.951   5.274   7.092
23672SOL    HW171040   4.957   5.197   7.156
23672SOL    HW271041   4.899   5.248   7.012
23673SOL     OW71042   4.045   4.667   5.828
23673SOL    HW171043   4.127   4.706   5.786
23673SOL    HW271044   4.018   4.585   5.779
23674SOL     OW71045   5.182   4.459   6.314
23674SOL    HW171046   5.177   4.394   6.389
23674SOL    HW271047   5.262   4.518   6.327
23675SOL     OW71048   4.185   4.990   7.313
23675SOL    HW171049   4.135   4.991   7.227
23675SOL    HW271050   4.122   4.972   7.389
23676SOL     OW71051   4.835   5.500   5.823
23676SOL    HW171052   4.775   5.438   5.873
23676SOL    HW271053   4.866   5.456   5.738
23677SOL     OW71054   3.926   4.009   7.084
23677SOL    HW171055   3.846   4.069   7.071
23677SOL    HW271056   3.916   3.960   7.170
23678SOL     OW71057   5.356   5.101   5.667
23678SOL    HW171058   5.324   5.195   5.657
23678SOL    HW271059   5.280   5.038   5.655
23679SOL     OW71060   4.188   5.467   5.909
23679SOL    HW171061   4.221   5.506   5.995
23679SOL    HW271062   4.264   5.460   5.844
23680SOL     OW71063   5.124   3.831   6.012
23680SOL    HW171064   5.100   3.794   5.922
23680SOL    HW271065   5.223   3.847   6.016
23681SOL     OW71066   3.973   5.509   6.827
23681SOL    HW171067   4.030   5.444   6.877
23681SOL    HW271068   3.957   5.476   6.734
23682SOL     OW71069   4.664   5.422   6.490
23682SOL    HW171070   4.744   5.365   6.511
23682SOL    HW271071   4.615   5.382   6.413
23683SOL     OW71072   4.106   4.424   6.066
23683SOL    HW171073   4.151   4.334   6.063
23683SOL    HW271074   4.012   4.413   6.099
23684SOL     OW71075   5.271   3.946   7.315
23684SOL    HW171076   5.266   3.983   7.407
23684SOL    HW271077   5.199   3.877   7.303
23685SOL     OW71078   4.338   3.846   5.703
23685SOL    HW171079   4.436   3.824   5.710
23685SOL    HW271080   4.307   3.829   5.610
23686SOL     OW71081   4.505   3.988   7.335
23686SOL    HW171082   4.572   3.927   7.378
23686SOL    HW271083   4.432   4.007   7.400
23687SOL     OW71084   4.612   5.238   6.781
23687SOL    HW171085   4.589   5.213   6.687
23687SOL    HW271086   4.673   5.169   6.820
23688SOL     OW71087   5.075   4.314   7.019
23688SOL    HW171088   5.103   4.271   7.104
23688SOL    HW271089   5.100   4.410   7.020
23689SOL     OW71090   4.527   5.126   6.510
23689SOL    HW171091   4.617   5.140   6.468
23689SOL    HW271092   4.456   5.128   6.439
23690SOL     OW71093   4.646   4.227   6.485
23690SOL    HW171094   4.621   4.218   6.389
23690SOL    HW271095   4.694   4.145   6.516
23691SOL     OW71096   4.263   3.788   6.098
23691SOL    HW171097   4.182   3.789   6.156
23691SOL    HW271098   4.266   3.871   6.043
23692SOL     OW71099   5.158   4.912   5.627
23692SOL    HW171100   5.190   4.836   5.684
23692SOL    HW271101   5.066   4.939   5.657
23693SOL     OW71102   4.021   3.759   5.757
23693SOL    HW171103   4.070   3.843   5.736
23693SOL    HW271104   4.083   3.694   5.802
23694SOL     OW71105   4.659   3.960   6.066
23694SOL    HW171106   4.611   4.001   5.988
23694SOL    HW271107   4.758   3.958   6.047
23695SOL     OW71108   4.800   4.407   7.050
23695SOL    HW171109   4.720   4.346   7.053
23695SOL    HW271110   4.881   4.354   7.026
23696SOL     OW71111   4.951   5.294   6.379
23696SOL    HW171112   4.972   5.368   6.314
23696SOL    HW271113   5.019   5.294   6.452
23697SOL     OW71114   4.183   4.876   6.327
23697SOL    HW171115   4.112   4.849   6.392
23697SOL    HW271116   4.157   4.848   6.234
23698SOL     OW71117   4.995   5.521   6.177
23698SOL    HW171118   5.039   5.585   6.113
23698SOL    HW271119   4.945   5.573   6.247
23699SOL     OW71120   4.756   4.273   5.602
23699SOL    HW171121   4.715   4.355   5.563
23699SOL    HW271122   4.820   4.299   5.675
23700SOL     OW71123   3.802   4.280   6.972
23700SOL    HW171124   3.894   4.279   6.931
23700SOL    HW271125   3.796   4.354   7.039
23701SOL     OW71126   4.285   3.946   6.733
23701SOL    HW171127   4.323   3.862   6.770
23701SOL    HW271128   4.197   3.965   6.777
23702SOL     OW71129   4.590   4.178   6.228
23702SOL    HW171130   4.558   4.250   6.166
23702SOL    HW271131   4.614   4.097   6.175
23703SOL     OW71132   4.741   3.763   6.339
23703SOL    HW171133   4.669   3.768   6.270
23703SOL    HW271134   4.717   3.694   6.408
23704SOL     OW71135   5.153   4.897   6.453
23704SOL    HW171136   5.098   4.813   6.446
23704SOL    HW271137   5.179   4.926   6.361
23705SOL     OW71138   5.190   4.314   6.578
23705SOL    HW171139   5.160   4.219   6.585
23705SOL    HW271140   5.263   4.330   6.644
23706SOL     OW71141   5.581   4.557   5.963
23706SOL    HW171142   5.623   4.493   6.027
23706SOL    HW271143   5.543   4.506   5.885
23707SOL     OW71144   4.212   5.109   5.760
23707SOL    HW171145   4.125   5.094   5.807
23707SOL    HW271146   4.195   5.135   5.665
23708SOL     OW71147   5.388   5.004   6.243
23708SOL    HW171148   5.487   5.012   6.257
23708SOL    HW271149   5.343   5.088   6.274
23709SOL     OW71150   5.114   4.299   5.664
23709SOL    HW171151   5.060   4.278   5.745
23709SOL    HW271152   5.205   4.258   5.673
23710SOL     OW71153   4.251   3.980   5.914
23710SOL    HW171154   4.278   3.921   5.839
23710SOL    HW271155   4.251   4.075   5.883
23711SOL     OW71156   5.478   4.947   7.174
23711SOL    HW171157   5.569   4.908   7.161
23711SOL    HW271158   5.486   5.043   7.198
23712SOL     OW71159   4.788   5.071   6.926
23712SOL    HW171160   4.708   5.048   6.981
23712SOL    HW271161   4.871   5.045   6.975
23713SOL     OW71162   5.316   5.353   7.211
23713SOL    HW171163   5.343   5.387   7.121
23713SOL    HW271164   5.395   5.315   7.257
23714SOL     OW71165   4.835   4.919   6.686
23714SOL    HW171166   4.795   4.963   6.767
23714SOL    HW271167   4.794   4.956   6.603
23715SOL     OW71168   5.362   4.823   6.665
23715SOL    HW171169   5.367   4.904   6.724
23715SOL    HW271170   5.276   4.825   6.614
23716SOL     OW71171   4.639   3.813   6.988
23716SOL    HW171172   4.664   3.793   6.893
23716SOL    HW271173   4.711   3.869   7.030
23717SOL     OW71174   4.704   4.840   7.305
23717SOL    HW171175   4.605   4.846   7.315
23717SOL    HW271176   4.727   4.760   7.249
23718SOL     OW71177   4.429   4.774   5.954
23718SOL    HW171178   4.415   4.781   6.053
23718SOL    HW271179   4.513   4.723   5.936
23719SOL     OW71180   4.134   4.537   6.837
23719SOL    HW171181   4.220   4.549   6.887
23719SOL    HW271182   4.092   4.450   6.864
23720SOL     OW71183   4.998   4.110   6.848
23720SOL    HW171184   5.019   4.184   6.912
23720SOL    HW271185   4.909   4.127   6.805
23721SOL     OW71186   3.788   5.288   6.917
23721SOL    HW171187   3.742   5.370   6.883
23721SOL    HW271188   3.886   5.307   6.926
23722SOL     OW71189   4.091   4.824   6.087
23722SOL    HW171190   4.084   4.907   6.031
23722SOL    HW271191   4.095   4.744   6.027
23723SOL     OW71192   4.290   4.261   6.451
23723SOL    HW171193   4.302   4.327   6.377
23723SOL    HW271194   4.336   4.295   6.534
23724SOL     OW71195   4.976   5.072   5.974
23724SOL    HW171196   5.026   5.149   6.014
23724SOL    HW271197   4.881   5.074   6.006
23725SOL     OW71198   4.996   5.169   6.728
23725SOL    HW171199   5.043   5.182   6.815
23725SOL    HW271200   4.930   5.095   6.737
23726SOL     OW71201   5.306   4.363   6.058
23726SOL    HW171202   5.275   4.424   6.131
23726SOL    HW271203   5.356   4.415   5.989
23727SOL     OW71204   4.078   5.234   6.915
23727SOL    HW171205   4.057   5.190   6.828
23727SOL    HW271206   4.175   5.260   6.918
23728SOL     OW71207   4.126   4.475   7.184
23728SOL    HW171208   4.194   4.530   7.137
23728SOL    HW271209   4.166   4.387   7.211
23729SOL     OW71210   5.311   4.503   7.256
23729SOL    HW171211   5.219   4.541   7.251
23729SOL    HW271212   5.371   4.550   7.191
23730SOL     OW71213   4.737   3.829   7.356
23730SOL    HW171214   4.743   3.914   7.304
23730SOL    HW271215   4.769   3.753   7.299
23731SOL     OW71216   4.228   3.774   7.326
23731SOL    HW171217   4.186   3.717   7.256
23731SOL    HW271218   4.162   3.843   7.358
23732SOL     OW71219   4.297   4.594   6.615
23732SOL    HW171220   4.341   4.683   6.606
23732SOL    HW271221   4.234   4.594   6.692
23733SOL     OW71222   5.084   4.586   6.631
23733SOL    HW171223   5.009   4.586   6.565
23733SOL    HW271224   5.121   4.494   6.640
23734SOL     OW71225   4.933   4.249   5.861
23734SOL    HW171226   4.946   4.165   5.915
23734SOL    HW271227   4.904   4.323   5.921
23735SOL     OW71228   4.031   3.937   6.817
23735SOL    HW171229   4.008   3.974   6.907
23735SOL    HW271230   4.001   3.842   6.811
23736SOL     OW71231   3.761   5.034   6.868
23736SOL    HW171232   3.814   4.985   6.936
23736SOL    HW271233   3.783   5.132   6.873
23737SOL     OW71234   4.456   4.358   6.650
23737SOL    HW171235   4.515   4.332   6.574
23737SOL    HW271236   4.428   4.454   6.639
23738SOL     OW71237   5.452   4.659   7.440
23738SOL    HW171238   5.406   4.652   7.351
23738SOL    HW271239   5.390   4.703   7.506
23739SOL     OW71240   4.031   3.787   6.204
23739SOL    HW171241   4.020   3.881   6.237
23739SOL    HW271242   4.026   3.724   6.281
23740SOL     OW71243   5.346   4.091   5.960
23740SOL    HW171244   5.348   4.015   6.024
23740SOL    HW271245   5.298   4.168   6.000
23741SOL     OW71246   4.747   4.490   6.552
23741SOL    HW171247   4.762   4.511   6.648
23741SOL    HW271248   4.717   4.395   6.543
23742SOL     OW71249   4.704   5.297   7.286
23742SOL    HW171250   4.684   5.341   7.198
23742SOL    HW271251   4.743   5.206   7.270
23743SOL     OW71252   5.583   5.242   7.191
23743SOL    HW171253   5.597   5.269   7.096
23743SOL    HW271254   5.666   5.264   7.244
23744SOL     OW71255   4.074   4.622   7.390
23744SOL    HW171256   4.150   4.666   7.438
23744SOL    HW271257   4.109   4.575   7.308
23745SOL     OW71258   5.264   3.998   5.711
23745SOL    HW171259   5.203   3.923   5.734
23745SOL    HW271260   5.286   4.050   5.794
23746SOL     OW71261   5.027   4.562   5.628
23746SOL    HW171262   5.061   4.469   5.643
23746SOL    HW271263   5.045   4.589   5.533
23747SOL     OW71264   4.792   5.057   6.435
23747SOL    HW171265   4.799   4.973   6.380
23747SOL    HW271266   4.854   5.126   6.399
23748SOL     OW71267   4.043   4.534   6.535
23748SOL    HW171268   4.136   4.570   6.540
23748SOL    HW271269   4.037   4.449   6.587
23749SOL     OW71270   4.063   4.233   6.592
23749SOL    HW171271   4.011   4.150   6.575
23749SOL    HW271272   4.140   4.238   6.528
23750SOL     OW71273   4.862   4.104   7.264
23750SOL    HW171274   4.817   4.167   7.328
23750SOL    HW271275   4.955   4.135   7.247
23751SOL     OW71276   4.884   3.931   7.063
23751SOL    HW171277   4.884   3.995   7.140
23751SOL    HW271278   4.912   3.979   6.980
23752SOL     OW71279   3.732   5.050   5.786
23752SOL    HW171280   3.639   5.071   5.755
23752SOL    HW271281   3.742   4.951   5.799
23753SOL     OW71282   3.812   5.525   6.513
23753SOL    HW171283   3.770   5.439   6.486
23753SOL    HW271284   3.906   5.528   6.479
23754SOL     OW71285   4.228   5.292   6.496
23754SOL    HW171286   4.294   5.366   6.505
23754SOL    HW271287   4.272   5.213   6.454
23755SOL     OW71288   4.726   4.520   6.824
23755SOL    HW171289   4.767   4.488   6.910
23755SOL    HW271290   4.630   4.493   6.821
23756SOL     OW71291   3.764   4.268   6.700
23756SOL    HW171292   3.849   4.235   6.659
23756SOL    HW271293   3.777   4.283   6.798
23757SOL     OW71294   3.913   4.244   7.308
23757SOL    HW171295   3.972   4.204   7.238
23757SOL    HW271296   3.855   4.315   7.267
23758SOL     OW71297   5.093   4.674   7.246
23758SOL    HW171298   5.132   4.763   7.266
23758SOL    HW271299   5.103   4.654   7.149
23759SOL     OW71300   4.539   4.296   5.911
23759SOL    HW171301   4.546   4.207   5.865
23759SOL    HW271302   4.445   4.330   5.903
23760SOL     OW71303   5.381   4.328   6.792
23760SOL    HW171304   5.343   4.259   6.854
23760SOL    HW271305   5.463   4.292   6.748
23761SOL     OW71306   3.976   5.288   7.330
23761SOL    HW171307   3.946   5.345   7.406
23761SOL    HW271308   3.969   5.191   7.356
23762SOL     OW71309   4.395   4.188   6.855
23762SOL    HW171310   4.361   4.099   6.825
23762SOL    HW271311   4.421   4.242   6.775
23763SOL     OW71312   4.654   5.402   7.051
23763SOL    HW171313   4.630   5.384   6.956
23763SOL    HW271314   4.684   5.496   7.061
23764SOL     OW71315   4.197   4.224   5.777
23764SOL    HW171316   4.258   4.304   5.781
23764SOL    HW271317   4.102   4.255   5.784
23765SOL     OW71318   3.883   4.861   7.052
23765SOL    HW171319   3.905   4.800   7.128
23765SOL    HW271320   3.893   4.812   6.966
23766SOL     OW71321   5.071   4.783   6.820
23766SOL    HW171322   5.095   4.720   6.746
23766SOL    HW271323   4.981   4.823   6.802
23767SOL     OW71324   5.026   4.579   5.895
23767SOL    HW171325   4.940   4.548   5.937
23767SOL    HW271326   5.022   4.565   5.796
23768SOL     OW71327   5.483   5.471   6.740
23768SOL    HW171328   5.544   5.501   6.667
23768SOL    HW271329   5.445   5.382   6.718
23769SOL     OW71330   4.976   5.455   6.714
23769SOL    HW171331   5.060   5.460   6.660
23769SOL    HW271332   4.953   5.359   6.732
23770SOL     OW71333   3.807   4.982   6.608
23770SOL    HW171334   3.802   4.981   6.708
23770SOL    HW271335   3.724   4.941   6.570
23771SOL     OW71336   4.412   5.386   7.302
23771SOL    HW171337   4.356   5.467   7.311
23771SOL    HW271338   4.464   5.390   7.216
23772SOL     OW71339   5.450   3.859   6.109
23772SOL    HW171340   5.523   3.842   6.042
23772SOL    HW271341   5.419   3.772   6.147
23773SOL     OW71342   5.112   5.297   6.063
23773SOL    HW171343   5.179   5.309   5.989
23773SOL    HW271344   5.072   5.386   6.086
23774SOL     OW71345   3.854   5.518   7.437
23774SOL    HW171346   3.813   5.444   7.490
23774SOL    HW271347   3.918   5.569   7.495
23775SOL     OW71348   5.004   4.651   6.258
23775SOL    HW171349   5.064   4.570   6.260
23775SOL    HW271350   5.044   4.720   6.198
23776SOL     OW71351   4.554   4.997   7.008
23776SOL    HW171352   4.549   5.030   7.103
23776SOL    HW271353   4.468   5.016   6.962
23777SOL     OW71354   4.396   5.340   5.740
23777SOL    HW171355   4.405   5.350   5.641
23777SOL    HW271356   4.356   5.251   5.761
23778SOL     OW71357   5.374   5.444   6.980
23778SOL    HW171358   5.427   5.454   6.896
23778SOL    HW271359   5.347   5.534   7.014
23779SOL     OW71360   5.565   3.899   6.549
23779SOL    HW171361   5.604   3.814   6.513
23779SOL    HW271362   5.467   3.901   6.530
23780SOL     OW71363   3.987   4.050   6.306
23780SOL    HW171364   3.908   4.101   6.272
23780SOL    HW271365   3.978   4.035   6.404
23781SOL     OW71366   4.918   5.336   5.617
23781SOL    HW171367   4.924   5.243   5.654
23781SOL    HW271368   4.859   5.336   5.537
23782SOL     OW71369   4.546   4.726   6.958
23782SOL    HW171370   4.586   4.725   6.866
23782SOL    HW271371   4.556   4.818   6.998
23783SOL     OW71372   4.640   4.634   5.877
23783SOL    HW171373   4.703   4.672   5.809
23783SOL    HW271374   4.680   4.551   5.916
23784SOL     OW71375   5.228   5.331   5.630
23784SOL    HW171376   5.136   5.368   5.637
23784SOL    HW271377   5.266   5.351   5.540
23785SOL     OW71378   4.096   5.012   7.076
23785SOL    HW171379   4.083   5.105   7.042
23785SOL    HW271380   4.012   4.960   7.063
23786SOL     OW71381   5.338   5.016   6.875
23786SOL    HW171382   5.398   5.019   6.955
23786SOL    HW271383   5.263   5.080   6.888
23787SOL     OW71384   4.763   4.822   6.282
23787SOL    HW171385   4.693   4.775   6.336
23787SOL    HW271386   4.822   4.754   6.239
23788SOL     OW71387   4.738   3.960   6.557
23788SOL    HW171388   4.730   3.924   6.464
23788SOL    HW271389   4.736   3.884   6.622
23789SOL     OW71390   4.314   5.211   6.077
23789SOL    HW171391   4.356   5.153   6.007
23789SOL    HW271392   4.270   5.290   6.033
23790SOL     OW71393   5.433   4.109   6.967
23790SOL    HW171394   5.506   4.178   6.971
23790SOL    HW271395   5.461   4.034   6.908
23791SOL     OW71396   3.979   5.072   5.876
23791SOL    HW171397   3.883   5.073   5.849
23791SOL    HW271398   3.991   5.125   5.960
23792SOL     OW71399   3.829   4.737   7.312
23792SOL    HW171400   3.752   4.704   7.366
23792SOL    HW271401   3.914   4.707   7.354
23793SOL     OW71402   4.396   3.927   7.075
23793SOL    HW171403   4.486   3.911   7.035
23793SOL    HW271404   4.404   3.932   7.174
23794SOL     OW71405   3.799   4.069   5.619
23794SOL    HW171406   3.707   4.041   5.590
23794SOL    HW271407   3.830   4.146   5.563
23795SOL     OW71408   5.164   4.580   6.984
23795SOL    HW171409   5.107   4.632   6.921
23795SOL    HW271410   5.260   4.592   6.960
23796SOL     OW71411   3.796   3.890   5.904
23796SOL    HW171412   3.779   3.973   5.850
23796SOL    HW271413   3.886   3.853   5.882
23797SOL     OW71414   4.907   5.059   5.705
23797SOL    HW171415   4.808   5.048   5.707
23797SOL    HW271416   4.941   5.074   5.798
23798SOL     OW71417   4.337   4.566   7.017
23798SOL    HW171418   4.393   4.647   7.000
23798SOL    HW271419   4.396   4.486   7.020
23799SOL     OW71420   5.217   5.491   6.545
23799SOL    HW171421   5.250   5.555   6.476
23799SOL    HW271422   5.283   5.485   6.620
23800SOL     OW71423   4.440   4.289   7.294
23800SOL    HW171424   4.459   4.354   7.368
23800SOL    HW271425   4.500   4.209   7.303
23801SOL     OW71426   5.174   4.944   7.219
23801SOL    HW171427   5.165   4.934   7.318
23801SOL    HW271428   5.270   4.937   7.193
23802SOL     OW71429   4.114   5.465   7.146
23802SOL    HW171430   4.023   5.506   7.144
23802SOL    HW271431   4.107   5.371   7.178
23803SOL     OW71432   5.398   4.607   6.840
23803SOL    HW171433   5.371   4.518   6.803
23803SOL    HW271434   5.399   4.675   6.767
23804SOL     OW71435   4.949   4.049   6.035
23804SOL    HW171436   5.014   3.975   6.024
23804SOL    HW271437   4.969   4.099   6.119
23805SOL     OW71438   4.318   4.469   6.238
23805SOL    HW171439   4.368   4.554   6.219
23805SOL    HW271440   4.230   4.471   6.190
23806SOL     OW71441   5.501   4.066   7.228
23806SOL    HW171442   5.484   4.097   7.134
23806SOL    HW271443   5.417   4.029   7.266
23807SOL     OW71444   5.454   4.658   7.103
23807SOL    HW171445   5.492   4.749   7.118
23807SOL    HW271446   5.446   4.641   7.004
23808SOL     OW71447   4.583   5.098   5.602
23808SOL    HW171448   4.537   5.113   5.690
23808SOL    HW271449   4.627   5.183   5.572
23809SOL     OW71450   4.385   5.514   6.539
23809SOL    HW171451   4.339   5.602   6.526
23809SOL    HW271452   4.484   5.526   6.532
23810SOL     OW71453   4.583   4.680   6.447
23810SOL    HW171454   4.637   4.611   6.495
23810SOL    HW271455   4.551   4.749   6.513
23811SOL     OW71456   4.807   4.708   5.673
23811SOL    HW171457   4.784   4.761   5.591
23811SOL    HW271458   4.888   4.652   5.654
23812SOL     OW71459   5.585   5.293   6.437
23812SOL    HW171460   5.514   5.281   6.367
23812SOL    HW271461   5.586   5.214   6.497
23813SOL     OW71462   3.945   5.038   7.430
23813SOL    HW171463   3.880   4.965   7.409
23813SOL    HW271464   3.949   5.052   7.528
23814SOL     OW71465   3.803   4.964   6.239
23814SOL    HW171466   3.802   4.917   6.327
23814SOL    HW271467   3.885   4.936   6.188
23815SOL     OW71468   4.396   5.115   7.210
23815SOL    HW171469   4.318   5.065   7.248
23815SOL    HW271470   4.393   5.210   7.241
23816SOL     OW71471   5.548   3.916   6.813
23816SOL    HW171472   5.544   3.826   6.857
23816SOL    HW271473   5.551   3.905   6.714
23817SOL     OW71474   4.152   4.148   6.106
23817SOL    HW171475   4.182   4.076   6.044
23817SOL    HW271476   4.113   4.108   6.189
23818SOL     OW71477   5.429   5.211   6.690
23818SOL    HW171478   5.336   5.186   6.663
23818SOL    HW271479   5.455   5.161   6.772
23819SOL     OW71480   4.041   4.271   6.866
23819SOL    HW171481   4.079   4.212   6.938
23819SOL    HW271482   4.081   4.245   6.778
23820SOL     OW71483   4.536   5.310   6.273
23820SOL    HW171484   4.568   5.320   6.179
23820SOL    HW271485   4.457   5.248   6.275
23821SOL     OW71486   5.148   3.938   6.698
23821SOL    HW171487   5.200   3.873   6.753
23821SOL    HW271488   5.099   4.001   6.759
23822SOL     OW71489   4.725   3.758   6.740
23822SOL    HW171490   4.662   3.686   6.709
23822SOL    HW271491   4.818   3.722   6.740
23823SOL     OW71492   4.494   5.054   5.887
23823SOL    HW171493   4.448   4.967   5.904
23823SOL    HW271494   4.585   5.051   5.928
23824SOL     OW71495   4.342   5.291   6.870
23824SOL    HW171496   4.337   5.373   6.927
23824SOL    HW271497   4.431   5.288   6.825
23825SOL     OW71498   5.076   3.776   5.754
23825SOL    HW171499   5.111   3.735   5.670
23825SOL    HW271500   4.986   3.738   5.774
23826SOL     OW71501   5.024   4.177   6.277
23826SOL    HW171502   4.965   4.257   6.281
23826SOL    HW271503   5.039   4.142   6.370
23827SOL     OW71504   5.317   3.945   6.468
23827SOL    HW171505   5.233   3.944   6.522
23827SOL    HW271506   5.319   4.028   6.412
23828SOL     OW71507   3.763   4.801   5.886
23828SOL    HW171508   3.862   4.790   5.877
23828SOL    HW271509   3.723   4.715   5.918
23829SOL     OW71510   4.599   5.370   5.923
23829SOL    HW171511   4.522   5.335   5.869
23829SOL    HW271512   4.567   5.441   5.985
23830SOL     OW71513   3.954   4.352   7.561
23830SOL    HW171514   3.861   4.350   7.598
23830SOL    HW271515   3.955   4.313   7.469
23831SOL     OW71516   3.949   3.999   8.444
23831SOL    HW171517   3.984   3.982   8.536
23831SOL    HW271518   3.861   3.954   8.432
23832SOL     OW71519   3.743   4.092   8.095
23832SOL    HW171520   3.661   4.135   8.134
23832SOL    HW271521   3.715   4.019   8.032
23833SOL     OW71522   4.293   4.999   8.613
23833SOL    HW171523   4.200   4.992   8.576
23833SOL    HW271524   4.304   5.088   8.657
23834SOL     OW71525   5.279   5.235   8.151
23834SOL    HW171526   5.222   5.219   8.232
23834SOL    HW271527   5.220   5.245   8.071
23835SOL     OW71528   4.859   4.427   8.165
23835SOL    HW171529   4.916   4.505   8.140
23835SOL    HW271530   4.799   4.453   8.241
23836SOL     OW71531   5.479   4.331   7.679
23836SOL    HW171532   5.467   4.318   7.580
23836SOL    HW271533   5.449   4.250   7.728
23837SOL     OW71534   4.492   4.868   8.471
23837SOL    HW171535   4.414   4.885   8.531
23837SOL    HW271536   4.526   4.955   8.435
23838SOL     OW71537   4.574   4.522   9.271
23838SOL    HW171538   4.570   4.598   9.336
23838SOL    HW271539   4.596   4.558   9.180
23839SOL     OW71540   4.409   4.736   8.113
23839SOL    HW171541   4.478   4.720   8.183
23839SOL    HW271542   4.336   4.793   8.151
23840SOL     OW71543   4.410   4.885   9.251
23840SOL    HW171544   4.470   4.964   9.265
23840SOL    HW271545   4.324   4.916   9.210
23841SOL     OW71546   4.059   5.159   8.509
23841SOL    HW171547   3.981   5.128   8.456
23841SOL    HW271548   4.117   5.217   8.452
23842SOL     OW71549   5.184   5.229   8.787
23842SOL    HW171550   5.208   5.323   8.813
23842SOL    HW271551   5.168   5.175   8.869
23843SOL     OW71552   4.162   4.116   8.947
23843SOL    HW171553   4.244   4.060   8.956
23843SOL    HW271554   4.081   4.058   8.951
23844SOL     OW71555   5.327   4.171   8.185
23844SOL    HW171556   5.253   4.217   8.135
23844SOL    HW271557   5.378   4.239   8.238
23845SOL     OW71558   3.955   5.437   7.931
23845SOL    HW171559   3.989   5.514   7.985
23845SOL    HW271560   3.999   5.437   7.841
23846SOL     OW71561   4.851   5.065   9.138
23846SOL    HW171562   4.898   5.065   9.226
23846SOL    HW271563   4.803   4.978   9.127
23847SOL     OW71564   3.954   5.158   7.986
23847SOL    HW171565   3.928   5.254   7.986
23847SOL    HW271566   3.883   5.104   8.031
23848SOL     OW71567   3.964   4.815   8.334
23848SOL    HW171568   3.978   4.731   8.386
23848SOL    HW271569   3.909   4.879   8.389
23849SOL     OW71570   4.344   5.510   8.887
23849SOL    HW171571   4.252   5.493   8.922
23849SOL    HW271572   4.372   5.602   8.913
23850SOL     OW71573   4.330   4.688   7.571
23850SOL    HW171574   4.337   4.772   7.517
23850SOL    HW271575   4.376   4.701   7.659
23851SOL     OW71576   5.318   3.838   8.928
23851SOL    HW171577   5.300   3.905   8.856
23851SOL    HW271578   5.315   3.884   9.017
23852SOL     OW71579   3.846   4.367   8.011
23852SOL    HW171580   3.801   4.279   8.028
23852SOL    HW271581   3.845   4.421   8.095
23853SOL     OW71582   5.566   5.491   7.807
23853SOL    HW171583   5.620   5.462   7.887
23853SOL    HW271584   5.596   5.581   7.778
23854SOL     OW71585   3.751   5.320   7.565
23854SOL    HW171586   3.732   5.224   7.586
23854SOL    HW271587   3.718   5.378   7.640
23855SOL     OW71588   5.413   4.646   8.060
23855SOL    HW171589   5.508   4.617   8.068
23855SOL    HW271590   5.405   4.711   7.985
23856SOL     OW71591   5.365   4.832   7.880
23856SOL    HW171592   5.451   4.834   7.828
23856SOL    HW271593   5.379   4.879   7.968
23857SOL     OW71594   3.837   4.461   9.045
23857SOL    HW171595   3.925   4.448   9.090
23857SOL    HW271596   3.824   4.558   9.023
23858SOL     OW71597   4.337   5.089   8.174
23858SOL    HW171598   4.288   5.002   8.183
23858SOL    HW271599   4.314   5.132   8.087
23859SOL     OW71600   5.017   4.952   8.871
23859SOL    HW171601   5.054   4.879   8.813
23859SOL    HW271602   5.069   4.957   8.956
23860SOL     OW71603   4.533   3.728   7.950
23860SOL    HW171604   4.573   3.819   7.941
23860SOL    HW271605   4.433   3.736   7.956
23861SOL     OW71606   3.921   4.700   8.712
23861SOL    HW171607   4.010   4.655   8.698
23861SOL    HW271608   3.848   4.635   8.693
23862SOL     OW71609   5.249   4.723   7.638
23862SOL    HW171610   5.186   4.647   7.651
23862SOL    HW271611   5.297   4.741   7.724
23863SOL     OW71612   4.911   5.516   9.064
23863SOL    HW171613   4.935   5.576   8.988
23863SOL    HW271614   4.918   5.421   9.034
23864SOL     OW71615   4.041   3.975   9.249
23864SOL    HW171616   4.112   4.046   9.255
23864SOL    HW271617   3.953   4.014   9.277
23865SOL     OW71618   5.190   5.141   8.401
23865SOL    HW171619   5.131   5.147   8.481
23865SOL    HW271620   5.175   5.053   8.355
23866SOL     OW71621   5.391   5.438   8.020
23866SOL    HW171622   5.350   5.415   7.932
23866SOL    HW271623   5.373   5.364   8.085
23867SOL     OW71624   4.322   4.453   7.718
23867SOL    HW171625   4.346   4.522   7.650
23867SOL    HW271626   4.244   4.486   7.772
23868SOL     OW71627   5.005   4.069   8.392
23868SOL    HW171628   4.919   4.019   8.379
23868SOL    HW271629   5.067   4.015   8.448
23869SOL     OW71630   5.300   5.386   7.755
23869SOL    HW171631   5.389   5.432   7.758
23869SOL    HW271632   5.279   5.362   7.660
23870SOL     OW71633   4.531   4.329   8.913
23870SOL    HW171634   4.484   4.326   9.002
23870SOL    HW271635   4.480   4.274   8.847
23871SOL     OW71636   5.118   4.193   9.122
23871SOL    HW171637   5.098   4.236   9.210
23871SOL    HW271638   5.196   4.131   9.131
23872SOL     OW71639   4.697   4.614   9.020
23872SOL    HW171640   4.743   4.530   8.991
23872SOL    HW271641   4.641   4.648   8.945
23873SOL     OW71642   4.715   4.134   8.690
23873SOL    HW171643   4.638   4.168   8.744
23873SOL    HW271644   4.681   4.083   8.611
23874SOL     OW71645   4.765   4.425   7.877
23874SOL    HW171646   4.791   4.421   7.973
23874SOL    HW271647   4.680   4.374   7.863
23875SOL     OW71648   3.800   4.535   8.237
23875SOL    HW171649   3.899   4.523   8.246
23875SOL    HW271650   3.776   4.630   8.258
23876SOL     OW71651   3.854   5.545   9.019
23876SOL    HW171652   3.844   5.530   9.118
23876SOL    HW271653   3.768   5.581   8.983
23877SOL     OW71654   4.589   4.072   7.643
23877SOL    HW171655   4.648   4.135   7.594
23877SOL    HW271656   4.608   3.978   7.614
23878SOL     OW71657   5.443   4.309   9.279
23878SOL    HW171658   5.417   4.398   9.243
23878SOL    HW271659   5.441   4.241   9.206
23879SOL     OW71660   5.086   4.868   7.993
23879SOL    HW171661   5.169   4.839   7.945
23879SOL    HW271662   5.037   4.935   7.937
23880SOL     OW71663   4.274   3.920   8.333
23880SOL    HW171664   4.269   3.915   8.433
23880SOL    HW271665   4.276   4.016   8.304
23881SOL     OW71666   4.732   5.180   7.925
23881SOL    HW171667   4.686   5.252   7.873
23881SOL    HW271668   4.728   5.200   8.023
23882SOL     OW71669   4.075   5.525   8.301
23882SOL    HW171670   4.125   5.439   8.307
23882SOL    HW271671   4.140   5.602   8.298
23883SOL     OW71672   5.519   4.790   8.321
23883SOL    HW171673   5.457   4.775   8.245
23883SOL    HW271674   5.467   4.801   8.406
23884SOL     OW71675   4.951   5.274   8.954
23884SOL    HW171676   4.957   5.197   9.018
23884SOL    HW271677   4.899   5.248   8.874
23885SOL     OW71678   4.045   4.667   7.690
23885SOL    HW171679   4.127   4.706   7.648
23885SOL    HW271680   4.018   4.585   7.641
23886SOL     OW71681   5.182   4.459   8.176
23886SOL    HW171682   5.177   4.394   8.251
23886SOL    HW271683   5.262   4.518   8.189
23887SOL     OW71684   4.185   4.990   9.175
23887SOL    HW171685   4.135   4.991   9.089
23887SOL    HW271686   4.122   4.972   9.251
23888SOL     OW71687   4.835   5.500   7.685
23888SOL    HW171688   4.775   5.438   7.735
23888SOL    HW271689   4.866   5.456   7.600
23889SOL     OW71690   3.926   4.009   8.946
23889SOL    HW171691   3.846   4.069   8.933
23889SOL    HW271692   3.916   3.960   9.032
23890SOL     OW71693   5.356   5.101   7.529
23890SOL    HW171694   5.324   5.195   7.519
23890SOL    HW271695   5.280   5.038   7.517
23891SOL     OW71696   4.188   5.467   7.771
23891SOL    HW171697   4.221   5.506   7.857
23891SOL    HW271698   4.264   5.460   7.706
23892SOL     OW71699   5.124   3.831   7.874
23892SOL    HW171700   5.100   3.794   7.784
23892SOL    HW271701   5.223   3.847   7.878
23893SOL     OW71702   3.973   5.509   8.689
23893SOL    HW171703   4.030   5.444   8.739
23893SOL    HW271704   3.957   5.476   8.596
23894SOL     OW71705   4.664   5.422   8.352
23894SOL    HW171706   4.744   5.365   8.373
23894SOL    HW271707   4.615   5.382   8.275
23895SOL     OW71708   4.106   4.424   7.928
23895SOL    HW171709   4.151   4.334   7.925
23895SOL    HW271710   4.012   4.413   7.961
23896SOL     OW71711   5.271   3.946   9.177
23896SOL    HW171712   5.266   3.983   9.269
23896SOL    HW271713   5.199   3.877   9.165
23897SOL     OW71714   4.338   3.846   7.565
23897SOL    HW171715   4.436   3.824   7.572
23897SOL    HW271716   4.307   3.829   7.472
23898SOL     OW71717   4.505   3.988   9.197
23898SOL    HW171718   4.572   3.927   9.240
23898SOL    HW271719   4.432   4.007   9.262
23899SOL     OW71720   4.612   5.238   8.643
23899SOL    HW171721   4.589   5.213   8.549
23899SOL    HW271722   4.673   5.169   8.682
23900SOL     OW71723   5.075   4.314   8.881
23900SOL    HW171724   5.103   4.271   8.966
23900SOL    HW271725   5.100   4.410   8.882
23901SOL     OW71726   4.527   5.126   8.372
23901SOL    HW171727   4.617   5.140   8.330
23901SOL    HW271728   4.456   5.128   8.301
23902SOL     OW71729   4.646   4.227   8.347
23902SOL    HW171730   4.621   4.218   8.251
23902SOL    HW271731   4.694   4.145   8.378
23903SOL     OW71732   4.263   3.788   7.960
23903SOL    HW171733   4.182   3.789   8.018
23903SOL    HW271734   4.266   3.871   7.905
23904SOL     OW71735   5.158   4.912   7.489
23904SOL    HW171736   5.190   4.836   7.546
23904SOL    HW271737   5.066   4.939   7.519
23905SOL     OW71738   4.021   3.759   7.619
23905SOL    HW171739   4.070   3.843   7.598
23905SOL    HW271740   4.083   3.694   7.664
23906SOL     OW71741   4.659   3.960   7.928
23906SOL    HW171742   4.611   4.001   7.850
23906SOL    HW271743   4.758   3.958   7.909
23907SOL     OW71744   4.800   4.407   8.912
23907SOL    HW171745   4.720   4.346   8.915
23907SOL    HW271746   4.881   4.354   8.888
23908SOL     OW71747   4.951   5.294   8.241
23908SOL    HW171748   4.972   5.368   8.176
23908SOL    HW271749   5.019   5.294   8.314
23909SOL     OW71750   4.183   4.876   8.189
23909SOL    HW171751   4.112   4.849   8.254
23909SOL    HW271752   4.157   4.848   8.096
23910SOL     OW71753   4.995   5.521   8.039
23910SOL    HW171754   5.039   5.585   7.975
23910SOL    HW271755   4.945   5.573   8.109
23911SOL     OW71756   4.756   4.273   7.464
23911SOL    HW171757   4.715   4.355   7.425
23911SOL    HW271758   4.820   4.299   7.537
23912SOL     OW71759   3.802   4.280   8.834
23912SOL    HW171760   3.894   4.279   8.793
23912SOL    HW271761   3.796   4.354   8.901
23913SOL     OW71762   4.285   3.946   8.595
23913SOL    HW171763   4.323   3.862   8.632
23913SOL    HW271764   4.197   3.965   8.639
23914SOL     OW71765   4.590   4.178   8.090
23914SOL    HW171766   4.558   4.250   8.028
23914SOL    HW271767   4.614   4.097   8.037
23915SOL     OW71768   4.741   3.763   8.201
23915SOL    HW171769   4.669   3.768   8.132
23915SOL    HW271770   4.717   3.694   8.270
23916SOL     OW71771   5.153   4.897   8.315
23916SOL    HW171772   5.098   4.813   8.308
23916SOL    HW271773   5.179   4.926   8.223
23917SOL     OW71774   5.190   4.314   8.440
23917SOL    HW171775   5.160   4.219   8.447
23917SOL    HW271776   5.263   4.330   8.506
23918SOL     OW71777   5.581   4.557   7.825
23918SOL    HW171778   5.623   4.493   7.889
23918SOL    HW271779   5.543   4.506   7.747
23919SOL     OW71780   4.212   5.109   7.622
23919SOL    HW171781   4.125   5.094   7.669
23919SOL    HW271782   4.195   5.135   7.527
23920SOL     OW71783   5.388   5.004   8.105
23920SOL    HW171784   5.487   5.012   8.119
23920SOL    HW271785   5.343   5.088   8.136
23921SOL     OW71786   5.114   4.299   7.526
23921SOL    HW171787   5.060   4.278   7.607
23921SOL    HW271788   5.205   4.258   7.535
23922SOL     OW71789   4.251   3.980   7.776
23922SOL    HW171790   4.278   3.921   7.701
23922SOL    HW271791   4.251   4.075   7.745
23923SOL     OW71792   5.478   4.947   9.036
23923SOL    HW171793   5.569   4.908   9.023
23923SOL    HW271794   5.486   5.043   9.060
23924SOL     OW71795   4.788   5.071   8.788
23924SOL    HW171796   4.708   5.048   8.843
23924SOL    HW271797   4.871   5.045   8.837
23925SOL     OW71798   5.316   5.353   9.073
23925SOL    HW171799   5.343   5.387   8.983
23925SOL    HW271800   5.395   5.315   9.119
23926SOL     OW71801   4.835   4.919   8.548
23926SOL    HW171802   4.795   4.963   8.629
23926SOL    HW271803   4.794   4.956   8.465
23927SOL     OW71804   5.362   4.823   8.527
23927SOL    HW171805   5.367   4.904   8.586
23927SOL    HW271806   5.276   4.825   8.476
23928SOL     OW71807   4.639   3.813   8.850
23928SOL    HW171808   4.664   3.793   8.755
23928SOL    HW271809   4.711   3.869   8.892
23929SOL     OW71810   4.704   4.840   9.167
23929SOL    HW171811   4.605   4.846   9.177
23929SOL    HW271812   4.727   4.760   9.111
23930SOL     OW71813   4.429   4.774   7.816
23930SOL    HW171814   4.415   4.781   7.915
23930SOL    HW271815   4.513   4.723   7.798
23931SOL     OW71816   4.134   4.537   8.699
23931SOL    HW171817   4.220   4.549   8.749
23931SOL    HW271818   4.092   4.450   8.726
23932SOL     OW71819   4.998   4.110   8.710
23932SOL    HW171820   5.019   4.184   8.774
23932SOL    HW271821   4.909   4.127   8.667
23933SOL     OW71822   3.788   5.288   8.779
23933SOL    HW171823   3.742   5.370   8.745
23933SOL    HW271824   3.886   5.307   8.788
23934SOL     OW71825   4.091   4.824   7.949
23934SOL    HW171826   4.084   4.907   7.893
23934SOL    HW271827   4.095   4.744   7.889
23935SOL     OW71828   4.290   4.261   8.313
23935SOL    HW171829   4.302   4.327   8.239
23935SOL    HW271830   4.336   4.295   8.396
23936SOL     OW71831   4.976   5.072   7.836
23936SOL    HW171832   5.026   5.149   7.876
23936SOL    HW271833   4.881   5.074   7.868
23937SOL     OW71834   4.996   5.169   8.590
23937SOL    HW171835   5.043   5.182   8.677
23937SOL    HW271836   4.930   5.095   8.599
23938SOL     OW71837   5.306   4.363   7.920
23938SOL    HW171838   5.275   4.424   7.993
23938SOL    HW271839   5.356   4.415   7.851
23939SOL     OW71840   4.078   5.234   8.777
23939SOL    HW171841   4.057   5.190   8.690
23939SOL    HW271842   4.175   5.260   8.780
23940SOL     OW71843   4.126   4.475   9.046
23940SOL    HW171844   4.194   4.530   8.999
23940SOL    HW271845   4.166   4.387   9.073
23941SOL     OW71846   5.311   4.503   9.118
23941SOL    HW171847   5.219   4.541   9.113
23941SOL    HW271848   5.371   4.550   9.053
23942SOL     OW71849   4.737   3.829   9.218
23942SOL    HW171850   4.743   3.914   9.166
23942SOL    HW271851   4.769   3.753   9.161
23943SOL     OW71852   4.228   3.774   9.188
23943SOL    HW171853   4.186   3.717   9.118
23943SOL    HW271854   4.162   3.843   9.220
23944SOL     OW71855   4.297   4.594   8.477
23944SOL    HW171856   4.341   4.683   8.468
23944SOL    HW271857   4.234   4.594   8.554
23945SOL     OW71858   5.084   4.586   8.493
23945SOL    HW171859   5.009   4.586   8.427
23945SOL    HW271860   5.121   4.494   8.502
23946SOL     OW71861   4.933   4.249   7.723
23946SOL    HW171862   4.946   4.165   7.777
23946SOL    HW271863   4.904   4.323   7.783
23947SOL     OW71864   4.031   3.937   8.679
23947SOL    HW171865   4.008   3.974   8.769
23947SOL    HW271866   4.001   3.842   8.673
23948SOL     OW71867   3.761   5.034   8.730
23948SOL    HW171868   3.814   4.985   8.798
23948SOL    HW271869   3.783   5.132   8.735
23949SOL     OW71870   4.456   4.358   8.512
23949SOL    HW171871   4.515   4.332   8.436
23949SOL    HW271872   4.428   4.454   8.501
23950SOL     OW71873   5.452   4.659   9.302
23950SOL    HW171874   5.406   4.652   9.213
23950SOL    HW271875   5.390   4.703   9.368
23951SOL     OW71876   4.031   3.787   8.066
23951SOL    HW171877   4.020   3.881   8.099
23951SOL    HW271878   4.026   3.724   8.143
23952SOL     OW71879   5.346   4.091   7.822
23952SOL    HW171880   5.348   4.015   7.886
23952SOL    HW271881   5.298   4.168   7.862
23953SOL     OW71882   4.747   4.490   8.414
23953SOL    HW171883   4.762   4.511   8.510
23953SOL    HW271884   4.717   4.395   8.405
23954SOL     OW71885   4.704   5.297   9.148
23954SOL    HW171886   4.684   5.341   9.060
23954SOL    HW271887   4.743   5.206   9.132
23955SOL     OW71888   5.583   5.242   9.053
23955SOL    HW171889   5.597   5.269   8.958
23955SOL    HW271890   5.666   5.264   9.106
23956SOL     OW71891   4.074   4.622   9.252
23956SOL    HW171892   4.150   4.666   9.300
23956SOL    HW271893   4.109   4.575   9.170
23957SOL     OW71894   5.264   3.998   7.573
23957SOL    HW171895   5.203   3.923   7.596
23957SOL    HW271896   5.286   4.050   7.656
23958SOL     OW71897   5.027   4.562   7.490
23958SOL    HW171898   5.061   4.469   7.505
23958SOL    HW271899   5.045   4.589   7.395
23959SOL     OW71900   4.792   5.057   8.297
23959SOL    HW171901   4.799   4.973   8.242
23959SOL    HW271902   4.854   5.126   8.261
23960SOL     OW71903   4.043   4.534   8.397
23960SOL    HW171904   4.136   4.570   8.402
23960SOL    HW271905   4.037   4.449   8.449
23961SOL     OW71906   4.063   4.233   8.454
23961SOL    HW171907   4.011   4.150   8.437
23961SOL    HW271908   4.140   4.238   8.390
23962SOL     OW71909   4.862   4.104   9.126
23962SOL    HW171910   4.817   4.167   9.190
23962SOL    HW271911   4.955   4.135   9.109
23963SOL     OW71912   4.884   3.931   8.925
23963SOL    HW171913   4.884   3.995   9.002
23963SOL    HW271914   4.912   3.979   8.842
23964SOL     OW71915   3.732   5.050   7.648
23964SOL    HW171916   3.639   5.071   7.617
23964SOL    HW271917   3.742   4.951   7.661
23965SOL     OW71918   3.812   5.525   8.375
23965SOL    HW171919   3.770   5.439   8.348
23965SOL    HW271920   3.906   5.528   8.341
23966SOL     OW71921   4.228   5.292   8.358
23966SOL    HW171922   4.294   5.366   8.367
23966SOL    HW271923   4.272   5.213   8.316
23967SOL     OW71924   4.726   4.520   8.686
23967SOL    HW171925   4.767   4.488   8.772
23967SOL    HW271926   4.630   4.493   8.683
23968SOL     OW71927   3.764   4.268   8.562
23968SOL    HW171928   3.849   4.235   8.521
23968SOL    HW271929   3.777   4.283   8.660
23969SOL     OW71930   3.913   4.244   9.170
23969SOL    HW171931   3.972   4.204   9.100
23969SOL    HW271932   3.855   4.315   9.129
23970SOL     OW71933   5.093   4.674   9.108
23970SOL    HW171934   5.132   4.763   9.128
23970SOL    HW271935   5.103   4.654   9.011
23971SOL     OW71936   4.539   4.296   7.773
23971SOL    HW171937   4.546   4.207   7.727
23971SOL    HW271938   4.445   4.330   7.765
23972SOL     OW71939   5.381   4.328   8.654
23972SOL    HW171940   5.343   4.259   8.716
23972SOL    HW271941   5.463   4.292   8.610
23973SOL     OW71942   3.976   5.288   9.192
23973SOL    HW171943   3.946   5.345   9.268
23973SOL    HW271944   3.969   5.191   9.218
23974SOL     OW71945   4.395   4.188   8.717
23974SOL    HW171946   4.361   4.099   8.687
23974SOL    HW271947   4.421   4.242   8.637
23975SOL     OW71948   4.654   5.402   8.913
23975SOL    HW171949   4.630   5.384   8.818
23975SOL    HW271950   4.684   5.496   8.923
23976SOL     OW71951   4.197   4.224   7.639
23976SOL    HW171952   4.258   4.304   7.643
23976SOL    HW271953   4.102   4.255   7.646
23977SOL     OW71954   3.883   4.861   8.914
23977SOL    HW171955   3.905   4.800   8.990
23977SOL    HW271956   3.893   4.812   8.828
23978SOL     OW71957   5.071   4.783   8.682
23978SOL    HW171958   5.095   4.720   8.608
23978SOL    HW271959   4.981   4.823   8.664
23979SOL     OW71960   5.026   4.579   7.757
23979SOL    HW171961   4.940   4.548   7.799
23979SOL    HW271962   5.022   4.565   7.658
23980SOL     OW71963   5.483   5.471   8.602
23980SOL    HW171964   5.544   5.501   8.529
23980SOL    HW271965   5.445   5.382   8.580
23981SOL     OW71966   4.976   5.455   8.576
23981SOL    HW171967   5.060   5.460   8.522
23981SOL    HW271968   4.953   5.359   8.594
23982SOL     OW71969   3.807   4.982   8.470
23982SOL    HW171970   3.802   4.981   8.570
23982SOL    HW271971   3.724   4.941   8.432
23983SOL     OW71972   4.412   5.386   9.164
23983SOL    HW171973   4.356   5.467   9.173
23983SOL    HW271974   4.464   5.390   9.078
23984SOL     OW71975   5.450   3.859   7.971
23984SOL    HW171976   5.523   3.842   7.904
23984SOL    HW271977   5.419   3.772   8.009
23985SOL     OW71978   5.112   5.297   7.925
23985SOL    HW171979   5.179   5.309   7.851
23985SOL    HW271980   5.072   5.386   7.948
23986SOL     OW71981   3.854   5.518   9.299
23986SOL    HW171982   3.813   5.444   9.352
23986SOL    HW271983   3.918   5.569   9.357
23987SOL     OW71984   5.004   4.651   8.120
23987SOL    HW171985   5.064   4.570   8.122
23987SOL    HW271986   5.044   4.720   8.060
23988SOL     OW71987   4.554   4.997   8.870
23988SOL    HW171988   4.549   5.030   8.965
23988SOL    HW271989   4.468   5.016   8.824
23989SOL     OW71990   4.396   5.340   7.602
23989SOL    HW171991   4.405   5.350   7.503
23989SOL    HW271992   4.356   5.251   7.623
23990SOL     OW71993   5.374   5.444   8.842
23990SOL    HW171994   5.427   5.454   8.758
23990SOL    HW271995   5.347   5.534   8.876
23991SOL     OW71996   5.565   3.899   8.411
23991SOL    HW171997   5.604   3.814   8.375
23991SOL    HW271998   5.467   3.901   8.392
23992SOL     OW71999   3.987   4.050   8.168
23992SOL    HW172000   3.908   4.101   8.134
23992SOL    HW272001   3.978   4.035   8.266
23993SOL     OW72002   4.918   5.336   7.479
23993SOL    HW172003   4.924   5.243   7.516
23993SOL    HW272004   4.859   5.336   7.399
23994SOL     OW72005   4.546   4.726   8.820
23994SOL    HW172006   4.586   4.725   8.728
23994SOL    HW272007   4.556   4.818   8.860
23995SOL     OW72008   4.640   4.634   7.739
23995SOL    HW172009   4.703   4.672   7.671
23995SOL    HW272010   4.680   4.551   7.778
23996SOL     OW72011   5.228   5.331   7.492
23996SOL    HW172012   5.136   5.368   7.499
23996SOL    HW272013   5.266   5.351   7.402
23997SOL     OW72014   4.096   5.012   8.938
23997SOL    HW172015   4.083   5.105   8.904
23997SOL    HW272016   4.012   4.960   8.925
23998SOL     OW72017   5.338   5.016   8.737
23998SOL    HW172018   5.398   5.019   8.817
23998SOL    HW272019   5.263   5.080   8.750
23999SOL     OW72020   4.763   4.822   8.144
23999SOL    HW172021   4.693   4.775   8.198
23999SOL    HW272022   4.822   4.754   8.101
24000SOL     OW72023   4.738   3.960   8.419
24000SOL    HW172024   4.730   3.924   8.326
24000SOL    HW272025   4.736   3.884   8.484
24001SOL     OW72026   4.314   5.211   7.939
24001SOL    HW172027   4.356   5.153   7.869
24001SOL    HW272028   4.270   5.290   7.895
24002SOL     OW72029   5.433   4.109   8.829
24002SOL    HW172030   5.506   4.178   8.833
24002SOL    HW272031   5.461   4.034   8.770
24003SOL     OW72032   3.979   5.072   7.738
24003SOL    HW172033   3.883   5.073   7.711
24003SOL    HW272034   3.991   5.125   7.822
24004SOL     OW72035   3.829   4.737   9.174
24004SOL    HW172036   3.752   4.704   9.228
24004SOL    HW272037   3.914   4.707   9.216
24005SOL     OW72038   4.396   3.927   8.937
24005SOL    HW172039   4.486   3.911   8.897
24005SOL    HW272040   4.404   3.932   9.036
24006SOL     OW72041   3.799   4.069   7.481
24006SOL    HW172042   3.707   4.041   7.452
24006SOL    HW272043   3.830   4.146   7.425
24007SOL     OW72044   5.164   4.580   8.846
24007SOL    HW172045   5.107   4.632   8.783
24007SOL    HW272046   5.260   4.592   8.822
24008SOL     OW72047   3.796   3.890   7.766
24008SOL    HW172048   3.779   3.973   7.712
24008SOL    HW272049   3.886   3.853   7.744
24009SOL     OW72050   4.907   5.059   7.567
24009SOL    HW172051   4.808   5.048   7.569
24009SOL    HW272052   4.941   5.074   7.660
24010SOL     OW72053   4.337   4.566   8.879
24010SOL    HW172054   4.393   4.647   8.862
24010SOL    HW272055   4.396   4.486   8.882
24011SOL     OW72056   5.217   5.491   8.407
24011SOL    HW172057   5.250   5.555   8.338
24011SOL    HW272058   5.283   5.485   8.482
24012SOL     OW72059   4.440   4.289   9.156
24012SOL    HW172060   4.459   4.354   9.230
24012SOL    HW272061   4.500   4.209   9.165
24013SOL     OW72062   5.174   4.944   9.081
24013SOL    HW172063   5.165   4.934   9.180
24013SOL    HW272064   5.270   4.937   9.055
24014SOL     OW72065   4.114   5.465   9.008
24014SOL    HW172066   4.023   5.506   9.006
24014SOL    HW272067   4.107   5.371   9.040
24015SOL     OW72068   5.398   4.607   8.702
24015SOL    HW172069   5.371   4.518   8.665
24015SOL    HW272070   5.399   4.675   8.629
24016SOL     OW72071   4.949   4.049   7.897
24016SOL    HW172072   5.014   3.975   7.886
24016SOL    HW272073   4.969   4.099   7.981
24017SOL     OW72074   4.318   4.469   8.100
24017SOL    HW172075   4.368   4.554   8.081
24017SOL    HW272076   4.230   4.471   8.052
24018SOL     OW72077   5.501   4.066   9.090
24018SOL    HW172078   5.484   4.097   8.996
24018SOL    HW272079   5.417   4.029   9.128
24019SOL     OW72080   5.454   4.658   8.965
24019SOL    HW172081   5.492   4.749   8.980
24019SOL    HW272082   5.446   4.641   8.866
24020SOL     OW72083   4.583   5.098   7.464
24020SOL    HW172084   4.537   5.113   7.552
24020SOL    HW272085   4.627   5.183   7.434
24021SOL     OW72086   4.385   5.514   8.401
24021SOL    HW172087   4.339   5.602   8.388
24021SOL    HW272088   4.484   5.526   8.394
24022SOL     OW72089   4.583   4.680   8.309
24022SOL    HW172090   4.637   4.611   8.357
24022SOL    HW272091   4.551   4.749   8.375
24023SOL     OW72092   4.807   4.708   7.535
24023SOL    HW172093   4.784   4.761   7.453
24023SOL    HW272094   4.888   4.652   7.516
24024SOL     OW72095   5.585   5.293   8.299
24024SOL    HW172096   5.514   5.281   8.229
24024SOL    HW272097   5.586   5.214   8.359
24025SOL     OW72098   3.945   5.038   9.292
24025SOL    HW172099   3.880   4.965   9.271
24025SOL    HW272100   3.949   5.052   9.390
24026SOL     OW72101   3.803   4.964   8.101
24026SOL    HW172102   3.802   4.917   8.189
24026SOL    HW272103   3.885   4.936   8.050
24027SOL     OW72104   4.396   5.115   9.072
24027SOL    HW172105   4.318   5.065   9.110
24027SOL    HW272106   4.393   5.210   9.103
24028SOL     OW72107   5.548   3.916   8.675
24028SOL    HW172108   5.544   3.826   8.719
24028SOL    HW272109   5.551   3.905   8.576
24029SOL     OW72110   4.152   4.148   7.968
24029SOL    HW172111   4.182   4.076   7.906
24029SOL    HW272112   4.113   4.108   8.051
24030SOL     OW72113   5.429   5.211   8.552
24030SOL    HW172114   5.336   5.186   8.525
24030SOL    HW272115   5.455   5.161   8.634
24031SOL     OW72116   4.041   4.271   8.728
24031SOL    HW172117   4.079   4.212   8.800
24031SOL    HW272118   4.081   4.245   8.640
24032SOL     OW72119   4.536   5.310   8.135
24032SOL    HW172120   4.568   5.320   8.041
24032SOL    HW272121   4.457   5.248   8.137
24033SOL     OW72122   5.148   3.938   8.560
24033SOL    HW172123   5.200   3.873   8.615
24033SOL    HW272124   5.099   4.001   8.621
24034SOL     OW72125   4.725   3.758   8.602
24034SOL    HW172126   4.662   3.686   8.571
24034SOL    HW272127   4.818   3.722   8.602
24035SOL     OW72128   4.494   5.054   7.749
24035SOL    HW172129   4.448   4.967   7.766
24035SOL    HW272130   4.585   5.051   7.790
24036SOL     OW72131   4.342   5.291   8.732
24036SOL    HW172132   4.337   5.373   8.789
24036SOL    HW272133   4.431   5.288   8.687
24037SOL     OW72134   5.076   3.776   7.616
24037SOL    HW172135   5.111   3.735   7.532
24037SOL    HW272136   4.986   3.738   7.636
24038SOL     OW72137   5.024   4.177   8.139
24038SOL    HW172138   4.965   4.257   8.143
24038SOL    HW272139   5.039   4.142   8.232
24039SOL     OW72140   5.317   3.945   8.330
24039SOL    HW172141   5.233   3.944   8.384
24039SOL    HW272142   5.319   4.028   8.274
24040SOL     OW72143   3.763   4.801   7.748
24040SOL    HW172144   3.862   4.790   7.739
24040SOL    HW272145   3.723   4.715   7.780
24041SOL     OW72146   4.599   5.370   7.785
24041SOL    HW172147   4.522   5.335   7.731
24041SOL    HW272148   4.567   5.441   7.847
24042SOL     OW72149   3.954   4.352   9.423
24042SOL    HW172150   3.861   4.350   9.460
24042SOL    HW272151   3.955   4.313   9.331
24043SOL     OW72152   3.949   3.999  10.306
24043SOL    HW172153   3.984   3.982  10.398
24043SOL    HW272154   3.861   3.954  10.294
24044SOL     OW72155   3.743   4.092   9.957
24044SOL    HW172156   3.661   4.135   9.996
24044SOL    HW272157   3.715   4.019   9.894
24045SOL     OW72158   4.293   4.999  10.475
24045SOL    HW172159   4.200   4.992  10.438
24045SOL    HW272160   4.304   5.088  10.519
24046SOL     OW72161   5.279   5.235  10.013
24046SOL    HW172162   5.222   5.219  10.094
24046SOL    HW272163   5.220   5.245   9.933
24047SOL     OW72164   4.859   4.427  10.027
24047SOL    HW172165   4.916   4.505  10.002
24047SOL    HW272166   4.799   4.453  10.103
24048SOL     OW72167   5.479   4.331   9.541
24048SOL    HW172168   5.467   4.318   9.442
24048SOL    HW272169   5.449   4.250   9.590
24049SOL     OW72170   4.492   4.868  10.333
24049SOL    HW172171   4.414   4.885  10.393
24049SOL    HW272172   4.526   4.955  10.297
24050SOL     OW72173   4.574   4.522  11.133
24050SOL    HW172174   4.570   4.598  11.198
24050SOL    HW272175   4.596   4.558  11.042
24051SOL     OW72176   4.409   4.736   9.975
24051SOL    HW172177   4.478   4.720  10.045
24051SOL    HW272178   4.336   4.793  10.013
24052SOL     OW72179   4.410   4.885  11.113
24052SOL    HW172180   4.470   4.964  11.127
24052SOL    HW272181   4.324   4.916  11.072
24053SOL     OW72182   4.059   5.159  10.371
24053SOL    HW172183   3.981   5.128  10.318
24053SOL    HW272184   4.117   5.217  10.314
24054SOL     OW72185   5.184   5.229  10.649
24054SOL    HW172186   5.208   5.323  10.675
24054SOL    HW272187   5.168   5.175  10.731
24055SOL     OW72188   4.162   4.116  10.809
24055SOL    HW172189   4.244   4.060  10.818
24055SOL    HW272190   4.081   4.058  10.813
24056SOL     OW72191   5.327   4.171  10.047
24056SOL    HW172192   5.253   4.217   9.997
24056SOL    HW272193   5.378   4.239  10.100
24057SOL     OW72194   3.955   5.437   9.793
24057SOL    HW172195   3.989   5.514   9.847
24057SOL    HW272196   3.999   5.437   9.703
24058SOL     OW72197   4.851   5.065  11.000
24058SOL    HW172198   4.898   5.065  11.088
24058SOL    HW272199   4.803   4.978  10.989
24059SOL     OW72200   3.954   5.158   9.848
24059SOL    HW172201   3.928   5.254   9.848
24059SOL    HW272202   3.883   5.104   9.893
24060SOL     OW72203   3.964   4.815  10.196
24060SOL    HW172204   3.978   4.731  10.248
24060SOL    HW272205   3.909   4.879  10.251
24061SOL     OW72206   4.344   5.510  10.749
24061SOL    HW172207   4.252   5.493  10.784
24061SOL    HW272208   4.372   5.602  10.775
24062SOL     OW72209   4.330   4.688   9.433
24062SOL    HW172210   4.337   4.772   9.379
24062SOL    HW272211   4.376   4.701   9.521
24063SOL     OW72212   5.318   3.838  10.790
24063SOL    HW172213   5.300   3.905  10.718
24063SOL    HW272214   5.315   3.884  10.879
24064SOL     OW72215   3.846   4.367   9.873
24064SOL    HW172216   3.801   4.279   9.890
24064SOL    HW272217   3.845   4.421   9.957
24065SOL     OW72218   5.566   5.491   9.669
24065SOL    HW172219   5.620   5.462   9.749
24065SOL    HW272220   5.596   5.581   9.640
24066SOL     OW72221   3.751   5.320   9.427
24066SOL    HW172222   3.732   5.224   9.448
24066SOL    HW272223   3.718   5.378   9.502
24067SOL     OW72224   5.413   4.646   9.922
24067SOL    HW172225   5.508   4.617   9.930
24067SOL    HW272226   5.405   4.711   9.847
24068SOL     OW72227   5.365   4.832   9.742
24068SOL    HW172228   5.451   4.834   9.690
24068SOL    HW272229   5.379   4.879   9.830
24069SOL     OW72230   3.837   4.461  10.907
24069SOL    HW172231   3.925   4.448  10.952
24069SOL    HW272232   3.824   4.558  10.885
24070SOL     OW72233   4.337   5.089  10.036
24070SOL    HW172234   4.288   5.002  10.045
24070SOL    HW272235   4.314   5.132   9.949
24071SOL     OW72236   5.017   4.952  10.733
24071SOL    HW172237   5.054   4.879  10.675
24071SOL    HW272238   5.069   4.957  10.818
24072SOL     OW72239   4.533   3.728   9.812
24072SOL    HW172240   4.573   3.819   9.803
24072SOL    HW272241   4.433   3.736   9.818
24073SOL     OW72242   3.921   4.700  10.574
24073SOL    HW172243   4.010   4.655  10.560
24073SOL    HW272244   3.848   4.635  10.555
24074SOL     OW72245   5.249   4.723   9.500
24074SOL    HW172246   5.186   4.647   9.513
24074SOL    HW272247   5.297   4.741   9.586
24075SOL     OW72248   4.911   5.516  10.926
24075SOL    HW172249   4.935   5.576  10.850
24075SOL    HW272250   4.918   5.421  10.896
24076SOL     OW72251   4.041   3.975  11.111
24076SOL    HW172252   4.112   4.046  11.117
24076SOL    HW272253   3.953   4.014  11.139
24077SOL     OW72254   5.190   5.141  10.263
24077SOL    HW172255   5.131   5.147  10.343
24077SOL    HW272256   5.175   5.053  10.217
24078SOL     OW72257   5.391   5.438   9.882
24078SOL    HW172258   5.350   5.415   9.794
24078SOL    HW272259   5.373   5.364   9.947
24079SOL     OW72260   4.322   4.453   9.580
24079SOL    HW172261   4.346   4.522   9.512
24079SOL    HW272262   4.244   4.486   9.634
24080SOL     OW72263   5.005   4.069  10.254
24080SOL    HW172264   4.919   4.019  10.241
24080SOL    HW272265   5.067   4.015  10.310
24081SOL     OW72266   5.300   5.386   9.617
24081SOL    HW172267   5.389   5.432   9.620
24081SOL    HW272268   5.279   5.362   9.522
24082SOL     OW72269   4.531   4.329  10.775
24082SOL    HW172270   4.484   4.326  10.864
24082SOL    HW272271   4.480   4.274  10.709
24083SOL     OW72272   5.118   4.193  10.984
24083SOL    HW172273   5.098   4.236  11.072
24083SOL    HW272274   5.196   4.131  10.993
24084SOL     OW72275   4.697   4.614  10.882
24084SOL    HW172276   4.743   4.530  10.853
24084SOL    HW272277   4.641   4.648  10.807
24085SOL     OW72278   4.715   4.134  10.552
24085SOL    HW172279   4.638   4.168  10.606
24085SOL    HW272280   4.681   4.083  10.473
24086SOL     OW72281   4.765   4.425   9.739
24086SOL    HW172282   4.791   4.421   9.835
24086SOL    HW272283   4.680   4.374   9.725
24087SOL     OW72284   3.800   4.535  10.099
24087SOL    HW172285   3.899   4.523  10.108
24087SOL    HW272286   3.776   4.630  10.120
24088SOL     OW72287   3.854   5.545  10.881
24088SOL    HW172288   3.844   5.530  10.980
24088SOL    HW272289   3.768   5.581  10.845
24089SOL     OW72290   4.589   4.072   9.505
24089SOL    HW172291   4.648   4.135   9.456
24089SOL    HW272292   4.608   3.978   9.476
24090SOL     OW72293   5.443   4.309  11.141
24090SOL    HW172294   5.417   4.398  11.105
24090SOL    HW272295   5.441   4.241  11.068
24091SOL     OW72296   5.086   4.868   9.855
24091SOL    HW172297   5.169   4.839   9.807
24091SOL    HW272298   5.037   4.935   9.799
24092SOL     OW72299   4.274   3.920  10.195
24092SOL    HW172300   4.269   3.915  10.295
24092SOL    HW272301   4.276   4.016  10.166
24093SOL     OW72302   4.732   5.180   9.787
24093SOL    HW172303   4.686   5.252   9.735
24093SOL    HW272304   4.728   5.200   9.885
24094SOL     OW72305   4.075   5.525  10.163
24094SOL    HW172306   4.125   5.439  10.169
24094SOL    HW272307   4.140   5.602  10.160
24095SOL     OW72308   5.519   4.790  10.183
24095SOL    HW172309   5.457   4.775  10.107
24095SOL    HW272310   5.467   4.801  10.268
24096SOL     OW72311   4.951   5.274  10.816
24096SOL    HW172312   4.957   5.197  10.880
24096SOL    HW272313   4.899   5.248  10.736
24097SOL     OW72314   4.045   4.667   9.552
24097SOL    HW172315   4.127   4.706   9.510
24097SOL    HW272316   4.018   4.585   9.503
24098SOL     OW72317   5.182   4.459  10.038
24098SOL    HW172318   5.177   4.394  10.113
24098SOL    HW272319   5.262   4.518  10.051
24099SOL     OW72320   4.185   4.990  11.037
24099SOL    HW172321   4.135   4.991  10.951
24099SOL    HW272322   4.122   4.972  11.113
24100SOL     OW72323   4.835   5.500   9.547
24100SOL    HW172324   4.775   5.438   9.597
24100SOL    HW272325   4.866   5.456   9.462
24101SOL     OW72326   3.926   4.009  10.808
24101SOL    HW172327   3.846   4.069  10.795
24101SOL    HW272328   3.916   3.960  10.894
24102SOL     OW72329   5.356   5.101   9.391
24102SOL    HW172330   5.324   5.195   9.381
24102SOL    HW272331   5.280   5.038   9.379
24103SOL     OW72332   4.188   5.467   9.633
24103SOL    HW172333   4.221   5.506   9.719
24103SOL    HW272334   4.264   5.460   9.568
24104SOL     OW72335   5.124   3.831   9.736
24104SOL    HW172336   5.100   3.794   9.646
24104SOL    HW272337   5.223   3.847   9.740
24105SOL     OW72338   3.973   5.509  10.551
24105SOL    HW172339   4.030   5.444  10.601
24105SOL    HW272340   3.957   5.476  10.458
24106SOL     OW72341   4.664   5.422  10.214
24106SOL    HW172342   4.744   5.365  10.235
24106SOL    HW272343   4.615   5.382  10.137
24107SOL     OW72344   4.106   4.424   9.790
24107SOL    HW172345   4.151   4.334   9.787
24107SOL    HW272346   4.012   4.413   9.823
24108SOL     OW72347   5.271   3.946  11.039
24108SOL    HW172348   5.266   3.983  11.131
24108SOL    HW272349   5.199   3.877  11.027
24109SOL     OW72350   4.338   3.846   9.427
24109SOL    HW172351   4.436   3.824   9.434
24109SOL    HW272352   4.307   3.829   9.334
24110SOL     OW72353   4.505   3.988  11.059
24110SOL    HW172354   4.572   3.927  11.102
24110SOL    HW272355   4.432   4.007  11.124
24111SOL     OW72356   4.612   5.238  10.505
24111SOL    HW172357   4.589   5.213  10.411
24111SOL    HW272358   4.673   5.169  10.544
24112SOL     OW72359   5.075   4.314  10.743
24112SOL    HW172360   5.103   4.271  10.828
24112SOL    HW272361   5.100   4.410  10.744
24113SOL     OW72362   4.527   5.126  10.234
24113SOL    HW172363   4.617   5.140  10.192
24113SOL    HW272364   4.456   5.128  10.163
24114SOL     OW72365   4.646   4.227  10.209
24114SOL    HW172366   4.621   4.218  10.113
24114SOL    HW272367   4.694   4.145  10.240
24115SOL     OW72368   4.263   3.788   9.822
24115SOL    HW172369   4.182   3.789   9.880
24115SOL    HW272370   4.266   3.871   9.767
24116SOL     OW72371   5.158   4.912   9.351
24116SOL    HW172372   5.190   4.836   9.408
24116SOL    HW272373   5.066   4.939   9.381
24117SOL     OW72374   4.021   3.759   9.481
24117SOL    HW172375   4.070   3.843   9.460
24117SOL    HW272376   4.083   3.694   9.526
24118SOL     OW72377   4.659   3.960   9.790
24118SOL    HW172378   4.611   4.001   9.712
24118SOL    HW272379   4.758   3.958   9.771
24119SOL     OW72380   4.800   4.407  10.774
24119SOL    HW172381   4.720   4.346  10.777
24119SOL    HW272382   4.881   4.354  10.750
24120SOL     OW72383   4.951   5.294  10.103
24120SOL    HW172384   4.972   5.368  10.038
24120SOL    HW272385   5.019   5.294  10.176
24121SOL     OW72386   4.183   4.876  10.051
24121SOL    HW172387   4.112   4.849  10.116
24121SOL    HW272388   4.157   4.848   9.958
24122SOL     OW72389   4.995   5.521   9.901
24122SOL    HW172390   5.039   5.585   9.837
24122SOL    HW272391   4.945   5.573   9.971
24123SOL     OW72392   4.756   4.273   9.326
24123SOL    HW172393   4.715   4.355   9.287
24123SOL    HW272394   4.820   4.299   9.399
24124SOL     OW72395   3.802   4.280  10.696
24124SOL    HW172396   3.894   4.279  10.655
24124SOL    HW272397   3.796   4.354  10.763
24125SOL     OW72398   4.285   3.946  10.457
24125SOL    HW172399   4.323   3.862  10.494
24125SOL    HW272400   4.197   3.965  10.501
24126SOL     OW72401   4.590   4.178   9.952
24126SOL    HW172402   4.558   4.250   9.890
24126SOL    HW272403   4.614   4.097   9.899
24127SOL     OW72404   4.741   3.763  10.063
24127SOL    HW172405   4.669   3.768   9.994
24127SOL    HW272406   4.717   3.694  10.132
24128SOL     OW72407   5.153   4.897  10.177
24128SOL    HW172408   5.098   4.813  10.170
24128SOL    HW272409   5.179   4.926  10.085
24129SOL     OW72410   5.190   4.314  10.302
24129SOL    HW172411   5.160   4.219  10.309
24129SOL    HW272412   5.263   4.330  10.368
24130SOL     OW72413   5.581   4.557   9.687
24130SOL    HW172414   5.623   4.493   9.751
24130SOL    HW272415   5.543   4.506   9.609
24131SOL     OW72416   4.212   5.109   9.484
24131SOL    HW172417   4.125   5.094   9.531
24131SOL    HW272418   4.195   5.135   9.389
24132SOL     OW72419   5.388   5.004   9.967
24132SOL    HW172420   5.487   5.012   9.981
24132SOL    HW272421   5.343   5.088   9.998
24133SOL     OW72422   5.114   4.299   9.388
24133SOL    HW172423   5.060   4.278   9.469
24133SOL    HW272424   5.205   4.258   9.397
24134SOL     OW72425   4.251   3.980   9.638
24134SOL    HW172426   4.278   3.921   9.563
24134SOL    HW272427   4.251   4.075   9.607
24135SOL     OW72428   5.478   4.947  10.898
24135SOL    HW172429   5.569   4.908  10.885
24135SOL    HW272430   5.486   5.043  10.922
24136SOL     OW72431   4.788   5.071  10.650
24136SOL    HW172432   4.708   5.048  10.705
24136SOL    HW272433   4.871   5.045  10.699
24137SOL     OW72434   5.316   5.353  10.935
24137SOL    HW172435   5.343   5.387  10.845
24137SOL    HW272436   5.395   5.315  10.981
24138SOL     OW72437   4.835   4.919  10.410
24138SOL    HW172438   4.795   4.963  10.491
24138SOL    HW272439   4.794   4.956  10.327
24139SOL     OW72440   5.362   4.823  10.389
24139SOL    HW172441   5.367   4.904  10.448
24139SOL    HW272442   5.276   4.825  10.338
24140SOL     OW72443   4.639   3.813  10.712
24140SOL    HW172444   4.664   3.793  10.617
24140SOL    HW272445   4.711   3.869  10.754
24141SOL     OW72446   4.704   4.840  11.029
24141SOL    HW172447   4.605   4.846  11.039
24141SOL    HW272448   4.727   4.760  10.973
24142SOL     OW72449   4.429   4.774   9.678
24142SOL    HW172450   4.415   4.781   9.777
24142SOL    HW272451   4.513   4.723   9.660
24143SOL     OW72452   4.134   4.537  10.561
24143SOL    HW172453   4.220   4.549  10.611
24143SOL    HW272454   4.092   4.450  10.588
24144SOL     OW72455   4.998   4.110  10.572
24144SOL    HW172456   5.019   4.184  10.636
24144SOL    HW272457   4.909   4.127  10.529
24145SOL     OW72458   3.788   5.288  10.641
24145SOL    HW172459   3.742   5.370  10.607
24145SOL    HW272460   3.886   5.307  10.650
24146SOL     OW72461   4.091   4.824   9.811
24146SOL    HW172462   4.084   4.907   9.755
24146SOL    HW272463   4.095   4.744   9.751
24147SOL     OW72464   4.290   4.261  10.175
24147SOL    HW172465   4.302   4.327  10.101
24147SOL    HW272466   4.336   4.295  10.258
24148SOL     OW72467   4.976   5.072   9.698
24148SOL    HW172468   5.026   5.149   9.738
24148SOL    HW272469   4.881   5.074   9.730
24149SOL     OW72470   4.996   5.169  10.452
24149SOL    HW172471   5.043   5.182  10.539
24149SOL    HW272472   4.930   5.095  10.461
24150SOL     OW72473   5.306   4.363   9.782
24150SOL    HW172474   5.275   4.424   9.855
24150SOL    HW272475   5.356   4.415   9.713
24151SOL     OW72476   4.078   5.234  10.639
24151SOL    HW172477   4.057   5.190  10.552
24151SOL    HW272478   4.175   5.260  10.642
24152SOL     OW72479   4.126   4.475  10.908
24152SOL    HW172480   4.194   4.530  10.861
24152SOL    HW272481   4.166   4.387  10.935
24153SOL     OW72482   5.311   4.503  10.980
24153SOL    HW172483   5.219   4.541  10.975
24153SOL    HW272484   5.371   4.550  10.915
24154SOL     OW72485   4.737   3.829  11.080
24154SOL    HW172486   4.743   3.914  11.028
24154SOL    HW272487   4.769   3.753  11.023
24155SOL     OW72488   4.228   3.774  11.050
24155SOL    HW172489   4.186   3.717  10.980
24155SOL    HW272490   4.162   3.843  11.082
24156SOL     OW72491   4.297   4.594  10.339
24156SOL    HW172492   4.341   4.683  10.330
24156SOL    HW272493   4.234   4.594  10.416
24157SOL     OW72494   5.084   4.586  10.355
24157SOL    HW172495   5.009   4.586  10.289
24157SOL    HW272496   5.121   4.494  10.364
24158SOL     OW72497   4.933   4.249   9.585
24158SOL    HW172498   4.946   4.165   9.639
24158SOL    HW272499   4.904   4.323   9.645
24159SOL     OW72500   4.031   3.937  10.541
24159SOL    HW172501   4.008   3.974  10.631
24159SOL    HW272502   4.001   3.842  10.535
24160SOL     OW72503   3.761   5.034  10.592
24160SOL    HW172504   3.814   4.985  10.660
24160SOL    HW272505   3.783   5.132  10.597
24161SOL     OW72506   4.456   4.358  10.374
24161SOL    HW172507   4.515   4.332  10.298
24161SOL    HW272508   4.428   4.454  10.363
24162SOL     OW72509   5.452   4.659  11.164
24162SOL    HW172510   5.406   4.652  11.075
24162SOL    HW272511   5.390   4.703  11.230
24163SOL     OW72512   4.031   3.787   9.928
24163SOL    HW172513   4.020   3.881   9.961
24163SOL    HW272514   4.026   3.724  10.005
24164SOL     OW72515   5.346   4.091   9.684
24164SOL    HW172516   5.348   4.015   9.748
24164SOL    HW272517   5.298   4.168   9.724
24165SOL     OW72518   4.747   4.490  10.276
24165SOL    HW172519   4.762   4.511  10.372
24165SOL    HW272520   4.717   4.395  10.267
24166SOL     OW72521   4.704   5.297  11.010
24166SOL    HW172522   4.684   5.341  10.922
24166SOL    HW272523   4.743   5.206  10.994
24167SOL     OW72524   5.583   5.242  10.915
24167SOL    HW172525   5.597   5.269  10.820
24167SOL    HW272526   5.666   5.264  10.968
24168SOL     OW72527   4.074   4.622  11.114
24168SOL    HW172528   4.150   4.666  11.162
24168SOL    HW272529   4.109   4.575  11.032
24169SOL     OW72530   5.264   3.998   9.435
24169SOL    HW172531   5.203   3.923   9.458
24169SOL    HW272532   5.286   4.050   9.518
24170SOL     OW72533   5.027   4.562   9.352
24170SOL    HW172534   5.061   4.469   9.367
24170SOL    HW272535   5.045   4.589   9.257
24171SOL     OW72536   4.792   5.057  10.159
24171SOL    HW172537   4.799   4.973  10.104
24171SOL    HW272538   4.854   5.126  10.123
24172SOL     OW72539   4.043   4.534  10.259
24172SOL    HW172540   4.136   4.570  10.264
24172SOL    HW272541   4.037   4.449  10.311
24173SOL     OW72542   4.063   4.233  10.316
24173SOL    HW172543   4.011   4.150  10.299
24173SOL    HW272544   4.140   4.238  10.252
24174SOL     OW72545   4.862   4.104  10.988
24174SOL    HW172546   4.817   4.167  11.052
24174SOL    HW272547   4.955   4.135  10.971
24175SOL     OW72548   4.884   3.931  10.787
24175SOL    HW172549   4.884   3.995  10.864
24175SOL    HW272550   4.912   3.979  10.704
24176SOL     OW72551   3.732   5.050   9.510
24176SOL    HW172552   3.639   5.071   9.479
24176SOL    HW272553   3.742   4.951   9.523
24177SOL     OW72554   3.812   5.525  10.237
24177SOL    HW172555   3.770   5.439  10.210
24177SOL    HW272556   3.906   5.528  10.203
24178SOL     OW72557   4.228   5.292  10.220
24178SOL    HW172558   4.294   5.366  10.229
24178SOL    HW272559   4.272   5.213  10.178
24179SOL     OW72560   4.726   4.520  10.548
24179SOL    HW172561   4.767   4.488  10.634
24179SOL    HW272562   4.630   4.493  10.545
24180SOL     OW72563   3.764   4.268  10.424
24180SOL    HW172564   3.849   4.235  10.383
24180SOL    HW272565   3.777   4.283  10.522
24181SOL     OW72566   3.913   4.244  11.032
24181SOL    HW172567   3.972   4.204  10.962
24181SOL    HW272568   3.855   4.315  10.991
24182SOL     OW72569   5.093   4.674  10.970
24182SOL    HW172570   5.132   4.763  10.990
24182SOL    HW272571   5.103   4.654  10.873
24183SOL     OW72572   4.539   4.296   9.635
24183SOL    HW172573   4.546   4.207   9.589
24183SOL    HW272574   4.445   4.330   9.627
24184SOL     OW72575   5.381   4.328  10.516
24184SOL    HW172576   5.343   4.259  10.578
24184SOL    HW272577   5.463   4.292  10.472
24185SOL     OW72578   3.976   5.288  11.054
24185SOL    HW172579   3.946   5.345  11.130
24185SOL    HW272580   3.969   5.191  11.080
24186SOL     OW72581   4.395   4.188  10.579
24186SOL    HW172582   4.361   4.099  10.549
24186SOL    HW272583   4.421   4.242  10.499
24187SOL     OW72584   4.654   5.402  10.775
24187SOL    HW172585   4.630   5.384  10.680
24187SOL    HW272586   4.684   5.496  10.785
24188SOL     OW72587   4.197   4.224   9.501
24188SOL    HW172588   4.258   4.304   9.505
24188SOL    HW272589   4.102   4.255   9.508
24189SOL     OW72590   3.883   4.861  10.776
24189SOL    HW172591   3.905   4.800  10.852
24189SOL    HW272592   3.893   4.812  10.690
24190SOL     OW72593   5.071   4.783  10.544
24190SOL    HW172594   5.095   4.720  10.470
24190SOL    HW272595   4.981   4.823  10.526
24191SOL     OW72596   5.026   4.579   9.619
24191SOL    HW172597   4.940   4.548   9.661
24191SOL    HW272598   5.022   4.565   9.520
24192SOL     OW72599   5.483   5.471  10.464
24192SOL    HW172600   5.544   5.501  10.391
24192SOL    HW272601   5.445   5.382  10.442
24193SOL     OW72602   4.976   5.455  10.438
24193SOL    HW172603   5.060   5.460  10.384
24193SOL    HW272604   4.953   5.359  10.456
24194SOL     OW72605   3.807   4.982  10.332
24194SOL    HW172606   3.802   4.981  10.432
24194SOL    HW272607   3.724   4.941  10.294
24195SOL     OW72608   4.412   5.386  11.026
24195SOL    HW172609   4.356   5.467  11.035
24195SOL    HW272610   4.464   5.390  10.940
24196SOL     OW72611   5.450   3.859   9.833
24196SOL    HW172612   5.523   3.842   9.766
24196SOL    HW272613   5.419   3.772   9.871
24197SOL     OW72614   5.112   5.297   9.787
24197SOL    HW172615   5.179   5.309   9.713
24197SOL    HW272616   5.072   5.386   9.810
24198SOL     OW72617   3.854   5.518  11.161
24198SOL    HW172618   3.813   5.444  11.214
24198SOL    HW272619   3.918   5.569  11.219
24199SOL     OW72620   5.004   4.651   9.982
24199SOL    HW172621   5.064   4.570   9.984
24199SOL    HW272622   5.044   4.720   9.922
24200SOL     OW72623   4.554   4.997  10.732
24200SOL    HW172624   4.549   5.030  10.827
24200SOL    HW272625   4.468   5.016  10.686
24201SOL     OW72626   4.396   5.340   9.464
24201SOL    HW172627   4.405   5.350   9.365
24201SOL    HW272628   4.356   5.251   9.485
24202SOL     OW72629   5.374   5.444  10.704
24202SOL    HW172630   5.427   5.454  10.620
24202SOL    HW272631   5.347   5.534  10.738
24203SOL     OW72632   5.565   3.899  10.273
24203SOL    HW172633   5.604   3.814  10.237
24203SOL    HW272634   5.467   3.901  10.254
24204SOL     OW72635   3.987   4.050  10.030
24204SOL    HW172636   3.908   4.101   9.996
24204SOL    HW272637   3.978   4.035  10.128
24205SOL     OW72638   4.918   5.336   9.341
24205SOL    HW172639   4.924   5.243   9.378
24205SOL    HW272640   4.859   5.336   9.261
24206SOL     OW72641   4.546   4.726  10.682
24206SOL    HW172642   4.586   4.725  10.590
24206SOL    HW272643   4.556   4.818  10.722
24207SOL     OW72644   4.640   4.634   9.601
24207SOL    HW172645   4.703   4.672   9.533
24207SOL    HW272646   4.680   4.551   9.640
24208SOL     OW72647   5.228   5.331   9.354
24208SOL    HW172648   5.136   5.368   9.361
24208SOL    HW272649   5.266   5.351   9.264
24209SOL     OW72650   4.096   5.012  10.800
24209SOL    HW172651   4.083   5.105  10.766
24209SOL    HW272652   4.012   4.960  10.787
24210SOL     OW72653   5.338   5.016  10.599
24210SOL    HW172654   5.398   5.019  10.679
24210SOL    HW272655   5.263   5.080  10.612
24211SOL     OW72656   4.763   4.822  10.006
24211SOL    HW172657   4.693   4.775  10.060
24211SOL    HW272658   4.822   4.754   9.963
24212SOL     OW72659   4.738   3.960  10.281
24212SOL    HW172660   4.730   3.924  10.188
24212SOL    HW272661   4.736   3.884  10.346
24213SOL     OW72662   4.314   5.211   9.801
24213SOL    HW172663   4.356   5.153   9.731
24213SOL    HW272664   4.270   5.290   9.757
24214SOL     OW72665   5.433   4.109  10.691
24214SOL    HW172666   5.506   4.178  10.695
24214SOL    HW272667   5.461   4.034  10.632
24215SOL     OW72668   3.979   5.072   9.600
24215SOL    HW172669   3.883   5.073   9.573
24215SOL    HW272670   3.991   5.125   9.684
24216SOL     OW72671   3.829   4.737  11.036
24216SOL    HW172672   3.752   4.704  11.090
24216SOL    HW272673   3.914   4.707  11.078
24217SOL     OW72674   4.396   3.927  10.799
24217SOL    HW172675   4.486   3.911  10.759
24217SOL    HW272676   4.404   3.932  10.898
24218SOL     OW72677   3.799   4.069   9.343
24218SOL    HW172678   3.707   4.041   9.314
24218SOL    HW272679   3.830   4.146   9.287
24219SOL     OW72680   5.164   4.580  10.708
24219SOL    HW172681   5.107   4.632  10.645
24219SOL    HW272682   5.260   4.592  10.684
24220SOL     OW72683   3.796   3.890   9.628
24220SOL    HW172684   3.779   3.973   9.574
24220SOL    HW272685   3.886   3.853   9.606
24221SOL     OW72686   4.907   5.059   9.429
24221SOL    HW172687   4.808   5.048   9.431
24221SOL    HW272688   4.941   5.074   9.522
24222SOL     OW72689   4.337   4.566  10.741
24222SOL    HW172690   4.393   4.647  10.724
24222SOL    HW272691   4.396   4.486  10.744
24223SOL     OW72692   5.217   5.491  10.269
24223SOL    HW172693   5.250   5.555  10.200
24223SOL    HW272694   5.283   5.485  10.344
24224SOL     OW72695   4.440   4.289  11.018
24224SOL    HW172696   4.459   4.354  11.092
24224SOL    HW272697   4.500   4.209  11.027
24225SOL     OW72698   5.174   4.944  10.943
24225SOL    HW172699   5.165   4.934  11.042
24225SOL    HW272700   5.270   4.937  10.917
24226SOL     OW72701   4.114   5.465  10.870
24226SOL    HW172702   4.023   5.506  10.868
24226SOL    HW272703   4.107   5.371  10.902
24227SOL     OW72704   5.398   4.607  10.564
24227SOL    HW172705   5.371   4.518  10.527
24227SOL    HW272706   5.399   4.675  10.491
24228SOL     OW72707   4.949   4.049   9.759
24228SOL    HW172708   5.014   3.975   9.748
24228SOL    HW272709   4.969   4.099   9.843
24229SOL     OW72710   4.318   4.469   9.962
24229SOL    HW172711   4.368   4.554   9.943
24229SOL    HW272712   4.230   4.471   9.914
24230SOL     OW72713   5.501   4.066  10.952
24230SOL    HW172714   5.484   4.097  10.858
24230SOL    HW272715   5.417   4.029  10.990
24231SOL     OW72716   5.454   4.658  10.827
24231SOL    HW172717   5.492   4.749  10.842
24231SOL    HW272718   5.446   4.641  10.728
24232SOL     OW72719   4.583   5.098   9.326
24232SOL    HW172720   4.537   5.113   9.414
24232SOL    HW272721   4.627   5.183   9.296
24233SOL     OW72722   4.385   5.514  10.263
24233SOL    HW172723   4.339   5.602  10.250
24233SOL    HW272724   4.484   5.526  10.256
24234SOL     OW72725   4.583   4.680  10.171
24234SOL    HW172726   4.637   4.611  10.219
24234SOL    HW272727   4.551   4.749  10.237
24235SOL     OW72728   4.807   4.708   9.397
24235SOL    HW172729   4.784   4.761   9.315
24235SOL    HW272730   4.888   4.652   9.378
24236SOL     OW72731   5.585   5.293  10.161
24236SOL    HW172732   5.514   5.281  10.091
24236SOL    HW272733   5.586   5.214  10.221
24237SOL     OW72734   3.945   5.038  11.154
24237SOL    HW172735   3.880   4.965  11.133
24237SOL    HW272736   3.949   5.052  11.252
24238SOL     OW72737   3.803   4.964   9.963
24238SOL    HW172738   3.802   4.917  10.051
24238SOL    HW272739   3.885   4.936   9.912
24239SOL     OW72740   4.396   5.115  10.934
24239SOL    HW172741   4.318   5.065  10.972
24239SOL    HW272742   4.393   5.210  10.965
24240SOL     OW72743   5.548   3.916  10.537
24240SOL    HW172744   5.544   3.826  10.581
24240SOL    HW272745   5.551   3.905  10.438
24241SOL     OW72746   4.152   4.148   9.830
24241SOL    HW172747   4.182   4.076   9.768
24241SOL    HW272748   4.113   4.108   9.913
24242SOL     OW72749   5.429   5.211  10.414
24242SOL    HW172750   5.336   5.186  10.387
24242SOL    HW272751   5.455   5.161  10.496
24243SOL     OW72752   4.041   4.271  10.590
24243SOL    HW172753   4.079   4.212  10.662
24243SOL    HW272754   4.081   4.245  10.502
24244SOL     OW72755   4.536   5.310   9.997
24244SOL    HW172756   4.568   5.320   9.903
24244SOL    HW272757   4.457   5.248   9.999
24245SOL     OW72758   5.148   3.938  10.422
24245SOL    HW172759   5.200   3.873  10.477
24245SOL    HW272760   5.099   4.001  10.483
24246SOL     OW72761   4.725   3.758  10.464
24246SOL    HW172762   4.662   3.686  10.433
24246SOL    HW272763   4.818   3.722  10.464
24247SOL     OW72764   4.494   5.054   9.611
24247SOL    HW172765   4.448   4.967   9.628
24247SOL    HW272766   4.585   5.051   9.652
24248SOL     OW72767   4.342   5.291  10.594
24248SOL    HW172768   4.337   5.373  10.651
24248SOL    HW272769   4.431   5.288  10.549
24249SOL     OW72770   5.076   3.776   9.478
24249SOL    HW172771   5.111   3.735   9.394
24249SOL    HW272772   4.986   3.738   9.498
24250SOL     OW72773   5.024   4.177  10.001
24250SOL    HW172774   4.965   4.257  10.005
24250SOL    HW272775   5.039   4.142  10.094
24251SOL     OW72776   5.317   3.945  10.192
24251SOL    HW172777   5.233   3.944  10.246
24251SOL    HW272778   5.319   4.028  10.136
24252SOL     OW72779   3.763   4.801   9.610
24252SOL    HW172780   3.862   4.790   9.601
24252SOL    HW272781   3.723   4.715   9.642
24253SOL     OW72782   4.599   5.370   9.647
24253SOL    HW172783   4.522   5.335   9.593
24253SOL    HW272784   4.567   5.441   9.709
24254SOL     OW72785   3.954   4.352  11.285
24254SOL    HW172786   3.861   4.350  11.322
24254SOL    HW272787   3.955   4.313  11.193
24255SOL     OW72788   3.949   3.999  12.168
24255SOL    HW172789   3.984   3.982  12.260
24255SOL    HW272790   3.861   3.954  12.156
24256SOL     OW72791   3.743   4.092  11.819
24256SOL    HW172792   3.661   4.135  11.858
24256SOL    HW272793   3.715   4.019  11.756
24257SOL     OW72794   4.293   4.999  12.337
24257SOL    HW172795   4.200   4.992  12.300
24257SOL    HW272796   4.304   5.088  12.381
24258SOL     OW72797   5.279   5.235  11.875
24258SOL    HW172798   5.222   5.219  11.956
24258SOL    HW272799   5.220   5.245  11.795
24259SOL     OW72800   4.859   4.427  11.889
24259SOL    HW172801   4.916   4.505  11.864
24259SOL    HW272802   4.799   4.453  11.965
24260SOL     OW72803   5.479   4.331  11.403
24260SOL    HW172804   5.467   4.318  11.304
24260SOL    HW272805   5.449   4.250  11.452
24261SOL     OW72806   4.492   4.868  12.195
24261SOL    HW172807   4.414   4.885  12.255
24261SOL    HW272808   4.526   4.955  12.159
24262SOL     OW72809   4.409   4.736  11.837
24262SOL    HW172810   4.478   4.720  11.907
24262SOL    HW272811   4.336   4.793  11.875
24263SOL     OW72812   4.059   5.159  12.233
24263SOL    HW172813   3.981   5.128  12.180
24263SOL    HW272814   4.117   5.217  12.176
24264SOL     OW72815   5.184   5.229  12.511
24264SOL    HW172816   5.208   5.323  12.537
24264SOL    HW272817   5.168   5.175  12.593
24265SOL     OW72818   4.162   4.116  12.671
24265SOL    HW172819   4.244   4.060  12.680
24265SOL    HW272820   4.081   4.058  12.675
24266SOL     OW72821   5.327   4.171  11.909
24266SOL    HW172822   5.253   4.217  11.859
24266SOL    HW272823   5.378   4.239  11.962
24267SOL     OW72824   3.955   5.437  11.655
24267SOL    HW172825   3.989   5.514  11.709
24267SOL    HW272826   3.999   5.437  11.565
24268SOL     OW72827   3.954   5.158  11.710
24268SOL    HW172828   3.928   5.254  11.710
24268SOL    HW272829   3.883   5.104  11.755
24269SOL     OW72830   3.964   4.815  12.058
24269SOL    HW172831   3.978   4.731  12.110
24269SOL    HW272832   3.909   4.879  12.113
24270SOL     OW72833   4.344   5.510  12.611
24270SOL    HW172834   4.252   5.493  12.646
24270SOL    HW272835   4.372   5.602  12.637
24271SOL     OW72836   4.330   4.688  11.295
24271SOL    HW172837   4.337   4.772  11.241
24271SOL    HW272838   4.376   4.701  11.383
24272SOL     OW72839   5.318   3.838  12.652
24272SOL    HW172840   5.300   3.905  12.580
24272SOL    HW272841   5.315   3.884  12.741
24273SOL     OW72842   3.846   4.367  11.735
24273SOL    HW172843   3.801   4.279  11.752
24273SOL    HW272844   3.845   4.421  11.819
24274SOL     OW72845   5.566   5.491  11.531
24274SOL    HW172846   5.620   5.462  11.611
24274SOL    HW272847   5.596   5.581  11.502
24275SOL     OW72848   3.751   5.320  11.289
24275SOL    HW172849   3.732   5.224  11.310
24275SOL    HW272850   3.718   5.378  11.364
24276SOL     OW72851   5.413   4.646  11.784
24276SOL    HW172852   5.508   4.617  11.792
24276SOL    HW272853   5.405   4.711  11.709
24277SOL     OW72854   5.365   4.832  11.604
24277SOL    HW172855   5.451   4.834  11.552
24277SOL    HW272856   5.379   4.879  11.692
24278SOL     OW72857   3.837   4.461  12.769
24278SOL    HW172858   3.925   4.448  12.814
24278SOL    HW272859   3.824   4.558  12.747
24279SOL     OW72860   4.337   5.089  11.898
24279SOL    HW172861   4.288   5.002  11.907
24279SOL    HW272862   4.314   5.132  11.811
24280SOL     OW72863   5.017   4.952  12.595
24280SOL    HW172864   5.054   4.879  12.537
24280SOL    HW272865   5.069   4.957  12.680
24281SOL     OW72866   4.533   3.728  11.674
24281SOL    HW172867   4.573   3.819  11.665
24281SOL    HW272868   4.433   3.736  11.680
24282SOL     OW72869   3.921   4.700  12.436
24282SOL    HW172870   4.010   4.655  12.422
24282SOL    HW272871   3.848   4.635  12.417
24283SOL     OW72872   5.249   4.723  11.362
24283SOL    HW172873   5.186   4.647  11.375
24283SOL    HW272874   5.297   4.741  11.448
24284SOL     OW72875   5.190   5.141  12.125
24284SOL    HW172876   5.131   5.147  12.205
24284SOL    HW272877   5.175   5.053  12.079
24285SOL     OW72878   5.391   5.438  11.744
24285SOL    HW172879   5.350   5.415  11.656
24285SOL    HW272880   5.373   5.364  11.809
24286SOL     OW72881   4.322   4.453  11.442
24286SOL    HW172882   4.346   4.522  11.374
24286SOL    HW272883   4.244   4.486  11.496
24287SOL     OW72884   5.005   4.069  12.116
24287SOL    HW172885   4.919   4.019  12.103
24287SOL    HW272886   5.067   4.015  12.172
24288SOL     OW72887   5.300   5.386  11.479
24288SOL    HW172888   5.389   5.432  11.482
24288SOL    HW272889   5.279   5.362  11.384
24289SOL     OW72890   4.531   4.329  12.637
24289SOL    HW172891   4.484   4.326  12.726
24289SOL    HW272892   4.480   4.274  12.571
24290SOL     OW72893   4.697   4.614  12.744
24290SOL    HW172894   4.743   4.530  12.715
24290SOL    HW272895   4.641   4.648  12.669
24291SOL     OW72896   4.715   4.134  12.414
24291SOL    HW172897   4.638   4.168  12.468
24291SOL    HW272898   4.681   4.083  12.335
24292SOL     OW72899   4.765   4.425  11.601
24292SOL    HW172900   4.791   4.421  11.697
24292SOL    HW272901   4.680   4.374  11.587
24293SOL     OW72902   3.800   4.535  11.961
24293SOL    HW172903   3.899   4.523  11.970
24293SOL    HW272904   3.776   4.630  11.982
24294SOL     OW72905   3.854   5.545  12.743
24294SOL    HW172906   3.844   5.530  12.842
24294SOL    HW272907   3.768   5.581  12.707
24295SOL     OW72908   4.589   4.072  11.367
24295SOL    HW172909   4.648   4.135  11.318
24295SOL    HW272910   4.608   3.978  11.338
24296SOL     OW72911   5.086   4.868  11.717
24296SOL    HW172912   5.169   4.839  11.669
24296SOL    HW272913   5.037   4.935  11.661
24297SOL     OW72914   4.274   3.920  12.057
24297SOL    HW172915   4.269   3.915  12.157
24297SOL    HW272916   4.276   4.016  12.028
24298SOL     OW72917   4.732   5.180  11.649
24298SOL    HW172918   4.686   5.252  11.597
24298SOL    HW272919   4.728   5.200  11.747
24299SOL     OW72920   4.075   5.525  12.025
24299SOL    HW172921   4.125   5.439  12.031
24299SOL    HW272922   4.140   5.602  12.022
24300SOL     OW72923   5.519   4.790  12.045
24300SOL    HW172924   5.457   4.775  11.969
24300SOL    HW272925   5.467   4.801  12.130
24301SOL     OW72926   4.951   5.274  12.678
24301SOL    HW172927   4.957   5.197  12.742
24301SOL    HW272928   4.899   5.248  12.598
24302SOL     OW72929   4.045   4.667  11.414
24302SOL    HW172930   4.127   4.706  11.372
24302SOL    HW272931   4.018   4.585  11.365
24303SOL     OW72932   5.182   4.459  11.900
24303SOL    HW172933   5.177   4.394  11.975
24303SOL    HW272934   5.262   4.518  11.913
24304SOL     OW72935   4.835   5.500  11.409
24304SOL    HW172936   4.775   5.438  11.459
24304SOL    HW272937   4.866   5.456  11.324
24305SOL     OW72938   3.926   4.009  12.670
24305SOL    HW172939   3.846   4.069  12.657
24305SOL    HW272940   3.916   3.960  12.756
24306SOL     OW72941   5.356   5.101  11.253
24306SOL    HW172942   5.324   5.195  11.243
24306SOL    HW272943   5.280   5.038  11.241
24307SOL     OW72944   4.188   5.467  11.495
24307SOL    HW172945   4.221   5.506  11.581
24307SOL    HW272946   4.264   5.460  11.430
24308SOL     OW72947   5.124   3.831  11.598
24308SOL    HW172948   5.100   3.794  11.508
24308SOL    HW272949   5.223   3.847  11.602
24309SOL     OW72950   3.973   5.509  12.413
24309SOL    HW172951   4.030   5.444  12.463
24309SOL    HW272952   3.957   5.476  12.320
24310SOL     OW72953   4.664   5.422  12.076
24310SOL    HW172954   4.744   5.365  12.097
24310SOL    HW272955   4.615   5.382  11.999
24311SOL     OW72956   4.106   4.424  11.652
24311SOL    HW172957   4.151   4.334  11.649
24311SOL    HW272958   4.012   4.413  11.685
24312SOL     OW72959   4.338   3.846  11.289
24312SOL    HW172960   4.436   3.824  11.296
24312SOL    HW272961   4.307   3.829  11.196
24313SOL     OW72962   4.612   5.238  12.367
24313SOL    HW172963   4.589   5.213  12.273
24313SOL    HW272964   4.673   5.169  12.406
24314SOL     OW72965   5.075   4.314  12.605
24314SOL    HW172966   5.103   4.271  12.690
24314SOL    HW272967   5.100   4.410  12.606
24315SOL     OW72968   4.527   5.126  12.096
24315SOL    HW172969   4.617   5.140  12.054
24315SOL    HW272970   4.456   5.128  12.025
24316SOL     OW72971   4.646   4.227  12.071
24316SOL    HW172972   4.621   4.218  11.975
24316SOL    HW272973   4.694   4.145  12.102
24317SOL     OW72974   4.263   3.788  11.684
24317SOL    HW172975   4.182   3.789  11.742
24317SOL    HW272976   4.266   3.871  11.629
24318SOL     OW72977   5.158   4.912  11.213
24318SOL    HW172978   5.190   4.836  11.270
24318SOL    HW272979   5.066   4.939  11.243
24319SOL     OW72980   4.021   3.759  11.343
24319SOL    HW172981   4.070   3.843  11.322
24319SOL    HW272982   4.083   3.694  11.388
24320SOL     OW72983   4.659   3.960  11.652
24320SOL    HW172984   4.611   4.001  11.574
24320SOL    HW272985   4.758   3.958  11.633
24321SOL     OW72986   4.800   4.407  12.636
24321SOL    HW172987   4.720   4.346  12.639
24321SOL    HW272988   4.881   4.354  12.612
24322SOL     OW72989   4.951   5.294  11.965
24322SOL    HW172990   4.972   5.368  11.900
24322SOL    HW272991   5.019   5.294  12.038
24323SOL     OW72992   4.183   4.876  11.913
24323SOL    HW172993   4.112   4.849  11.978
24323SOL    HW272994   4.157   4.848  11.820
24324SOL     OW72995   4.995   5.521  11.763
24324SOL    HW172996   5.039   5.585  11.699
24324SOL    HW272997   4.945   5.573  11.833
24325SOL     OW72998   4.756   4.273  11.188
24325SOL    HW172999   4.715   4.355  11.149
24325SOL    HW273000   4.820   4.299  11.261
24326SOL     OW73001   3.802   4.280  12.558
24326SOL    HW173002   3.894   4.279  12.517
24326SOL    HW273003   3.796   4.354  12.625
24327SOL     OW73004   4.285   3.946  12.319
24327SOL    HW173005   4.323   3.862  12.356
24327SOL    HW273006   4.197   3.965  12.363
24328SOL     OW73007   4.590   4.178  11.814
24328SOL    HW173008   4.558   4.250  11.752
24328SOL    HW273009   4.614   4.097  11.761
24329SOL     OW73010   4.741   3.763  11.925
24329SOL    HW173011   4.669   3.768  11.856
24329SOL    HW273012   4.717   3.694  11.994
24330SOL     OW73013   5.153   4.897  12.039
24330SOL    HW173014   5.098   4.813  12.032
24330SOL    HW273015   5.179   4.926  11.947
24331SOL     OW73016   5.190   4.314  12.164
24331SOL    HW173017   5.160   4.219  12.171
24331SOL    HW273018   5.263   4.330  12.230
24332SOL     OW73019   5.581   4.557  11.549
24332SOL    HW173020   5.623   4.493  11.613
24332SOL    HW273021   5.543   4.506  11.471
24333SOL     OW73022   4.212   5.109  11.346
24333SOL    HW173023   4.125   5.094  11.393
24333SOL    HW273024   4.195   5.135  11.251
24334SOL     OW73025   5.388   5.004  11.829
24334SOL    HW173026   5.487   5.012  11.843
24334SOL    HW273027   5.343   5.088  11.860
24335SOL     OW73028   5.114   4.299  11.250
24335SOL    HW173029   5.060   4.278  11.331
24335SOL    HW273030   5.205   4.258  11.259
24336SOL     OW73031   4.251   3.980  11.500
24336SOL    HW173032   4.278   3.921  11.425
24336SOL    HW273033   4.251   4.075  11.469
24337SOL     OW73034   5.478   4.947  12.760
24337SOL    HW173035   5.569   4.908  12.747
24337SOL    HW273036   5.486   5.043  12.784
24338SOL     OW73037   4.788   5.071  12.512
24338SOL    HW173038   4.708   5.048  12.567
24338SOL    HW273039   4.871   5.045  12.561
24339SOL     OW73040   4.835   4.919  12.272
24339SOL    HW173041   4.795   4.963  12.353
24339SOL    HW273042   4.794   4.956  12.189
24340SOL     OW73043   5.362   4.823  12.251
24340SOL    HW173044   5.367   4.904  12.310
24340SOL    HW273045   5.276   4.825  12.200
24341SOL     OW73046   4.639   3.813  12.574
24341SOL    HW173047   4.664   3.793  12.479
24341SOL    HW273048   4.711   3.869  12.616
24342SOL     OW73049   4.429   4.774  11.540
24342SOL    HW173050   4.415   4.781  11.639
24342SOL    HW273051   4.513   4.723  11.522
24343SOL     OW73052   4.134   4.537  12.423
24343SOL    HW173053   4.220   4.549  12.473
24343SOL    HW273054   4.092   4.450  12.450
24344SOL     OW73055   4.998   4.110  12.434
24344SOL    HW173056   5.019   4.184  12.498
24344SOL    HW273057   4.909   4.127  12.391
24345SOL     OW73058   3.788   5.288  12.503
24345SOL    HW173059   3.742   5.370  12.469
24345SOL    HW273060   3.886   5.307  12.512
24346SOL     OW73061   4.091   4.824  11.673
24346SOL    HW173062   4.084   4.907  11.617
24346SOL    HW273063   4.095   4.744  11.613
24347SOL     OW73064   4.290   4.261  12.037
24347SOL    HW173065   4.302   4.327  11.963
24347SOL    HW273066   4.336   4.295  12.120
24348SOL     OW73067   4.976   5.072  11.560
24348SOL    HW173068   5.026   5.149  11.600
24348SOL    HW273069   4.881   5.074  11.592
24349SOL     OW73070   4.996   5.169  12.314
24349SOL    HW173071   5.043   5.182  12.401
24349SOL    HW273072   4.930   5.095  12.323
24350SOL     OW73073   5.306   4.363  11.644
24350SOL    HW173074   5.275   4.424  11.717
24350SOL    HW273075   5.356   4.415  11.575
24351SOL     OW73076   4.078   5.234  12.501
24351SOL    HW173077   4.057   5.190  12.414
24351SOL    HW273078   4.175   5.260  12.504
24352SOL     OW73079   4.126   4.475  12.770
24352SOL    HW173080   4.194   4.530  12.723
24352SOL    HW273081   4.166   4.387  12.797
24353SOL     OW73082   5.311   4.503  12.842
24353SOL    HW173083   5.219   4.541  12.837
24353SOL    HW273084   5.371   4.550  12.777
24354SOL     OW73085   4.297   4.594  12.201
24354SOL    HW173086   4.341   4.683  12.192
24354SOL    HW273087   4.234   4.594  12.278
24355SOL     OW73088   5.084   4.586  12.217
24355SOL    HW173089   5.009   4.586  12.151
24355SOL    HW273090   5.121   4.494  12.226
24356SOL     OW73091   4.933   4.249  11.447
24356SOL    HW173092   4.946   4.165  11.501
24356SOL    HW273093   4.904   4.323  11.507
24357SOL     OW73094   4.031   3.937  12.403
24357SOL    HW173095   4.008   3.974  12.493
24357SOL    HW273096   4.001   3.842  12.397
24358SOL     OW73097   3.761   5.034  12.454
24358SOL    HW173098   3.814   4.985  12.522
24358SOL    HW273099   3.783   5.132  12.459
24359SOL     OW73100   4.456   4.358  12.236
24359SOL    HW173101   4.515   4.332  12.160
24359SOL    HW273102   4.428   4.454  12.225
24360SOL     OW73103   4.031   3.787  11.790
24360SOL    HW173104   4.020   3.881  11.823
24360SOL    HW273105   4.026   3.724  11.867
24361SOL     OW73106   5.346   4.091  11.546
24361SOL    HW173107   5.348   4.015  11.610
24361SOL    HW273108   5.298   4.168  11.586
24362SOL     OW73109   4.747   4.490  12.138
24362SOL    HW173110   4.762   4.511  12.234
24362SOL    HW273111   4.717   4.395  12.129
24363SOL     OW73112   5.264   3.998  11.297
24363SOL    HW173113   5.203   3.923  11.320
24363SOL    HW273114   5.286   4.050  11.380
24364SOL     OW73115   5.027   4.562  11.214
24364SOL    HW173116   5.061   4.469  11.229
24364SOL    HW273117   5.045   4.589  11.119
24365SOL     OW73118   4.792   5.057  12.021
24365SOL    HW173119   4.799   4.973  11.966
24365SOL    HW273120   4.854   5.126  11.985
24366SOL     OW73121   4.043   4.534  12.121
24366SOL    HW173122   4.136   4.570  12.126
24366SOL    HW273123   4.037   4.449  12.173
24367SOL     OW73124   4.063   4.233  12.178
24367SOL    HW173125   4.011   4.150  12.161
24367SOL    HW273126   4.140   4.238  12.114
24368SOL     OW73127   4.884   3.931  12.649
24368SOL    HW173128   4.884   3.995  12.726
24368SOL    HW273129   4.912   3.979  12.566
24369SOL     OW73130   3.732   5.050  11.372
24369SOL    HW173131   3.639   5.071  11.341
24369SOL    HW273132   3.742   4.951  11.385
24370SOL     OW73133   3.812   5.525  12.099
24370SOL    HW173134   3.770   5.439  12.072
24370SOL    HW273135   3.906   5.528  12.065
24371SOL     OW73136   4.228   5.292  12.082
24371SOL    HW173137   4.294   5.366  12.091
24371SOL    HW273138   4.272   5.213  12.040
24372SOL     OW73139   4.726   4.520  12.410
24372SOL    HW173140   4.767   4.488  12.496
24372SOL    HW273141   4.630   4.493  12.407
24373SOL     OW73142   3.764   4.268  12.286
24373SOL    HW173143   3.849   4.235  12.245
24373SOL    HW273144   3.777   4.283  12.384
24374SOL     OW73145   4.539   4.296  11.497
24374SOL    HW173146   4.546   4.207  11.451
24374SOL    HW273147   4.445   4.330  11.489
24375SOL     OW73148   5.381   4.328  12.378
24375SOL    HW173149   5.343   4.259  12.440
24375SOL    HW273150   5.463   4.292  12.334
24376SOL     OW73151   3.976   5.288  12.916
24376SOL    HW173152   3.946   5.345  12.992
24376SOL    HW273153   3.969   5.191  12.942
24377SOL     OW73154   4.395   4.188  12.441
24377SOL    HW173155   4.361   4.099  12.411
24377SOL    HW273156   4.421   4.242  12.361
24378SOL     OW73157   4.654   5.402  12.637
24378SOL    HW173158   4.630   5.384  12.542
24378SOL    HW273159   4.684   5.496  12.647
24379SOL     OW73160   4.197   4.224  11.363
24379SOL    HW173161   4.258   4.304  11.367
24379SOL    HW273162   4.102   4.255  11.370
24380SOL     OW73163   3.883   4.861  12.638
24380SOL    HW173164   3.905   4.800  12.714
24380SOL    HW273165   3.893   4.812  12.552
24381SOL     OW73166   5.071   4.783  12.406
24381SOL    HW173167   5.095   4.720  12.332
24381SOL    HW273168   4.981   4.823  12.388
24382SOL     OW73169   5.026   4.579  11.481
24382SOL    HW173170   4.940   4.548  11.523
24382SOL    HW273171   5.022   4.565  11.382
24383SOL     OW73172   5.483   5.471  12.326
24383SOL    HW173173   5.544   5.501  12.253
24383SOL    HW273174   5.445   5.382  12.304
24384SOL     OW73175   4.976   5.455  12.300
24384SOL    HW173176   5.060   5.460  12.246
24384SOL    HW273177   4.953   5.359  12.318
24385SOL     OW73178   3.807   4.982  12.194
24385SOL    HW173179   3.802   4.981  12.294
24385SOL    HW273180   3.724   4.941  12.156
24386SOL     OW73181   5.450   3.859  11.695
24386SOL    HW173182   5.523   3.842  11.628
24386SOL    HW273183   5.419   3.772  11.733
24387SOL     OW73184   5.112   5.297  11.649
24387SOL    HW173185   5.179   5.309  11.575
24387SOL    HW273186   5.072   5.386  11.672
24388SOL     OW73187   5.004   4.651  11.844
24388SOL    HW173188   5.064   4.570  11.846
24388SOL    HW273189   5.044   4.720  11.784
24389SOL     OW73190   4.554   4.997  12.594
24389SOL    HW173191   4.549   5.030  12.689
24389SOL    HW273192   4.468   5.016  12.548
24390SOL     OW73193   4.396   5.340  11.326
24390SOL    HW173194   4.405   5.350  11.227
24390SOL    HW273195   4.356   5.251  11.347
24391SOL     OW73196   5.374   5.444  12.566
24391SOL    HW173197   5.427   5.454  12.482
24391SOL    HW273198   5.347   5.534  12.600
24392SOL     OW73199   5.565   3.899  12.135
24392SOL    HW173200   5.604   3.814  12.099
24392SOL    HW273201   5.467   3.901  12.116
24393SOL     OW73202   3.987   4.050  11.892
24393SOL    HW173203   3.908   4.101  11.858
24393SOL    HW273204   3.978   4.035  11.990
24394SOL     OW73205   4.918   5.336  11.203
24394SOL    HW173206   4.924   5.243  11.240
24394SOL    HW273207   4.859   5.336  11.123
24395SOL     OW73208   4.546   4.726  12.544
24395SOL    HW173209   4.586   4.725  12.452
24395SOL    HW273210   4.556   4.818  12.584
24396SOL     OW73211   4.640   4.634  11.463
24396SOL    HW173212   4.703   4.672  11.395
24396SOL    HW273213   4.680   4.551  11.502
24397SOL     OW73214   5.228   5.331  11.216
24397SOL    HW173215   5.136   5.368  11.223
24397SOL    HW273216   5.266   5.351  11.126
24398SOL     OW73217   4.096   5.012  12.662
24398SOL    HW173218   4.083   5.105  12.628
24398SOL    HW273219   4.012   4.960  12.649
24399SOL     OW73220   5.338   5.016  12.461
24399SOL    HW173221   5.398   5.019  12.541
24399SOL    HW273222   5.263   5.080  12.474
24400SOL     OW73223   4.763   4.822  11.868
24400SOL    HW173224   4.693   4.775  11.922
24400SOL    HW273225   4.822   4.754  11.825
24401SOL     OW73226   4.738   3.960  12.143
24401SOL    HW173227   4.730   3.924  12.050
24401SOL    HW273228   4.736   3.884  12.208
24402SOL     OW73229   4.314   5.211  11.663
24402SOL    HW173230   4.356   5.153  11.593
24402SOL    HW273231   4.270   5.290  11.619
24403SOL     OW73232   5.433   4.109  12.553
24403SOL    HW173233   5.506   4.178  12.557
24403SOL    HW273234   5.461   4.034  12.494
24404SOL     OW73235   3.979   5.072  11.462
24404SOL    HW173236   3.883   5.073  11.435
24404SOL    HW273237   3.991   5.125  11.546
24405SOL     OW73238   3.829   4.737  12.898
24405SOL    HW173239   3.752   4.704  12.952
24405SOL    HW273240   3.914   4.707  12.940
24406SOL     OW73241   4.396   3.927  12.661
24406SOL    HW173242   4.486   3.911  12.621
24406SOL    HW273243   4.404   3.932  12.760
24407SOL     OW73244   3.799   4.069  11.205
24407SOL    HW173245   3.707   4.041  11.176
24407SOL    HW273246   3.830   4.146  11.149
24408SOL     OW73247   5.164   4.580  12.570
24408SOL    HW173248   5.107   4.632  12.507
24408SOL    HW273249   5.260   4.592  12.546
24409SOL     OW73250   3.796   3.890  11.490
24409SOL    HW173251   3.779   3.973  11.436
24409SOL    HW273252   3.886   3.853  11.468
24410SOL     OW73253   4.907   5.059  11.291
24410SOL    HW173254   4.808   5.048  11.293
24410SOL    HW273255   4.941   5.074  11.384
24411SOL     OW73256   4.337   4.566  12.603
24411SOL    HW173257   4.393   4.647  12.586
24411SOL    HW273258   4.396   4.486  12.606
24412SOL     OW73259   5.217   5.491  12.131
24412SOL    HW173260   5.250   5.555  12.062
24412SOL    HW273261   5.283   5.485  12.206
24413SOL     OW73262   4.440   4.289  12.880
24413SOL    HW173263   4.459   4.354  12.954
24413SOL    HW273264   4.500   4.209  12.889
24414SOL     OW73265   4.114   5.465  12.732
24414SOL    HW173266   4.023   5.506  12.730
24414SOL    HW273267   4.107   5.371  12.764
24415SOL     OW73268   5.398   4.607  12.426
24415SOL    HW173269   5.371   4.518  12.389
24415SOL    HW273270   5.399   4.675  12.353
24416SOL     OW73271   4.949   4.049  11.621
24416SOL    HW173272   5.014   3.975  11.610
24416SOL    HW273273   4.969   4.099  11.705
24417SOL     OW73274   4.318   4.469  11.824
24417SOL    HW173275   4.368   4.554  11.805
24417SOL    HW273276   4.230   4.471  11.776
24418SOL     OW73277   5.501   4.066  12.814
24418SOL    HW173278   5.484   4.097  12.720
24418SOL    HW273279   5.417   4.029  12.852
24419SOL     OW73280   5.454   4.658  12.689
24419SOL    HW173281   5.492   4.749  12.704
24419SOL    HW273282   5.446   4.641  12.590
24420SOL     OW73283   4.583   5.098  11.188
24420SOL    HW173284   4.537   5.113  11.276
24420SOL    HW273285   4.627   5.183  11.158
24421SOL     OW73286   4.385   5.514  12.125
24421SOL    HW173287   4.339   5.602  12.112
24421SOL    HW273288   4.484   5.526  12.118
24422SOL     OW73289   4.583   4.680  12.033
24422SOL    HW173290   4.637   4.611  12.081
24422SOL    HW273291   4.551   4.749  12.099
24423SOL     OW73292   4.807   4.708  11.259
24423SOL    HW173293   4.784   4.761  11.177
24423SOL    HW273294   4.888   4.652  11.240
24424SOL     OW73295   5.585   5.293  12.023
24424SOL    HW173296   5.514   5.281  11.953
24424SOL    HW273297   5.586   5.214  12.083
24425SOL     OW73298   3.803   4.964  11.825
24425SOL    HW173299   3.802   4.917  11.913
24425SOL    HW273300   3.885   4.936  11.774
24426SOL     OW73301   4.396   5.115  12.796
24426SOL    HW173302   4.318   5.065  12.834
24426SOL    HW273303   4.393   5.210  12.827
24427SOL     OW73304   5.548   3.916  12.399
24427SOL    HW173305   5.544   3.826  12.443
24427SOL    HW273306   5.551   3.905  12.300
24428SOL     OW73307   4.152   4.148  11.692
24428SOL    HW173308   4.182   4.076  11.630
24428SOL    HW273309   4.113   4.108  11.775
24429SOL     OW73310   5.429   5.211  12.276
24429SOL    HW173311   5.336   5.186  12.249
24429SOL    HW273312   5.455   5.161  12.358
24430SOL     OW73313   4.041   4.271  12.452
24430SOL    HW173314   4.079   4.212  12.524
24430SOL    HW273315   4.081   4.245  12.364
24431SOL     OW73316   4.536   5.310  11.859
24431SOL    HW173317   4.568   5.320  11.765
24431SOL    HW273318   4.457   5.248  11.861
24432SOL     OW73319   5.148   3.938  12.284
24432SOL    HW173320   5.200   3.873  12.339
24432SOL    HW273321   5.099   4.001  12.345
24433SOL     OW73322   4.725   3.758  12.326
24433SOL    HW173323   4.662   3.686  12.295
24433SOL    HW273324   4.818   3.722  12.326
24434SOL     OW73325   4.494   5.054  11.473
24434SOL    HW173326   4.448   4.967  11.490
24434SOL    HW273327   4.585   5.051  11.514
24435SOL     OW73328   4.342   5.291  12.456
24435SOL    HW173329   4.337   5.373  12.513
24435SOL    HW273330   4.431   5.288  12.411
24436SOL     OW73331   5.076   3.776  11.340
24436SOL    HW173332   5.111   3.735  11.256
24436SOL    HW273333   4.986   3.738  11.360
24437SOL     OW73334   5.024   4.177  11.863
24437SOL    HW173335   4.965   4.257  11.867
24437SOL    HW273336   5.039   4.142  11.956
24438SOL     OW73337   5.317   3.945  12.054
24438SOL    HW173338   5.233   3.944  12.108
24438SOL    HW273339   5.319   4.028  11.998
24439SOL     OW73340   3.763   4.801  11.472
24439SOL    HW173341   3.862   4.790  11.463
24439SOL    HW273342   3.723   4.715  11.504
24440SOL     OW73343   4.599   5.370  11.509
24440SOL    HW173344   4.522   5.335  11.455
24440SOL    HW273345   4.567   5.441  11.571
24441SOL     OW73346   3.954   6.214   0.113
24441SOL    HW173347   3.861   6.212   0.150
24441SOL    HW273348   3.955   6.175   0.021
24442SOL     OW73349   3.949   5.861   0.996
24442SOL    HW173350   3.984   5.844   1.088
24442SOL    HW273351   3.861   5.816   0.984
24443SOL     OW73352   3.743   5.954   0.647
24443SOL    HW173353   3.661   5.997   0.686
24443SOL    HW273354   3.715   5.881   0.584
24444SOL     OW73355   4.293   6.861   1.165
24444SOL    HW173356   4.200   6.854   1.128
24444SOL    HW273357   4.304   6.950   1.209
24445SOL     OW73358   5.279   7.097   0.703
24445SOL    HW173359   5.222   7.081   0.784
24445SOL    HW273360   5.220   7.107   0.623
24446SOL     OW73361   4.859   6.289   0.717
24446SOL    HW173362   4.916   6.367   0.692
24446SOL    HW273363   4.799   6.315   0.793
24447SOL     OW73364   5.479   6.193   0.231
24447SOL    HW173365   5.467   6.180   0.132
24447SOL    HW273366   5.449   6.112   0.280
24448SOL     OW73367   4.492   6.730   1.023
24448SOL    HW173368   4.414   6.747   1.083
24448SOL    HW273369   4.526   6.817   0.987
24449SOL     OW73370   4.574   6.384   1.823
24449SOL    HW173371   4.570   6.460   1.888
24449SOL    HW273372   4.596   6.420   1.732
24450SOL     OW73373   4.409   6.598   0.665
24450SOL    HW173374   4.478   6.582   0.735
24450SOL    HW273375   4.336   6.655   0.703
24451SOL     OW73376   4.410   6.747   1.803
24451SOL    HW173377   4.470   6.826   1.817
24451SOL    HW273378   4.324   6.778   1.762
24452SOL     OW73379   4.059   7.021   1.061
24452SOL    HW173380   3.981   6.990   1.008
24452SOL    HW273381   4.117   7.079   1.004
24453SOL     OW73382   5.184   7.091   1.339
24453SOL    HW173383   5.208   7.185   1.365
24453SOL    HW273384   5.168   7.037   1.421
24454SOL     OW73385   4.162   5.978   1.499
24454SOL    HW173386   4.244   5.922   1.508
24454SOL    HW273387   4.081   5.920   1.503
24455SOL     OW73388   5.327   6.033   0.737
24455SOL    HW173389   5.253   6.079   0.687
24455SOL    HW273390   5.378   6.101   0.790
24456SOL     OW73391   3.955   7.299   0.483
24456SOL    HW173392   3.989   7.376   0.537
24456SOL    HW273393   3.999   7.299   0.393
24457SOL     OW73394   4.851   6.927   1.690
24457SOL    HW173395   4.898   6.927   1.778
24457SOL    HW273396   4.803   6.840   1.679
24458SOL     OW73397   3.954   7.020   0.538
24458SOL    HW173398   3.928   7.116   0.538
24458SOL    HW273399   3.883   6.966   0.583
24459SOL     OW73400   3.964   6.677   0.886
24459SOL    HW173401   3.978   6.593   0.938
24459SOL    HW273402   3.909   6.741   0.941
24460SOL     OW73403   4.344   7.372   1.439
24460SOL    HW173404   4.252   7.355   1.474
24460SOL    HW273405   4.372   7.464   1.465
24461SOL     OW73406   4.330   6.550   0.123
24461SOL    HW173407   4.337   6.634   0.069
24461SOL    HW273408   4.376   6.563   0.211
24462SOL     OW73409   5.318   5.700   1.480
24462SOL    HW173410   5.300   5.767   1.408
24462SOL    HW273411   5.315   5.746   1.569
24463SOL     OW73412   3.846   6.229   0.563
24463SOL    HW173413   3.801   6.141   0.580
24463SOL    HW273414   3.845   6.283   0.647
24464SOL     OW73415   5.566   7.353   0.359
24464SOL    HW173416   5.620   7.324   0.439
24464SOL    HW273417   5.596   7.443   0.330
24465SOL     OW73418   3.751   7.182   0.117
24465SOL    HW173419   3.732   7.086   0.138
24465SOL    HW273420   3.718   7.240   0.192
24466SOL     OW73421   5.413   6.508   0.612
24466SOL    HW173422   5.508   6.479   0.620
24466SOL    HW273423   5.405   6.573   0.537
24467SOL     OW73424   5.365   6.694   0.432
24467SOL    HW173425   5.451   6.696   0.380
24467SOL    HW273426   5.379   6.741   0.520
24468SOL     OW73427   3.837   6.323   1.597
24468SOL    HW173428   3.925   6.310   1.642
24468SOL    HW273429   3.824   6.420   1.575
24469SOL     OW73430   4.337   6.951   0.726
24469SOL    HW173431   4.288   6.864   0.735
24469SOL    HW273432   4.314   6.994   0.639
24470SOL     OW73433   5.017   6.814   1.423
24470SOL    HW173434   5.054   6.741   1.365
24470SOL    HW273435   5.069   6.819   1.508
24471SOL     OW73436   4.533   5.590   0.502
24471SOL    HW173437   4.573   5.681   0.493
24471SOL    HW273438   4.433   5.598   0.508
24472SOL     OW73439   3.921   6.562   1.264
24472SOL    HW173440   4.010   6.517   1.250
24472SOL    HW273441   3.848   6.497   1.245
24473SOL     OW73442   5.249   6.585   0.190
24473SOL    HW173443   5.186   6.509   0.203
24473SOL    HW273444   5.297   6.603   0.276
24474SOL     OW73445   4.911   7.378   1.616
24474SOL    HW173446   4.935   7.438   1.540
24474SOL    HW273447   4.918   7.283   1.586
24475SOL     OW73448   4.041   5.837   1.801
24475SOL    HW173449   4.112   5.908   1.807
24475SOL    HW273450   3.953   5.876   1.829
24476SOL     OW73451   5.190   7.003   0.953
24476SOL    HW173452   5.131   7.009   1.033
24476SOL    HW273453   5.175   6.915   0.907
24477SOL     OW73454   5.391   7.300   0.572
24477SOL    HW173455   5.350   7.277   0.484
24477SOL    HW273456   5.373   7.226   0.637
24478SOL     OW73457   4.322   6.315   0.270
24478SOL    HW173458   4.346   6.384   0.202
24478SOL    HW273459   4.244   6.348   0.324
24479SOL     OW73460   5.005   5.931   0.944
24479SOL    HW173461   4.919   5.881   0.931
24479SOL    HW273462   5.067   5.877   1.000
24480SOL     OW73463   5.300   7.248   0.307
24480SOL    HW173464   5.389   7.294   0.310
24480SOL    HW273465   5.279   7.224   0.212
24481SOL     OW73466   4.531   6.191   1.465
24481SOL    HW173467   4.484   6.188   1.554
24481SOL    HW273468   4.480   6.136   1.399
24482SOL     OW73469   5.118   6.055   1.674
24482SOL    HW173470   5.098   6.098   1.762
24482SOL    HW273471   5.196   5.993   1.683
24483SOL     OW73472   4.697   6.476   1.572
24483SOL    HW173473   4.743   6.392   1.543
24483SOL    HW273474   4.641   6.510   1.497
24484SOL     OW73475   4.715   5.996   1.242
24484SOL    HW173476   4.638   6.030   1.296
24484SOL    HW273477   4.681   5.945   1.163
24485SOL     OW73478   4.765   6.287   0.429
24485SOL    HW173479   4.791   6.283   0.525
24485SOL    HW273480   4.680   6.236   0.415
24486SOL     OW73481   3.800   6.397   0.789
24486SOL    HW173482   3.899   6.385   0.798
24486SOL    HW273483   3.776   6.492   0.810
24487SOL     OW73484   3.854   7.407   1.571
24487SOL    HW173485   3.844   7.392   1.670
24487SOL    HW273486   3.768   7.443   1.535
24488SOL     OW73487   4.589   5.934   0.195
24488SOL    HW173488   4.648   5.997   0.146
24488SOL    HW273489   4.608   5.840   0.166
24489SOL     OW73490   5.443   6.171   1.831
24489SOL    HW173491   5.417   6.260   1.795
24489SOL    HW273492   5.441   6.103   1.758
24490SOL     OW73493   5.086   6.730   0.545
24490SOL    HW173494   5.169   6.701   0.497
24490SOL    HW273495   5.037   6.797   0.489
24491SOL     OW73496   4.274   5.782   0.885
24491SOL    HW173497   4.269   5.777   0.985
24491SOL    HW273498   4.276   5.878   0.856
24492SOL     OW73499   4.732   7.042   0.477
24492SOL    HW173500   4.686   7.114   0.425
24492SOL    HW273501   4.728   7.062   0.575
24493SOL     OW73502   4.075   7.387   0.853
24493SOL    HW173503   4.125   7.301   0.859
24493SOL    HW273504   4.140   7.464   0.850
24494SOL     OW73505   5.519   6.652   0.873
24494SOL    HW173506   5.457   6.637   0.797
24494SOL    HW273507   5.467   6.663   0.958
24495SOL     OW73508   4.951   7.136   1.506
24495SOL    HW173509   4.957   7.059   1.570
24495SOL    HW273510   4.899   7.110   1.426
24496SOL     OW73511   4.045   6.529   0.242
24496SOL    HW173512   4.127   6.568   0.200
24496SOL    HW273513   4.018   6.447   0.193
24497SOL     OW73514   5.182   6.321   0.728
24497SOL    HW173515   5.177   6.256   0.803
24497SOL    HW273516   5.262   6.380   0.741
24498SOL     OW73517   4.185   6.852   1.727
24498SOL    HW173518   4.135   6.853   1.641
24498SOL    HW273519   4.122   6.834   1.803
24499SOL     OW73520   4.835   7.362   0.237
24499SOL    HW173521   4.775   7.300   0.287
24499SOL    HW273522   4.866   7.318   0.152
24500SOL     OW73523   3.926   5.871   1.498
24500SOL    HW173524   3.846   5.931   1.485
24500SOL    HW273525   3.916   5.822   1.584
24501SOL     OW73526   5.356   6.963   0.081
24501SOL    HW173527   5.324   7.057   0.071
24501SOL    HW273528   5.280   6.900   0.069
24502SOL     OW73529   4.188   7.329   0.323
24502SOL    HW173530   4.221   7.368   0.409
24502SOL    HW273531   4.264   7.322   0.258
24503SOL     OW73532   5.124   5.693   0.426
24503SOL    HW173533   5.100   5.656   0.336
24503SOL    HW273534   5.223   5.709   0.430
24504SOL     OW73535   3.973   7.371   1.241
24504SOL    HW173536   4.030   7.306   1.291
24504SOL    HW273537   3.957   7.338   1.148
24505SOL     OW73538   4.664   7.284   0.904
24505SOL    HW173539   4.744   7.227   0.925
24505SOL    HW273540   4.615   7.244   0.827
24506SOL     OW73541   4.106   6.286   0.480
24506SOL    HW173542   4.151   6.196   0.477
24506SOL    HW273543   4.012   6.275   0.513
24507SOL     OW73544   5.271   5.808   1.729
24507SOL    HW173545   5.266   5.845   1.821
24507SOL    HW273546   5.199   5.739   1.717
24508SOL     OW73547   4.338   5.708   0.117
24508SOL    HW173548   4.436   5.686   0.124
24508SOL    HW273549   4.307   5.691   0.024
24509SOL     OW73550   4.505   5.850   1.749
24509SOL    HW173551   4.572   5.789   1.792
24509SOL    HW273552   4.432   5.869   1.814
24510SOL     OW73553   4.612   7.100   1.195
24510SOL    HW173554   4.589   7.075   1.101
24510SOL    HW273555   4.673   7.031   1.234
24511SOL     OW73556   5.075   6.176   1.433
24511SOL    HW173557   5.103   6.133   1.518
24511SOL    HW273558   5.100   6.272   1.434
24512SOL     OW73559   4.527   6.988   0.924
24512SOL    HW173560   4.617   7.002   0.882
24512SOL    HW273561   4.456   6.990   0.853
24513SOL     OW73562   4.646   6.089   0.899
24513SOL    HW173563   4.621   6.080   0.803
24513SOL    HW273564   4.694   6.007   0.930
24514SOL     OW73565   4.263   5.650   0.512
24514SOL    HW173566   4.182   5.651   0.570
24514SOL    HW273567   4.266   5.733   0.457
24515SOL     OW73568   5.158   6.774   0.041
24515SOL    HW173569   5.190   6.698   0.098
24515SOL    HW273570   5.066   6.801   0.071
24516SOL     OW73571   4.021   5.621   0.171
24516SOL    HW173572   4.070   5.705   0.150
24516SOL    HW273573   4.083   5.556   0.216
24517SOL     OW73574   4.659   5.822   0.480
24517SOL    HW173575   4.611   5.863   0.402
24517SOL    HW273576   4.758   5.820   0.461
24518SOL     OW73577   4.800   6.269   1.464
24518SOL    HW173578   4.720   6.208   1.467
24518SOL    HW273579   4.881   6.216   1.440
24519SOL     OW73580   4.951   7.156   0.793
24519SOL    HW173581   4.972   7.230   0.728
24519SOL    HW273582   5.019   7.156   0.866
24520SOL     OW73583   4.183   6.738   0.741
24520SOL    HW173584   4.112   6.711   0.806
24520SOL    HW273585   4.157   6.710   0.648
24521SOL     OW73586   4.995   7.383   0.591
24521SOL    HW173587   5.039   7.447   0.527
24521SOL    HW273588   4.945   7.435   0.661
24522SOL     OW73589   4.756   6.135   0.016
24522SOL    HW173590   4.715   6.217  -0.023
24522SOL    HW273591   4.820   6.161   0.089
24523SOL     OW73592   3.802   6.142   1.386
24523SOL    HW173593   3.894   6.141   1.345
24523SOL    HW273594   3.796   6.216   1.453
24524SOL     OW73595   4.285   5.808   1.147
24524SOL    HW173596   4.323   5.724   1.184
24524SOL    HW273597   4.197   5.827   1.191
24525SOL     OW73598   4.590   6.040   0.642
24525SOL    HW173599   4.558   6.112   0.580
24525SOL    HW273600   4.614   5.959   0.589
24526SOL     OW73601   4.741   5.625   0.753
24526SOL    HW173602   4.669   5.630   0.684
24526SOL    HW273603   4.717   5.556   0.822
24527SOL     OW73604   5.153   6.759   0.867
24527SOL    HW173605   5.098   6.675   0.860
24527SOL    HW273606   5.179   6.788   0.775
24528SOL     OW73607   5.190   6.176   0.992
24528SOL    HW173608   5.160   6.081   0.999
24528SOL    HW273609   5.263   6.192   1.058
24529SOL     OW73610   5.581   6.419   0.377
24529SOL    HW173611   5.623   6.355   0.441
24529SOL    HW273612   5.543   6.368   0.299
24530SOL     OW73613   4.212   6.971   0.174
24530SOL    HW173614   4.125   6.956   0.221
24530SOL    HW273615   4.195   6.997   0.079
24531SOL     OW73616   5.388   6.866   0.657
24531SOL    HW173617   5.487   6.874   0.671
24531SOL    HW273618   5.343   6.950   0.688
24532SOL     OW73619   5.114   6.161   0.078
24532SOL    HW173620   5.060   6.140   0.159
24532SOL    HW273621   5.205   6.120   0.087
24533SOL     OW73622   4.251   5.842   0.328
24533SOL    HW173623   4.278   5.783   0.253
24533SOL    HW273624   4.251   5.937   0.297
24534SOL     OW73625   5.478   6.809   1.588
24534SOL    HW173626   5.569   6.770   1.575
24534SOL    HW273627   5.486   6.905   1.612
24535SOL     OW73628   4.788   6.933   1.340
24535SOL    HW173629   4.708   6.910   1.395
24535SOL    HW273630   4.871   6.907   1.389
24536SOL     OW73631   5.316   7.215   1.625
24536SOL    HW173632   5.343   7.249   1.535
24536SOL    HW273633   5.395   7.177   1.671
24537SOL     OW73634   4.835   6.781   1.100
24537SOL    HW173635   4.795   6.825   1.181
24537SOL    HW273636   4.794   6.818   1.017
24538SOL     OW73637   5.362   6.685   1.079
24538SOL    HW173638   5.367   6.766   1.138
24538SOL    HW273639   5.276   6.687   1.028
24539SOL     OW73640   4.639   5.675   1.402
24539SOL    HW173641   4.664   5.655   1.307
24539SOL    HW273642   4.711   5.731   1.444
24540SOL     OW73643   4.704   6.702   1.719
24540SOL    HW173644   4.605   6.708   1.729
24540SOL    HW273645   4.727   6.622   1.663
24541SOL     OW73646   4.429   6.636   0.368
24541SOL    HW173647   4.415   6.643   0.467
24541SOL    HW273648   4.513   6.585   0.350
24542SOL     OW73649   4.134   6.399   1.251
24542SOL    HW173650   4.220   6.411   1.301
24542SOL    HW273651   4.092   6.312   1.278
24543SOL     OW73652   4.998   5.972   1.262
24543SOL    HW173653   5.019   6.046   1.326
24543SOL    HW273654   4.909   5.989   1.219
24544SOL     OW73655   3.788   7.150   1.331
24544SOL    HW173656   3.742   7.232   1.297
24544SOL    HW273657   3.886   7.169   1.340
24545SOL     OW73658   4.091   6.686   0.501
24545SOL    HW173659   4.084   6.769   0.445
24545SOL    HW273660   4.095   6.606   0.441
24546SOL     OW73661   4.290   6.123   0.865
24546SOL    HW173662   4.302   6.189   0.791
24546SOL    HW273663   4.336   6.157   0.948
24547SOL     OW73664   4.976   6.934   0.388
24547SOL    HW173665   5.026   7.011   0.428
24547SOL    HW273666   4.881   6.936   0.420
24548SOL     OW73667   4.996   7.031   1.142
24548SOL    HW173668   5.043   7.044   1.229
24548SOL    HW273669   4.930   6.957   1.151
24549SOL     OW73670   5.306   6.225   0.472
24549SOL    HW173671   5.275   6.286   0.545
24549SOL    HW273672   5.356   6.277   0.403
24550SOL     OW73673   4.078   7.096   1.329
24550SOL    HW173674   4.057   7.052   1.242
24550SOL    HW273675   4.175   7.122   1.332
24551SOL     OW73676   4.126   6.337   1.598
24551SOL    HW173677   4.194   6.392   1.551
24551SOL    HW273678   4.166   6.249   1.625
24552SOL     OW73679   5.311   6.365   1.670
24552SOL    HW173680   5.219   6.403   1.665
24552SOL    HW273681   5.371   6.412   1.605
24553SOL     OW73682   4.737   5.691   1.770
24553SOL    HW173683   4.743   5.776   1.718
24553SOL    HW273684   4.769   5.615   1.713
24554SOL     OW73685   4.228   5.636   1.740
24554SOL    HW173686   4.186   5.579   1.670
24554SOL    HW273687   4.162   5.705   1.772
24555SOL     OW73688   4.297   6.456   1.029
24555SOL    HW173689   4.341   6.545   1.020
24555SOL    HW273690   4.234   6.456   1.106
24556SOL     OW73691   5.084   6.448   1.045
24556SOL    HW173692   5.009   6.448   0.979
24556SOL    HW273693   5.121   6.356   1.054
24557SOL     OW73694   4.933   6.111   0.275
24557SOL    HW173695   4.946   6.027   0.329
24557SOL    HW273696   4.904   6.185   0.335
24558SOL     OW73697   4.031   5.799   1.231
24558SOL    HW173698   4.008   5.836   1.321
24558SOL    HW273699   4.001   5.704   1.225
24559SOL     OW73700   3.761   6.896   1.282
24559SOL    HW173701   3.814   6.847   1.350
24559SOL    HW273702   3.783   6.994   1.287
24560SOL     OW73703   4.456   6.220   1.064
24560SOL    HW173704   4.515   6.194   0.988
24560SOL    HW273705   4.428   6.316   1.053
24561SOL     OW73706   5.452   6.521   1.854
24561SOL    HW173707   5.406   6.514   1.765
24561SOL    HW273708   5.390   6.565   1.920
24562SOL     OW73709   4.031   5.649   0.618
24562SOL    HW173710   4.020   5.743   0.651
24562SOL    HW273711   4.026   5.586   0.695
24563SOL     OW73712   5.346   5.953   0.374
24563SOL    HW173713   5.348   5.877   0.438
24563SOL    HW273714   5.298   6.030   0.414
24564SOL     OW73715   4.747   6.352   0.966
24564SOL    HW173716   4.762   6.373   1.062
24564SOL    HW273717   4.717   6.257   0.957
24565SOL     OW73718   4.704   7.159   1.700
24565SOL    HW173719   4.684   7.203   1.612
24565SOL    HW273720   4.743   7.068   1.684
24566SOL     OW73721   5.583   7.104   1.605
24566SOL    HW173722   5.597   7.131   1.510
24566SOL    HW273723   5.666   7.126   1.658
24567SOL     OW73724   4.074   6.484   1.804
24567SOL    HW173725   4.150   6.528   1.852
24567SOL    HW273726   4.109   6.437   1.722
24568SOL     OW73727   5.264   5.860   0.125
24568SOL    HW173728   5.203   5.785   0.148
24568SOL    HW273729   5.286   5.912   0.208
24569SOL     OW73730   5.027   6.424   0.042
24569SOL    HW173731   5.061   6.331   0.057
24569SOL    HW273732   5.045   6.451  -0.053
24570SOL     OW73733   4.792   6.919   0.849
24570SOL    HW173734   4.799   6.835   0.794
24570SOL    HW273735   4.854   6.988   0.813
24571SOL     OW73736   4.043   6.396   0.949
24571SOL    HW173737   4.136   6.432   0.954
24571SOL    HW273738   4.037   6.311   1.001
24572SOL     OW73739   4.063   6.095   1.006
24572SOL    HW173740   4.011   6.012   0.989
24572SOL    HW273741   4.140   6.100   0.942
24573SOL     OW73742   4.862   5.966   1.678
24573SOL    HW173743   4.817   6.029   1.742
24573SOL    HW273744   4.955   5.997   1.661
24574SOL     OW73745   4.884   5.793   1.477
24574SOL    HW173746   4.884   5.857   1.554
24574SOL    HW273747   4.912   5.841   1.394
24575SOL     OW73748   3.732   6.912   0.200
24575SOL    HW173749   3.639   6.933   0.169
24575SOL    HW273750   3.742   6.813   0.213
24576SOL     OW73751   3.812   7.387   0.927
24576SOL    HW173752   3.770   7.301   0.900
24576SOL    HW273753   3.906   7.390   0.893
24577SOL     OW73754   4.228   7.154   0.910
24577SOL    HW173755   4.294   7.228   0.919
24577SOL    HW273756   4.272   7.075   0.868
24578SOL     OW73757   4.726   6.382   1.238
24578SOL    HW173758   4.767   6.350   1.324
24578SOL    HW273759   4.630   6.355   1.235
24579SOL     OW73760   3.764   6.130   1.114
24579SOL    HW173761   3.849   6.097   1.073
24579SOL    HW273762   3.777   6.145   1.212
24580SOL     OW73763   3.913   6.106   1.722
24580SOL    HW173764   3.972   6.066   1.652
24580SOL    HW273765   3.855   6.177   1.681
24581SOL     OW73766   5.093   6.536   1.660
24581SOL    HW173767   5.132   6.625   1.680
24581SOL    HW273768   5.103   6.516   1.563
24582SOL     OW73769   4.539   6.158   0.325
24582SOL    HW173770   4.546   6.069   0.279
24582SOL    HW273771   4.445   6.192   0.317
24583SOL     OW73772   5.381   6.190   1.206
24583SOL    HW173773   5.343   6.121   1.268
24583SOL    HW273774   5.463   6.154   1.162
24584SOL     OW73775   3.976   7.150   1.744
24584SOL    HW173776   3.946   7.207   1.820
24584SOL    HW273777   3.969   7.053   1.770
24585SOL     OW73778   4.395   6.050   1.269
24585SOL    HW173779   4.361   5.961   1.239
24585SOL    HW273780   4.421   6.104   1.189
24586SOL     OW73781   4.654   7.264   1.465
24586SOL    HW173782   4.630   7.246   1.370
24586SOL    HW273783   4.684   7.358   1.475
24587SOL     OW73784   4.197   6.086   0.191
24587SOL    HW173785   4.258   6.166   0.195
24587SOL    HW273786   4.102   6.117   0.198
24588SOL     OW73787   3.883   6.723   1.466
24588SOL    HW173788   3.905   6.662   1.542
24588SOL    HW273789   3.893   6.674   1.380
24589SOL     OW73790   5.071   6.645   1.234
24589SOL    HW173791   5.095   6.582   1.160
24589SOL    HW273792   4.981   6.685   1.216
24590SOL     OW73793   5.026   6.441   0.309
24590SOL    HW173794   4.940   6.410   0.351
24590SOL    HW273795   5.022   6.427   0.210
24591SOL     OW73796   5.483   7.333   1.154
24591SOL    HW173797   5.544   7.363   1.081
24591SOL    HW273798   5.445   7.244   1.132
24592SOL     OW73799   4.976   7.317   1.128
24592SOL    HW173800   5.060   7.322   1.074
24592SOL    HW273801   4.953   7.221   1.146
24593SOL     OW73802   3.807   6.844   1.022
24593SOL    HW173803   3.802   6.843   1.122
24593SOL    HW273804   3.724   6.803   0.984
24594SOL     OW73805   4.412   7.248   1.716
24594SOL    HW173806   4.356   7.329   1.725
24594SOL    HW273807   4.464   7.252   1.630
24595SOL     OW73808   4.627   5.672   0.133
24595SOL    HW173809   4.678   5.673   0.047
24595SOL    HW273810   4.683   5.630   0.204
24596SOL     OW73811   5.450   5.721   0.523
24596SOL    HW173812   5.523   5.704   0.456
24596SOL    HW273813   5.419   5.634   0.561
24597SOL     OW73814   5.112   7.159   0.477
24597SOL    HW173815   5.179   7.171   0.403
24597SOL    HW273816   5.072   7.248   0.500
24598SOL     OW73817   3.854   7.380   1.851
24598SOL    HW173818   3.813   7.306   1.904
24598SOL    HW273819   3.918   7.431   1.909
24599SOL     OW73820   5.004   6.513   0.672
24599SOL    HW173821   5.064   6.432   0.674
24599SOL    HW273822   5.044   6.582   0.612
24600SOL     OW73823   4.554   6.859   1.422
24600SOL    HW173824   4.549   6.892   1.517
24600SOL    HW273825   4.468   6.878   1.376
24601SOL     OW73826   4.396   7.202   0.154
24601SOL    HW173827   4.405   7.212   0.055
24601SOL    HW273828   4.356   7.113   0.175
24602SOL     OW73829   5.374   7.306   1.394
24602SOL    HW173830   5.427   7.316   1.310
24602SOL    HW273831   5.347   7.396   1.428
24603SOL     OW73832   5.565   5.761   0.963
24603SOL    HW173833   5.604   5.676   0.927
24603SOL    HW273834   5.467   5.763   0.944
24604SOL     OW73835   3.987   5.912   0.720
24604SOL    HW173836   3.908   5.963   0.686
24604SOL    HW273837   3.978   5.897   0.818
24605SOL     OW73838   4.918   7.198   0.031
24605SOL    HW173839   4.924   7.105   0.068
24605SOL    HW273840   4.859   7.198  -0.049
24606SOL     OW73841   4.546   6.588   1.372
24606SOL    HW173842   4.586   6.587   1.280
24606SOL    HW273843   4.556   6.680   1.412
24607SOL     OW73844   4.640   6.496   0.291
24607SOL    HW173845   4.703   6.534   0.223
24607SOL    HW273846   4.680   6.413   0.330
24608SOL     OW73847   5.228   7.193   0.044
24608SOL    HW173848   5.136   7.230   0.051
24608SOL    HW273849   5.266   7.213  -0.046
24609SOL     OW73850   4.096   6.874   1.490
24609SOL    HW173851   4.083   6.967   1.456
24609SOL    HW273852   4.012   6.822   1.477
24610SOL     OW73853   5.338   6.878   1.289
24610SOL    HW173854   5.398   6.881   1.369
24610SOL    HW273855   5.263   6.942   1.302
24611SOL     OW73856   4.763   6.684   0.696
24611SOL    HW173857   4.693   6.637   0.750
24611SOL    HW273858   4.822   6.616   0.653
24612SOL     OW73859   4.738   5.822   0.971
24612SOL    HW173860   4.730   5.786   0.878
24612SOL    HW273861   4.736   5.746   1.036
24613SOL     OW73862   4.314   7.073   0.491
24613SOL    HW173863   4.356   7.015   0.421
24613SOL    HW273864   4.270   7.152   0.447
24614SOL     OW73865   5.433   5.971   1.381
24614SOL    HW173866   5.506   6.040   1.385
24614SOL    HW273867   5.461   5.896   1.322
24615SOL     OW73868   3.979   6.934   0.290
24615SOL    HW173869   3.883   6.935   0.263
24615SOL    HW273870   3.991   6.987   0.374
24616SOL     OW73871   3.829   6.599   1.726
24616SOL    HW173872   3.752   6.566   1.780
24616SOL    HW273873   3.914   6.569   1.768
24617SOL     OW73874   4.396   5.789   1.489
24617SOL    HW173875   4.486   5.773   1.449
24617SOL    HW273876   4.404   5.794   1.588
24618SOL     OW73877   5.164   6.442   1.398
24618SOL    HW173878   5.107   6.494   1.335
24618SOL    HW273879   5.260   6.454   1.374
24619SOL     OW73880   3.796   5.752   0.318
24619SOL    HW173881   3.779   5.835   0.264
24619SOL    HW273882   3.886   5.715   0.296
24620SOL     OW73883   4.907   6.921   0.119
24620SOL    HW173884   4.808   6.910   0.121
24620SOL    HW273885   4.941   6.936   0.212
24621SOL     OW73886   4.337   6.428   1.431
24621SOL    HW173887   4.393   6.509   1.414
24621SOL    HW273888   4.396   6.348   1.434
24622SOL     OW73889   5.217   7.353   0.959
24622SOL    HW173890   5.250   7.417   0.890
24622SOL    HW273891   5.283   7.347   1.034
24623SOL     OW73892   4.440   6.151   1.708
24623SOL    HW173893   4.459   6.216   1.782
24623SOL    HW273894   4.500   6.071   1.717
24624SOL     OW73895   5.174   6.806   1.633
24624SOL    HW173896   5.165   6.796   1.732
24624SOL    HW273897   5.270   6.799   1.607
24625SOL     OW73898   4.114   7.327   1.560
24625SOL    HW173899   4.023   7.368   1.558
24625SOL    HW273900   4.107   7.233   1.592
24626SOL     OW73901   5.398   6.469   1.254
24626SOL    HW173902   5.371   6.380   1.217
24626SOL    HW273903   5.399   6.537   1.181
24627SOL     OW73904   4.949   5.911   0.449
24627SOL    HW173905   5.014   5.837   0.438
24627SOL    HW273906   4.969   5.961   0.533
24628SOL     OW73907   4.318   6.331   0.652
24628SOL    HW173908   4.368   6.416   0.633
24628SOL    HW273909   4.230   6.333   0.604
24629SOL     OW73910   5.501   5.928   1.642
24629SOL    HW173911   5.484   5.959   1.548
24629SOL    HW273912   5.417   5.891   1.680
24630SOL     OW73913   5.454   6.520   1.517
24630SOL    HW173914   5.492   6.611   1.532
24630SOL    HW273915   5.446   6.503   1.418
24631SOL     OW73916   4.583   6.960   0.016
24631SOL    HW173917   4.537   6.975   0.104
24631SOL    HW273918   4.627   7.045  -0.014
24632SOL     OW73919   4.385   7.376   0.953
24632SOL    HW173920   4.339   7.464   0.940
24632SOL    HW273921   4.484   7.388   0.946
24633SOL     OW73922   4.583   6.542   0.861
24633SOL    HW173923   4.637   6.473   0.909
24633SOL    HW273924   4.551   6.611   0.927
24634SOL     OW73925   4.807   6.570   0.087
24634SOL    HW173926   4.784   6.623   0.005
24634SOL    HW273927   4.888   6.514   0.068
24635SOL     OW73928   5.585   7.155   0.851
24635SOL    HW173929   5.514   7.143   0.781
24635SOL    HW273930   5.586   7.076   0.911
24636SOL     OW73931   3.945   6.900   1.844
24636SOL    HW173932   3.880   6.827   1.823
24636SOL    HW273933   3.949   6.914   1.942
24637SOL     OW73934   3.803   6.826   0.653
24637SOL    HW173935   3.802   6.779   0.741
24637SOL    HW273936   3.885   6.798   0.602
24638SOL     OW73937   4.396   6.977   1.624
24638SOL    HW173938   4.318   6.927   1.662
24638SOL    HW273939   4.393   7.072   1.655
24639SOL     OW73940   5.548   5.778   1.227
24639SOL    HW173941   5.544   5.688   1.271
24639SOL    HW273942   5.551   5.767   1.128
24640SOL     OW73943   4.152   6.010   0.520
24640SOL    HW173944   4.182   5.938   0.458
24640SOL    HW273945   4.113   5.970   0.603
24641SOL     OW73946   5.429   7.073   1.104
24641SOL    HW173947   5.336   7.048   1.077
24641SOL    HW273948   5.455   7.023   1.186
24642SOL     OW73949   4.041   6.133   1.280
24642SOL    HW173950   4.079   6.074   1.352
24642SOL    HW273951   4.081   6.107   1.192
24643SOL     OW73952   4.536   7.172   0.687
24643SOL    HW173953   4.568   7.182   0.593
24643SOL    HW273954   4.457   7.110   0.689
24644SOL     OW73955   5.148   5.800   1.112
24644SOL    HW173956   5.200   5.735   1.167
24644SOL    HW273957   5.099   5.863   1.173
24645SOL     OW73958   4.725   5.620   1.154
24645SOL    HW173959   4.662   5.548   1.123
24645SOL    HW273960   4.818   5.584   1.154
24646SOL     OW73961   4.494   6.916   0.301
24646SOL    HW173962   4.448   6.829   0.318
24646SOL    HW273963   4.585   6.913   0.342
24647SOL     OW73964   4.342   7.153   1.284
24647SOL    HW173965   4.337   7.235   1.341
24647SOL    HW273966   4.431   7.150   1.239
24648SOL     OW73967   5.076   5.638   0.168
24648SOL    HW173968   5.111   5.597   0.084
24648SOL    HW273969   4.986   5.600   0.188
24649SOL     OW73970   5.024   6.039   0.691
24649SOL    HW173971   4.965   6.119   0.695
24649SOL    HW273972   5.039   6.004   0.784
24650SOL     OW73973   5.317   5.807   0.882
24650SOL    HW173974   5.233   5.806   0.936
24650SOL    HW273975   5.319   5.890   0.826
24651SOL     OW73976   3.763   6.663   0.300
24651SOL    HW173977   3.862   6.652   0.291
24651SOL    HW273978   3.723   6.577   0.332
24652SOL     OW73979   4.599   7.232   0.337
24652SOL    HW173980   4.522   7.197   0.283
24652SOL    HW273981   4.567   7.303   0.399
24653SOL     OW73982   3.954   6.214   1.975
24653SOL    HW173983   3.861   6.212   2.012
24653SOL    HW273984   3.955   6.175   1.883
24654SOL     OW73985   3.949   5.861   2.858
24654SOL    HW173986   3.984   5.844   2.950
24654SOL    HW273987   3.861   5.816   2.846
24655SOL     OW73988   3.743   5.954   2.509
24655SOL    HW173989   3.661   5.997   2.548
24655SOL    HW273990   3.715   5.881   2.446
24656SOL     OW73991   4.293   6.861   3.027
24656SOL    HW173992   4.200   6.854   2.990
24656SOL    HW273993   4.304   6.950   3.071
24657SOL     OW73994   5.279   7.097   2.565
24657SOL    HW173995   5.222   7.081   2.646
24657SOL    HW273996   5.220   7.107   2.485
24658SOL     OW73997   4.859   6.289   2.579
24658SOL    HW173998   4.916   6.367   2.554
24658SOL    HW273999   4.799   6.315   2.655
24659SOL     OW74000   5.479   6.193   2.093
24659SOL    HW174001   5.467   6.180   1.994
24659SOL    HW274002   5.449   6.112   2.142
24660SOL     OW74003   4.492   6.730   2.885
24660SOL    HW174004   4.414   6.747   2.945
24660SOL    HW274005   4.526   6.817   2.849
24661SOL     OW74006   4.574   6.384   3.685
24661SOL    HW174007   4.570   6.460   3.750
24661SOL    HW274008   4.596   6.420   3.594
24662SOL     OW74009   4.409   6.598   2.527
24662SOL    HW174010   4.478   6.582   2.597
24662SOL    HW274011   4.336   6.655   2.565
24663SOL     OW74012   4.410   6.747   3.665
24663SOL    HW174013   4.470   6.826   3.679
24663SOL    HW274014   4.324   6.778   3.624
24664SOL     OW74015   4.059   7.021   2.923
24664SOL    HW174016   3.981   6.990   2.870
24664SOL    HW274017   4.117   7.079   2.866
24665SOL     OW74018   5.184   7.091   3.201
24665SOL    HW174019   5.208   7.185   3.227
24665SOL    HW274020   5.168   7.037   3.283
24666SOL     OW74021   4.162   5.978   3.361
24666SOL    HW174022   4.244   5.922   3.370
24666SOL    HW274023   4.081   5.920   3.365
24667SOL     OW74024   5.327   6.033   2.599
24667SOL    HW174025   5.253   6.079   2.549
24667SOL    HW274026   5.378   6.101   2.652
24668SOL     OW74027   3.955   7.299   2.345
24668SOL    HW174028   3.989   7.376   2.399
24668SOL    HW274029   3.999   7.299   2.255
24669SOL     OW74030   4.851   6.927   3.552
24669SOL    HW174031   4.898   6.927   3.640
24669SOL    HW274032   4.803   6.840   3.541
24670SOL     OW74033   3.954   7.020   2.400
24670SOL    HW174034   3.928   7.116   2.400
24670SOL    HW274035   3.883   6.966   2.445
24671SOL     OW74036   3.964   6.677   2.748
24671SOL    HW174037   3.978   6.593   2.800
24671SOL    HW274038   3.909   6.741   2.803
24672SOL     OW74039   4.344   7.372   3.301
24672SOL    HW174040   4.252   7.355   3.336
24672SOL    HW274041   4.372   7.464   3.327
24673SOL     OW74042   4.330   6.550   1.985
24673SOL    HW174043   4.337   6.634   1.931
24673SOL    HW274044   4.376   6.563   2.073
24674SOL     OW74045   5.318   5.700   3.342
24674SOL    HW174046   5.300   5.767   3.270
24674SOL    HW274047   5.315   5.746   3.431
24675SOL     OW74048   3.846   6.229   2.425
24675SOL    HW174049   3.801   6.141   2.442
24675SOL    HW274050   3.845   6.283   2.509
24676SOL     OW74051   5.566   7.353   2.221
24676SOL    HW174052   5.620   7.324   2.301
24676SOL    HW274053   5.596   7.443   2.192
24677SOL     OW74054   3.751   7.182   1.979
24677SOL    HW174055   3.732   7.086   2.000
24677SOL    HW274056   3.718   7.240   2.054
24678SOL     OW74057   5.413   6.508   2.474
24678SOL    HW174058   5.508   6.479   2.482
24678SOL    HW274059   5.405   6.573   2.399
24679SOL     OW74060   5.365   6.694   2.294
24679SOL    HW174061   5.451   6.696   2.242
24679SOL    HW274062   5.379   6.741   2.382
24680SOL     OW74063   3.837   6.323   3.459
24680SOL    HW174064   3.925   6.310   3.504
24680SOL    HW274065   3.824   6.420   3.437
24681SOL     OW74066   4.337   6.951   2.588
24681SOL    HW174067   4.288   6.864   2.597
24681SOL    HW274068   4.314   6.994   2.501
24682SOL     OW74069   5.017   6.814   3.285
24682SOL    HW174070   5.054   6.741   3.227
24682SOL    HW274071   5.069   6.819   3.370
24683SOL     OW74072   4.533   5.590   2.364
24683SOL    HW174073   4.573   5.681   2.355
24683SOL    HW274074   4.433   5.598   2.370
24684SOL     OW74075   3.921   6.562   3.126
24684SOL    HW174076   4.010   6.517   3.112
24684SOL    HW274077   3.848   6.497   3.107
24685SOL     OW74078   5.249   6.585   2.052
24685SOL    HW174079   5.186   6.509   2.065
24685SOL    HW274080   5.297   6.603   2.138
24686SOL     OW74081   4.911   7.378   3.478
24686SOL    HW174082   4.935   7.438   3.402
24686SOL    HW274083   4.918   7.283   3.448
24687SOL     OW74084   4.041   5.837   3.663
24687SOL    HW174085   4.112   5.908   3.669
24687SOL    HW274086   3.953   5.876   3.691
24688SOL     OW74087   5.190   7.003   2.815
24688SOL    HW174088   5.131   7.009   2.895
24688SOL    HW274089   5.175   6.915   2.769
24689SOL     OW74090   5.391   7.300   2.434
24689SOL    HW174091   5.350   7.277   2.346
24689SOL    HW274092   5.373   7.226   2.499
24690SOL     OW74093   4.322   6.315   2.132
24690SOL    HW174094   4.346   6.384   2.064
24690SOL    HW274095   4.244   6.348   2.186
24691SOL     OW74096   5.005   5.931   2.806
24691SOL    HW174097   4.919   5.881   2.793
24691SOL    HW274098   5.067   5.877   2.862
24692SOL     OW74099   5.300   7.248   2.169
24692SOL    HW174100   5.389   7.294   2.172
24692SOL    HW274101   5.279   7.224   2.074
24693SOL     OW74102   4.531   6.191   3.327
24693SOL    HW174103   4.484   6.188   3.416
24693SOL    HW274104   4.480   6.136   3.261
24694SOL     OW74105   5.118   6.055   3.536
24694SOL    HW174106   5.098   6.098   3.624
24694SOL    HW274107   5.196   5.993   3.545
24695SOL     OW74108   4.697   6.476   3.434
24695SOL    HW174109   4.743   6.392   3.405
24695SOL    HW274110   4.641   6.510   3.359
24696SOL     OW74111   4.715   5.996   3.104
24696SOL    HW174112   4.638   6.030   3.158
24696SOL    HW274113   4.681   5.945   3.025
24697SOL     OW74114   4.765   6.287   2.291
24697SOL    HW174115   4.791   6.283   2.387
24697SOL    HW274116   4.680   6.236   2.277
24698SOL     OW74117   3.800   6.397   2.651
24698SOL    HW174118   3.899   6.385   2.660
24698SOL    HW274119   3.776   6.492   2.672
24699SOL     OW74120   3.854   7.407   3.433
24699SOL    HW174121   3.844   7.392   3.532
24699SOL    HW274122   3.768   7.443   3.397
24700SOL     OW74123   4.589   5.934   2.057
24700SOL    HW174124   4.648   5.997   2.008
24700SOL    HW274125   4.608   5.840   2.028
24701SOL     OW74126   5.443   6.171   3.693
24701SOL    HW174127   5.417   6.260   3.657
24701SOL    HW274128   5.441   6.103   3.620
24702SOL     OW74129   5.086   6.730   2.407
24702SOL    HW174130   5.169   6.701   2.359
24702SOL    HW274131   5.037   6.797   2.351
24703SOL     OW74132   4.274   5.782   2.747
24703SOL    HW174133   4.269   5.777   2.847
24703SOL    HW274134   4.276   5.878   2.718
24704SOL     OW74135   4.732   7.042   2.339
24704SOL    HW174136   4.686   7.114   2.287
24704SOL    HW274137   4.728   7.062   2.437
24705SOL     OW74138   4.075   7.387   2.715
24705SOL    HW174139   4.125   7.301   2.721
24705SOL    HW274140   4.140   7.464   2.712
24706SOL     OW74141   5.519   6.652   2.735
24706SOL    HW174142   5.457   6.637   2.659
24706SOL    HW274143   5.467   6.663   2.820
24707SOL     OW74144   4.951   7.136   3.368
24707SOL    HW174145   4.957   7.059   3.432
24707SOL    HW274146   4.899   7.110   3.288
24708SOL     OW74147   4.045   6.529   2.104
24708SOL    HW174148   4.127   6.568   2.062
24708SOL    HW274149   4.018   6.447   2.055
24709SOL     OW74150   5.182   6.321   2.590
24709SOL    HW174151   5.177   6.256   2.665
24709SOL    HW274152   5.262   6.380   2.603
24710SOL     OW74153   4.185   6.852   3.589
24710SOL    HW174154   4.135   6.853   3.503
24710SOL    HW274155   4.122   6.834   3.665
24711SOL     OW74156   4.835   7.362   2.099
24711SOL    HW174157   4.775   7.300   2.149
24711SOL    HW274158   4.866   7.318   2.014
24712SOL     OW74159   3.926   5.871   3.360
24712SOL    HW174160   3.846   5.931   3.347
24712SOL    HW274161   3.916   5.822   3.446
24713SOL     OW74162   5.356   6.963   1.943
24713SOL    HW174163   5.324   7.057   1.933
24713SOL    HW274164   5.280   6.900   1.931
24714SOL     OW74165   4.188   7.329   2.185
24714SOL    HW174166   4.221   7.368   2.271
24714SOL    HW274167   4.264   7.322   2.120
24715SOL     OW74168   5.124   5.693   2.288
24715SOL    HW174169   5.100   5.656   2.198
24715SOL    HW274170   5.223   5.709   2.292
24716SOL     OW74171   3.973   7.371   3.103
24716SOL    HW174172   4.030   7.306   3.153
24716SOL    HW274173   3.957   7.338   3.010
24717SOL     OW74174   4.664   7.284   2.766
24717SOL    HW174175   4.744   7.227   2.787
24717SOL    HW274176   4.615   7.244   2.689
24718SOL     OW74177   4.106   6.286   2.342
24718SOL    HW174178   4.151   6.196   2.339
24718SOL    HW274179   4.012   6.275   2.375
24719SOL     OW74180   5.271   5.808   3.591
24719SOL    HW174181   5.266   5.845   3.683
24719SOL    HW274182   5.199   5.739   3.579
24720SOL     OW74183   4.338   5.708   1.979
24720SOL    HW174184   4.436   5.686   1.986
24720SOL    HW274185   4.307   5.691   1.886
24721SOL     OW74186   4.505   5.850   3.611
24721SOL    HW174187   4.572   5.789   3.654
24721SOL    HW274188   4.432   5.869   3.676
24722SOL     OW74189   4.612   7.100   3.057
24722SOL    HW174190   4.589   7.075   2.963
24722SOL    HW274191   4.673   7.031   3.096
24723SOL     OW74192   5.075   6.176   3.295
24723SOL    HW174193   5.103   6.133   3.380
24723SOL    HW274194   5.100   6.272   3.296
24724SOL     OW74195   4.527   6.988   2.786
24724SOL    HW174196   4.617   7.002   2.744
24724SOL    HW274197   4.456   6.990   2.715
24725SOL     OW74198   4.646   6.089   2.761
24725SOL    HW174199   4.621   6.080   2.665
24725SOL    HW274200   4.694   6.007   2.792
24726SOL     OW74201   4.263   5.650   2.374
24726SOL    HW174202   4.182   5.651   2.432
24726SOL    HW274203   4.266   5.733   2.319
24727SOL     OW74204   5.158   6.774   1.903
24727SOL    HW174205   5.190   6.698   1.960
24727SOL    HW274206   5.066   6.801   1.933
24728SOL     OW74207   4.021   5.621   2.033
24728SOL    HW174208   4.070   5.705   2.012
24728SOL    HW274209   4.083   5.556   2.078
24729SOL     OW74210   4.659   5.822   2.342
24729SOL    HW174211   4.611   5.863   2.264
24729SOL    HW274212   4.758   5.820   2.323
24730SOL     OW74213   4.800   6.269   3.326
24730SOL    HW174214   4.720   6.208   3.329
24730SOL    HW274215   4.881   6.216   3.302
24731SOL     OW74216   4.951   7.156   2.655
24731SOL    HW174217   4.972   7.230   2.590
24731SOL    HW274218   5.019   7.156   2.728
24732SOL     OW74219   4.183   6.738   2.603
24732SOL    HW174220   4.112   6.711   2.668
24732SOL    HW274221   4.157   6.710   2.510
24733SOL     OW74222   4.995   7.383   2.453
24733SOL    HW174223   5.039   7.447   2.389
24733SOL    HW274224   4.945   7.435   2.523
24734SOL     OW74225   4.756   6.135   1.878
24734SOL    HW174226   4.715   6.217   1.839
24734SOL    HW274227   4.820   6.161   1.951
24735SOL     OW74228   3.802   6.142   3.248
24735SOL    HW174229   3.894   6.141   3.207
24735SOL    HW274230   3.796   6.216   3.315
24736SOL     OW74231   4.285   5.808   3.009
24736SOL    HW174232   4.323   5.724   3.046
24736SOL    HW274233   4.197   5.827   3.053
24737SOL     OW74234   4.590   6.040   2.504
24737SOL    HW174235   4.558   6.112   2.442
24737SOL    HW274236   4.614   5.959   2.451
24738SOL     OW74237   4.741   5.625   2.615
24738SOL    HW174238   4.669   5.630   2.546
24738SOL    HW274239   4.717   5.556   2.684
24739SOL     OW74240   5.153   6.759   2.729
24739SOL    HW174241   5.098   6.675   2.722
24739SOL    HW274242   5.179   6.788   2.637
24740SOL     OW74243   5.190   6.176   2.854
24740SOL    HW174244   5.160   6.081   2.861
24740SOL    HW274245   5.263   6.192   2.920
24741SOL     OW74246   5.581   6.419   2.239
24741SOL    HW174247   5.623   6.355   2.303
24741SOL    HW274248   5.543   6.368   2.161
24742SOL     OW74249   4.212   6.971   2.036
24742SOL    HW174250   4.125   6.956   2.083
24742SOL    HW274251   4.195   6.997   1.941
24743SOL     OW74252   5.388   6.866   2.519
24743SOL    HW174253   5.487   6.874   2.533
24743SOL    HW274254   5.343   6.950   2.550
24744SOL     OW74255   5.114   6.161   1.940
24744SOL    HW174256   5.060   6.140   2.021
24744SOL    HW274257   5.205   6.120   1.949
24745SOL     OW74258   4.251   5.842   2.190
24745SOL    HW174259   4.278   5.783   2.115
24745SOL    HW274260   4.251   5.937   2.159
24746SOL     OW74261   5.478   6.809   3.450
24746SOL    HW174262   5.569   6.770   3.437
24746SOL    HW274263   5.486   6.905   3.474
24747SOL     OW74264   4.788   6.933   3.202
24747SOL    HW174265   4.708   6.910   3.257
24747SOL    HW274266   4.871   6.907   3.251
24748SOL     OW74267   5.316   7.215   3.487
24748SOL    HW174268   5.343   7.249   3.397
24748SOL    HW274269   5.395   7.177   3.533
24749SOL     OW74270   4.835   6.781   2.962
24749SOL    HW174271   4.795   6.825   3.043
24749SOL    HW274272   4.794   6.818   2.879
24750SOL     OW74273   5.362   6.685   2.941
24750SOL    HW174274   5.367   6.766   3.000
24750SOL    HW274275   5.276   6.687   2.890
24751SOL     OW74276   4.639   5.675   3.264
24751SOL    HW174277   4.664   5.655   3.169
24751SOL    HW274278   4.711   5.731   3.306
24752SOL     OW74279   4.704   6.702   3.581
24752SOL    HW174280   4.605   6.708   3.591
24752SOL    HW274281   4.727   6.622   3.525
24753SOL     OW74282   4.429   6.636   2.230
24753SOL    HW174283   4.415   6.643   2.329
24753SOL    HW274284   4.513   6.585   2.212
24754SOL     OW74285   4.134   6.399   3.113
24754SOL    HW174286   4.220   6.411   3.163
24754SOL    HW274287   4.092   6.312   3.140
24755SOL     OW74288   4.998   5.972   3.124
24755SOL    HW174289   5.019   6.046   3.188
24755SOL    HW274290   4.909   5.989   3.081
24756SOL     OW74291   3.788   7.150   3.193
24756SOL    HW174292   3.742   7.232   3.159
24756SOL    HW274293   3.886   7.169   3.202
24757SOL     OW74294   4.091   6.686   2.363
24757SOL    HW174295   4.084   6.769   2.307
24757SOL    HW274296   4.095   6.606   2.303
24758SOL     OW74297   4.290   6.123   2.727
24758SOL    HW174298   4.302   6.189   2.653
24758SOL    HW274299   4.336   6.157   2.810
24759SOL     OW74300   4.976   6.934   2.250
24759SOL    HW174301   5.026   7.011   2.290
24759SOL    HW274302   4.881   6.936   2.282
24760SOL     OW74303   4.996   7.031   3.004
24760SOL    HW174304   5.043   7.044   3.091
24760SOL    HW274305   4.930   6.957   3.013
24761SOL     OW74306   5.306   6.225   2.334
24761SOL    HW174307   5.275   6.286   2.407
24761SOL    HW274308   5.356   6.277   2.265
24762SOL     OW74309   4.078   7.096   3.191
24762SOL    HW174310   4.057   7.052   3.104
24762SOL    HW274311   4.175   7.122   3.194
24763SOL     OW74312   4.126   6.337   3.460
24763SOL    HW174313   4.194   6.392   3.413
24763SOL    HW274314   4.166   6.249   3.487
24764SOL     OW74315   5.311   6.365   3.532
24764SOL    HW174316   5.219   6.403   3.527
24764SOL    HW274317   5.371   6.412   3.467
24765SOL     OW74318   4.737   5.691   3.632
24765SOL    HW174319   4.743   5.776   3.580
24765SOL    HW274320   4.769   5.615   3.575
24766SOL     OW74321   4.228   5.636   3.602
24766SOL    HW174322   4.186   5.579   3.532
24766SOL    HW274323   4.162   5.705   3.634
24767SOL     OW74324   4.297   6.456   2.891
24767SOL    HW174325   4.341   6.545   2.882
24767SOL    HW274326   4.234   6.456   2.968
24768SOL     OW74327   5.084   6.448   2.907
24768SOL    HW174328   5.009   6.448   2.841
24768SOL    HW274329   5.121   6.356   2.916
24769SOL     OW74330   4.933   6.111   2.137
24769SOL    HW174331   4.946   6.027   2.191
24769SOL    HW274332   4.904   6.185   2.197
24770SOL     OW74333   4.031   5.799   3.093
24770SOL    HW174334   4.008   5.836   3.183
24770SOL    HW274335   4.001   5.704   3.087
24771SOL     OW74336   3.761   6.896   3.144
24771SOL    HW174337   3.814   6.847   3.212
24771SOL    HW274338   3.783   6.994   3.149
24772SOL     OW74339   4.456   6.220   2.926
24772SOL    HW174340   4.515   6.194   2.850
24772SOL    HW274341   4.428   6.316   2.915
24773SOL     OW74342   5.452   6.521   3.716
24773SOL    HW174343   5.406   6.514   3.627
24773SOL    HW274344   5.390   6.565   3.782
24774SOL     OW74345   4.031   5.649   2.480
24774SOL    HW174346   4.020   5.743   2.513
24774SOL    HW274347   4.026   5.586   2.557
24775SOL     OW74348   5.346   5.953   2.236
24775SOL    HW174349   5.348   5.877   2.300
24775SOL    HW274350   5.298   6.030   2.276
24776SOL     OW74351   4.747   6.352   2.828
24776SOL    HW174352   4.762   6.373   2.924
24776SOL    HW274353   4.717   6.257   2.819
24777SOL     OW74354   4.704   7.159   3.562
24777SOL    HW174355   4.684   7.203   3.474
24777SOL    HW274356   4.743   7.068   3.546
24778SOL     OW74357   5.583   7.104   3.467
24778SOL    HW174358   5.597   7.131   3.372
24778SOL    HW274359   5.666   7.126   3.520
24779SOL     OW74360   4.074   6.484   3.666
24779SOL    HW174361   4.150   6.528   3.714
24779SOL    HW274362   4.109   6.437   3.584
24780SOL     OW74363   5.264   5.860   1.987
24780SOL    HW174364   5.203   5.785   2.010
24780SOL    HW274365   5.286   5.912   2.070
24781SOL     OW74366   5.027   6.424   1.904
24781SOL    HW174367   5.061   6.331   1.919
24781SOL    HW274368   5.045   6.451   1.809
24782SOL     OW74369   4.792   6.919   2.711
24782SOL    HW174370   4.799   6.835   2.656
24782SOL    HW274371   4.854   6.988   2.675
24783SOL     OW74372   4.043   6.396   2.811
24783SOL    HW174373   4.136   6.432   2.816
24783SOL    HW274374   4.037   6.311   2.863
24784SOL     OW74375   4.063   6.095   2.868
24784SOL    HW174376   4.011   6.012   2.851
24784SOL    HW274377   4.140   6.100   2.804
24785SOL     OW74378   4.862   5.966   3.540
24785SOL    HW174379   4.817   6.029   3.604
24785SOL    HW274380   4.955   5.997   3.523
24786SOL     OW74381   4.884   5.793   3.339
24786SOL    HW174382   4.884   5.857   3.416
24786SOL    HW274383   4.912   5.841   3.256
24787SOL     OW74384   3.732   6.912   2.062
24787SOL    HW174385   3.639   6.933   2.031
24787SOL    HW274386   3.742   6.813   2.075
24788SOL     OW74387   3.812   7.387   2.789
24788SOL    HW174388   3.770   7.301   2.762
24788SOL    HW274389   3.906   7.390   2.755
24789SOL     OW74390   4.228   7.154   2.772
24789SOL    HW174391   4.294   7.228   2.781
24789SOL    HW274392   4.272   7.075   2.730
24790SOL     OW74393   4.726   6.382   3.100
24790SOL    HW174394   4.767   6.350   3.186
24790SOL    HW274395   4.630   6.355   3.097
24791SOL     OW74396   3.764   6.130   2.976
24791SOL    HW174397   3.849   6.097   2.935
24791SOL    HW274398   3.777   6.145   3.074
24792SOL     OW74399   3.913   6.106   3.584
24792SOL    HW174400   3.972   6.066   3.514
24792SOL    HW274401   3.855   6.177   3.543
24793SOL     OW74402   5.093   6.536   3.522
24793SOL    HW174403   5.132   6.625   3.542
24793SOL    HW274404   5.103   6.516   3.425
24794SOL     OW74405   4.539   6.158   2.187
24794SOL    HW174406   4.546   6.069   2.141
24794SOL    HW274407   4.445   6.192   2.179
24795SOL     OW74408   5.381   6.190   3.068
24795SOL    HW174409   5.343   6.121   3.130
24795SOL    HW274410   5.463   6.154   3.024
24796SOL     OW74411   3.976   7.150   3.606
24796SOL    HW174412   3.946   7.207   3.682
24796SOL    HW274413   3.969   7.053   3.632
24797SOL     OW74414   4.395   6.050   3.131
24797SOL    HW174415   4.361   5.961   3.101
24797SOL    HW274416   4.421   6.104   3.051
24798SOL     OW74417   4.654   7.264   3.327
24798SOL    HW174418   4.630   7.246   3.232
24798SOL    HW274419   4.684   7.358   3.337
24799SOL     OW74420   4.197   6.086   2.053
24799SOL    HW174421   4.258   6.166   2.057
24799SOL    HW274422   4.102   6.117   2.060
24800SOL     OW74423   3.883   6.723   3.328
24800SOL    HW174424   3.905   6.662   3.404
24800SOL    HW274425   3.893   6.674   3.242
24801SOL     OW74426   5.071   6.645   3.096
24801SOL    HW174427   5.095   6.582   3.022
24801SOL    HW274428   4.981   6.685   3.078
24802SOL     OW74429   5.026   6.441   2.171
24802SOL    HW174430   4.940   6.410   2.213
24802SOL    HW274431   5.022   6.427   2.072
24803SOL     OW74432   5.483   7.333   3.016
24803SOL    HW174433   5.544   7.363   2.943
24803SOL    HW274434   5.445   7.244   2.994
24804SOL     OW74435   4.976   7.317   2.990
24804SOL    HW174436   5.060   7.322   2.936
24804SOL    HW274437   4.953   7.221   3.008
24805SOL     OW74438   3.807   6.844   2.884
24805SOL    HW174439   3.802   6.843   2.984
24805SOL    HW274440   3.724   6.803   2.846
24806SOL     OW74441   4.412   7.248   3.578
24806SOL    HW174442   4.356   7.329   3.587
24806SOL    HW274443   4.464   7.252   3.492
24807SOL     OW74444   5.450   5.721   2.385
24807SOL    HW174445   5.523   5.704   2.318
24807SOL    HW274446   5.419   5.634   2.423
24808SOL     OW74447   5.112   7.159   2.339
24808SOL    HW174448   5.179   7.171   2.265
24808SOL    HW274449   5.072   7.248   2.362
24809SOL     OW74450   3.854   7.380   3.713
24809SOL    HW174451   3.813   7.306   3.766
24809SOL    HW274452   3.918   7.431   3.771
24810SOL     OW74453   5.004   6.513   2.534
24810SOL    HW174454   5.064   6.432   2.536
24810SOL    HW274455   5.044   6.582   2.474
24811SOL     OW74456   4.554   6.859   3.284
24811SOL    HW174457   4.549   6.892   3.379
24811SOL    HW274458   4.468   6.878   3.238
24812SOL     OW74459   4.396   7.202   2.016
24812SOL    HW174460   4.405   7.212   1.917
24812SOL    HW274461   4.356   7.113   2.037
24813SOL     OW74462   5.374   7.306   3.256
24813SOL    HW174463   5.427   7.316   3.172
24813SOL    HW274464   5.347   7.396   3.290
24814SOL     OW74465   5.565   5.761   2.825
24814SOL    HW174466   5.604   5.676   2.789
24814SOL    HW274467   5.467   5.763   2.806
24815SOL     OW74468   3.987   5.912   2.582
24815SOL    HW174469   3.908   5.963   2.548
24815SOL    HW274470   3.978   5.897   2.680
24816SOL     OW74471   4.918   7.198   1.893
24816SOL    HW174472   4.924   7.105   1.930
24816SOL    HW274473   4.859   7.198   1.813
24817SOL     OW74474   4.546   6.588   3.234
24817SOL    HW174475   4.586   6.587   3.142
24817SOL    HW274476   4.556   6.680   3.274
24818SOL     OW74477   4.640   6.496   2.153
24818SOL    HW174478   4.703   6.534   2.085
24818SOL    HW274479   4.680   6.413   2.192
24819SOL     OW74480   5.228   7.193   1.906
24819SOL    HW174481   5.136   7.230   1.913
24819SOL    HW274482   5.266   7.213   1.816
24820SOL     OW74483   4.096   6.874   3.352
24820SOL    HW174484   4.083   6.967   3.318
24820SOL    HW274485   4.012   6.822   3.339
24821SOL     OW74486   5.338   6.878   3.151
24821SOL    HW174487   5.398   6.881   3.231
24821SOL    HW274488   5.263   6.942   3.164
24822SOL     OW74489   4.763   6.684   2.558
24822SOL    HW174490   4.693   6.637   2.612
24822SOL    HW274491   4.822   6.616   2.515
24823SOL     OW74492   4.738   5.822   2.833
24823SOL    HW174493   4.730   5.786   2.740
24823SOL    HW274494   4.736   5.746   2.898
24824SOL     OW74495   4.314   7.073   2.353
24824SOL    HW174496   4.356   7.015   2.283
24824SOL    HW274497   4.270   7.152   2.309
24825SOL     OW74498   5.433   5.971   3.243
24825SOL    HW174499   5.506   6.040   3.247
24825SOL    HW274500   5.461   5.896   3.184
24826SOL     OW74501   3.979   6.934   2.152
24826SOL    HW174502   3.883   6.935   2.125
24826SOL    HW274503   3.991   6.987   2.236
24827SOL     OW74504   3.829   6.599   3.588
24827SOL    HW174505   3.752   6.566   3.642
24827SOL    HW274506   3.914   6.569   3.630
24828SOL     OW74507   4.396   5.789   3.351
24828SOL    HW174508   4.486   5.773   3.311
24828SOL    HW274509   4.404   5.794   3.450
24829SOL     OW74510   3.799   5.931   1.895
24829SOL    HW174511   3.707   5.903   1.866
24829SOL    HW274512   3.830   6.008   1.839
24830SOL     OW74513   5.164   6.442   3.260
24830SOL    HW174514   5.107   6.494   3.197
24830SOL    HW274515   5.260   6.454   3.236
24831SOL     OW74516   3.796   5.752   2.180
24831SOL    HW174517   3.779   5.835   2.126
24831SOL    HW274518   3.886   5.715   2.158
24832SOL     OW74519   4.907   6.921   1.981
24832SOL    HW174520   4.808   6.910   1.983
24832SOL    HW274521   4.941   6.936   2.074
24833SOL     OW74522   4.337   6.428   3.293
24833SOL    HW174523   4.393   6.509   3.276
24833SOL    HW274524   4.396   6.348   3.296
24834SOL     OW74525   5.217   7.353   2.821
24834SOL    HW174526   5.250   7.417   2.752
24834SOL    HW274527   5.283   7.347   2.896
24835SOL     OW74528   4.440   6.151   3.570
24835SOL    HW174529   4.459   6.216   3.644
24835SOL    HW274530   4.500   6.071   3.579
24836SOL     OW74531   5.174   6.806   3.495
24836SOL    HW174532   5.165   6.796   3.594
24836SOL    HW274533   5.270   6.799   3.469
24837SOL     OW74534   4.114   7.327   3.422
24837SOL    HW174535   4.023   7.368   3.420
24837SOL    HW274536   4.107   7.233   3.454
24838SOL     OW74537   5.398   6.469   3.116
24838SOL    HW174538   5.371   6.380   3.079
24838SOL    HW274539   5.399   6.537   3.043
24839SOL     OW74540   4.949   5.911   2.311
24839SOL    HW174541   5.014   5.837   2.300
24839SOL    HW274542   4.969   5.961   2.395
24840SOL     OW74543   4.318   6.331   2.514
24840SOL    HW174544   4.368   6.416   2.495
24840SOL    HW274545   4.230   6.333   2.466
24841SOL     OW74546   5.501   5.928   3.504
24841SOL    HW174547   5.484   5.959   3.410
24841SOL    HW274548   5.417   5.891   3.542
24842SOL     OW74549   5.454   6.520   3.379
24842SOL    HW174550   5.492   6.611   3.394
24842SOL    HW274551   5.446   6.503   3.280
24843SOL     OW74552   4.583   6.960   1.878
24843SOL    HW174553   4.537   6.975   1.966
24843SOL    HW274554   4.627   7.045   1.848
24844SOL     OW74555   4.385   7.376   2.815
24844SOL    HW174556   4.339   7.464   2.802
24844SOL    HW274557   4.484   7.388   2.808
24845SOL     OW74558   4.583   6.542   2.723
24845SOL    HW174559   4.637   6.473   2.771
24845SOL    HW274560   4.551   6.611   2.789
24846SOL     OW74561   4.807   6.570   1.949
24846SOL    HW174562   4.784   6.623   1.867
24846SOL    HW274563   4.888   6.514   1.930
24847SOL     OW74564   5.585   7.155   2.713
24847SOL    HW174565   5.514   7.143   2.643
24847SOL    HW274566   5.586   7.076   2.773
24848SOL     OW74567   3.945   6.900   3.706
24848SOL    HW174568   3.880   6.827   3.685
24848SOL    HW274569   3.949   6.914   3.804
24849SOL     OW74570   3.803   6.826   2.515
24849SOL    HW174571   3.802   6.779   2.603
24849SOL    HW274572   3.885   6.798   2.464
24850SOL     OW74573   4.396   6.977   3.486
24850SOL    HW174574   4.318   6.927   3.524
24850SOL    HW274575   4.393   7.072   3.517
24851SOL     OW74576   5.548   5.778   3.089
24851SOL    HW174577   5.544   5.688   3.133
24851SOL    HW274578   5.551   5.767   2.990
24852SOL     OW74579   4.152   6.010   2.382
24852SOL    HW174580   4.182   5.938   2.320
24852SOL    HW274581   4.113   5.970   2.465
24853SOL     OW74582   5.429   7.073   2.966
24853SOL    HW174583   5.336   7.048   2.939
24853SOL    HW274584   5.455   7.023   3.048
24854SOL     OW74585   4.041   6.133   3.142
24854SOL    HW174586   4.079   6.074   3.214
24854SOL    HW274587   4.081   6.107   3.054
24855SOL     OW74588   4.536   7.172   2.549
24855SOL    HW174589   4.568   7.182   2.455
24855SOL    HW274590   4.457   7.110   2.551
24856SOL     OW74591   5.148   5.800   2.974
24856SOL    HW174592   5.200   5.735   3.029
24856SOL    HW274593   5.099   5.863   3.035
24857SOL     OW74594   4.725   5.620   3.016
24857SOL    HW174595   4.662   5.548   2.985
24857SOL    HW274596   4.818   5.584   3.016
24858SOL     OW74597   4.494   6.916   2.163
24858SOL    HW174598   4.448   6.829   2.180
24858SOL    HW274599   4.585   6.913   2.204
24859SOL     OW74600   4.342   7.153   3.146
24859SOL    HW174601   4.337   7.235   3.203
24859SOL    HW274602   4.431   7.150   3.101
24860SOL     OW74603   5.076   5.638   2.030
24860SOL    HW174604   5.111   5.597   1.946
24860SOL    HW274605   4.986   5.600   2.050
24861SOL     OW74606   5.024   6.039   2.553
24861SOL    HW174607   4.965   6.119   2.557
24861SOL    HW274608   5.039   6.004   2.646
24862SOL     OW74609   5.317   5.807   2.744
24862SOL    HW174610   5.233   5.806   2.798
24862SOL    HW274611   5.319   5.890   2.688
24863SOL     OW74612   3.763   6.663   2.162
24863SOL    HW174613   3.862   6.652   2.153
24863SOL    HW274614   3.723   6.577   2.194
24864SOL     OW74615   4.599   7.232   2.199
24864SOL    HW174616   4.522   7.197   2.145
24864SOL    HW274617   4.567   7.303   2.261
24865SOL     OW74618   3.954   6.214   3.837
24865SOL    HW174619   3.861   6.212   3.874
24865SOL    HW274620   3.955   6.175   3.745
24866SOL     OW74621   3.949   5.861   4.720
24866SOL    HW174622   3.984   5.844   4.812
24866SOL    HW274623   3.861   5.816   4.708
24867SOL     OW74624   3.743   5.954   4.371
24867SOL    HW174625   3.661   5.997   4.410
24867SOL    HW274626   3.715   5.881   4.308
24868SOL     OW74627   4.293   6.861   4.889
24868SOL    HW174628   4.200   6.854   4.852
24868SOL    HW274629   4.304   6.950   4.933
24869SOL     OW74630   5.279   7.097   4.427
24869SOL    HW174631   5.222   7.081   4.508
24869SOL    HW274632   5.220   7.107   4.347
24870SOL     OW74633   4.859   6.289   4.441
24870SOL    HW174634   4.916   6.367   4.416
24870SOL    HW274635   4.799   6.315   4.517
24871SOL     OW74636   5.479   6.193   3.955
24871SOL    HW174637   5.467   6.180   3.856
24871SOL    HW274638   5.449   6.112   4.004
24872SOL     OW74639   4.492   6.730   4.747
24872SOL    HW174640   4.414   6.747   4.807
24872SOL    HW274641   4.526   6.817   4.711
24873SOL     OW74642   4.574   6.384   5.547
24873SOL    HW174643   4.570   6.460   5.612
24873SOL    HW274644   4.596   6.420   5.456
24874SOL     OW74645   4.409   6.598   4.389
24874SOL    HW174646   4.478   6.582   4.459
24874SOL    HW274647   4.336   6.655   4.427
24875SOL     OW74648   4.410   6.747   5.527
24875SOL    HW174649   4.470   6.826   5.541
24875SOL    HW274650   4.324   6.778   5.486
24876SOL     OW74651   4.059   7.021   4.785
24876SOL    HW174652   3.981   6.990   4.732
24876SOL    HW274653   4.117   7.079   4.728
24877SOL     OW74654   5.184   7.091   5.063
24877SOL    HW174655   5.208   7.185   5.089
24877SOL    HW274656   5.168   7.037   5.145
24878SOL     OW74657   4.162   5.978   5.223
24878SOL    HW174658   4.244   5.922   5.232
24878SOL    HW274659   4.081   5.920   5.227
24879SOL     OW74660   5.327   6.033   4.461
24879SOL    HW174661   5.253   6.079   4.411
24879SOL    HW274662   5.378   6.101   4.514
24880SOL     OW74663   3.955   7.299   4.207
24880SOL    HW174664   3.989   7.376   4.261
24880SOL    HW274665   3.999   7.299   4.117
24881SOL     OW74666   4.851   6.927   5.414
24881SOL    HW174667   4.898   6.927   5.502
24881SOL    HW274668   4.803   6.840   5.403
24882SOL     OW74669   3.954   7.020   4.262
24882SOL    HW174670   3.928   7.116   4.262
24882SOL    HW274671   3.883   6.966   4.307
24883SOL     OW74672   3.964   6.677   4.610
24883SOL    HW174673   3.978   6.593   4.662
24883SOL    HW274674   3.909   6.741   4.665
24884SOL     OW74675   4.344   7.372   5.163
24884SOL    HW174676   4.252   7.355   5.198
24884SOL    HW274677   4.372   7.464   5.189
24885SOL     OW74678   4.330   6.550   3.847
24885SOL    HW174679   4.337   6.634   3.793
24885SOL    HW274680   4.376   6.563   3.935
24886SOL     OW74681   5.318   5.700   5.204
24886SOL    HW174682   5.300   5.767   5.132
24886SOL    HW274683   5.315   5.746   5.293
24887SOL     OW74684   3.846   6.229   4.287
24887SOL    HW174685   3.801   6.141   4.304
24887SOL    HW274686   3.845   6.283   4.371
24888SOL     OW74687   5.566   7.353   4.083
24888SOL    HW174688   5.620   7.324   4.163
24888SOL    HW274689   5.596   7.443   4.054
24889SOL     OW74690   3.751   7.182   3.841
24889SOL    HW174691   3.732   7.086   3.862
24889SOL    HW274692   3.718   7.240   3.916
24890SOL     OW74693   5.413   6.508   4.336
24890SOL    HW174694   5.508   6.479   4.344
24890SOL    HW274695   5.405   6.573   4.261
24891SOL     OW74696   5.365   6.694   4.156
24891SOL    HW174697   5.451   6.696   4.104
24891SOL    HW274698   5.379   6.741   4.244
24892SOL     OW74699   3.837   6.323   5.321
24892SOL    HW174700   3.925   6.310   5.366
24892SOL    HW274701   3.824   6.420   5.299
24893SOL     OW74702   4.337   6.951   4.450
24893SOL    HW174703   4.288   6.864   4.459
24893SOL    HW274704   4.314   6.994   4.363
24894SOL     OW74705   5.017   6.814   5.147
24894SOL    HW174706   5.054   6.741   5.089
24894SOL    HW274707   5.069   6.819   5.232
24895SOL     OW74708   4.533   5.590   4.226
24895SOL    HW174709   4.573   5.681   4.217
24895SOL    HW274710   4.433   5.598   4.232
24896SOL     OW74711   3.921   6.562   4.988
24896SOL    HW174712   4.010   6.517   4.974
24896SOL    HW274713   3.848   6.497   4.969
24897SOL     OW74714   5.249   6.585   3.914
24897SOL    HW174715   5.186   6.509   3.927
24897SOL    HW274716   5.297   6.603   4.000
24898SOL     OW74717   4.911   7.378   5.340
24898SOL    HW174718   4.935   7.438   5.264
24898SOL    HW274719   4.918   7.283   5.310
24899SOL     OW74720   4.041   5.837   5.525
24899SOL    HW174721   4.112   5.908   5.531
24899SOL    HW274722   3.953   5.876   5.553
24900SOL     OW74723   5.190   7.003   4.677
24900SOL    HW174724   5.131   7.009   4.757
24900SOL    HW274725   5.175   6.915   4.631
24901SOL     OW74726   5.391   7.300   4.296
24901SOL    HW174727   5.350   7.277   4.208
24901SOL    HW274728   5.373   7.226   4.361
24902SOL     OW74729   4.322   6.315   3.994
24902SOL    HW174730   4.346   6.384   3.926
24902SOL    HW274731   4.244   6.348   4.048
24903SOL     OW74732   5.005   5.931   4.668
24903SOL    HW174733   4.919   5.881   4.655
24903SOL    HW274734   5.067   5.877   4.724
24904SOL     OW74735   5.300   7.248   4.031
24904SOL    HW174736   5.389   7.294   4.034
24904SOL    HW274737   5.279   7.224   3.936
24905SOL     OW74738   4.531   6.191   5.189
24905SOL    HW174739   4.484   6.188   5.278
24905SOL    HW274740   4.480   6.136   5.123
24906SOL     OW74741   5.118   6.055   5.398
24906SOL    HW174742   5.098   6.098   5.486
24906SOL    HW274743   5.196   5.993   5.407
24907SOL     OW74744   4.697   6.476   5.296
24907SOL    HW174745   4.743   6.392   5.267
24907SOL    HW274746   4.641   6.510   5.221
24908SOL     OW74747   4.715   5.996   4.966
24908SOL    HW174748   4.638   6.030   5.020
24908SOL    HW274749   4.681   5.945   4.887
24909SOL     OW74750   4.765   6.287   4.153
24909SOL    HW174751   4.791   6.283   4.249
24909SOL    HW274752   4.680   6.236   4.139
24910SOL     OW74753   3.800   6.397   4.513
24910SOL    HW174754   3.899   6.385   4.522
24910SOL    HW274755   3.776   6.492   4.534
24911SOL     OW74756   3.854   7.407   5.295
24911SOL    HW174757   3.844   7.392   5.394
24911SOL    HW274758   3.768   7.443   5.259
24912SOL     OW74759   4.589   5.934   3.919
24912SOL    HW174760   4.648   5.997   3.870
24912SOL    HW274761   4.608   5.840   3.890
24913SOL     OW74762   5.443   6.171   5.555
24913SOL    HW174763   5.417   6.260   5.519
24913SOL    HW274764   5.441   6.103   5.482
24914SOL     OW74765   5.086   6.730   4.269
24914SOL    HW174766   5.169   6.701   4.221
24914SOL    HW274767   5.037   6.797   4.213
24915SOL     OW74768   4.274   5.782   4.609
24915SOL    HW174769   4.269   5.777   4.709
24915SOL    HW274770   4.276   5.878   4.580
24916SOL     OW74771   4.732   7.042   4.201
24916SOL    HW174772   4.686   7.114   4.149
24916SOL    HW274773   4.728   7.062   4.299
24917SOL     OW74774   4.075   7.387   4.577
24917SOL    HW174775   4.125   7.301   4.583
24917SOL    HW274776   4.140   7.464   4.574
24918SOL     OW74777   5.519   6.652   4.597
24918SOL    HW174778   5.457   6.637   4.521
24918SOL    HW274779   5.467   6.663   4.682
24919SOL     OW74780   4.951   7.136   5.230
24919SOL    HW174781   4.957   7.059   5.294
24919SOL    HW274782   4.899   7.110   5.150
24920SOL     OW74783   4.045   6.529   3.966
24920SOL    HW174784   4.127   6.568   3.924
24920SOL    HW274785   4.018   6.447   3.917
24921SOL     OW74786   5.182   6.321   4.452
24921SOL    HW174787   5.177   6.256   4.527
24921SOL    HW274788   5.262   6.380   4.465
24922SOL     OW74789   4.185   6.852   5.451
24922SOL    HW174790   4.135   6.853   5.365
24922SOL    HW274791   4.122   6.834   5.527
24923SOL     OW74792   4.835   7.362   3.961
24923SOL    HW174793   4.775   7.300   4.011
24923SOL    HW274794   4.866   7.318   3.876
24924SOL     OW74795   3.926   5.871   5.222
24924SOL    HW174796   3.846   5.931   5.209
24924SOL    HW274797   3.916   5.822   5.308
24925SOL     OW74798   5.356   6.963   3.805
24925SOL    HW174799   5.324   7.057   3.795
24925SOL    HW274800   5.280   6.900   3.793
24926SOL     OW74801   4.188   7.329   4.047
24926SOL    HW174802   4.221   7.368   4.133
24926SOL    HW274803   4.264   7.322   3.982
24927SOL     OW74804   5.124   5.693   4.150
24927SOL    HW174805   5.100   5.656   4.060
24927SOL    HW274806   5.223   5.709   4.154
24928SOL     OW74807   3.973   7.371   4.965
24928SOL    HW174808   4.030   7.306   5.015
24928SOL    HW274809   3.957   7.338   4.872
24929SOL     OW74810   4.664   7.284   4.628
24929SOL    HW174811   4.744   7.227   4.649
24929SOL    HW274812   4.615   7.244   4.551
24930SOL     OW74813   4.106   6.286   4.204
24930SOL    HW174814   4.151   6.196   4.201
24930SOL    HW274815   4.012   6.275   4.237
24931SOL     OW74816   5.271   5.808   5.453
24931SOL    HW174817   5.266   5.845   5.545
24931SOL    HW274818   5.199   5.739   5.441
24932SOL     OW74819   4.338   5.708   3.841
24932SOL    HW174820   4.436   5.686   3.848
24932SOL    HW274821   4.307   5.691   3.748
24933SOL     OW74822   4.505   5.850   5.473
24933SOL    HW174823   4.572   5.789   5.516
24933SOL    HW274824   4.432   5.869   5.538
24934SOL     OW74825   4.612   7.100   4.919
24934SOL    HW174826   4.589   7.075   4.825
24934SOL    HW274827   4.673   7.031   4.958
24935SOL     OW74828   5.075   6.176   5.157
24935SOL    HW174829   5.103   6.133   5.242
24935SOL    HW274830   5.100   6.272   5.158
24936SOL     OW74831   4.527   6.988   4.648
24936SOL    HW174832   4.617   7.002   4.606
24936SOL    HW274833   4.456   6.990   4.577
24937SOL     OW74834   4.646   6.089   4.623
24937SOL    HW174835   4.621   6.080   4.527
24937SOL    HW274836   4.694   6.007   4.654
24938SOL     OW74837   4.263   5.650   4.236
24938SOL    HW174838   4.182   5.651   4.294
24938SOL    HW274839   4.266   5.733   4.181
24939SOL     OW74840   5.158   6.774   3.765
24939SOL    HW174841   5.190   6.698   3.822
24939SOL    HW274842   5.066   6.801   3.795
24940SOL     OW74843   4.021   5.621   3.895
24940SOL    HW174844   4.070   5.705   3.874
24940SOL    HW274845   4.083   5.556   3.940
24941SOL     OW74846   4.659   5.822   4.204
24941SOL    HW174847   4.611   5.863   4.126
24941SOL    HW274848   4.758   5.820   4.185
24942SOL     OW74849   4.800   6.269   5.188
24942SOL    HW174850   4.720   6.208   5.191
24942SOL    HW274851   4.881   6.216   5.164
24943SOL     OW74852   4.951   7.156   4.517
24943SOL    HW174853   4.972   7.230   4.452
24943SOL    HW274854   5.019   7.156   4.590
24944SOL     OW74855   4.183   6.738   4.465
24944SOL    HW174856   4.112   6.711   4.530
24944SOL    HW274857   4.157   6.710   4.372
24945SOL     OW74858   4.995   7.383   4.315
24945SOL    HW174859   5.039   7.447   4.251
24945SOL    HW274860   4.945   7.435   4.385
24946SOL     OW74861   4.756   6.135   3.740
24946SOL    HW174862   4.715   6.217   3.701
24946SOL    HW274863   4.820   6.161   3.813
24947SOL     OW74864   3.802   6.142   5.110
24947SOL    HW174865   3.894   6.141   5.069
24947SOL    HW274866   3.796   6.216   5.177
24948SOL     OW74867   4.285   5.808   4.871
24948SOL    HW174868   4.323   5.724   4.908
24948SOL    HW274869   4.197   5.827   4.915
24949SOL     OW74870   4.590   6.040   4.366
24949SOL    HW174871   4.558   6.112   4.304
24949SOL    HW274872   4.614   5.959   4.313
24950SOL     OW74873   4.741   5.625   4.477
24950SOL    HW174874   4.669   5.630   4.408
24950SOL    HW274875   4.717   5.556   4.546
24951SOL     OW74876   5.153   6.759   4.591
24951SOL    HW174877   5.098   6.675   4.584
24951SOL    HW274878   5.179   6.788   4.499
24952SOL     OW74879   5.190   6.176   4.716
24952SOL    HW174880   5.160   6.081   4.723
24952SOL    HW274881   5.263   6.192   4.782
24953SOL     OW74882   5.581   6.419   4.101
24953SOL    HW174883   5.623   6.355   4.165
24953SOL    HW274884   5.543   6.368   4.023
24954SOL     OW74885   4.212   6.971   3.898
24954SOL    HW174886   4.125   6.956   3.945
24954SOL    HW274887   4.195   6.997   3.803
24955SOL     OW74888   5.388   6.866   4.381
24955SOL    HW174889   5.487   6.874   4.395
24955SOL    HW274890   5.343   6.950   4.412
24956SOL     OW74891   5.114   6.161   3.802
24956SOL    HW174892   5.060   6.140   3.883
24956SOL    HW274893   5.205   6.120   3.811
24957SOL     OW74894   4.251   5.842   4.052
24957SOL    HW174895   4.278   5.783   3.977
24957SOL    HW274896   4.251   5.937   4.021
24958SOL     OW74897   5.478   6.809   5.312
24958SOL    HW174898   5.569   6.770   5.299
24958SOL    HW274899   5.486   6.905   5.336
24959SOL     OW74900   4.788   6.933   5.064
24959SOL    HW174901   4.708   6.910   5.119
24959SOL    HW274902   4.871   6.907   5.113
24960SOL     OW74903   5.316   7.215   5.349
24960SOL    HW174904   5.343   7.249   5.259
24960SOL    HW274905   5.395   7.177   5.395
24961SOL     OW74906   4.835   6.781   4.824
24961SOL    HW174907   4.795   6.825   4.905
24961SOL    HW274908   4.794   6.818   4.741
24962SOL     OW74909   5.362   6.685   4.803
24962SOL    HW174910   5.367   6.766   4.862
24962SOL    HW274911   5.276   6.687   4.752
24963SOL     OW74912   4.639   5.675   5.126
24963SOL    HW174913   4.664   5.655   5.031
24963SOL    HW274914   4.711   5.731   5.168
24964SOL     OW74915   4.704   6.702   5.443
24964SOL    HW174916   4.605   6.708   5.453
24964SOL    HW274917   4.727   6.622   5.387
24965SOL     OW74918   4.429   6.636   4.092
24965SOL    HW174919   4.415   6.643   4.191
24965SOL    HW274920   4.513   6.585   4.074
24966SOL     OW74921   4.134   6.399   4.975
24966SOL    HW174922   4.220   6.411   5.025
24966SOL    HW274923   4.092   6.312   5.002
24967SOL     OW74924   4.998   5.972   4.986
24967SOL    HW174925   5.019   6.046   5.050
24967SOL    HW274926   4.909   5.989   4.943
24968SOL     OW74927   3.788   7.150   5.055
24968SOL    HW174928   3.742   7.232   5.021
24968SOL    HW274929   3.886   7.169   5.064
24969SOL     OW74930   4.091   6.686   4.225
24969SOL    HW174931   4.084   6.769   4.169
24969SOL    HW274932   4.095   6.606   4.165
24970SOL     OW74933   4.290   6.123   4.589
24970SOL    HW174934   4.302   6.189   4.515
24970SOL    HW274935   4.336   6.157   4.672
24971SOL     OW74936   4.976   6.934   4.112
24971SOL    HW174937   5.026   7.011   4.152
24971SOL    HW274938   4.881   6.936   4.144
24972SOL     OW74939   4.996   7.031   4.866
24972SOL    HW174940   5.043   7.044   4.953
24972SOL    HW274941   4.930   6.957   4.875
24973SOL     OW74942   5.306   6.225   4.196
24973SOL    HW174943   5.275   6.286   4.269
24973SOL    HW274944   5.356   6.277   4.127
24974SOL     OW74945   4.078   7.096   5.053
24974SOL    HW174946   4.057   7.052   4.966
24974SOL    HW274947   4.175   7.122   5.056
24975SOL     OW74948   4.126   6.337   5.322
24975SOL    HW174949   4.194   6.392   5.275
24975SOL    HW274950   4.166   6.249   5.349
24976SOL     OW74951   5.311   6.365   5.394
24976SOL    HW174952   5.219   6.403   5.389
24976SOL    HW274953   5.371   6.412   5.329
24977SOL     OW74954   4.737   5.691   5.494
24977SOL    HW174955   4.743   5.776   5.442
24977SOL    HW274956   4.769   5.615   5.437
24978SOL     OW74957   4.228   5.636   5.464
24978SOL    HW174958   4.186   5.579   5.394
24978SOL    HW274959   4.162   5.705   5.496
24979SOL     OW74960   4.297   6.456   4.753
24979SOL    HW174961   4.341   6.545   4.744
24979SOL    HW274962   4.234   6.456   4.830
24980SOL     OW74963   5.084   6.448   4.769
24980SOL    HW174964   5.009   6.448   4.703
24980SOL    HW274965   5.121   6.356   4.778
24981SOL     OW74966   4.933   6.111   3.999
24981SOL    HW174967   4.946   6.027   4.053
24981SOL    HW274968   4.904   6.185   4.059
24982SOL     OW74969   4.031   5.799   4.955
24982SOL    HW174970   4.008   5.836   5.045
24982SOL    HW274971   4.001   5.704   4.949
24983SOL     OW74972   3.761   6.896   5.006
24983SOL    HW174973   3.814   6.847   5.074
24983SOL    HW274974   3.783   6.994   5.011
24984SOL     OW74975   4.456   6.220   4.788
24984SOL    HW174976   4.515   6.194   4.712
24984SOL    HW274977   4.428   6.316   4.777
24985SOL     OW74978   5.452   6.521   5.578
24985SOL    HW174979   5.406   6.514   5.489
24985SOL    HW274980   5.390   6.565   5.644
24986SOL     OW74981   4.031   5.649   4.342
24986SOL    HW174982   4.020   5.743   4.375
24986SOL    HW274983   4.026   5.586   4.419
24987SOL     OW74984   5.346   5.953   4.098
24987SOL    HW174985   5.348   5.877   4.162
24987SOL    HW274986   5.298   6.030   4.138
24988SOL     OW74987   4.747   6.352   4.690
24988SOL    HW174988   4.762   6.373   4.786
24988SOL    HW274989   4.717   6.257   4.681
24989SOL     OW74990   4.704   7.159   5.424
24989SOL    HW174991   4.684   7.203   5.336
24989SOL    HW274992   4.743   7.068   5.408
24990SOL     OW74993   5.583   7.104   5.329
24990SOL    HW174994   5.597   7.131   5.234
24990SOL    HW274995   5.666   7.126   5.382
24991SOL     OW74996   4.074   6.484   5.528
24991SOL    HW174997   4.150   6.528   5.576
24991SOL    HW274998   4.109   6.437   5.446
24992SOL     OW74999   5.264   5.860   3.849
24992SOL    HW175000   5.203   5.785   3.872
24992SOL    HW275001   5.286   5.912   3.932
24993SOL     OW75002   5.027   6.424   3.766
24993SOL    HW175003   5.061   6.331   3.781
24993SOL    HW275004   5.045   6.451   3.671
24994SOL     OW75005   4.792   6.919   4.573
24994SOL    HW175006   4.799   6.835   4.518
24994SOL    HW275007   4.854   6.988   4.537
24995SOL     OW75008   4.043   6.396   4.673
24995SOL    HW175009   4.136   6.432   4.678
24995SOL    HW275010   4.037   6.311   4.725
24996SOL     OW75011   4.063   6.095   4.730
24996SOL    HW175012   4.011   6.012   4.713
24996SOL    HW275013   4.140   6.100   4.666
24997SOL     OW75014   4.862   5.966   5.402
24997SOL    HW175015   4.817   6.029   5.466
24997SOL    HW275016   4.955   5.997   5.385
24998SOL     OW75017   4.884   5.793   5.201
24998SOL    HW175018   4.884   5.857   5.278
24998SOL    HW275019   4.912   5.841   5.118
24999SOL     OW75020   3.732   6.912   3.924
24999SOL    HW175021   3.639   6.933   3.893
24999SOL    HW275022   3.742   6.813   3.937
25000SOL     OW75023   3.812   7.387   4.651
25000SOL    HW175024   3.770   7.301   4.624
25000SOL    HW275025   3.906   7.390   4.617
25001SOL     OW75026   4.228   7.154   4.634
25001SOL    HW175027   4.294   7.228   4.643
25001SOL    HW275028   4.272   7.075   4.592
25002SOL     OW75029   4.726   6.382   4.962
25002SOL    HW175030   4.767   6.350   5.048
25002SOL    HW275031   4.630   6.355   4.959
25003SOL     OW75032   3.764   6.130   4.838
25003SOL    HW175033   3.849   6.097   4.797
25003SOL    HW275034   3.777   6.145   4.936
25004SOL     OW75035   3.913   6.106   5.446
25004SOL    HW175036   3.972   6.066   5.376
25004SOL    HW275037   3.855   6.177   5.405
25005SOL     OW75038   5.093   6.536   5.384
25005SOL    HW175039   5.132   6.625   5.404
25005SOL    HW275040   5.103   6.516   5.287
25006SOL     OW75041   4.539   6.158   4.049
25006SOL    HW175042   4.546   6.069   4.003
25006SOL    HW275043   4.445   6.192   4.041
25007SOL     OW75044   5.381   6.190   4.930
25007SOL    HW175045   5.343   6.121   4.992
25007SOL    HW275046   5.463   6.154   4.886
25008SOL     OW75047   3.976   7.150   5.468
25008SOL    HW175048   3.946   7.207   5.544
25008SOL    HW275049   3.969   7.053   5.494
25009SOL     OW75050   4.395   6.050   4.993
25009SOL    HW175051   4.361   5.961   4.963
25009SOL    HW275052   4.421   6.104   4.913
25010SOL     OW75053   4.654   7.264   5.189
25010SOL    HW175054   4.630   7.246   5.094
25010SOL    HW275055   4.684   7.358   5.199
25011SOL     OW75056   4.197   6.086   3.915
25011SOL    HW175057   4.258   6.166   3.919
25011SOL    HW275058   4.102   6.117   3.922
25012SOL     OW75059   3.883   6.723   5.190
25012SOL    HW175060   3.905   6.662   5.266
25012SOL    HW275061   3.893   6.674   5.104
25013SOL     OW75062   5.071   6.645   4.958
25013SOL    HW175063   5.095   6.582   4.884
25013SOL    HW275064   4.981   6.685   4.940
25014SOL     OW75065   5.026   6.441   4.033
25014SOL    HW175066   4.940   6.410   4.075
25014SOL    HW275067   5.022   6.427   3.934
25015SOL     OW75068   5.483   7.333   4.878
25015SOL    HW175069   5.544   7.363   4.805
25015SOL    HW275070   5.445   7.244   4.856
25016SOL     OW75071   4.976   7.317   4.852
25016SOL    HW175072   5.060   7.322   4.798
25016SOL    HW275073   4.953   7.221   4.870
25017SOL     OW75074   3.807   6.844   4.746
25017SOL    HW175075   3.802   6.843   4.846
25017SOL    HW275076   3.724   6.803   4.708
25018SOL     OW75077   4.412   7.248   5.440
25018SOL    HW175078   4.356   7.329   5.449
25018SOL    HW275079   4.464   7.252   5.354
25019SOL     OW75080   5.450   5.721   4.247
25019SOL    HW175081   5.523   5.704   4.180
25019SOL    HW275082   5.419   5.634   4.285
25020SOL     OW75083   5.112   7.159   4.201
25020SOL    HW175084   5.179   7.171   4.127
25020SOL    HW275085   5.072   7.248   4.224
25021SOL     OW75086   3.854   7.380   5.575
25021SOL    HW175087   3.813   7.306   5.628
25021SOL    HW275088   3.918   7.431   5.633
25022SOL     OW75089   5.004   6.513   4.396
25022SOL    HW175090   5.064   6.432   4.398
25022SOL    HW275091   5.044   6.582   4.336
25023SOL     OW75092   4.554   6.859   5.146
25023SOL    HW175093   4.549   6.892   5.241
25023SOL    HW275094   4.468   6.878   5.100
25024SOL     OW75095   4.396   7.202   3.878
25024SOL    HW175096   4.405   7.212   3.779
25024SOL    HW275097   4.356   7.113   3.899
25025SOL     OW75098   5.374   7.306   5.118
25025SOL    HW175099   5.427   7.316   5.034
25025SOL    HW275100   5.347   7.396   5.152
25026SOL     OW75101   5.565   5.761   4.687
25026SOL    HW175102   5.604   5.676   4.651
25026SOL    HW275103   5.467   5.763   4.668
25027SOL     OW75104   3.987   5.912   4.444
25027SOL    HW175105   3.908   5.963   4.410
25027SOL    HW275106   3.978   5.897   4.542
25028SOL     OW75107   4.918   7.198   3.755
25028SOL    HW175108   4.924   7.105   3.792
25028SOL    HW275109   4.859   7.198   3.675
25029SOL     OW75110   4.546   6.588   5.096
25029SOL    HW175111   4.586   6.587   5.004
25029SOL    HW275112   4.556   6.680   5.136
25030SOL     OW75113   4.640   6.496   4.015
25030SOL    HW175114   4.703   6.534   3.947
25030SOL    HW275115   4.680   6.413   4.054
25031SOL     OW75116   5.228   7.193   3.768
25031SOL    HW175117   5.136   7.230   3.775
25031SOL    HW275118   5.266   7.213   3.678
25032SOL     OW75119   4.096   6.874   5.214
25032SOL    HW175120   4.083   6.967   5.180
25032SOL    HW275121   4.012   6.822   5.201
25033SOL     OW75122   5.338   6.878   5.013
25033SOL    HW175123   5.398   6.881   5.093
25033SOL    HW275124   5.263   6.942   5.026
25034SOL     OW75125   4.763   6.684   4.420
25034SOL    HW175126   4.693   6.637   4.474
25034SOL    HW275127   4.822   6.616   4.377
25035SOL     OW75128   4.738   5.822   4.695
25035SOL    HW175129   4.730   5.786   4.602
25035SOL    HW275130   4.736   5.746   4.760
25036SOL     OW75131   4.314   7.073   4.215
25036SOL    HW175132   4.356   7.015   4.145
25036SOL    HW275133   4.270   7.152   4.171
25037SOL     OW75134   5.433   5.971   5.105
25037SOL    HW175135   5.506   6.040   5.109
25037SOL    HW275136   5.461   5.896   5.046
25038SOL     OW75137   3.979   6.934   4.014
25038SOL    HW175138   3.883   6.935   3.987
25038SOL    HW275139   3.991   6.987   4.098
25039SOL     OW75140   3.829   6.599   5.450
25039SOL    HW175141   3.752   6.566   5.504
25039SOL    HW275142   3.914   6.569   5.492
25040SOL     OW75143   4.396   5.789   5.213
25040SOL    HW175144   4.486   5.773   5.173
25040SOL    HW275145   4.404   5.794   5.312
25041SOL     OW75146   3.799   5.931   3.757
25041SOL    HW175147   3.707   5.903   3.728
25041SOL    HW275148   3.830   6.008   3.701
25042SOL     OW75149   5.164   6.442   5.122
25042SOL    HW175150   5.107   6.494   5.059
25042SOL    HW275151   5.260   6.454   5.098
25043SOL     OW75152   3.796   5.752   4.042
25043SOL    HW175153   3.779   5.835   3.988
25043SOL    HW275154   3.886   5.715   4.020
25044SOL     OW75155   4.907   6.921   3.843
25044SOL    HW175156   4.808   6.910   3.845
25044SOL    HW275157   4.941   6.936   3.936
25045SOL     OW75158   4.337   6.428   5.155
25045SOL    HW175159   4.393   6.509   5.138
25045SOL    HW275160   4.396   6.348   5.158
25046SOL     OW75161   5.217   7.353   4.683
25046SOL    HW175162   5.250   7.417   4.614
25046SOL    HW275163   5.283   7.347   4.758
25047SOL     OW75164   4.440   6.151   5.432
25047SOL    HW175165   4.459   6.216   5.506
25047SOL    HW275166   4.500   6.071   5.441
25048SOL     OW75167   5.174   6.806   5.357
25048SOL    HW175168   5.165   6.796   5.456
25048SOL    HW275169   5.270   6.799   5.331
25049SOL     OW75170   4.114   7.327   5.284
25049SOL    HW175171   4.023   7.368   5.282
25049SOL    HW275172   4.107   7.233   5.316
25050SOL     OW75173   5.398   6.469   4.978
25050SOL    HW175174   5.371   6.380   4.941
25050SOL    HW275175   5.399   6.537   4.905
25051SOL     OW75176   4.949   5.911   4.173
25051SOL    HW175177   5.014   5.837   4.162
25051SOL    HW275178   4.969   5.961   4.257
25052SOL     OW75179   4.318   6.331   4.376
25052SOL    HW175180   4.368   6.416   4.357
25052SOL    HW275181   4.230   6.333   4.328
25053SOL     OW75182   5.501   5.928   5.366
25053SOL    HW175183   5.484   5.959   5.272
25053SOL    HW275184   5.417   5.891   5.404
25054SOL     OW75185   5.454   6.520   5.241
25054SOL    HW175186   5.492   6.611   5.256
25054SOL    HW275187   5.446   6.503   5.142
25055SOL     OW75188   4.583   6.960   3.740
25055SOL    HW175189   4.537   6.975   3.828
25055SOL    HW275190   4.627   7.045   3.710
25056SOL     OW75191   4.385   7.376   4.677
25056SOL    HW175192   4.339   7.464   4.664
25056SOL    HW275193   4.484   7.388   4.670
25057SOL     OW75194   4.583   6.542   4.585
25057SOL    HW175195   4.637   6.473   4.633
25057SOL    HW275196   4.551   6.611   4.651
25058SOL     OW75197   4.807   6.570   3.811
25058SOL    HW175198   4.784   6.623   3.729
25058SOL    HW275199   4.888   6.514   3.792
25059SOL     OW75200   5.585   7.155   4.575
25059SOL    HW175201   5.514   7.143   4.505
25059SOL    HW275202   5.586   7.076   4.635
25060SOL     OW75203   3.945   6.900   5.568
25060SOL    HW175204   3.880   6.827   5.547
25060SOL    HW275205   3.949   6.914   5.666
25061SOL     OW75206   3.803   6.826   4.377
25061SOL    HW175207   3.802   6.779   4.465
25061SOL    HW275208   3.885   6.798   4.326
25062SOL     OW75209   4.396   6.977   5.348
25062SOL    HW175210   4.318   6.927   5.386
25062SOL    HW275211   4.393   7.072   5.379
25063SOL     OW75212   5.548   5.778   4.951
25063SOL    HW175213   5.544   5.688   4.995
25063SOL    HW275214   5.551   5.767   4.852
25064SOL     OW75215   4.152   6.010   4.244
25064SOL    HW175216   4.182   5.938   4.182
25064SOL    HW275217   4.113   5.970   4.327
25065SOL     OW75218   5.429   7.073   4.828
25065SOL    HW175219   5.336   7.048   4.801
25065SOL    HW275220   5.455   7.023   4.910
25066SOL     OW75221   4.041   6.133   5.004
25066SOL    HW175222   4.079   6.074   5.076
25066SOL    HW275223   4.081   6.107   4.916
25067SOL     OW75224   4.536   7.172   4.411
25067SOL    HW175225   4.568   7.182   4.317
25067SOL    HW275226   4.457   7.110   4.413
25068SOL     OW75227   5.148   5.800   4.836
25068SOL    HW175228   5.200   5.735   4.891
25068SOL    HW275229   5.099   5.863   4.897
25069SOL     OW75230   4.725   5.620   4.878
25069SOL    HW175231   4.662   5.548   4.847
25069SOL    HW275232   4.818   5.584   4.878
25070SOL     OW75233   4.494   6.916   4.025
25070SOL    HW175234   4.448   6.829   4.042
25070SOL    HW275235   4.585   6.913   4.066
25071SOL     OW75236   4.342   7.153   5.008
25071SOL    HW175237   4.337   7.235   5.065
25071SOL    HW275238   4.431   7.150   4.963
25072SOL     OW75239   5.076   5.638   3.892
25072SOL    HW175240   5.111   5.597   3.808
25072SOL    HW275241   4.986   5.600   3.912
25073SOL     OW75242   5.024   6.039   4.415
25073SOL    HW175243   4.965   6.119   4.419
25073SOL    HW275244   5.039   6.004   4.508
25074SOL     OW75245   5.317   5.807   4.606
25074SOL    HW175246   5.233   5.806   4.660
25074SOL    HW275247   5.319   5.890   4.550
25075SOL     OW75248   3.763   6.663   4.024
25075SOL    HW175249   3.862   6.652   4.015
25075SOL    HW275250   3.723   6.577   4.056
25076SOL     OW75251   4.599   7.232   4.061
25076SOL    HW175252   4.522   7.197   4.007
25076SOL    HW275253   4.567   7.303   4.123
25077SOL     OW75254   3.954   6.214   5.699
25077SOL    HW175255   3.861   6.212   5.736
25077SOL    HW275256   3.955   6.175   5.607
25078SOL     OW75257   3.949   5.861   6.582
25078SOL    HW175258   3.984   5.844   6.674
25078SOL    HW275259   3.861   5.816   6.570
25079SOL     OW75260   3.743   5.954   6.233
25079SOL    HW175261   3.661   5.997   6.272
25079SOL    HW275262   3.715   5.881   6.170
25080SOL     OW75263   4.293   6.861   6.751
25080SOL    HW175264   4.200   6.854   6.714
25080SOL    HW275265   4.304   6.950   6.795
25081SOL     OW75266   5.279   7.097   6.289
25081SOL    HW175267   5.222   7.081   6.370
25081SOL    HW275268   5.220   7.107   6.209
25082SOL     OW75269   4.859   6.289   6.303
25082SOL    HW175270   4.916   6.367   6.278
25082SOL    HW275271   4.799   6.315   6.379
25083SOL     OW75272   5.479   6.193   5.817
25083SOL    HW175273   5.467   6.180   5.718
25083SOL    HW275274   5.449   6.112   5.866
25084SOL     OW75275   4.492   6.730   6.609
25084SOL    HW175276   4.414   6.747   6.669
25084SOL    HW275277   4.526   6.817   6.573
25085SOL     OW75278   4.574   6.384   7.409
25085SOL    HW175279   4.570   6.460   7.474
25085SOL    HW275280   4.596   6.420   7.318
25086SOL     OW75281   4.409   6.598   6.251
25086SOL    HW175282   4.478   6.582   6.321
25086SOL    HW275283   4.336   6.655   6.289
25087SOL     OW75284   4.410   6.747   7.389
25087SOL    HW175285   4.470   6.826   7.403
25087SOL    HW275286   4.324   6.778   7.348
25088SOL     OW75287   4.059   7.021   6.647
25088SOL    HW175288   3.981   6.990   6.594
25088SOL    HW275289   4.117   7.079   6.590
25089SOL     OW75290   5.184   7.091   6.925
25089SOL    HW175291   5.208   7.185   6.951
25089SOL    HW275292   5.168   7.037   7.007
25090SOL     OW75293   4.162   5.978   7.085
25090SOL    HW175294   4.244   5.922   7.094
25090SOL    HW275295   4.081   5.920   7.089
25091SOL     OW75296   5.327   6.033   6.323
25091SOL    HW175297   5.253   6.079   6.273
25091SOL    HW275298   5.378   6.101   6.376
25092SOL     OW75299   3.955   7.299   6.069
25092SOL    HW175300   3.989   7.376   6.123
25092SOL    HW275301   3.999   7.299   5.979
25093SOL     OW75302   4.851   6.927   7.276
25093SOL    HW175303   4.898   6.927   7.364
25093SOL    HW275304   4.803   6.840   7.265
25094SOL     OW75305   3.954   7.020   6.124
25094SOL    HW175306   3.928   7.116   6.124
25094SOL    HW275307   3.883   6.966   6.169
25095SOL     OW75308   3.964   6.677   6.472
25095SOL    HW175309   3.978   6.593   6.524
25095SOL    HW275310   3.909   6.741   6.527
25096SOL     OW75311   4.344   7.372   7.025
25096SOL    HW175312   4.252   7.355   7.060
25096SOL    HW275313   4.372   7.464   7.051
25097SOL     OW75314   4.330   6.550   5.709
25097SOL    HW175315   4.337   6.634   5.655
25097SOL    HW275316   4.376   6.563   5.797
25098SOL     OW75317   5.318   5.700   7.066
25098SOL    HW175318   5.300   5.767   6.994
25098SOL    HW275319   5.315   5.746   7.155
25099SOL     OW75320   3.846   6.229   6.149
25099SOL    HW175321   3.801   6.141   6.166
25099SOL    HW275322   3.845   6.283   6.233
25100SOL     OW75323   5.566   7.353   5.945
25100SOL    HW175324   5.620   7.324   6.025
25100SOL    HW275325   5.596   7.443   5.916
25101SOL     OW75326   3.751   7.182   5.703
25101SOL    HW175327   3.732   7.086   5.724
25101SOL    HW275328   3.718   7.240   5.778
25102SOL     OW75329   5.413   6.508   6.198
25102SOL    HW175330   5.508   6.479   6.206
25102SOL    HW275331   5.405   6.573   6.123
25103SOL     OW75332   5.365   6.694   6.018
25103SOL    HW175333   5.451   6.696   5.966
25103SOL    HW275334   5.379   6.741   6.106
25104SOL     OW75335   3.837   6.323   7.183
25104SOL    HW175336   3.925   6.310   7.228
25104SOL    HW275337   3.824   6.420   7.161
25105SOL     OW75338   4.337   6.951   6.312
25105SOL    HW175339   4.288   6.864   6.321
25105SOL    HW275340   4.314   6.994   6.225
25106SOL     OW75341   5.017   6.814   7.009
25106SOL    HW175342   5.054   6.741   6.951
25106SOL    HW275343   5.069   6.819   7.094
25107SOL     OW75344   4.533   5.590   6.088
25107SOL    HW175345   4.573   5.681   6.079
25107SOL    HW275346   4.433   5.598   6.094
25108SOL     OW75347   3.921   6.562   6.850
25108SOL    HW175348   4.010   6.517   6.836
25108SOL    HW275349   3.848   6.497   6.831
25109SOL     OW75350   5.249   6.585   5.776
25109SOL    HW175351   5.186   6.509   5.789
25109SOL    HW275352   5.297   6.603   5.862
25110SOL     OW75353   4.911   7.378   7.202
25110SOL    HW175354   4.935   7.438   7.126
25110SOL    HW275355   4.918   7.283   7.172
25111SOL     OW75356   4.041   5.837   7.387
25111SOL    HW175357   4.112   5.908   7.393
25111SOL    HW275358   3.953   5.876   7.415
25112SOL     OW75359   5.190   7.003   6.539
25112SOL    HW175360   5.131   7.009   6.619
25112SOL    HW275361   5.175   6.915   6.493
25113SOL     OW75362   5.391   7.300   6.158
25113SOL    HW175363   5.350   7.277   6.070
25113SOL    HW275364   5.373   7.226   6.223
25114SOL     OW75365   4.322   6.315   5.856
25114SOL    HW175366   4.346   6.384   5.788
25114SOL    HW275367   4.244   6.348   5.910
25115SOL     OW75368   5.005   5.931   6.530
25115SOL    HW175369   4.919   5.881   6.517
25115SOL    HW275370   5.067   5.877   6.586
25116SOL     OW75371   5.300   7.248   5.893
25116SOL    HW175372   5.389   7.294   5.896
25116SOL    HW275373   5.279   7.224   5.798
25117SOL     OW75374   4.531   6.191   7.051
25117SOL    HW175375   4.484   6.188   7.140
25117SOL    HW275376   4.480   6.136   6.985
25118SOL     OW75377   5.118   6.055   7.260
25118SOL    HW175378   5.098   6.098   7.348
25118SOL    HW275379   5.196   5.993   7.269
25119SOL     OW75380   4.697   6.476   7.158
25119SOL    HW175381   4.743   6.392   7.129
25119SOL    HW275382   4.641   6.510   7.083
25120SOL     OW75383   4.715   5.996   6.828
25120SOL    HW175384   4.638   6.030   6.882
25120SOL    HW275385   4.681   5.945   6.749
25121SOL     OW75386   4.765   6.287   6.015
25121SOL    HW175387   4.791   6.283   6.111
25121SOL    HW275388   4.680   6.236   6.001
25122SOL     OW75389   3.800   6.397   6.375
25122SOL    HW175390   3.899   6.385   6.384
25122SOL    HW275391   3.776   6.492   6.396
25123SOL     OW75392   3.854   7.407   7.157
25123SOL    HW175393   3.844   7.392   7.256
25123SOL    HW275394   3.768   7.443   7.121
25124SOL     OW75395   4.589   5.934   5.781
25124SOL    HW175396   4.648   5.997   5.732
25124SOL    HW275397   4.608   5.840   5.752
25125SOL     OW75398   5.443   6.171   7.417
25125SOL    HW175399   5.417   6.260   7.381
25125SOL    HW275400   5.441   6.103   7.344
25126SOL     OW75401   5.086   6.730   6.131
25126SOL    HW175402   5.169   6.701   6.083
25126SOL    HW275403   5.037   6.797   6.075
25127SOL     OW75404   4.274   5.782   6.471
25127SOL    HW175405   4.269   5.777   6.571
25127SOL    HW275406   4.276   5.878   6.442
25128SOL     OW75407   4.732   7.042   6.063
25128SOL    HW175408   4.686   7.114   6.011
25128SOL    HW275409   4.728   7.062   6.161
25129SOL     OW75410   4.075   7.387   6.439
25129SOL    HW175411   4.125   7.301   6.445
25129SOL    HW275412   4.140   7.464   6.436
25130SOL     OW75413   5.519   6.652   6.459
25130SOL    HW175414   5.457   6.637   6.383
25130SOL    HW275415   5.467   6.663   6.544
25131SOL     OW75416   4.951   7.136   7.092
25131SOL    HW175417   4.957   7.059   7.156
25131SOL    HW275418   4.899   7.110   7.012
25132SOL     OW75419   4.045   6.529   5.828
25132SOL    HW175420   4.127   6.568   5.786
25132SOL    HW275421   4.018   6.447   5.779
25133SOL     OW75422   5.182   6.321   6.314
25133SOL    HW175423   5.177   6.256   6.389
25133SOL    HW275424   5.262   6.380   6.327
25134SOL     OW75425   4.185   6.852   7.313
25134SOL    HW175426   4.135   6.853   7.227
25134SOL    HW275427   4.122   6.834   7.389
25135SOL     OW75428   4.835   7.362   5.823
25135SOL    HW175429   4.775   7.300   5.873
25135SOL    HW275430   4.866   7.318   5.738
25136SOL     OW75431   3.926   5.871   7.084
25136SOL    HW175432   3.846   5.931   7.071
25136SOL    HW275433   3.916   5.822   7.170
25137SOL     OW75434   5.356   6.963   5.667
25137SOL    HW175435   5.324   7.057   5.657
25137SOL    HW275436   5.280   6.900   5.655
25138SOL     OW75437   4.188   7.329   5.909
25138SOL    HW175438   4.221   7.368   5.995
25138SOL    HW275439   4.264   7.322   5.844
25139SOL     OW75440   5.124   5.693   6.012
25139SOL    HW175441   5.100   5.656   5.922
25139SOL    HW275442   5.223   5.709   6.016
25140SOL     OW75443   3.973   7.371   6.827
25140SOL    HW175444   4.030   7.306   6.877
25140SOL    HW275445   3.957   7.338   6.734
25141SOL     OW75446   4.664   7.284   6.490
25141SOL    HW175447   4.744   7.227   6.511
25141SOL    HW275448   4.615   7.244   6.413
25142SOL     OW75449   4.106   6.286   6.066
25142SOL    HW175450   4.151   6.196   6.063
25142SOL    HW275451   4.012   6.275   6.099
25143SOL     OW75452   5.271   5.808   7.315
25143SOL    HW175453   5.266   5.845   7.407
25143SOL    HW275454   5.199   5.739   7.303
25144SOL     OW75455   4.338   5.708   5.703
25144SOL    HW175456   4.436   5.686   5.710
25144SOL    HW275457   4.307   5.691   5.610
25145SOL     OW75458   4.505   5.850   7.335
25145SOL    HW175459   4.572   5.789   7.378
25145SOL    HW275460   4.432   5.869   7.400
25146SOL     OW75461   4.612   7.100   6.781
25146SOL    HW175462   4.589   7.075   6.687
25146SOL    HW275463   4.673   7.031   6.820
25147SOL     OW75464   5.075   6.176   7.019
25147SOL    HW175465   5.103   6.133   7.104
25147SOL    HW275466   5.100   6.272   7.020
25148SOL     OW75467   4.527   6.988   6.510
25148SOL    HW175468   4.617   7.002   6.468
25148SOL    HW275469   4.456   6.990   6.439
25149SOL     OW75470   4.646   6.089   6.485
25149SOL    HW175471   4.621   6.080   6.389
25149SOL    HW275472   4.694   6.007   6.516
25150SOL     OW75473   4.263   5.650   6.098
25150SOL    HW175474   4.182   5.651   6.156
25150SOL    HW275475   4.266   5.733   6.043
25151SOL     OW75476   5.158   6.774   5.627
25151SOL    HW175477   5.190   6.698   5.684
25151SOL    HW275478   5.066   6.801   5.657
25152SOL     OW75479   4.021   5.621   5.757
25152SOL    HW175480   4.070   5.705   5.736
25152SOL    HW275481   4.083   5.556   5.802
25153SOL     OW75482   4.659   5.822   6.066
25153SOL    HW175483   4.611   5.863   5.988
25153SOL    HW275484   4.758   5.820   6.047
25154SOL     OW75485   4.800   6.269   7.050
25154SOL    HW175486   4.720   6.208   7.053
25154SOL    HW275487   4.881   6.216   7.026
25155SOL     OW75488   4.951   7.156   6.379
25155SOL    HW175489   4.972   7.230   6.314
25155SOL    HW275490   5.019   7.156   6.452
25156SOL     OW75491   4.183   6.738   6.327
25156SOL    HW175492   4.112   6.711   6.392
25156SOL    HW275493   4.157   6.710   6.234
25157SOL     OW75494   4.995   7.383   6.177
25157SOL    HW175495   5.039   7.447   6.113
25157SOL    HW275496   4.945   7.435   6.247
25158SOL     OW75497   4.756   6.135   5.602
25158SOL    HW175498   4.715   6.217   5.563
25158SOL    HW275499   4.820   6.161   5.675
25159SOL     OW75500   3.802   6.142   6.972
25159SOL    HW175501   3.894   6.141   6.931
25159SOL    HW275502   3.796   6.216   7.039
25160SOL     OW75503   4.285   5.808   6.733
25160SOL    HW175504   4.323   5.724   6.770
25160SOL    HW275505   4.197   5.827   6.777
25161SOL     OW75506   4.590   6.040   6.228
25161SOL    HW175507   4.558   6.112   6.166
25161SOL    HW275508   4.614   5.959   6.175
25162SOL     OW75509   4.741   5.625   6.339
25162SOL    HW175510   4.669   5.630   6.270
25162SOL    HW275511   4.717   5.556   6.408
25163SOL     OW75512   5.153   6.759   6.453
25163SOL    HW175513   5.098   6.675   6.446
25163SOL    HW275514   5.179   6.788   6.361
25164SOL     OW75515   5.190   6.176   6.578
25164SOL    HW175516   5.160   6.081   6.585
25164SOL    HW275517   5.263   6.192   6.644
25165SOL     OW75518   5.581   6.419   5.963
25165SOL    HW175519   5.623   6.355   6.027
25165SOL    HW275520   5.543   6.368   5.885
25166SOL     OW75521   4.212   6.971   5.760
25166SOL    HW175522   4.125   6.956   5.807
25166SOL    HW275523   4.195   6.997   5.665
25167SOL     OW75524   5.388   6.866   6.243
25167SOL    HW175525   5.487   6.874   6.257
25167SOL    HW275526   5.343   6.950   6.274
25168SOL     OW75527   5.114   6.161   5.664
25168SOL    HW175528   5.060   6.140   5.745
25168SOL    HW275529   5.205   6.120   5.673
25169SOL     OW75530   4.251   5.842   5.914
25169SOL    HW175531   4.278   5.783   5.839
25169SOL    HW275532   4.251   5.937   5.883
25170SOL     OW75533   5.478   6.809   7.174
25170SOL    HW175534   5.569   6.770   7.161
25170SOL    HW275535   5.486   6.905   7.198
25171SOL     OW75536   4.788   6.933   6.926
25171SOL    HW175537   4.708   6.910   6.981
25171SOL    HW275538   4.871   6.907   6.975
25172SOL     OW75539   5.316   7.215   7.211
25172SOL    HW175540   5.343   7.249   7.121
25172SOL    HW275541   5.395   7.177   7.257
25173SOL     OW75542   4.835   6.781   6.686
25173SOL    HW175543   4.795   6.825   6.767
25173SOL    HW275544   4.794   6.818   6.603
25174SOL     OW75545   5.362   6.685   6.665
25174SOL    HW175546   5.367   6.766   6.724
25174SOL    HW275547   5.276   6.687   6.614
25175SOL     OW75548   4.639   5.675   6.988
25175SOL    HW175549   4.664   5.655   6.893
25175SOL    HW275550   4.711   5.731   7.030
25176SOL     OW75551   4.704   6.702   7.305
25176SOL    HW175552   4.605   6.708   7.315
25176SOL    HW275553   4.727   6.622   7.249
25177SOL     OW75554   4.429   6.636   5.954
25177SOL    HW175555   4.415   6.643   6.053
25177SOL    HW275556   4.513   6.585   5.936
25178SOL     OW75557   4.134   6.399   6.837
25178SOL    HW175558   4.220   6.411   6.887
25178SOL    HW275559   4.092   6.312   6.864
25179SOL     OW75560   4.998   5.972   6.848
25179SOL    HW175561   5.019   6.046   6.912
25179SOL    HW275562   4.909   5.989   6.805
25180SOL     OW75563   3.788   7.150   6.917
25180SOL    HW175564   3.742   7.232   6.883
25180SOL    HW275565   3.886   7.169   6.926
25181SOL     OW75566   4.091   6.686   6.087
25181SOL    HW175567   4.084   6.769   6.031
25181SOL    HW275568   4.095   6.606   6.027
25182SOL     OW75569   4.290   6.123   6.451
25182SOL    HW175570   4.302   6.189   6.377
25182SOL    HW275571   4.336   6.157   6.534
25183SOL     OW75572   4.976   6.934   5.974
25183SOL    HW175573   5.026   7.011   6.014
25183SOL    HW275574   4.881   6.936   6.006
25184SOL     OW75575   4.996   7.031   6.728
25184SOL    HW175576   5.043   7.044   6.815
25184SOL    HW275577   4.930   6.957   6.737
25185SOL     OW75578   5.306   6.225   6.058
25185SOL    HW175579   5.275   6.286   6.131
25185SOL    HW275580   5.356   6.277   5.989
25186SOL     OW75581   4.078   7.096   6.915
25186SOL    HW175582   4.057   7.052   6.828
25186SOL    HW275583   4.175   7.122   6.918
25187SOL     OW75584   4.126   6.337   7.184
25187SOL    HW175585   4.194   6.392   7.137
25187SOL    HW275586   4.166   6.249   7.211
25188SOL     OW75587   5.311   6.365   7.256
25188SOL    HW175588   5.219   6.403   7.251
25188SOL    HW275589   5.371   6.412   7.191
25189SOL     OW75590   4.737   5.691   7.356
25189SOL    HW175591   4.743   5.776   7.304
25189SOL    HW275592   4.769   5.615   7.299
25190SOL     OW75593   4.228   5.636   7.326
25190SOL    HW175594   4.186   5.579   7.256
25190SOL    HW275595   4.162   5.705   7.358
25191SOL     OW75596   4.297   6.456   6.615
25191SOL    HW175597   4.341   6.545   6.606
25191SOL    HW275598   4.234   6.456   6.692
25192SOL     OW75599   5.084   6.448   6.631
25192SOL    HW175600   5.009   6.448   6.565
25192SOL    HW275601   5.121   6.356   6.640
25193SOL     OW75602   4.933   6.111   5.861
25193SOL    HW175603   4.946   6.027   5.915
25193SOL    HW275604   4.904   6.185   5.921
25194SOL     OW75605   4.031   5.799   6.817
25194SOL    HW175606   4.008   5.836   6.907
25194SOL    HW275607   4.001   5.704   6.811
25195SOL     OW75608   3.761   6.896   6.868
25195SOL    HW175609   3.814   6.847   6.936
25195SOL    HW275610   3.783   6.994   6.873
25196SOL     OW75611   4.456   6.220   6.650
25196SOL    HW175612   4.515   6.194   6.574
25196SOL    HW275613   4.428   6.316   6.639
25197SOL     OW75614   5.452   6.521   7.440
25197SOL    HW175615   5.406   6.514   7.351
25197SOL    HW275616   5.390   6.565   7.506
25198SOL     OW75617   4.031   5.649   6.204
25198SOL    HW175618   4.020   5.743   6.237
25198SOL    HW275619   4.026   5.586   6.281
25199SOL     OW75620   5.346   5.953   5.960
25199SOL    HW175621   5.348   5.877   6.024
25199SOL    HW275622   5.298   6.030   6.000
25200SOL     OW75623   4.747   6.352   6.552
25200SOL    HW175624   4.762   6.373   6.648
25200SOL    HW275625   4.717   6.257   6.543
25201SOL     OW75626   4.704   7.159   7.286
25201SOL    HW175627   4.684   7.203   7.198
25201SOL    HW275628   4.743   7.068   7.270
25202SOL     OW75629   5.583   7.104   7.191
25202SOL    HW175630   5.597   7.131   7.096
25202SOL    HW275631   5.666   7.126   7.244
25203SOL     OW75632   4.074   6.484   7.390
25203SOL    HW175633   4.150   6.528   7.438
25203SOL    HW275634   4.109   6.437   7.308
25204SOL     OW75635   5.264   5.860   5.711
25204SOL    HW175636   5.203   5.785   5.734
25204SOL    HW275637   5.286   5.912   5.794
25205SOL     OW75638   5.027   6.424   5.628
25205SOL    HW175639   5.061   6.331   5.643
25205SOL    HW275640   5.045   6.451   5.533
25206SOL     OW75641   4.792   6.919   6.435
25206SOL    HW175642   4.799   6.835   6.380
25206SOL    HW275643   4.854   6.988   6.399
25207SOL     OW75644   4.043   6.396   6.535
25207SOL    HW175645   4.136   6.432   6.540
25207SOL    HW275646   4.037   6.311   6.587
25208SOL     OW75647   4.063   6.095   6.592
25208SOL    HW175648   4.011   6.012   6.575
25208SOL    HW275649   4.140   6.100   6.528
25209SOL     OW75650   4.862   5.966   7.264
25209SOL    HW175651   4.817   6.029   7.328
25209SOL    HW275652   4.955   5.997   7.247
25210SOL     OW75653   4.884   5.793   7.063
25210SOL    HW175654   4.884   5.857   7.140
25210SOL    HW275655   4.912   5.841   6.980
25211SOL     OW75656   3.732   6.912   5.786
25211SOL    HW175657   3.639   6.933   5.755
25211SOL    HW275658   3.742   6.813   5.799
25212SOL     OW75659   3.812   7.387   6.513
25212SOL    HW175660   3.770   7.301   6.486
25212SOL    HW275661   3.906   7.390   6.479
25213SOL     OW75662   4.228   7.154   6.496
25213SOL    HW175663   4.294   7.228   6.505
25213SOL    HW275664   4.272   7.075   6.454
25214SOL     OW75665   4.726   6.382   6.824
25214SOL    HW175666   4.767   6.350   6.910
25214SOL    HW275667   4.630   6.355   6.821
25215SOL     OW75668   3.764   6.130   6.700
25215SOL    HW175669   3.849   6.097   6.659
25215SOL    HW275670   3.777   6.145   6.798
25216SOL     OW75671   3.913   6.106   7.308
25216SOL    HW175672   3.972   6.066   7.238
25216SOL    HW275673   3.855   6.177   7.267
25217SOL     OW75674   5.093   6.536   7.246
25217SOL    HW175675   5.132   6.625   7.266
25217SOL    HW275676   5.103   6.516   7.149
25218SOL     OW75677   4.539   6.158   5.911
25218SOL    HW175678   4.546   6.069   5.865
25218SOL    HW275679   4.445   6.192   5.903
25219SOL     OW75680   5.381   6.190   6.792
25219SOL    HW175681   5.343   6.121   6.854
25219SOL    HW275682   5.463   6.154   6.748
25220SOL     OW75683   3.976   7.150   7.330
25220SOL    HW175684   3.946   7.207   7.406
25220SOL    HW275685   3.969   7.053   7.356
25221SOL     OW75686   4.395   6.050   6.855
25221SOL    HW175687   4.361   5.961   6.825
25221SOL    HW275688   4.421   6.104   6.775
25222SOL     OW75689   4.654   7.264   7.051
25222SOL    HW175690   4.630   7.246   6.956
25222SOL    HW275691   4.684   7.358   7.061
25223SOL     OW75692   4.197   6.086   5.777
25223SOL    HW175693   4.258   6.166   5.781
25223SOL    HW275694   4.102   6.117   5.784
25224SOL     OW75695   3.883   6.723   7.052
25224SOL    HW175696   3.905   6.662   7.128
25224SOL    HW275697   3.893   6.674   6.966
25225SOL     OW75698   5.071   6.645   6.820
25225SOL    HW175699   5.095   6.582   6.746
25225SOL    HW275700   4.981   6.685   6.802
25226SOL     OW75701   5.026   6.441   5.895
25226SOL    HW175702   4.940   6.410   5.937
25226SOL    HW275703   5.022   6.427   5.796
25227SOL     OW75704   5.483   7.333   6.740
25227SOL    HW175705   5.544   7.363   6.667
25227SOL    HW275706   5.445   7.244   6.718
25228SOL     OW75707   4.976   7.317   6.714
25228SOL    HW175708   5.060   7.322   6.660
25228SOL    HW275709   4.953   7.221   6.732
25229SOL     OW75710   3.807   6.844   6.608
25229SOL    HW175711   3.802   6.843   6.708
25229SOL    HW275712   3.724   6.803   6.570
25230SOL     OW75713   4.412   7.248   7.302
25230SOL    HW175714   4.356   7.329   7.311
25230SOL    HW275715   4.464   7.252   7.216
25231SOL     OW75716   5.450   5.721   6.109
25231SOL    HW175717   5.523   5.704   6.042
25231SOL    HW275718   5.419   5.634   6.147
25232SOL     OW75719   5.112   7.159   6.063
25232SOL    HW175720   5.179   7.171   5.989
25232SOL    HW275721   5.072   7.248   6.086
25233SOL     OW75722   3.854   7.380   7.437
25233SOL    HW175723   3.813   7.306   7.490
25233SOL    HW275724   3.918   7.431   7.495
25234SOL     OW75725   5.004   6.513   6.258
25234SOL    HW175726   5.064   6.432   6.260
25234SOL    HW275727   5.044   6.582   6.198
25235SOL     OW75728   4.554   6.859   7.008
25235SOL    HW175729   4.549   6.892   7.103
25235SOL    HW275730   4.468   6.878   6.962
25236SOL     OW75731   4.396   7.202   5.740
25236SOL    HW175732   4.405   7.212   5.641
25236SOL    HW275733   4.356   7.113   5.761
25237SOL     OW75734   5.374   7.306   6.980
25237SOL    HW175735   5.427   7.316   6.896
25237SOL    HW275736   5.347   7.396   7.014
25238SOL     OW75737   5.565   5.761   6.549
25238SOL    HW175738   5.604   5.676   6.513
25238SOL    HW275739   5.467   5.763   6.530
25239SOL     OW75740   3.987   5.912   6.306
25239SOL    HW175741   3.908   5.963   6.272
25239SOL    HW275742   3.978   5.897   6.404
25240SOL     OW75743   4.918   7.198   5.617
25240SOL    HW175744   4.924   7.105   5.654
25240SOL    HW275745   4.859   7.198   5.537
25241SOL     OW75746   4.546   6.588   6.958
25241SOL    HW175747   4.586   6.587   6.866
25241SOL    HW275748   4.556   6.680   6.998
25242SOL     OW75749   4.640   6.496   5.877
25242SOL    HW175750   4.703   6.534   5.809
25242SOL    HW275751   4.680   6.413   5.916
25243SOL     OW75752   5.228   7.193   5.630
25243SOL    HW175753   5.136   7.230   5.637
25243SOL    HW275754   5.266   7.213   5.540
25244SOL     OW75755   4.096   6.874   7.076
25244SOL    HW175756   4.083   6.967   7.042
25244SOL    HW275757   4.012   6.822   7.063
25245SOL     OW75758   5.338   6.878   6.875
25245SOL    HW175759   5.398   6.881   6.955
25245SOL    HW275760   5.263   6.942   6.888
25246SOL     OW75761   4.763   6.684   6.282
25246SOL    HW175762   4.693   6.637   6.336
25246SOL    HW275763   4.822   6.616   6.239
25247SOL     OW75764   4.738   5.822   6.557
25247SOL    HW175765   4.730   5.786   6.464
25247SOL    HW275766   4.736   5.746   6.622
25248SOL     OW75767   4.314   7.073   6.077
25248SOL    HW175768   4.356   7.015   6.007
25248SOL    HW275769   4.270   7.152   6.033
25249SOL     OW75770   5.433   5.971   6.967
25249SOL    HW175771   5.506   6.040   6.971
25249SOL    HW275772   5.461   5.896   6.908
25250SOL     OW75773   3.979   6.934   5.876
25250SOL    HW175774   3.883   6.935   5.849
25250SOL    HW275775   3.991   6.987   5.960
25251SOL     OW75776   3.829   6.599   7.312
25251SOL    HW175777   3.752   6.566   7.366
25251SOL    HW275778   3.914   6.569   7.354
25252SOL     OW75779   4.396   5.789   7.075
25252SOL    HW175780   4.486   5.773   7.035
25252SOL    HW275781   4.404   5.794   7.174
25253SOL     OW75782   3.799   5.931   5.619
25253SOL    HW175783   3.707   5.903   5.590
25253SOL    HW275784   3.830   6.008   5.563
25254SOL     OW75785   5.164   6.442   6.984
25254SOL    HW175786   5.107   6.494   6.921
25254SOL    HW275787   5.260   6.454   6.960
25255SOL     OW75788   3.796   5.752   5.904
25255SOL    HW175789   3.779   5.835   5.850
25255SOL    HW275790   3.886   5.715   5.882
25256SOL     OW75791   4.907   6.921   5.705
25256SOL    HW175792   4.808   6.910   5.707
25256SOL    HW275793   4.941   6.936   5.798
25257SOL     OW75794   4.337   6.428   7.017
25257SOL    HW175795   4.393   6.509   7.000
25257SOL    HW275796   4.396   6.348   7.020
25258SOL     OW75797   5.217   7.353   6.545
25258SOL    HW175798   5.250   7.417   6.476
25258SOL    HW275799   5.283   7.347   6.620
25259SOL     OW75800   4.440   6.151   7.294
25259SOL    HW175801   4.459   6.216   7.368
25259SOL    HW275802   4.500   6.071   7.303
25260SOL     OW75803   5.174   6.806   7.219
25260SOL    HW175804   5.165   6.796   7.318
25260SOL    HW275805   5.270   6.799   7.193
25261SOL     OW75806   4.114   7.327   7.146
25261SOL    HW175807   4.023   7.368   7.144
25261SOL    HW275808   4.107   7.233   7.178
25262SOL     OW75809   5.398   6.469   6.840
25262SOL    HW175810   5.371   6.380   6.803
25262SOL    HW275811   5.399   6.537   6.767
25263SOL     OW75812   4.949   5.911   6.035
25263SOL    HW175813   5.014   5.837   6.024
25263SOL    HW275814   4.969   5.961   6.119
25264SOL     OW75815   4.318   6.331   6.238
25264SOL    HW175816   4.368   6.416   6.219
25264SOL    HW275817   4.230   6.333   6.190
25265SOL     OW75818   5.501   5.928   7.228
25265SOL    HW175819   5.484   5.959   7.134
25265SOL    HW275820   5.417   5.891   7.266
25266SOL     OW75821   5.454   6.520   7.103
25266SOL    HW175822   5.492   6.611   7.118
25266SOL    HW275823   5.446   6.503   7.004
25267SOL     OW75824   4.583   6.960   5.602
25267SOL    HW175825   4.537   6.975   5.690
25267SOL    HW275826   4.627   7.045   5.572
25268SOL     OW75827   4.385   7.376   6.539
25268SOL    HW175828   4.339   7.464   6.526
25268SOL    HW275829   4.484   7.388   6.532
25269SOL     OW75830   4.583   6.542   6.447
25269SOL    HW175831   4.637   6.473   6.495
25269SOL    HW275832   4.551   6.611   6.513
25270SOL     OW75833   4.807   6.570   5.673
25270SOL    HW175834   4.784   6.623   5.591
25270SOL    HW275835   4.888   6.514   5.654
25271SOL     OW75836   5.585   7.155   6.437
25271SOL    HW175837   5.514   7.143   6.367
25271SOL    HW275838   5.586   7.076   6.497
25272SOL     OW75839   3.945   6.900   7.430
25272SOL    HW175840   3.880   6.827   7.409
25272SOL    HW275841   3.949   6.914   7.528
25273SOL     OW75842   3.803   6.826   6.239
25273SOL    HW175843   3.802   6.779   6.327
25273SOL    HW275844   3.885   6.798   6.188
25274SOL     OW75845   4.396   6.977   7.210
25274SOL    HW175846   4.318   6.927   7.248
25274SOL    HW275847   4.393   7.072   7.241
25275SOL     OW75848   5.548   5.778   6.813
25275SOL    HW175849   5.544   5.688   6.857
25275SOL    HW275850   5.551   5.767   6.714
25276SOL     OW75851   4.152   6.010   6.106
25276SOL    HW175852   4.182   5.938   6.044
25276SOL    HW275853   4.113   5.970   6.189
25277SOL     OW75854   5.429   7.073   6.690
25277SOL    HW175855   5.336   7.048   6.663
25277SOL    HW275856   5.455   7.023   6.772
25278SOL     OW75857   4.041   6.133   6.866
25278SOL    HW175858   4.079   6.074   6.938
25278SOL    HW275859   4.081   6.107   6.778
25279SOL     OW75860   4.536   7.172   6.273
25279SOL    HW175861   4.568   7.182   6.179
25279SOL    HW275862   4.457   7.110   6.275
25280SOL     OW75863   5.148   5.800   6.698
25280SOL    HW175864   5.200   5.735   6.753
25280SOL    HW275865   5.099   5.863   6.759
25281SOL     OW75866   4.725   5.620   6.740
25281SOL    HW175867   4.662   5.548   6.709
25281SOL    HW275868   4.818   5.584   6.740
25282SOL     OW75869   4.494   6.916   5.887
25282SOL    HW175870   4.448   6.829   5.904
25282SOL    HW275871   4.585   6.913   5.928
25283SOL     OW75872   4.342   7.153   6.870
25283SOL    HW175873   4.337   7.235   6.927
25283SOL    HW275874   4.431   7.150   6.825
25284SOL     OW75875   5.076   5.638   5.754
25284SOL    HW175876   5.111   5.597   5.670
25284SOL    HW275877   4.986   5.600   5.774
25285SOL     OW75878   5.024   6.039   6.277
25285SOL    HW175879   4.965   6.119   6.281
25285SOL    HW275880   5.039   6.004   6.370
25286SOL     OW75881   5.317   5.807   6.468
25286SOL    HW175882   5.233   5.806   6.522
25286SOL    HW275883   5.319   5.890   6.412
25287SOL     OW75884   3.763   6.663   5.886
25287SOL    HW175885   3.862   6.652   5.877
25287SOL    HW275886   3.723   6.577   5.918
25288SOL     OW75887   4.599   7.232   5.923
25288SOL    HW175888   4.522   7.197   5.869
25288SOL    HW275889   4.567   7.303   5.985
25289SOL     OW75890   3.954   6.214   7.561
25289SOL    HW175891   3.861   6.212   7.598
25289SOL    HW275892   3.955   6.175   7.469
25290SOL     OW75893   3.949   5.861   8.444
25290SOL    HW175894   3.984   5.844   8.536
25290SOL    HW275895   3.861   5.816   8.432
25291SOL     OW75896   3.743   5.954   8.095
25291SOL    HW175897   3.661   5.997   8.134
25291SOL    HW275898   3.715   5.881   8.032
25292SOL     OW75899   4.293   6.861   8.613
25292SOL    HW175900   4.200   6.854   8.576
25292SOL    HW275901   4.304   6.950   8.657
25293SOL     OW75902   5.279   7.097   8.151
25293SOL    HW175903   5.222   7.081   8.232
25293SOL    HW275904   5.220   7.107   8.071
25294SOL     OW75905   4.859   6.289   8.165
25294SOL    HW175906   4.916   6.367   8.140
25294SOL    HW275907   4.799   6.315   8.241
25295SOL     OW75908   5.479   6.193   7.679
25295SOL    HW175909   5.467   6.180   7.580
25295SOL    HW275910   5.449   6.112   7.728
25296SOL     OW75911   4.492   6.730   8.471
25296SOL    HW175912   4.414   6.747   8.531
25296SOL    HW275913   4.526   6.817   8.435
25297SOL     OW75914   4.574   6.384   9.271
25297SOL    HW175915   4.570   6.460   9.336
25297SOL    HW275916   4.596   6.420   9.180
25298SOL     OW75917   4.409   6.598   8.113
25298SOL    HW175918   4.478   6.582   8.183
25298SOL    HW275919   4.336   6.655   8.151
25299SOL     OW75920   4.410   6.747   9.251
25299SOL    HW175921   4.470   6.826   9.265
25299SOL    HW275922   4.324   6.778   9.210
25300SOL     OW75923   4.059   7.021   8.509
25300SOL    HW175924   3.981   6.990   8.456
25300SOL    HW275925   4.117   7.079   8.452
25301SOL     OW75926   5.184   7.091   8.787
25301SOL    HW175927   5.208   7.185   8.813
25301SOL    HW275928   5.168   7.037   8.869
25302SOL     OW75929   4.162   5.978   8.947
25302SOL    HW175930   4.244   5.922   8.956
25302SOL    HW275931   4.081   5.920   8.951
25303SOL     OW75932   5.327   6.033   8.185
25303SOL    HW175933   5.253   6.079   8.135
25303SOL    HW275934   5.378   6.101   8.238
25304SOL     OW75935   3.955   7.299   7.931
25304SOL    HW175936   3.989   7.376   7.985
25304SOL    HW275937   3.999   7.299   7.841
25305SOL     OW75938   4.851   6.927   9.138
25305SOL    HW175939   4.898   6.927   9.226
25305SOL    HW275940   4.803   6.840   9.127
25306SOL     OW75941   3.954   7.020   7.986
25306SOL    HW175942   3.928   7.116   7.986
25306SOL    HW275943   3.883   6.966   8.031
25307SOL     OW75944   3.964   6.677   8.334
25307SOL    HW175945   3.978   6.593   8.386
25307SOL    HW275946   3.909   6.741   8.389
25308SOL     OW75947   4.344   7.372   8.887
25308SOL    HW175948   4.252   7.355   8.922
25308SOL    HW275949   4.372   7.464   8.913
25309SOL     OW75950   4.330   6.550   7.571
25309SOL    HW175951   4.337   6.634   7.517
25309SOL    HW275952   4.376   6.563   7.659
25310SOL     OW75953   5.318   5.700   8.928
25310SOL    HW175954   5.300   5.767   8.856
25310SOL    HW275955   5.315   5.746   9.017
25311SOL     OW75956   3.846   6.229   8.011
25311SOL    HW175957   3.801   6.141   8.028
25311SOL    HW275958   3.845   6.283   8.095
25312SOL     OW75959   5.566   7.353   7.807
25312SOL    HW175960   5.620   7.324   7.887
25312SOL    HW275961   5.596   7.443   7.778
25313SOL     OW75962   3.751   7.182   7.565
25313SOL    HW175963   3.732   7.086   7.586
25313SOL    HW275964   3.718   7.240   7.640
25314SOL     OW75965   5.413   6.508   8.060
25314SOL    HW175966   5.508   6.479   8.068
25314SOL    HW275967   5.405   6.573   7.985
25315SOL     OW75968   5.365   6.694   7.880
25315SOL    HW175969   5.451   6.696   7.828
25315SOL    HW275970   5.379   6.741   7.968
25316SOL     OW75971   3.837   6.323   9.045
25316SOL    HW175972   3.925   6.310   9.090
25316SOL    HW275973   3.824   6.420   9.023
25317SOL     OW75974   4.337   6.951   8.174
25317SOL    HW175975   4.288   6.864   8.183
25317SOL    HW275976   4.314   6.994   8.087
25318SOL     OW75977   5.017   6.814   8.871
25318SOL    HW175978   5.054   6.741   8.813
25318SOL    HW275979   5.069   6.819   8.956
25319SOL     OW75980   4.533   5.590   7.950
25319SOL    HW175981   4.573   5.681   7.941
25319SOL    HW275982   4.433   5.598   7.956
25320SOL     OW75983   3.921   6.562   8.712
25320SOL    HW175984   4.010   6.517   8.698
25320SOL    HW275985   3.848   6.497   8.693
25321SOL     OW75986   5.249   6.585   7.638
25321SOL    HW175987   5.186   6.509   7.651
25321SOL    HW275988   5.297   6.603   7.724
25322SOL     OW75989   4.911   7.378   9.064
25322SOL    HW175990   4.935   7.438   8.988
25322SOL    HW275991   4.918   7.283   9.034
25323SOL     OW75992   4.041   5.837   9.249
25323SOL    HW175993   4.112   5.908   9.255
25323SOL    HW275994   3.953   5.876   9.277
25324SOL     OW75995   5.190   7.003   8.401
25324SOL    HW175996   5.131   7.009   8.481
25324SOL    HW275997   5.175   6.915   8.355
25325SOL     OW75998   5.391   7.300   8.020
25325SOL    HW175999   5.350   7.277   7.932
25325SOL    HW276000   5.373   7.226   8.085
25326SOL     OW76001   4.322   6.315   7.718
25326SOL    HW176002   4.346   6.384   7.650
25326SOL    HW276003   4.244   6.348   7.772
25327SOL     OW76004   5.005   5.931   8.392
25327SOL    HW176005   4.919   5.881   8.379
25327SOL    HW276006   5.067   5.877   8.448
25328SOL     OW76007   5.300   7.248   7.755
25328SOL    HW176008   5.389   7.294   7.758
25328SOL    HW276009   5.279   7.224   7.660
25329SOL     OW76010   4.531   6.191   8.913
25329SOL    HW176011   4.484   6.188   9.002
25329SOL    HW276012   4.480   6.136   8.847
25330SOL     OW76013   5.118   6.055   9.122
25330SOL    HW176014   5.098   6.098   9.210
25330SOL    HW276015   5.196   5.993   9.131
25331SOL     OW76016   4.697   6.476   9.020
25331SOL    HW176017   4.743   6.392   8.991
25331SOL    HW276018   4.641   6.510   8.945
25332SOL     OW76019   4.715   5.996   8.690
25332SOL    HW176020   4.638   6.030   8.744
25332SOL    HW276021   4.681   5.945   8.611
25333SOL     OW76022   4.765   6.287   7.877
25333SOL    HW176023   4.791   6.283   7.973
25333SOL    HW276024   4.680   6.236   7.863
25334SOL     OW76025   3.800   6.397   8.237
25334SOL    HW176026   3.899   6.385   8.246
25334SOL    HW276027   3.776   6.492   8.258
25335SOL     OW76028   3.854   7.407   9.019
25335SOL    HW176029   3.844   7.392   9.118
25335SOL    HW276030   3.768   7.443   8.983
25336SOL     OW76031   4.589   5.934   7.643
25336SOL    HW176032   4.648   5.997   7.594
25336SOL    HW276033   4.608   5.840   7.614
25337SOL     OW76034   5.443   6.171   9.279
25337SOL    HW176035   5.417   6.260   9.243
25337SOL    HW276036   5.441   6.103   9.206
25338SOL     OW76037   5.086   6.730   7.993
25338SOL    HW176038   5.169   6.701   7.945
25338SOL    HW276039   5.037   6.797   7.937
25339SOL     OW76040   4.274   5.782   8.333
25339SOL    HW176041   4.269   5.777   8.433
25339SOL    HW276042   4.276   5.878   8.304
25340SOL     OW76043   4.732   7.042   7.925
25340SOL    HW176044   4.686   7.114   7.873
25340SOL    HW276045   4.728   7.062   8.023
25341SOL     OW76046   4.075   7.387   8.301
25341SOL    HW176047   4.125   7.301   8.307
25341SOL    HW276048   4.140   7.464   8.298
25342SOL     OW76049   5.519   6.652   8.321
25342SOL    HW176050   5.457   6.637   8.245
25342SOL    HW276051   5.467   6.663   8.406
25343SOL     OW76052   4.951   7.136   8.954
25343SOL    HW176053   4.957   7.059   9.018
25343SOL    HW276054   4.899   7.110   8.874
25344SOL     OW76055   4.045   6.529   7.690
25344SOL    HW176056   4.127   6.568   7.648
25344SOL    HW276057   4.018   6.447   7.641
25345SOL     OW76058   5.182   6.321   8.176
25345SOL    HW176059   5.177   6.256   8.251
25345SOL    HW276060   5.262   6.380   8.189
25346SOL     OW76061   4.185   6.852   9.175
25346SOL    HW176062   4.135   6.853   9.089
25346SOL    HW276063   4.122   6.834   9.251
25347SOL     OW76064   4.835   7.362   7.685
25347SOL    HW176065   4.775   7.300   7.735
25347SOL    HW276066   4.866   7.318   7.600
25348SOL     OW76067   3.926   5.871   8.946
25348SOL    HW176068   3.846   5.931   8.933
25348SOL    HW276069   3.916   5.822   9.032
25349SOL     OW76070   5.356   6.963   7.529
25349SOL    HW176071   5.324   7.057   7.519
25349SOL    HW276072   5.280   6.900   7.517
25350SOL     OW76073   4.188   7.329   7.771
25350SOL    HW176074   4.221   7.368   7.857
25350SOL    HW276075   4.264   7.322   7.706
25351SOL     OW76076   5.124   5.693   7.874
25351SOL    HW176077   5.100   5.656   7.784
25351SOL    HW276078   5.223   5.709   7.878
25352SOL     OW76079   3.973   7.371   8.689
25352SOL    HW176080   4.030   7.306   8.739
25352SOL    HW276081   3.957   7.338   8.596
25353SOL     OW76082   4.664   7.284   8.352
25353SOL    HW176083   4.744   7.227   8.373
25353SOL    HW276084   4.615   7.244   8.275
25354SOL     OW76085   4.106   6.286   7.928
25354SOL    HW176086   4.151   6.196   7.925
25354SOL    HW276087   4.012   6.275   7.961
25355SOL     OW76088   5.271   5.808   9.177
25355SOL    HW176089   5.266   5.845   9.269
25355SOL    HW276090   5.199   5.739   9.165
25356SOL     OW76091   4.338   5.708   7.565
25356SOL    HW176092   4.436   5.686   7.572
25356SOL    HW276093   4.307   5.691   7.472
25357SOL     OW76094   4.505   5.850   9.197
25357SOL    HW176095   4.572   5.789   9.240
25357SOL    HW276096   4.432   5.869   9.262
25358SOL     OW76097   4.612   7.100   8.643
25358SOL    HW176098   4.589   7.075   8.549
25358SOL    HW276099   4.673   7.031   8.682
25359SOL     OW76100   5.075   6.176   8.881
25359SOL    HW176101   5.103   6.133   8.966
25359SOL    HW276102   5.100   6.272   8.882
25360SOL     OW76103   4.527   6.988   8.372
25360SOL    HW176104   4.617   7.002   8.330
25360SOL    HW276105   4.456   6.990   8.301
25361SOL     OW76106   4.646   6.089   8.347
25361SOL    HW176107   4.621   6.080   8.251
25361SOL    HW276108   4.694   6.007   8.378
25362SOL     OW76109   4.263   5.650   7.960
25362SOL    HW176110   4.182   5.651   8.018
25362SOL    HW276111   4.266   5.733   7.905
25363SOL     OW76112   5.158   6.774   7.489
25363SOL    HW176113   5.190   6.698   7.546
25363SOL    HW276114   5.066   6.801   7.519
25364SOL     OW76115   4.021   5.621   7.619
25364SOL    HW176116   4.070   5.705   7.598
25364SOL    HW276117   4.083   5.556   7.664
25365SOL     OW76118   4.659   5.822   7.928
25365SOL    HW176119   4.611   5.863   7.850
25365SOL    HW276120   4.758   5.820   7.909
25366SOL     OW76121   4.800   6.269   8.912
25366SOL    HW176122   4.720   6.208   8.915
25366SOL    HW276123   4.881   6.216   8.888
25367SOL     OW76124   4.951   7.156   8.241
25367SOL    HW176125   4.972   7.230   8.176
25367SOL    HW276126   5.019   7.156   8.314
25368SOL     OW76127   4.183   6.738   8.189
25368SOL    HW176128   4.112   6.711   8.254
25368SOL    HW276129   4.157   6.710   8.096
25369SOL     OW76130   4.995   7.383   8.039
25369SOL    HW176131   5.039   7.447   7.975
25369SOL    HW276132   4.945   7.435   8.109
25370SOL     OW76133   4.756   6.135   7.464
25370SOL    HW176134   4.715   6.217   7.425
25370SOL    HW276135   4.820   6.161   7.537
25371SOL     OW76136   3.802   6.142   8.834
25371SOL    HW176137   3.894   6.141   8.793
25371SOL    HW276138   3.796   6.216   8.901
25372SOL     OW76139   4.285   5.808   8.595
25372SOL    HW176140   4.323   5.724   8.632
25372SOL    HW276141   4.197   5.827   8.639
25373SOL     OW76142   4.590   6.040   8.090
25373SOL    HW176143   4.558   6.112   8.028
25373SOL    HW276144   4.614   5.959   8.037
25374SOL     OW76145   4.741   5.625   8.201
25374SOL    HW176146   4.669   5.630   8.132
25374SOL    HW276147   4.717   5.556   8.270
25375SOL     OW76148   5.153   6.759   8.315
25375SOL    HW176149   5.098   6.675   8.308
25375SOL    HW276150   5.179   6.788   8.223
25376SOL     OW76151   5.190   6.176   8.440
25376SOL    HW176152   5.160   6.081   8.447
25376SOL    HW276153   5.263   6.192   8.506
25377SOL     OW76154   5.581   6.419   7.825
25377SOL    HW176155   5.623   6.355   7.889
25377SOL    HW276156   5.543   6.368   7.747
25378SOL     OW76157   4.212   6.971   7.622
25378SOL    HW176158   4.125   6.956   7.669
25378SOL    HW276159   4.195   6.997   7.527
25379SOL     OW76160   5.388   6.866   8.105
25379SOL    HW176161   5.487   6.874   8.119
25379SOL    HW276162   5.343   6.950   8.136
25380SOL     OW76163   5.114   6.161   7.526
25380SOL    HW176164   5.060   6.140   7.607
25380SOL    HW276165   5.205   6.120   7.535
25381SOL     OW76166   4.251   5.842   7.776
25381SOL    HW176167   4.278   5.783   7.701
25381SOL    HW276168   4.251   5.937   7.745
25382SOL     OW76169   5.478   6.809   9.036
25382SOL    HW176170   5.569   6.770   9.023
25382SOL    HW276171   5.486   6.905   9.060
25383SOL     OW76172   4.788   6.933   8.788
25383SOL    HW176173   4.708   6.910   8.843
25383SOL    HW276174   4.871   6.907   8.837
25384SOL     OW76175   5.316   7.215   9.073
25384SOL    HW176176   5.343   7.249   8.983
25384SOL    HW276177   5.395   7.177   9.119
25385SOL     OW76178   4.835   6.781   8.548
25385SOL    HW176179   4.795   6.825   8.629
25385SOL    HW276180   4.794   6.818   8.465
25386SOL     OW76181   5.362   6.685   8.527
25386SOL    HW176182   5.367   6.766   8.586
25386SOL    HW276183   5.276   6.687   8.476
25387SOL     OW76184   4.639   5.675   8.850
25387SOL    HW176185   4.664   5.655   8.755
25387SOL    HW276186   4.711   5.731   8.892
25388SOL     OW76187   4.704   6.702   9.167
25388SOL    HW176188   4.605   6.708   9.177
25388SOL    HW276189   4.727   6.622   9.111
25389SOL     OW76190   4.429   6.636   7.816
25389SOL    HW176191   4.415   6.643   7.915
25389SOL    HW276192   4.513   6.585   7.798
25390SOL     OW76193   4.134   6.399   8.699
25390SOL    HW176194   4.220   6.411   8.749
25390SOL    HW276195   4.092   6.312   8.726
25391SOL     OW76196   4.998   5.972   8.710
25391SOL    HW176197   5.019   6.046   8.774
25391SOL    HW276198   4.909   5.989   8.667
25392SOL     OW76199   3.788   7.150   8.779
25392SOL    HW176200   3.742   7.232   8.745
25392SOL    HW276201   3.886   7.169   8.788
25393SOL     OW76202   4.091   6.686   7.949
25393SOL    HW176203   4.084   6.769   7.893
25393SOL    HW276204   4.095   6.606   7.889
25394SOL     OW76205   4.290   6.123   8.313
25394SOL    HW176206   4.302   6.189   8.239
25394SOL    HW276207   4.336   6.157   8.396
25395SOL     OW76208   4.976   6.934   7.836
25395SOL    HW176209   5.026   7.011   7.876
25395SOL    HW276210   4.881   6.936   7.868
25396SOL     OW76211   4.996   7.031   8.590
25396SOL    HW176212   5.043   7.044   8.677
25396SOL    HW276213   4.930   6.957   8.599
25397SOL     OW76214   5.306   6.225   7.920
25397SOL    HW176215   5.275   6.286   7.993
25397SOL    HW276216   5.356   6.277   7.851
25398SOL     OW76217   4.078   7.096   8.777
25398SOL    HW176218   4.057   7.052   8.690
25398SOL    HW276219   4.175   7.122   8.780
25399SOL     OW76220   4.126   6.337   9.046
25399SOL    HW176221   4.194   6.392   8.999
25399SOL    HW276222   4.166   6.249   9.073
25400SOL     OW76223   5.311   6.365   9.118
25400SOL    HW176224   5.219   6.403   9.113
25400SOL    HW276225   5.371   6.412   9.053
25401SOL     OW76226   4.737   5.691   9.218
25401SOL    HW176227   4.743   5.776   9.166
25401SOL    HW276228   4.769   5.615   9.161
25402SOL     OW76229   4.228   5.636   9.188
25402SOL    HW176230   4.186   5.579   9.118
25402SOL    HW276231   4.162   5.705   9.220
25403SOL     OW76232   4.297   6.456   8.477
25403SOL    HW176233   4.341   6.545   8.468
25403SOL    HW276234   4.234   6.456   8.554
25404SOL     OW76235   5.084   6.448   8.493
25404SOL    HW176236   5.009   6.448   8.427
25404SOL    HW276237   5.121   6.356   8.502
25405SOL     OW76238   4.933   6.111   7.723
25405SOL    HW176239   4.946   6.027   7.777
25405SOL    HW276240   4.904   6.185   7.783
25406SOL     OW76241   4.031   5.799   8.679
25406SOL    HW176242   4.008   5.836   8.769
25406SOL    HW276243   4.001   5.704   8.673
25407SOL     OW76244   3.761   6.896   8.730
25407SOL    HW176245   3.814   6.847   8.798
25407SOL    HW276246   3.783   6.994   8.735
25408SOL     OW76247   4.456   6.220   8.512
25408SOL    HW176248   4.515   6.194   8.436
25408SOL    HW276249   4.428   6.316   8.501
25409SOL     OW76250   5.452   6.521   9.302
25409SOL    HW176251   5.406   6.514   9.213
25409SOL    HW276252   5.390   6.565   9.368
25410SOL     OW76253   4.031   5.649   8.066
25410SOL    HW176254   4.020   5.743   8.099
25410SOL    HW276255   4.026   5.586   8.143
25411SOL     OW76256   5.346   5.953   7.822
25411SOL    HW176257   5.348   5.877   7.886
25411SOL    HW276258   5.298   6.030   7.862
25412SOL     OW76259   4.747   6.352   8.414
25412SOL    HW176260   4.762   6.373   8.510
25412SOL    HW276261   4.717   6.257   8.405
25413SOL     OW76262   4.704   7.159   9.148
25413SOL    HW176263   4.684   7.203   9.060
25413SOL    HW276264   4.743   7.068   9.132
25414SOL     OW76265   5.583   7.104   9.053
25414SOL    HW176266   5.597   7.131   8.958
25414SOL    HW276267   5.666   7.126   9.106
25415SOL     OW76268   4.074   6.484   9.252
25415SOL    HW176269   4.150   6.528   9.300
25415SOL    HW276270   4.109   6.437   9.170
25416SOL     OW76271   5.264   5.860   7.573
25416SOL    HW176272   5.203   5.785   7.596
25416SOL    HW276273   5.286   5.912   7.656
25417SOL     OW76274   5.027   6.424   7.490
25417SOL    HW176275   5.061   6.331   7.505
25417SOL    HW276276   5.045   6.451   7.395
25418SOL     OW76277   4.792   6.919   8.297
25418SOL    HW176278   4.799   6.835   8.242
25418SOL    HW276279   4.854   6.988   8.261
25419SOL     OW76280   4.043   6.396   8.397
25419SOL    HW176281   4.136   6.432   8.402
25419SOL    HW276282   4.037   6.311   8.449
25420SOL     OW76283   4.063   6.095   8.454
25420SOL    HW176284   4.011   6.012   8.437
25420SOL    HW276285   4.140   6.100   8.390
25421SOL     OW76286   4.862   5.966   9.126
25421SOL    HW176287   4.817   6.029   9.190
25421SOL    HW276288   4.955   5.997   9.109
25422SOL     OW76289   4.884   5.793   8.925
25422SOL    HW176290   4.884   5.857   9.002
25422SOL    HW276291   4.912   5.841   8.842
25423SOL     OW76292   3.732   6.912   7.648
25423SOL    HW176293   3.639   6.933   7.617
25423SOL    HW276294   3.742   6.813   7.661
25424SOL     OW76295   3.812   7.387   8.375
25424SOL    HW176296   3.770   7.301   8.348
25424SOL    HW276297   3.906   7.390   8.341
25425SOL     OW76298   4.228   7.154   8.358
25425SOL    HW176299   4.294   7.228   8.367
25425SOL    HW276300   4.272   7.075   8.316
25426SOL     OW76301   4.726   6.382   8.686
25426SOL    HW176302   4.767   6.350   8.772
25426SOL    HW276303   4.630   6.355   8.683
25427SOL     OW76304   3.764   6.130   8.562
25427SOL    HW176305   3.849   6.097   8.521
25427SOL    HW276306   3.777   6.145   8.660
25428SOL     OW76307   3.913   6.106   9.170
25428SOL    HW176308   3.972   6.066   9.100
25428SOL    HW276309   3.855   6.177   9.129
25429SOL     OW76310   5.093   6.536   9.108
25429SOL    HW176311   5.132   6.625   9.128
25429SOL    HW276312   5.103   6.516   9.011
25430SOL     OW76313   4.539   6.158   7.773
25430SOL    HW176314   4.546   6.069   7.727
25430SOL    HW276315   4.445   6.192   7.765
25431SOL     OW76316   5.381   6.190   8.654
25431SOL    HW176317   5.343   6.121   8.716
25431SOL    HW276318   5.463   6.154   8.610
25432SOL     OW76319   3.976   7.150   9.192
25432SOL    HW176320   3.946   7.207   9.268
25432SOL    HW276321   3.969   7.053   9.218
25433SOL     OW76322   4.395   6.050   8.717
25433SOL    HW176323   4.361   5.961   8.687
25433SOL    HW276324   4.421   6.104   8.637
25434SOL     OW76325   4.654   7.264   8.913
25434SOL    HW176326   4.630   7.246   8.818
25434SOL    HW276327   4.684   7.358   8.923
25435SOL     OW76328   4.197   6.086   7.639
25435SOL    HW176329   4.258   6.166   7.643
25435SOL    HW276330   4.102   6.117   7.646
25436SOL     OW76331   3.883   6.723   8.914
25436SOL    HW176332   3.905   6.662   8.990
25436SOL    HW276333   3.893   6.674   8.828
25437SOL     OW76334   5.071   6.645   8.682
25437SOL    HW176335   5.095   6.582   8.608
25437SOL    HW276336   4.981   6.685   8.664
25438SOL     OW76337   5.026   6.441   7.757
25438SOL    HW176338   4.940   6.410   7.799
25438SOL    HW276339   5.022   6.427   7.658
25439SOL     OW76340   5.483   7.333   8.602
25439SOL    HW176341   5.544   7.363   8.529
25439SOL    HW276342   5.445   7.244   8.580
25440SOL     OW76343   4.976   7.317   8.576
25440SOL    HW176344   5.060   7.322   8.522
25440SOL    HW276345   4.953   7.221   8.594
25441SOL     OW76346   3.807   6.844   8.470
25441SOL    HW176347   3.802   6.843   8.570
25441SOL    HW276348   3.724   6.803   8.432
25442SOL     OW76349   4.412   7.248   9.164
25442SOL    HW176350   4.356   7.329   9.173
25442SOL    HW276351   4.464   7.252   9.078
25443SOL     OW76352   5.450   5.721   7.971
25443SOL    HW176353   5.523   5.704   7.904
25443SOL    HW276354   5.419   5.634   8.009
25444SOL     OW76355   5.112   7.159   7.925
25444SOL    HW176356   5.179   7.171   7.851
25444SOL    HW276357   5.072   7.248   7.948
25445SOL     OW76358   3.854   7.380   9.299
25445SOL    HW176359   3.813   7.306   9.352
25445SOL    HW276360   3.918   7.431   9.357
25446SOL     OW76361   5.004   6.513   8.120
25446SOL    HW176362   5.064   6.432   8.122
25446SOL    HW276363   5.044   6.582   8.060
25447SOL     OW76364   4.554   6.859   8.870
25447SOL    HW176365   4.549   6.892   8.965
25447SOL    HW276366   4.468   6.878   8.824
25448SOL     OW76367   4.396   7.202   7.602
25448SOL    HW176368   4.405   7.212   7.503
25448SOL    HW276369   4.356   7.113   7.623
25449SOL     OW76370   5.374   7.306   8.842
25449SOL    HW176371   5.427   7.316   8.758
25449SOL    HW276372   5.347   7.396   8.876
25450SOL     OW76373   5.565   5.761   8.411
25450SOL    HW176374   5.604   5.676   8.375
25450SOL    HW276375   5.467   5.763   8.392
25451SOL     OW76376   3.987   5.912   8.168
25451SOL    HW176377   3.908   5.963   8.134
25451SOL    HW276378   3.978   5.897   8.266
25452SOL     OW76379   4.918   7.198   7.479
25452SOL    HW176380   4.924   7.105   7.516
25452SOL    HW276381   4.859   7.198   7.399
25453SOL     OW76382   4.546   6.588   8.820
25453SOL    HW176383   4.586   6.587   8.728
25453SOL    HW276384   4.556   6.680   8.860
25454SOL     OW76385   4.640   6.496   7.739
25454SOL    HW176386   4.703   6.534   7.671
25454SOL    HW276387   4.680   6.413   7.778
25455SOL     OW76388   5.228   7.193   7.492
25455SOL    HW176389   5.136   7.230   7.499
25455SOL    HW276390   5.266   7.213   7.402
25456SOL     OW76391   4.096   6.874   8.938
25456SOL    HW176392   4.083   6.967   8.904
25456SOL    HW276393   4.012   6.822   8.925
25457SOL     OW76394   5.338   6.878   8.737
25457SOL    HW176395   5.398   6.881   8.817
25457SOL    HW276396   5.263   6.942   8.750
25458SOL     OW76397   4.763   6.684   8.144
25458SOL    HW176398   4.693   6.637   8.198
25458SOL    HW276399   4.822   6.616   8.101
25459SOL     OW76400   4.738   5.822   8.419
25459SOL    HW176401   4.730   5.786   8.326
25459SOL    HW276402   4.736   5.746   8.484
25460SOL     OW76403   4.314   7.073   7.939
25460SOL    HW176404   4.356   7.015   7.869
25460SOL    HW276405   4.270   7.152   7.895
25461SOL     OW76406   5.433   5.971   8.829
25461SOL    HW176407   5.506   6.040   8.833
25461SOL    HW276408   5.461   5.896   8.770
25462SOL     OW76409   3.979   6.934   7.738
25462SOL    HW176410   3.883   6.935   7.711
25462SOL    HW276411   3.991   6.987   7.822
25463SOL     OW76412   3.829   6.599   9.174
25463SOL    HW176413   3.752   6.566   9.228
25463SOL    HW276414   3.914   6.569   9.216
25464SOL     OW76415   4.396   5.789   8.937
25464SOL    HW176416   4.486   5.773   8.897
25464SOL    HW276417   4.404   5.794   9.036
25465SOL     OW76418   3.799   5.931   7.481
25465SOL    HW176419   3.707   5.903   7.452
25465SOL    HW276420   3.830   6.008   7.425
25466SOL     OW76421   5.164   6.442   8.846
25466SOL    HW176422   5.107   6.494   8.783
25466SOL    HW276423   5.260   6.454   8.822
25467SOL     OW76424   3.796   5.752   7.766
25467SOL    HW176425   3.779   5.835   7.712
25467SOL    HW276426   3.886   5.715   7.744
25468SOL     OW76427   4.907   6.921   7.567
25468SOL    HW176428   4.808   6.910   7.569
25468SOL    HW276429   4.941   6.936   7.660
25469SOL     OW76430   4.337   6.428   8.879
25469SOL    HW176431   4.393   6.509   8.862
25469SOL    HW276432   4.396   6.348   8.882
25470SOL     OW76433   5.217   7.353   8.407
25470SOL    HW176434   5.250   7.417   8.338
25470SOL    HW276435   5.283   7.347   8.482
25471SOL     OW76436   4.440   6.151   9.156
25471SOL    HW176437   4.459   6.216   9.230
25471SOL    HW276438   4.500   6.071   9.165
25472SOL     OW76439   5.174   6.806   9.081
25472SOL    HW176440   5.165   6.796   9.180
25472SOL    HW276441   5.270   6.799   9.055
25473SOL     OW76442   4.114   7.327   9.008
25473SOL    HW176443   4.023   7.368   9.006
25473SOL    HW276444   4.107   7.233   9.040
25474SOL     OW76445   5.398   6.469   8.702
25474SOL    HW176446   5.371   6.380   8.665
25474SOL    HW276447   5.399   6.537   8.629
25475SOL     OW76448   4.949   5.911   7.897
25475SOL    HW176449   5.014   5.837   7.886
25475SOL    HW276450   4.969   5.961   7.981
25476SOL     OW76451   4.318   6.331   8.100
25476SOL    HW176452   4.368   6.416   8.081
25476SOL    HW276453   4.230   6.333   8.052
25477SOL     OW76454   5.501   5.928   9.090
25477SOL    HW176455   5.484   5.959   8.996
25477SOL    HW276456   5.417   5.891   9.128
25478SOL     OW76457   5.454   6.520   8.965
25478SOL    HW176458   5.492   6.611   8.980
25478SOL    HW276459   5.446   6.503   8.866
25479SOL     OW76460   4.583   6.960   7.464
25479SOL    HW176461   4.537   6.975   7.552
25479SOL    HW276462   4.627   7.045   7.434
25480SOL     OW76463   4.385   7.376   8.401
25480SOL    HW176464   4.339   7.464   8.388
25480SOL    HW276465   4.484   7.388   8.394
25481SOL     OW76466   4.583   6.542   8.309
25481SOL    HW176467   4.637   6.473   8.357
25481SOL    HW276468   4.551   6.611   8.375
25482SOL     OW76469   4.807   6.570   7.535
25482SOL    HW176470   4.784   6.623   7.453
25482SOL    HW276471   4.888   6.514   7.516
25483SOL     OW76472   5.585   7.155   8.299
25483SOL    HW176473   5.514   7.143   8.229
25483SOL    HW276474   5.586   7.076   8.359
25484SOL     OW76475   3.945   6.900   9.292
25484SOL    HW176476   3.880   6.827   9.271
25484SOL    HW276477   3.949   6.914   9.390
25485SOL     OW76478   3.803   6.826   8.101
25485SOL    HW176479   3.802   6.779   8.189
25485SOL    HW276480   3.885   6.798   8.050
25486SOL     OW76481   4.396   6.977   9.072
25486SOL    HW176482   4.318   6.927   9.110
25486SOL    HW276483   4.393   7.072   9.103
25487SOL     OW76484   5.548   5.778   8.675
25487SOL    HW176485   5.544   5.688   8.719
25487SOL    HW276486   5.551   5.767   8.576
25488SOL     OW76487   4.152   6.010   7.968
25488SOL    HW176488   4.182   5.938   7.906
25488SOL    HW276489   4.113   5.970   8.051
25489SOL     OW76490   5.429   7.073   8.552
25489SOL    HW176491   5.336   7.048   8.525
25489SOL    HW276492   5.455   7.023   8.634
25490SOL     OW76493   4.041   6.133   8.728
25490SOL    HW176494   4.079   6.074   8.800
25490SOL    HW276495   4.081   6.107   8.640
25491SOL     OW76496   4.536   7.172   8.135
25491SOL    HW176497   4.568   7.182   8.041
25491SOL    HW276498   4.457   7.110   8.137
25492SOL     OW76499   5.148   5.800   8.560
25492SOL    HW176500   5.200   5.735   8.615
25492SOL    HW276501   5.099   5.863   8.621
25493SOL     OW76502   4.725   5.620   8.602
25493SOL    HW176503   4.662   5.548   8.571
25493SOL    HW276504   4.818   5.584   8.602
25494SOL     OW76505   4.494   6.916   7.749
25494SOL    HW176506   4.448   6.829   7.766
25494SOL    HW276507   4.585   6.913   7.790
25495SOL     OW76508   4.342   7.153   8.732
25495SOL    HW176509   4.337   7.235   8.789
25495SOL    HW276510   4.431   7.150   8.687
25496SOL     OW76511   5.076   5.638   7.616
25496SOL    HW176512   5.111   5.597   7.532
25496SOL    HW276513   4.986   5.600   7.636
25497SOL     OW76514   5.024   6.039   8.139
25497SOL    HW176515   4.965   6.119   8.143
25497SOL    HW276516   5.039   6.004   8.232
25498SOL     OW76517   5.317   5.807   8.330
25498SOL    HW176518   5.233   5.806   8.384
25498SOL    HW276519   5.319   5.890   8.274
25499SOL     OW76520   3.763   6.663   7.748
25499SOL    HW176521   3.862   6.652   7.739
25499SOL    HW276522   3.723   6.577   7.780
25500SOL     OW76523   4.599   7.232   7.785
25500SOL    HW176524   4.522   7.197   7.731
25500SOL    HW276525   4.567   7.303   7.847
25501SOL     OW76526   3.954   6.214   9.423
25501SOL    HW176527   3.861   6.212   9.460
25501SOL    HW276528   3.955   6.175   9.331
25502SOL     OW76529   3.949   5.861  10.306
25502SOL    HW176530   3.984   5.844  10.398
25502SOL    HW276531   3.861   5.816  10.294
25503SOL     OW76532   3.743   5.954   9.957
25503SOL    HW176533   3.661   5.997   9.996
25503SOL    HW276534   3.715   5.881   9.894
25504SOL     OW76535   4.293   6.861  10.475
25504SOL    HW176536   4.200   6.854  10.438
25504SOL    HW276537   4.304   6.950  10.519
25505SOL     OW76538   5.279   7.097  10.013
25505SOL    HW176539   5.222   7.081  10.094
25505SOL    HW276540   5.220   7.107   9.933
25506SOL     OW76541   4.859   6.289  10.027
25506SOL    HW176542   4.916   6.367  10.002
25506SOL    HW276543   4.799   6.315  10.103
25507SOL     OW76544   5.479   6.193   9.541
25507SOL    HW176545   5.467   6.180   9.442
25507SOL    HW276546   5.449   6.112   9.590
25508SOL     OW76547   4.492   6.730  10.333
25508SOL    HW176548   4.414   6.747  10.393
25508SOL    HW276549   4.526   6.817  10.297
25509SOL     OW76550   4.574   6.384  11.133
25509SOL    HW176551   4.570   6.460  11.198
25509SOL    HW276552   4.596   6.420  11.042
25510SOL     OW76553   4.409   6.598   9.975
25510SOL    HW176554   4.478   6.582  10.045
25510SOL    HW276555   4.336   6.655  10.013
25511SOL     OW76556   4.410   6.747  11.113
25511SOL    HW176557   4.470   6.826  11.127
25511SOL    HW276558   4.324   6.778  11.072
25512SOL     OW76559   4.059   7.021  10.371
25512SOL    HW176560   3.981   6.990  10.318
25512SOL    HW276561   4.117   7.079  10.314
25513SOL     OW76562   5.184   7.091  10.649
25513SOL    HW176563   5.208   7.185  10.675
25513SOL    HW276564   5.168   7.037  10.731
25514SOL     OW76565   4.162   5.978  10.809
25514SOL    HW176566   4.244   5.922  10.818
25514SOL    HW276567   4.081   5.920  10.813
25515SOL     OW76568   5.327   6.033  10.047
25515SOL    HW176569   5.253   6.079   9.997
25515SOL    HW276570   5.378   6.101  10.100
25516SOL     OW76571   3.955   7.299   9.793
25516SOL    HW176572   3.989   7.376   9.847
25516SOL    HW276573   3.999   7.299   9.703
25517SOL     OW76574   4.851   6.927  11.000
25517SOL    HW176575   4.898   6.927  11.088
25517SOL    HW276576   4.803   6.840  10.989
25518SOL     OW76577   3.954   7.020   9.848
25518SOL    HW176578   3.928   7.116   9.848
25518SOL    HW276579   3.883   6.966   9.893
25519SOL     OW76580   3.964   6.677  10.196
25519SOL    HW176581   3.978   6.593  10.248
25519SOL    HW276582   3.909   6.741  10.251
25520SOL     OW76583   4.344   7.372  10.749
25520SOL    HW176584   4.252   7.355  10.784
25520SOL    HW276585   4.372   7.464  10.775
25521SOL     OW76586   4.330   6.550   9.433
25521SOL    HW176587   4.337   6.634   9.379
25521SOL    HW276588   4.376   6.563   9.521
25522SOL     OW76589   5.318   5.700  10.790
25522SOL    HW176590   5.300   5.767  10.718
25522SOL    HW276591   5.315   5.746  10.879
25523SOL     OW76592   3.846   6.229   9.873
25523SOL    HW176593   3.801   6.141   9.890
25523SOL    HW276594   3.845   6.283   9.957
25524SOL     OW76595   5.566   7.353   9.669
25524SOL    HW176596   5.620   7.324   9.749
25524SOL    HW276597   5.596   7.443   9.640
25525SOL     OW76598   3.751   7.182   9.427
25525SOL    HW176599   3.732   7.086   9.448
25525SOL    HW276600   3.718   7.240   9.502
25526SOL     OW76601   5.413   6.508   9.922
25526SOL    HW176602   5.508   6.479   9.930
25526SOL    HW276603   5.405   6.573   9.847
25527SOL     OW76604   5.365   6.694   9.742
25527SOL    HW176605   5.451   6.696   9.690
25527SOL    HW276606   5.379   6.741   9.830
25528SOL     OW76607   3.837   6.323  10.907
25528SOL    HW176608   3.925   6.310  10.952
25528SOL    HW276609   3.824   6.420  10.885
25529SOL     OW76610   4.337   6.951  10.036
25529SOL    HW176611   4.288   6.864  10.045
25529SOL    HW276612   4.314   6.994   9.949
25530SOL     OW76613   5.017   6.814  10.733
25530SOL    HW176614   5.054   6.741  10.675
25530SOL    HW276615   5.069   6.819  10.818
25531SOL     OW76616   4.533   5.590   9.812
25531SOL    HW176617   4.573   5.681   9.803
25531SOL    HW276618   4.433   5.598   9.818
25532SOL     OW76619   3.921   6.562  10.574
25532SOL    HW176620   4.010   6.517  10.560
25532SOL    HW276621   3.848   6.497  10.555
25533SOL     OW76622   5.249   6.585   9.500
25533SOL    HW176623   5.186   6.509   9.513
25533SOL    HW276624   5.297   6.603   9.586
25534SOL     OW76625   4.911   7.378  10.926
25534SOL    HW176626   4.935   7.438  10.850
25534SOL    HW276627   4.918   7.283  10.896
25535SOL     OW76628   4.041   5.837  11.111
25535SOL    HW176629   4.112   5.908  11.117
25535SOL    HW276630   3.953   5.876  11.139
25536SOL     OW76631   5.190   7.003  10.263
25536SOL    HW176632   5.131   7.009  10.343
25536SOL    HW276633   5.175   6.915  10.217
25537SOL     OW76634   5.391   7.300   9.882
25537SOL    HW176635   5.350   7.277   9.794
25537SOL    HW276636   5.373   7.226   9.947
25538SOL     OW76637   4.322   6.315   9.580
25538SOL    HW176638   4.346   6.384   9.512
25538SOL    HW276639   4.244   6.348   9.634
25539SOL     OW76640   5.005   5.931  10.254
25539SOL    HW176641   4.919   5.881  10.241
25539SOL    HW276642   5.067   5.877  10.310
25540SOL     OW76643   5.300   7.248   9.617
25540SOL    HW176644   5.389   7.294   9.620
25540SOL    HW276645   5.279   7.224   9.522
25541SOL     OW76646   4.531   6.191  10.775
25541SOL    HW176647   4.484   6.188  10.864
25541SOL    HW276648   4.480   6.136  10.709
25542SOL     OW76649   5.118   6.055  10.984
25542SOL    HW176650   5.098   6.098  11.072
25542SOL    HW276651   5.196   5.993  10.993
25543SOL     OW76652   4.697   6.476  10.882
25543SOL    HW176653   4.743   6.392  10.853
25543SOL    HW276654   4.641   6.510  10.807
25544SOL     OW76655   4.715   5.996  10.552
25544SOL    HW176656   4.638   6.030  10.606
25544SOL    HW276657   4.681   5.945  10.473
25545SOL     OW76658   4.765   6.287   9.739
25545SOL    HW176659   4.791   6.283   9.835
25545SOL    HW276660   4.680   6.236   9.725
25546SOL     OW76661   3.800   6.397  10.099
25546SOL    HW176662   3.899   6.385  10.108
25546SOL    HW276663   3.776   6.492  10.120
25547SOL     OW76664   3.854   7.407  10.881
25547SOL    HW176665   3.844   7.392  10.980
25547SOL    HW276666   3.768   7.443  10.845
25548SOL     OW76667   4.589   5.934   9.505
25548SOL    HW176668   4.648   5.997   9.456
25548SOL    HW276669   4.608   5.840   9.476
25549SOL     OW76670   5.443   6.171  11.141
25549SOL    HW176671   5.417   6.260  11.105
25549SOL    HW276672   5.441   6.103  11.068
25550SOL     OW76673   5.086   6.730   9.855
25550SOL    HW176674   5.169   6.701   9.807
25550SOL    HW276675   5.037   6.797   9.799
25551SOL     OW76676   4.274   5.782  10.195
25551SOL    HW176677   4.269   5.777  10.295
25551SOL    HW276678   4.276   5.878  10.166
25552SOL     OW76679   4.732   7.042   9.787
25552SOL    HW176680   4.686   7.114   9.735
25552SOL    HW276681   4.728   7.062   9.885
25553SOL     OW76682   4.075   7.387  10.163
25553SOL    HW176683   4.125   7.301  10.169
25553SOL    HW276684   4.140   7.464  10.160
25554SOL     OW76685   5.519   6.652  10.183
25554SOL    HW176686   5.457   6.637  10.107
25554SOL    HW276687   5.467   6.663  10.268
25555SOL     OW76688   4.951   7.136  10.816
25555SOL    HW176689   4.957   7.059  10.880
25555SOL    HW276690   4.899   7.110  10.736
25556SOL     OW76691   4.045   6.529   9.552
25556SOL    HW176692   4.127   6.568   9.510
25556SOL    HW276693   4.018   6.447   9.503
25557SOL     OW76694   5.182   6.321  10.038
25557SOL    HW176695   5.177   6.256  10.113
25557SOL    HW276696   5.262   6.380  10.051
25558SOL     OW76697   4.185   6.852  11.037
25558SOL    HW176698   4.135   6.853  10.951
25558SOL    HW276699   4.122   6.834  11.113
25559SOL     OW76700   4.835   7.362   9.547
25559SOL    HW176701   4.775   7.300   9.597
25559SOL    HW276702   4.866   7.318   9.462
25560SOL     OW76703   3.926   5.871  10.808
25560SOL    HW176704   3.846   5.931  10.795
25560SOL    HW276705   3.916   5.822  10.894
25561SOL     OW76706   5.356   6.963   9.391
25561SOL    HW176707   5.324   7.057   9.381
25561SOL    HW276708   5.280   6.900   9.379
25562SOL     OW76709   4.188   7.329   9.633
25562SOL    HW176710   4.221   7.368   9.719
25562SOL    HW276711   4.264   7.322   9.568
25563SOL     OW76712   5.124   5.693   9.736
25563SOL    HW176713   5.100   5.656   9.646
25563SOL    HW276714   5.223   5.709   9.740
25564SOL     OW76715   3.973   7.371  10.551
25564SOL    HW176716   4.030   7.306  10.601
25564SOL    HW276717   3.957   7.338  10.458
25565SOL     OW76718   4.664   7.284  10.214
25565SOL    HW176719   4.744   7.227  10.235
25565SOL    HW276720   4.615   7.244  10.137
25566SOL     OW76721   4.106   6.286   9.790
25566SOL    HW176722   4.151   6.196   9.787
25566SOL    HW276723   4.012   6.275   9.823
25567SOL     OW76724   5.271   5.808  11.039
25567SOL    HW176725   5.266   5.845  11.131
25567SOL    HW276726   5.199   5.739  11.027
25568SOL     OW76727   4.338   5.708   9.427
25568SOL    HW176728   4.436   5.686   9.434
25568SOL    HW276729   4.307   5.691   9.334
25569SOL     OW76730   4.505   5.850  11.059
25569SOL    HW176731   4.572   5.789  11.102
25569SOL    HW276732   4.432   5.869  11.124
25570SOL     OW76733   4.612   7.100  10.505
25570SOL    HW176734   4.589   7.075  10.411
25570SOL    HW276735   4.673   7.031  10.544
25571SOL     OW76736   5.075   6.176  10.743
25571SOL    HW176737   5.103   6.133  10.828
25571SOL    HW276738   5.100   6.272  10.744
25572SOL     OW76739   4.527   6.988  10.234
25572SOL    HW176740   4.617   7.002  10.192
25572SOL    HW276741   4.456   6.990  10.163
25573SOL     OW76742   4.646   6.089  10.209
25573SOL    HW176743   4.621   6.080  10.113
25573SOL    HW276744   4.694   6.007  10.240
25574SOL     OW76745   4.263   5.650   9.822
25574SOL    HW176746   4.182   5.651   9.880
25574SOL    HW276747   4.266   5.733   9.767
25575SOL     OW76748   5.158   6.774   9.351
25575SOL    HW176749   5.190   6.698   9.408
25575SOL    HW276750   5.066   6.801   9.381
25576SOL     OW76751   4.021   5.621   9.481
25576SOL    HW176752   4.070   5.705   9.460
25576SOL    HW276753   4.083   5.556   9.526
25577SOL     OW76754   4.659   5.822   9.790
25577SOL    HW176755   4.611   5.863   9.712
25577SOL    HW276756   4.758   5.820   9.771
25578SOL     OW76757   4.800   6.269  10.774
25578SOL    HW176758   4.720   6.208  10.777
25578SOL    HW276759   4.881   6.216  10.750
25579SOL     OW76760   4.951   7.156  10.103
25579SOL    HW176761   4.972   7.230  10.038
25579SOL    HW276762   5.019   7.156  10.176
25580SOL     OW76763   4.183   6.738  10.051
25580SOL    HW176764   4.112   6.711  10.116
25580SOL    HW276765   4.157   6.710   9.958
25581SOL     OW76766   4.995   7.383   9.901
25581SOL    HW176767   5.039   7.447   9.837
25581SOL    HW276768   4.945   7.435   9.971
25582SOL     OW76769   4.756   6.135   9.326
25582SOL    HW176770   4.715   6.217   9.287
25582SOL    HW276771   4.820   6.161   9.399
25583SOL     OW76772   3.802   6.142  10.696
25583SOL    HW176773   3.894   6.141  10.655
25583SOL    HW276774   3.796   6.216  10.763
25584SOL     OW76775   4.285   5.808  10.457
25584SOL    HW176776   4.323   5.724  10.494
25584SOL    HW276777   4.197   5.827  10.501
25585SOL     OW76778   4.590   6.040   9.952
25585SOL    HW176779   4.558   6.112   9.890
25585SOL    HW276780   4.614   5.959   9.899
25586SOL     OW76781   4.741   5.625  10.063
25586SOL    HW176782   4.669   5.630   9.994
25586SOL    HW276783   4.717   5.556  10.132
25587SOL     OW76784   5.153   6.759  10.177
25587SOL    HW176785   5.098   6.675  10.170
25587SOL    HW276786   5.179   6.788  10.085
25588SOL     OW76787   5.190   6.176  10.302
25588SOL    HW176788   5.160   6.081  10.309
25588SOL    HW276789   5.263   6.192  10.368
25589SOL     OW76790   5.581   6.419   9.687
25589SOL    HW176791   5.623   6.355   9.751
25589SOL    HW276792   5.543   6.368   9.609
25590SOL     OW76793   4.212   6.971   9.484
25590SOL    HW176794   4.125   6.956   9.531
25590SOL    HW276795   4.195   6.997   9.389
25591SOL     OW76796   5.388   6.866   9.967
25591SOL    HW176797   5.487   6.874   9.981
25591SOL    HW276798   5.343   6.950   9.998
25592SOL     OW76799   5.114   6.161   9.388
25592SOL    HW176800   5.060   6.140   9.469
25592SOL    HW276801   5.205   6.120   9.397
25593SOL     OW76802   4.251   5.842   9.638
25593SOL    HW176803   4.278   5.783   9.563
25593SOL    HW276804   4.251   5.937   9.607
25594SOL     OW76805   5.478   6.809  10.898
25594SOL    HW176806   5.569   6.770  10.885
25594SOL    HW276807   5.486   6.905  10.922
25595SOL     OW76808   4.788   6.933  10.650
25595SOL    HW176809   4.708   6.910  10.705
25595SOL    HW276810   4.871   6.907  10.699
25596SOL     OW76811   5.316   7.215  10.935
25596SOL    HW176812   5.343   7.249  10.845
25596SOL    HW276813   5.395   7.177  10.981
25597SOL     OW76814   4.835   6.781  10.410
25597SOL    HW176815   4.795   6.825  10.491
25597SOL    HW276816   4.794   6.818  10.327
25598SOL     OW76817   5.362   6.685  10.389
25598SOL    HW176818   5.367   6.766  10.448
25598SOL    HW276819   5.276   6.687  10.338
25599SOL     OW76820   4.639   5.675  10.712
25599SOL    HW176821   4.664   5.655  10.617
25599SOL    HW276822   4.711   5.731  10.754
25600SOL     OW76823   4.704   6.702  11.029
25600SOL    HW176824   4.605   6.708  11.039
25600SOL    HW276825   4.727   6.622  10.973
25601SOL     OW76826   4.429   6.636   9.678
25601SOL    HW176827   4.415   6.643   9.777
25601SOL    HW276828   4.513   6.585   9.660
25602SOL     OW76829   4.134   6.399  10.561
25602SOL    HW176830   4.220   6.411  10.611
25602SOL    HW276831   4.092   6.312  10.588
25603SOL     OW76832   4.998   5.972  10.572
25603SOL    HW176833   5.019   6.046  10.636
25603SOL    HW276834   4.909   5.989  10.529
25604SOL     OW76835   3.788   7.150  10.641
25604SOL    HW176836   3.742   7.232  10.607
25604SOL    HW276837   3.886   7.169  10.650
25605SOL     OW76838   4.091   6.686   9.811
25605SOL    HW176839   4.084   6.769   9.755
25605SOL    HW276840   4.095   6.606   9.751
25606SOL     OW76841   4.290   6.123  10.175
25606SOL    HW176842   4.302   6.189  10.101
25606SOL    HW276843   4.336   6.157  10.258
25607SOL     OW76844   4.976   6.934   9.698
25607SOL    HW176845   5.026   7.011   9.738
25607SOL    HW276846   4.881   6.936   9.730
25608SOL     OW76847   4.996   7.031  10.452
25608SOL    HW176848   5.043   7.044  10.539
25608SOL    HW276849   4.930   6.957  10.461
25609SOL     OW76850   5.306   6.225   9.782
25609SOL    HW176851   5.275   6.286   9.855
25609SOL    HW276852   5.356   6.277   9.713
25610SOL     OW76853   4.078   7.096  10.639
25610SOL    HW176854   4.057   7.052  10.552
25610SOL    HW276855   4.175   7.122  10.642
25611SOL     OW76856   4.126   6.337  10.908
25611SOL    HW176857   4.194   6.392  10.861
25611SOL    HW276858   4.166   6.249  10.935
25612SOL     OW76859   5.311   6.365  10.980
25612SOL    HW176860   5.219   6.403  10.975
25612SOL    HW276861   5.371   6.412  10.915
25613SOL     OW76862   4.737   5.691  11.080
25613SOL    HW176863   4.743   5.776  11.028
25613SOL    HW276864   4.769   5.615  11.023
25614SOL     OW76865   4.228   5.636  11.050
25614SOL    HW176866   4.186   5.579  10.980
25614SOL    HW276867   4.162   5.705  11.082
25615SOL     OW76868   4.297   6.456  10.339
25615SOL    HW176869   4.341   6.545  10.330
25615SOL    HW276870   4.234   6.456  10.416
25616SOL     OW76871   5.084   6.448  10.355
25616SOL    HW176872   5.009   6.448  10.289
25616SOL    HW276873   5.121   6.356  10.364
25617SOL     OW76874   4.933   6.111   9.585
25617SOL    HW176875   4.946   6.027   9.639
25617SOL    HW276876   4.904   6.185   9.645
25618SOL     OW76877   4.031   5.799  10.541
25618SOL    HW176878   4.008   5.836  10.631
25618SOL    HW276879   4.001   5.704  10.535
25619SOL     OW76880   3.761   6.896  10.592
25619SOL    HW176881   3.814   6.847  10.660
25619SOL    HW276882   3.783   6.994  10.597
25620SOL     OW76883   4.456   6.220  10.374
25620SOL    HW176884   4.515   6.194  10.298
25620SOL    HW276885   4.428   6.316  10.363
25621SOL     OW76886   5.452   6.521  11.164
25621SOL    HW176887   5.406   6.514  11.075
25621SOL    HW276888   5.390   6.565  11.230
25622SOL     OW76889   4.031   5.649   9.928
25622SOL    HW176890   4.020   5.743   9.961
25622SOL    HW276891   4.026   5.586  10.005
25623SOL     OW76892   5.346   5.953   9.684
25623SOL    HW176893   5.348   5.877   9.748
25623SOL    HW276894   5.298   6.030   9.724
25624SOL     OW76895   4.747   6.352  10.276
25624SOL    HW176896   4.762   6.373  10.372
25624SOL    HW276897   4.717   6.257  10.267
25625SOL     OW76898   4.704   7.159  11.010
25625SOL    HW176899   4.684   7.203  10.922
25625SOL    HW276900   4.743   7.068  10.994
25626SOL     OW76901   5.583   7.104  10.915
25626SOL    HW176902   5.597   7.131  10.820
25626SOL    HW276903   5.666   7.126  10.968
25627SOL     OW76904   4.074   6.484  11.114
25627SOL    HW176905   4.150   6.528  11.162
25627SOL    HW276906   4.109   6.437  11.032
25628SOL     OW76907   5.264   5.860   9.435
25628SOL    HW176908   5.203   5.785   9.458
25628SOL    HW276909   5.286   5.912   9.518
25629SOL     OW76910   5.027   6.424   9.352
25629SOL    HW176911   5.061   6.331   9.367
25629SOL    HW276912   5.045   6.451   9.257
25630SOL     OW76913   4.792   6.919  10.159
25630SOL    HW176914   4.799   6.835  10.104
25630SOL    HW276915   4.854   6.988  10.123
25631SOL     OW76916   4.043   6.396  10.259
25631SOL    HW176917   4.136   6.432  10.264
25631SOL    HW276918   4.037   6.311  10.311
25632SOL     OW76919   4.063   6.095  10.316
25632SOL    HW176920   4.011   6.012  10.299
25632SOL    HW276921   4.140   6.100  10.252
25633SOL     OW76922   4.862   5.966  10.988
25633SOL    HW176923   4.817   6.029  11.052
25633SOL    HW276924   4.955   5.997  10.971
25634SOL     OW76925   4.884   5.793  10.787
25634SOL    HW176926   4.884   5.857  10.864
25634SOL    HW276927   4.912   5.841  10.704
25635SOL     OW76928   3.732   6.912   9.510
25635SOL    HW176929   3.639   6.933   9.479
25635SOL    HW276930   3.742   6.813   9.523
25636SOL     OW76931   3.812   7.387  10.237
25636SOL    HW176932   3.770   7.301  10.210
25636SOL    HW276933   3.906   7.390  10.203
25637SOL     OW76934   4.228   7.154  10.220
25637SOL    HW176935   4.294   7.228  10.229
25637SOL    HW276936   4.272   7.075  10.178
25638SOL     OW76937   4.726   6.382  10.548
25638SOL    HW176938   4.767   6.350  10.634
25638SOL    HW276939   4.630   6.355  10.545
25639SOL     OW76940   3.764   6.130  10.424
25639SOL    HW176941   3.849   6.097  10.383
25639SOL    HW276942   3.777   6.145  10.522
25640SOL     OW76943   3.913   6.106  11.032
25640SOL    HW176944   3.972   6.066  10.962
25640SOL    HW276945   3.855   6.177  10.991
25641SOL     OW76946   5.093   6.536  10.970
25641SOL    HW176947   5.132   6.625  10.990
25641SOL    HW276948   5.103   6.516  10.873
25642SOL     OW76949   4.539   6.158   9.635
25642SOL    HW176950   4.546   6.069   9.589
25642SOL    HW276951   4.445   6.192   9.627
25643SOL     OW76952   5.381   6.190  10.516
25643SOL    HW176953   5.343   6.121  10.578
25643SOL    HW276954   5.463   6.154  10.472
25644SOL     OW76955   3.976   7.150  11.054
25644SOL    HW176956   3.946   7.207  11.130
25644SOL    HW276957   3.969   7.053  11.080
25645SOL     OW76958   4.395   6.050  10.579
25645SOL    HW176959   4.361   5.961  10.549
25645SOL    HW276960   4.421   6.104  10.499
25646SOL     OW76961   4.654   7.264  10.775
25646SOL    HW176962   4.630   7.246  10.680
25646SOL    HW276963   4.684   7.358  10.785
25647SOL     OW76964   4.197   6.086   9.501
25647SOL    HW176965   4.258   6.166   9.505
25647SOL    HW276966   4.102   6.117   9.508
25648SOL     OW76967   3.883   6.723  10.776
25648SOL    HW176968   3.905   6.662  10.852
25648SOL    HW276969   3.893   6.674  10.690
25649SOL     OW76970   5.071   6.645  10.544
25649SOL    HW176971   5.095   6.582  10.470
25649SOL    HW276972   4.981   6.685  10.526
25650SOL     OW76973   5.026   6.441   9.619
25650SOL    HW176974   4.940   6.410   9.661
25650SOL    HW276975   5.022   6.427   9.520
25651SOL     OW76976   5.483   7.333  10.464
25651SOL    HW176977   5.544   7.363  10.391
25651SOL    HW276978   5.445   7.244  10.442
25652SOL     OW76979   4.976   7.317  10.438
25652SOL    HW176980   5.060   7.322  10.384
25652SOL    HW276981   4.953   7.221  10.456
25653SOL     OW76982   3.807   6.844  10.332
25653SOL    HW176983   3.802   6.843  10.432
25653SOL    HW276984   3.724   6.803  10.294
25654SOL     OW76985   4.412   7.248  11.026
25654SOL    HW176986   4.356   7.329  11.035
25654SOL    HW276987   4.464   7.252  10.940
25655SOL     OW76988   5.450   5.721   9.833
25655SOL    HW176989   5.523   5.704   9.766
25655SOL    HW276990   5.419   5.634   9.871
25656SOL     OW76991   5.112   7.159   9.787
25656SOL    HW176992   5.179   7.171   9.713
25656SOL    HW276993   5.072   7.248   9.810
25657SOL     OW76994   3.854   7.380  11.161
25657SOL    HW176995   3.813   7.306  11.214
25657SOL    HW276996   3.918   7.431  11.219
25658SOL     OW76997   5.004   6.513   9.982
25658SOL    HW176998   5.064   6.432   9.984
25658SOL    HW276999   5.044   6.582   9.922
25659SOL     OW77000   4.554   6.859  10.732
25659SOL    HW177001   4.549   6.892  10.827
25659SOL    HW277002   4.468   6.878  10.686
25660SOL     OW77003   4.396   7.202   9.464
25660SOL    HW177004   4.405   7.212   9.365
25660SOL    HW277005   4.356   7.113   9.485
25661SOL     OW77006   5.374   7.306  10.704
25661SOL    HW177007   5.427   7.316  10.620
25661SOL    HW277008   5.347   7.396  10.738
25662SOL     OW77009   5.565   5.761  10.273
25662SOL    HW177010   5.604   5.676  10.237
25662SOL    HW277011   5.467   5.763  10.254
25663SOL     OW77012   3.987   5.912  10.030
25663SOL    HW177013   3.908   5.963   9.996
25663SOL    HW277014   3.978   5.897  10.128
25664SOL     OW77015   4.918   7.198   9.341
25664SOL    HW177016   4.924   7.105   9.378
25664SOL    HW277017   4.859   7.198   9.261
25665SOL     OW77018   4.546   6.588  10.682
25665SOL    HW177019   4.586   6.587  10.590
25665SOL    HW277020   4.556   6.680  10.722
25666SOL     OW77021   4.640   6.496   9.601
25666SOL    HW177022   4.703   6.534   9.533
25666SOL    HW277023   4.680   6.413   9.640
25667SOL     OW77024   5.228   7.193   9.354
25667SOL    HW177025   5.136   7.230   9.361
25667SOL    HW277026   5.266   7.213   9.264
25668SOL     OW77027   4.096   6.874  10.800
25668SOL    HW177028   4.083   6.967  10.766
25668SOL    HW277029   4.012   6.822  10.787
25669SOL     OW77030   5.338   6.878  10.599
25669SOL    HW177031   5.398   6.881  10.679
25669SOL    HW277032   5.263   6.942  10.612
25670SOL     OW77033   4.763   6.684  10.006
25670SOL    HW177034   4.693   6.637  10.060
25670SOL    HW277035   4.822   6.616   9.963
25671SOL     OW77036   4.738   5.822  10.281
25671SOL    HW177037   4.730   5.786  10.188
25671SOL    HW277038   4.736   5.746  10.346
25672SOL     OW77039   4.314   7.073   9.801
25672SOL    HW177040   4.356   7.015   9.731
25672SOL    HW277041   4.270   7.152   9.757
25673SOL     OW77042   5.433   5.971  10.691
25673SOL    HW177043   5.506   6.040  10.695
25673SOL    HW277044   5.461   5.896  10.632
25674SOL     OW77045   3.979   6.934   9.600
25674SOL    HW177046   3.883   6.935   9.573
25674SOL    HW277047   3.991   6.987   9.684
25675SOL     OW77048   3.829   6.599  11.036
25675SOL    HW177049   3.752   6.566  11.090
25675SOL    HW277050   3.914   6.569  11.078
25676SOL     OW77051   4.396   5.789  10.799
25676SOL    HW177052   4.486   5.773  10.759
25676SOL    HW277053   4.404   5.794  10.898
25677SOL     OW77054   3.799   5.931   9.343
25677SOL    HW177055   3.707   5.903   9.314
25677SOL    HW277056   3.830   6.008   9.287
25678SOL     OW77057   5.164   6.442  10.708
25678SOL    HW177058   5.107   6.494  10.645
25678SOL    HW277059   5.260   6.454  10.684
25679SOL     OW77060   3.796   5.752   9.628
25679SOL    HW177061   3.779   5.835   9.574
25679SOL    HW277062   3.886   5.715   9.606
25680SOL     OW77063   4.907   6.921   9.429
25680SOL    HW177064   4.808   6.910   9.431
25680SOL    HW277065   4.941   6.936   9.522
25681SOL     OW77066   4.337   6.428  10.741
25681SOL    HW177067   4.393   6.509  10.724
25681SOL    HW277068   4.396   6.348  10.744
25682SOL     OW77069   5.217   7.353  10.269
25682SOL    HW177070   5.250   7.417  10.200
25682SOL    HW277071   5.283   7.347  10.344
25683SOL     OW77072   4.440   6.151  11.018
25683SOL    HW177073   4.459   6.216  11.092
25683SOL    HW277074   4.500   6.071  11.027
25684SOL     OW77075   5.174   6.806  10.943
25684SOL    HW177076   5.165   6.796  11.042
25684SOL    HW277077   5.270   6.799  10.917
25685SOL     OW77078   4.114   7.327  10.870
25685SOL    HW177079   4.023   7.368  10.868
25685SOL    HW277080   4.107   7.233  10.902
25686SOL     OW77081   5.398   6.469  10.564
25686SOL    HW177082   5.371   6.380  10.527
25686SOL    HW277083   5.399   6.537  10.491
25687SOL     OW77084   4.949   5.911   9.759
25687SOL    HW177085   5.014   5.837   9.748
25687SOL    HW277086   4.969   5.961   9.843
25688SOL     OW77087   4.318   6.331   9.962
25688SOL    HW177088   4.368   6.416   9.943
25688SOL    HW277089   4.230   6.333   9.914
25689SOL     OW77090   5.501   5.928  10.952
25689SOL    HW177091   5.484   5.959  10.858
25689SOL    HW277092   5.417   5.891  10.990
25690SOL     OW77093   5.454   6.520  10.827
25690SOL    HW177094   5.492   6.611  10.842
25690SOL    HW277095   5.446   6.503  10.728
25691SOL     OW77096   4.583   6.960   9.326
25691SOL    HW177097   4.537   6.975   9.414
25691SOL    HW277098   4.627   7.045   9.296
25692SOL     OW77099   4.385   7.376  10.263
25692SOL    HW177100   4.339   7.464  10.250
25692SOL    HW277101   4.484   7.388  10.256
25693SOL     OW77102   4.583   6.542  10.171
25693SOL    HW177103   4.637   6.473  10.219
25693SOL    HW277104   4.551   6.611  10.237
25694SOL     OW77105   4.807   6.570   9.397
25694SOL    HW177106   4.784   6.623   9.315
25694SOL    HW277107   4.888   6.514   9.378
25695SOL     OW77108   5.585   7.155  10.161
25695SOL    HW177109   5.514   7.143  10.091
25695SOL    HW277110   5.586   7.076  10.221
25696SOL     OW77111   3.945   6.900  11.154
25696SOL    HW177112   3.880   6.827  11.133
25696SOL    HW277113   3.949   6.914  11.252
25697SOL     OW77114   3.803   6.826   9.963
25697SOL    HW177115   3.802   6.779  10.051
25697SOL    HW277116   3.885   6.798   9.912
25698SOL     OW77117   4.396   6.977  10.934
25698SOL    HW177118   4.318   6.927  10.972
25698SOL    HW277119   4.393   7.072  10.965
25699SOL     OW77120   5.548   5.778  10.537
25699SOL    HW177121   5.544   5.688  10.581
25699SOL    HW277122   5.551   5.767  10.438
25700SOL     OW77123   4.152   6.010   9.830
25700SOL    HW177124   4.182   5.938   9.768
25700SOL    HW277125   4.113   5.970   9.913
25701SOL     OW77126   5.429   7.073  10.414
25701SOL    HW177127   5.336   7.048  10.387
25701SOL    HW277128   5.455   7.023  10.496
25702SOL     OW77129   4.041   6.133  10.590
25702SOL    HW177130   4.079   6.074  10.662
25702SOL    HW277131   4.081   6.107  10.502
25703SOL     OW77132   4.536   7.172   9.997
25703SOL    HW177133   4.568   7.182   9.903
25703SOL    HW277134   4.457   7.110   9.999
25704SOL     OW77135   5.148   5.800  10.422
25704SOL    HW177136   5.200   5.735  10.477
25704SOL    HW277137   5.099   5.863  10.483
25705SOL     OW77138   4.725   5.620  10.464
25705SOL    HW177139   4.662   5.548  10.433
25705SOL    HW277140   4.818   5.584  10.464
25706SOL     OW77141   4.494   6.916   9.611
25706SOL    HW177142   4.448   6.829   9.628
25706SOL    HW277143   4.585   6.913   9.652
25707SOL     OW77144   4.342   7.153  10.594
25707SOL    HW177145   4.337   7.235  10.651
25707SOL    HW277146   4.431   7.150  10.549
25708SOL     OW77147   5.076   5.638   9.478
25708SOL    HW177148   5.111   5.597   9.394
25708SOL    HW277149   4.986   5.600   9.498
25709SOL     OW77150   5.024   6.039  10.001
25709SOL    HW177151   4.965   6.119  10.005
25709SOL    HW277152   5.039   6.004  10.094
25710SOL     OW77153   5.317   5.807  10.192
25710SOL    HW177154   5.233   5.806  10.246
25710SOL    HW277155   5.319   5.890  10.136
25711SOL     OW77156   3.763   6.663   9.610
25711SOL    HW177157   3.862   6.652   9.601
25711SOL    HW277158   3.723   6.577   9.642
25712SOL     OW77159   4.599   7.232   9.647
25712SOL    HW177160   4.522   7.197   9.593
25712SOL    HW277161   4.567   7.303   9.709
25713SOL     OW77162   3.954   6.214  11.285
25713SOL    HW177163   3.861   6.212  11.322
25713SOL    HW277164   3.955   6.175  11.193
25714SOL     OW77165   3.949   5.861  12.168
25714SOL    HW177166   3.984   5.844  12.260
25714SOL    HW277167   3.861   5.816  12.156
25715SOL     OW77168   3.743   5.954  11.819
25715SOL    HW177169   3.661   5.997  11.858
25715SOL    HW277170   3.715   5.881  11.756
25716SOL     OW77171   4.293   6.861  12.337
25716SOL    HW177172   4.200   6.854  12.300
25716SOL    HW277173   4.304   6.950  12.381
25717SOL     OW77174   5.279   7.097  11.875
25717SOL    HW177175   5.222   7.081  11.956
25717SOL    HW277176   5.220   7.107  11.795
25718SOL     OW77177   4.859   6.289  11.889
25718SOL    HW177178   4.916   6.367  11.864
25718SOL    HW277179   4.799   6.315  11.965
25719SOL     OW77180   5.479   6.193  11.403
25719SOL    HW177181   5.467   6.180  11.304
25719SOL    HW277182   5.449   6.112  11.452
25720SOL     OW77183   4.492   6.730  12.195
25720SOL    HW177184   4.414   6.747  12.255
25720SOL    HW277185   4.526   6.817  12.159
25721SOL     OW77186   4.409   6.598  11.837
25721SOL    HW177187   4.478   6.582  11.907
25721SOL    HW277188   4.336   6.655  11.875
25722SOL     OW77189   4.059   7.021  12.233
25722SOL    HW177190   3.981   6.990  12.180
25722SOL    HW277191   4.117   7.079  12.176
25723SOL     OW77192   5.184   7.091  12.511
25723SOL    HW177193   5.208   7.185  12.537
25723SOL    HW277194   5.168   7.037  12.593
25724SOL     OW77195   4.162   5.978  12.671
25724SOL    HW177196   4.244   5.922  12.680
25724SOL    HW277197   4.081   5.920  12.675
25725SOL     OW77198   5.327   6.033  11.909
25725SOL    HW177199   5.253   6.079  11.859
25725SOL    HW277200   5.378   6.101  11.962
25726SOL     OW77201   3.955   7.299  11.655
25726SOL    HW177202   3.989   7.376  11.709
25726SOL    HW277203   3.999   7.299  11.565
25727SOL     OW77204   3.954   7.020  11.710
25727SOL    HW177205   3.928   7.116  11.710
25727SOL    HW277206   3.883   6.966  11.755
25728SOL     OW77207   3.964   6.677  12.058
25728SOL    HW177208   3.978   6.593  12.110
25728SOL    HW277209   3.909   6.741  12.113
25729SOL     OW77210   4.344   7.372  12.611
25729SOL    HW177211   4.252   7.355  12.646
25729SOL    HW277212   4.372   7.464  12.637
25730SOL     OW77213   4.330   6.550  11.295
25730SOL    HW177214   4.337   6.634  11.241
25730SOL    HW277215   4.376   6.563  11.383
25731SOL     OW77216   5.318   5.700  12.652
25731SOL    HW177217   5.300   5.767  12.580
25731SOL    HW277218   5.315   5.746  12.741
25732SOL     OW77219   3.846   6.229  11.735
25732SOL    HW177220   3.801   6.141  11.752
25732SOL    HW277221   3.845   6.283  11.819
25733SOL     OW77222   5.566   7.353  11.531
25733SOL    HW177223   5.620   7.324  11.611
25733SOL    HW277224   5.596   7.443  11.502
25734SOL     OW77225   3.751   7.182  11.289
25734SOL    HW177226   3.732   7.086  11.310
25734SOL    HW277227   3.718   7.240  11.364
25735SOL     OW77228   5.413   6.508  11.784
25735SOL    HW177229   5.508   6.479  11.792
25735SOL    HW277230   5.405   6.573  11.709
25736SOL     OW77231   5.365   6.694  11.604
25736SOL    HW177232   5.451   6.696  11.552
25736SOL    HW277233   5.379   6.741  11.692
25737SOL     OW77234   3.837   6.323  12.769
25737SOL    HW177235   3.925   6.310  12.814
25737SOL    HW277236   3.824   6.420  12.747
25738SOL     OW77237   4.337   6.951  11.898
25738SOL    HW177238   4.288   6.864  11.907
25738SOL    HW277239   4.314   6.994  11.811
25739SOL     OW77240   5.017   6.814  12.595
25739SOL    HW177241   5.054   6.741  12.537
25739SOL    HW277242   5.069   6.819  12.680
25740SOL     OW77243   4.533   5.590  11.674
25740SOL    HW177244   4.573   5.681  11.665
25740SOL    HW277245   4.433   5.598  11.680
25741SOL     OW77246   3.921   6.562  12.436
25741SOL    HW177247   4.010   6.517  12.422
25741SOL    HW277248   3.848   6.497  12.417
25742SOL     OW77249   5.249   6.585  11.362
25742SOL    HW177250   5.186   6.509  11.375
25742SOL    HW277251   5.297   6.603  11.448
25743SOL     OW77252   5.190   7.003  12.125
25743SOL    HW177253   5.131   7.009  12.205
25743SOL    HW277254   5.175   6.915  12.079
25744SOL     OW77255   5.391   7.300  11.744
25744SOL    HW177256   5.350   7.277  11.656
25744SOL    HW277257   5.373   7.226  11.809
25745SOL     OW77258   4.322   6.315  11.442
25745SOL    HW177259   4.346   6.384  11.374
25745SOL    HW277260   4.244   6.348  11.496
25746SOL     OW77261   5.005   5.931  12.116
25746SOL    HW177262   4.919   5.881  12.103
25746SOL    HW277263   5.067   5.877  12.172
25747SOL     OW77264   5.300   7.248  11.479
25747SOL    HW177265   5.389   7.294  11.482
25747SOL    HW277266   5.279   7.224  11.384
25748SOL     OW77267   4.531   6.191  12.637
25748SOL    HW177268   4.484   6.188  12.726
25748SOL    HW277269   4.480   6.136  12.571
25749SOL     OW77270   4.697   6.476  12.744
25749SOL    HW177271   4.743   6.392  12.715
25749SOL    HW277272   4.641   6.510  12.669
25750SOL     OW77273   4.715   5.996  12.414
25750SOL    HW177274   4.638   6.030  12.468
25750SOL    HW277275   4.681   5.945  12.335
25751SOL     OW77276   4.765   6.287  11.601
25751SOL    HW177277   4.791   6.283  11.697
25751SOL    HW277278   4.680   6.236  11.587
25752SOL     OW77279   3.800   6.397  11.961
25752SOL    HW177280   3.899   6.385  11.970
25752SOL    HW277281   3.776   6.492  11.982
25753SOL     OW77282   3.854   7.407  12.743
25753SOL    HW177283   3.844   7.392  12.842
25753SOL    HW277284   3.768   7.443  12.707
25754SOL     OW77285   4.589   5.934  11.367
25754SOL    HW177286   4.648   5.997  11.318
25754SOL    HW277287   4.608   5.840  11.338
25755SOL     OW77288   5.086   6.730  11.717
25755SOL    HW177289   5.169   6.701  11.669
25755SOL    HW277290   5.037   6.797  11.661
25756SOL     OW77291   4.274   5.782  12.057
25756SOL    HW177292   4.269   5.777  12.157
25756SOL    HW277293   4.276   5.878  12.028
25757SOL     OW77294   4.732   7.042  11.649
25757SOL    HW177295   4.686   7.114  11.597
25757SOL    HW277296   4.728   7.062  11.747
25758SOL     OW77297   4.075   7.387  12.025
25758SOL    HW177298   4.125   7.301  12.031
25758SOL    HW277299   4.140   7.464  12.022
25759SOL     OW77300   5.519   6.652  12.045
25759SOL    HW177301   5.457   6.637  11.969
25759SOL    HW277302   5.467   6.663  12.130
25760SOL     OW77303   4.951   7.136  12.678
25760SOL    HW177304   4.957   7.059  12.742
25760SOL    HW277305   4.899   7.110  12.598
25761SOL     OW77306   4.045   6.529  11.414
25761SOL    HW177307   4.127   6.568  11.372
25761SOL    HW277308   4.018   6.447  11.365
25762SOL     OW77309   5.182   6.321  11.900
25762SOL    HW177310   5.177   6.256  11.975
25762SOL    HW277311   5.262   6.380  11.913
25763SOL     OW77312   4.835   7.362  11.409
25763SOL    HW177313   4.775   7.300  11.459
25763SOL    HW277314   4.866   7.318  11.324
25764SOL     OW77315   3.926   5.871  12.670
25764SOL    HW177316   3.846   5.931  12.657
25764SOL    HW277317   3.916   5.822  12.756
25765SOL     OW77318   5.356   6.963  11.253
25765SOL    HW177319   5.324   7.057  11.243
25765SOL    HW277320   5.280   6.900  11.241
25766SOL     OW77321   4.188   7.329  11.495
25766SOL    HW177322   4.221   7.368  11.581
25766SOL    HW277323   4.264   7.322  11.430
25767SOL     OW77324   5.124   5.693  11.598
25767SOL    HW177325   5.100   5.656  11.508
25767SOL    HW277326   5.223   5.709  11.602
25768SOL     OW77327   3.973   7.371  12.413
25768SOL    HW177328   4.030   7.306  12.463
25768SOL    HW277329   3.957   7.338  12.320
25769SOL     OW77330   4.664   7.284  12.076
25769SOL    HW177331   4.744   7.227  12.097
25769SOL    HW277332   4.615   7.244  11.999
25770SOL     OW77333   4.106   6.286  11.652
25770SOL    HW177334   4.151   6.196  11.649
25770SOL    HW277335   4.012   6.275  11.685
25771SOL     OW77336   4.338   5.708  11.289
25771SOL    HW177337   4.436   5.686  11.296
25771SOL    HW277338   4.307   5.691  11.196
25772SOL     OW77339   4.612   7.100  12.367
25772SOL    HW177340   4.589   7.075  12.273
25772SOL    HW277341   4.673   7.031  12.406
25773SOL     OW77342   5.075   6.176  12.605
25773SOL    HW177343   5.103   6.133  12.690
25773SOL    HW277344   5.100   6.272  12.606
25774SOL     OW77345   4.527   6.988  12.096
25774SOL    HW177346   4.617   7.002  12.054
25774SOL    HW277347   4.456   6.990  12.025
25775SOL     OW77348   4.646   6.089  12.071
25775SOL    HW177349   4.621   6.080  11.975
25775SOL    HW277350   4.694   6.007  12.102
25776SOL     OW77351   4.263   5.650  11.684
25776SOL    HW177352   4.182   5.651  11.742
25776SOL    HW277353   4.266   5.733  11.629
25777SOL     OW77354   5.158   6.774  11.213
25777SOL    HW177355   5.190   6.698  11.270
25777SOL    HW277356   5.066   6.801  11.243
25778SOL     OW77357   4.021   5.621  11.343
25778SOL    HW177358   4.070   5.705  11.322
25778SOL    HW277359   4.083   5.556  11.388
25779SOL     OW77360   4.659   5.822  11.652
25779SOL    HW177361   4.611   5.863  11.574
25779SOL    HW277362   4.758   5.820  11.633
25780SOL     OW77363   4.800   6.269  12.636
25780SOL    HW177364   4.720   6.208  12.639
25780SOL    HW277365   4.881   6.216  12.612
25781SOL     OW77366   4.951   7.156  11.965
25781SOL    HW177367   4.972   7.230  11.900
25781SOL    HW277368   5.019   7.156  12.038
25782SOL     OW77369   4.183   6.738  11.913
25782SOL    HW177370   4.112   6.711  11.978
25782SOL    HW277371   4.157   6.710  11.820
25783SOL     OW77372   4.995   7.383  11.763
25783SOL    HW177373   5.039   7.447  11.699
25783SOL    HW277374   4.945   7.435  11.833
25784SOL     OW77375   4.756   6.135  11.188
25784SOL    HW177376   4.715   6.217  11.149
25784SOL    HW277377   4.820   6.161  11.261
25785SOL     OW77378   3.802   6.142  12.558
25785SOL    HW177379   3.894   6.141  12.517
25785SOL    HW277380   3.796   6.216  12.625
25786SOL     OW77381   4.285   5.808  12.319
25786SOL    HW177382   4.323   5.724  12.356
25786SOL    HW277383   4.197   5.827  12.363
25787SOL     OW77384   4.590   6.040  11.814
25787SOL    HW177385   4.558   6.112  11.752
25787SOL    HW277386   4.614   5.959  11.761
25788SOL     OW77387   4.741   5.625  11.925
25788SOL    HW177388   4.669   5.630  11.856
25788SOL    HW277389   4.717   5.556  11.994
25789SOL     OW77390   5.153   6.759  12.039
25789SOL    HW177391   5.098   6.675  12.032
25789SOL    HW277392   5.179   6.788  11.947
25790SOL     OW77393   5.190   6.176  12.164
25790SOL    HW177394   5.160   6.081  12.171
25790SOL    HW277395   5.263   6.192  12.230
25791SOL     OW77396   5.581   6.419  11.549
25791SOL    HW177397   5.623   6.355  11.613
25791SOL    HW277398   5.543   6.368  11.471
25792SOL     OW77399   4.212   6.971  11.346
25792SOL    HW177400   4.125   6.956  11.393
25792SOL    HW277401   4.195   6.997  11.251
25793SOL     OW77402   5.388   6.866  11.829
25793SOL    HW177403   5.487   6.874  11.843
25793SOL    HW277404   5.343   6.950  11.860
25794SOL     OW77405   5.114   6.161  11.250
25794SOL    HW177406   5.060   6.140  11.331
25794SOL    HW277407   5.205   6.120  11.259
25795SOL     OW77408   4.251   5.842  11.500
25795SOL    HW177409   4.278   5.783  11.425
25795SOL    HW277410   4.251   5.937  11.469
25796SOL     OW77411   5.478   6.809  12.760
25796SOL    HW177412   5.569   6.770  12.747
25796SOL    HW277413   5.486   6.905  12.784
25797SOL     OW77414   4.788   6.933  12.512
25797SOL    HW177415   4.708   6.910  12.567
25797SOL    HW277416   4.871   6.907  12.561
25798SOL     OW77417   4.835   6.781  12.272
25798SOL    HW177418   4.795   6.825  12.353
25798SOL    HW277419   4.794   6.818  12.189
25799SOL     OW77420   5.362   6.685  12.251
25799SOL    HW177421   5.367   6.766  12.310
25799SOL    HW277422   5.276   6.687  12.200
25800SOL     OW77423   4.639   5.675  12.574
25800SOL    HW177424   4.664   5.655  12.479
25800SOL    HW277425   4.711   5.731  12.616
25801SOL     OW77426   4.429   6.636  11.540
25801SOL    HW177427   4.415   6.643  11.639
25801SOL    HW277428   4.513   6.585  11.522
25802SOL     OW77429   4.134   6.399  12.423
25802SOL    HW177430   4.220   6.411  12.473
25802SOL    HW277431   4.092   6.312  12.450
25803SOL     OW77432   4.998   5.972  12.434
25803SOL    HW177433   5.019   6.046  12.498
25803SOL    HW277434   4.909   5.989  12.391
25804SOL     OW77435   3.788   7.150  12.503
25804SOL    HW177436   3.742   7.232  12.469
25804SOL    HW277437   3.886   7.169  12.512
25805SOL     OW77438   4.091   6.686  11.673
25805SOL    HW177439   4.084   6.769  11.617
25805SOL    HW277440   4.095   6.606  11.613
25806SOL     OW77441   4.290   6.123  12.037
25806SOL    HW177442   4.302   6.189  11.963
25806SOL    HW277443   4.336   6.157  12.120
25807SOL     OW77444   4.976   6.934  11.560
25807SOL    HW177445   5.026   7.011  11.600
25807SOL    HW277446   4.881   6.936  11.592
25808SOL     OW77447   4.996   7.031  12.314
25808SOL    HW177448   5.043   7.044  12.401
25808SOL    HW277449   4.930   6.957  12.323
25809SOL     OW77450   5.306   6.225  11.644
25809SOL    HW177451   5.275   6.286  11.717
25809SOL    HW277452   5.356   6.277  11.575
25810SOL     OW77453   4.078   7.096  12.501
25810SOL    HW177454   4.057   7.052  12.414
25810SOL    HW277455   4.175   7.122  12.504
25811SOL     OW77456   4.126   6.337  12.770
25811SOL    HW177457   4.194   6.392  12.723
25811SOL    HW277458   4.166   6.249  12.797
25812SOL     OW77459   5.311   6.365  12.842
25812SOL    HW177460   5.219   6.403  12.837
25812SOL    HW277461   5.371   6.412  12.777
25813SOL     OW77462   4.297   6.456  12.201
25813SOL    HW177463   4.341   6.545  12.192
25813SOL    HW277464   4.234   6.456  12.278
25814SOL     OW77465   5.084   6.448  12.217
25814SOL    HW177466   5.009   6.448  12.151
25814SOL    HW277467   5.121   6.356  12.226
25815SOL     OW77468   4.933   6.111  11.447
25815SOL    HW177469   4.946   6.027  11.501
25815SOL    HW277470   4.904   6.185  11.507
25816SOL     OW77471   4.031   5.799  12.403
25816SOL    HW177472   4.008   5.836  12.493
25816SOL    HW277473   4.001   5.704  12.397
25817SOL     OW77474   3.761   6.896  12.454
25817SOL    HW177475   3.814   6.847  12.522
25817SOL    HW277476   3.783   6.994  12.459
25818SOL     OW77477   4.456   6.220  12.236
25818SOL    HW177478   4.515   6.194  12.160
25818SOL    HW277479   4.428   6.316  12.225
25819SOL     OW77480   4.031   5.649  11.790
25819SOL    HW177481   4.020   5.743  11.823
25819SOL    HW277482   4.026   5.586  11.867
25820SOL     OW77483   5.346   5.953  11.546
25820SOL    HW177484   5.348   5.877  11.610
25820SOL    HW277485   5.298   6.030  11.586
25821SOL     OW77486   4.747   6.352  12.138
25821SOL    HW177487   4.762   6.373  12.234
25821SOL    HW277488   4.717   6.257  12.129
25822SOL     OW77489   5.264   5.860  11.297
25822SOL    HW177490   5.203   5.785  11.320
25822SOL    HW277491   5.286   5.912  11.380
25823SOL     OW77492   5.027   6.424  11.214
25823SOL    HW177493   5.061   6.331  11.229
25823SOL    HW277494   5.045   6.451  11.119
25824SOL     OW77495   4.792   6.919  12.021
25824SOL    HW177496   4.799   6.835  11.966
25824SOL    HW277497   4.854   6.988  11.985
25825SOL     OW77498   4.043   6.396  12.121
25825SOL    HW177499   4.136   6.432  12.126
25825SOL    HW277500   4.037   6.311  12.173
25826SOL     OW77501   4.063   6.095  12.178
25826SOL    HW177502   4.011   6.012  12.161
25826SOL    HW277503   4.140   6.100  12.114
25827SOL     OW77504   4.884   5.793  12.649
25827SOL    HW177505   4.884   5.857  12.726
25827SOL    HW277506   4.912   5.841  12.566
25828SOL     OW77507   3.732   6.912  11.372
25828SOL    HW177508   3.639   6.933  11.341
25828SOL    HW277509   3.742   6.813  11.385
25829SOL     OW77510   3.812   7.387  12.099
25829SOL    HW177511   3.770   7.301  12.072
25829SOL    HW277512   3.906   7.390  12.065
25830SOL     OW77513   4.228   7.154  12.082
25830SOL    HW177514   4.294   7.228  12.091
25830SOL    HW277515   4.272   7.075  12.040
25831SOL     OW77516   4.726   6.382  12.410
25831SOL    HW177517   4.767   6.350  12.496
25831SOL    HW277518   4.630   6.355  12.407
25832SOL     OW77519   3.764   6.130  12.286
25832SOL    HW177520   3.849   6.097  12.245
25832SOL    HW277521   3.777   6.145  12.384
25833SOL     OW77522   4.539   6.158  11.497
25833SOL    HW177523   4.546   6.069  11.451
25833SOL    HW277524   4.445   6.192  11.489
25834SOL     OW77525   5.381   6.190  12.378
25834SOL    HW177526   5.343   6.121  12.440
25834SOL    HW277527   5.463   6.154  12.334
25835SOL     OW77528   3.976   7.150  12.916
25835SOL    HW177529   3.946   7.207  12.992
25835SOL    HW277530   3.969   7.053  12.942
25836SOL     OW77531   4.395   6.050  12.441
25836SOL    HW177532   4.361   5.961  12.411
25836SOL    HW277533   4.421   6.104  12.361
25837SOL     OW77534   4.654   7.264  12.637
25837SOL    HW177535   4.630   7.246  12.542
25837SOL    HW277536   4.684   7.358  12.647
25838SOL     OW77537   4.197   6.086  11.363
25838SOL    HW177538   4.258   6.166  11.367
25838SOL    HW277539   4.102   6.117  11.370
25839SOL     OW77540   3.883   6.723  12.638
25839SOL    HW177541   3.905   6.662  12.714
25839SOL    HW277542   3.893   6.674  12.552
25840SOL     OW77543   5.071   6.645  12.406
25840SOL    HW177544   5.095   6.582  12.332
25840SOL    HW277545   4.981   6.685  12.388
25841SOL     OW77546   5.026   6.441  11.481
25841SOL    HW177547   4.940   6.410  11.523
25841SOL    HW277548   5.022   6.427  11.382
25842SOL     OW77549   5.483   7.333  12.326
25842SOL    HW177550   5.544   7.363  12.253
25842SOL    HW277551   5.445   7.244  12.304
25843SOL     OW77552   4.976   7.317  12.300
25843SOL    HW177553   5.060   7.322  12.246
25843SOL    HW277554   4.953   7.221  12.318
25844SOL     OW77555   3.807   6.844  12.194
25844SOL    HW177556   3.802   6.843  12.294
25844SOL    HW277557   3.724   6.803  12.156
25845SOL     OW77558   5.450   5.721  11.695
25845SOL    HW177559   5.523   5.704  11.628
25845SOL    HW277560   5.419   5.634  11.733
25846SOL     OW77561   5.112   7.159  11.649
25846SOL    HW177562   5.179   7.171  11.575
25846SOL    HW277563   5.072   7.248  11.672
25847SOL     OW77564   5.004   6.513  11.844
25847SOL    HW177565   5.064   6.432  11.846
25847SOL    HW277566   5.044   6.582  11.784
25848SOL     OW77567   4.554   6.859  12.594
25848SOL    HW177568   4.549   6.892  12.689
25848SOL    HW277569   4.468   6.878  12.548
25849SOL     OW77570   4.396   7.202  11.326
25849SOL    HW177571   4.405   7.212  11.227
25849SOL    HW277572   4.356   7.113  11.347
25850SOL     OW77573   5.374   7.306  12.566
25850SOL    HW177574   5.427   7.316  12.482
25850SOL    HW277575   5.347   7.396  12.600
25851SOL     OW77576   5.565   5.761  12.135
25851SOL    HW177577   5.604   5.676  12.099
25851SOL    HW277578   5.467   5.763  12.116
25852SOL     OW77579   3.987   5.912  11.892
25852SOL    HW177580   3.908   5.963  11.858
25852SOL    HW277581   3.978   5.897  11.990
25853SOL     OW77582   4.918   7.198  11.203
25853SOL    HW177583   4.924   7.105  11.240
25853SOL    HW277584   4.859   7.198  11.123
25854SOL     OW77585   4.546   6.588  12.544
25854SOL    HW177586   4.586   6.587  12.452
25854SOL    HW277587   4.556   6.680  12.584
25855SOL     OW77588   4.640   6.496  11.463
25855SOL    HW177589   4.703   6.534  11.395
25855SOL    HW277590   4.680   6.413  11.502
25856SOL     OW77591   5.228   7.193  11.216
25856SOL    HW177592   5.136   7.230  11.223
25856SOL    HW277593   5.266   7.213  11.126
25857SOL     OW77594   4.096   6.874  12.662
25857SOL    HW177595   4.083   6.967  12.628
25857SOL    HW277596   4.012   6.822  12.649
25858SOL     OW77597   5.338   6.878  12.461
25858SOL    HW177598   5.398   6.881  12.541
25858SOL    HW277599   5.263   6.942  12.474
25859SOL     OW77600   4.763   6.684  11.868
25859SOL    HW177601   4.693   6.637  11.922
25859SOL    HW277602   4.822   6.616  11.825
25860SOL     OW77603   4.738   5.822  12.143
25860SOL    HW177604   4.730   5.786  12.050
25860SOL    HW277605   4.736   5.746  12.208
25861SOL     OW77606   4.314   7.073  11.663
25861SOL    HW177607   4.356   7.015  11.593
25861SOL    HW277608   4.270   7.152  11.619
25862SOL     OW77609   5.433   5.971  12.553
25862SOL    HW177610   5.506   6.040  12.557
25862SOL    HW277611   5.461   5.896  12.494
25863SOL     OW77612   3.979   6.934  11.462
25863SOL    HW177613   3.883   6.935  11.435
25863SOL    HW277614   3.991   6.987  11.546
25864SOL     OW77615   3.829   6.599  12.898
25864SOL    HW177616   3.752   6.566  12.952
25864SOL    HW277617   3.914   6.569  12.940
25865SOL     OW77618   4.396   5.789  12.661
25865SOL    HW177619   4.486   5.773  12.621
25865SOL    HW277620   4.404   5.794  12.760
25866SOL     OW77621   3.799   5.931  11.205
25866SOL    HW177622   3.707   5.903  11.176
25866SOL    HW277623   3.830   6.008  11.149
25867SOL     OW77624   5.164   6.442  12.570
25867SOL    HW177625   5.107   6.494  12.507
25867SOL    HW277626   5.260   6.454  12.546
25868SOL     OW77627   3.796   5.752  11.490
25868SOL    HW177628   3.779   5.835  11.436
25868SOL    HW277629   3.886   5.715  11.468
25869SOL     OW77630   4.907   6.921  11.291
25869SOL    HW177631   4.808   6.910  11.293
25869SOL    HW277632   4.941   6.936  11.384
25870SOL     OW77633   4.337   6.428  12.603
25870SOL    HW177634   4.393   6.509  12.586
25870SOL    HW277635   4.396   6.348  12.606
25871SOL     OW77636   5.217   7.353  12.131
25871SOL    HW177637   5.250   7.417  12.062
25871SOL    HW277638   5.283   7.347  12.206
25872SOL     OW77639   4.440   6.151  12.880
25872SOL    HW177640   4.459   6.216  12.954
25872SOL    HW277641   4.500   6.071  12.889
25873SOL     OW77642   4.114   7.327  12.732
25873SOL    HW177643   4.023   7.368  12.730
25873SOL    HW277644   4.107   7.233  12.764
25874SOL     OW77645   5.398   6.469  12.426
25874SOL    HW177646   5.371   6.380  12.389
25874SOL    HW277647   5.399   6.537  12.353
25875SOL     OW77648   4.949   5.911  11.621
25875SOL    HW177649   5.014   5.837  11.610
25875SOL    HW277650   4.969   5.961  11.705
25876SOL     OW77651   4.318   6.331  11.824
25876SOL    HW177652   4.368   6.416  11.805
25876SOL    HW277653   4.230   6.333  11.776
25877SOL     OW77654   5.501   5.928  12.814
25877SOL    HW177655   5.484   5.959  12.720
25877SOL    HW277656   5.417   5.891  12.852
25878SOL     OW77657   5.454   6.520  12.689
25878SOL    HW177658   5.492   6.611  12.704
25878SOL    HW277659   5.446   6.503  12.590
25879SOL     OW77660   4.583   6.960  11.188
25879SOL    HW177661   4.537   6.975  11.276
25879SOL    HW277662   4.627   7.045  11.158
25880SOL     OW77663   4.385   7.376  12.125
25880SOL    HW177664   4.339   7.464  12.112
25880SOL    HW277665   4.484   7.388  12.118
25881SOL     OW77666   4.583   6.542  12.033
25881SOL    HW177667   4.637   6.473  12.081
25881SOL    HW277668   4.551   6.611  12.099
25882SOL     OW77669   4.807   6.570  11.259
25882SOL    HW177670   4.784   6.623  11.177
25882SOL    HW277671   4.888   6.514  11.240
25883SOL     OW77672   5.585   7.155  12.023
25883SOL    HW177673   5.514   7.143  11.953
25883SOL    HW277674   5.586   7.076  12.083
25884SOL     OW77675   3.803   6.826  11.825
25884SOL    HW177676   3.802   6.779  11.913
25884SOL    HW277677   3.885   6.798  11.774
25885SOL     OW77678   4.396   6.977  12.796
25885SOL    HW177679   4.318   6.927  12.834
25885SOL    HW277680   4.393   7.072  12.827
25886SOL     OW77681   5.548   5.778  12.399
25886SOL    HW177682   5.544   5.688  12.443
25886SOL    HW277683   5.551   5.767  12.300
25887SOL     OW77684   4.152   6.010  11.692
25887SOL    HW177685   4.182   5.938  11.630
25887SOL    HW277686   4.113   5.970  11.775
25888SOL     OW77687   5.429   7.073  12.276
25888SOL    HW177688   5.336   7.048  12.249
25888SOL    HW277689   5.455   7.023  12.358
25889SOL     OW77690   4.041   6.133  12.452
25889SOL    HW177691   4.079   6.074  12.524
25889SOL    HW277692   4.081   6.107  12.364
25890SOL     OW77693   4.536   7.172  11.859
25890SOL    HW177694   4.568   7.182  11.765
25890SOL    HW277695   4.457   7.110  11.861
25891SOL     OW77696   5.148   5.800  12.284
25891SOL    HW177697   5.200   5.735  12.339
25891SOL    HW277698   5.099   5.863  12.345
25892SOL     OW77699   4.725   5.620  12.326
25892SOL    HW177700   4.662   5.548  12.295
25892SOL    HW277701   4.818   5.584  12.326
25893SOL     OW77702   4.494   6.916  11.473
25893SOL    HW177703   4.448   6.829  11.490
25893SOL    HW277704   4.585   6.913  11.514
25894SOL     OW77705   4.342   7.153  12.456
25894SOL    HW177706   4.337   7.235  12.513
25894SOL    HW277707   4.431   7.150  12.411
25895SOL     OW77708   5.076   5.638  11.340
25895SOL    HW177709   5.111   5.597  11.256
25895SOL    HW277710   4.986   5.600  11.360
25896SOL     OW77711   5.024   6.039  11.863
25896SOL    HW177712   4.965   6.119  11.867
25896SOL    HW277713   5.039   6.004  11.956
25897SOL     OW77714   5.317   5.807  12.054
25897SOL    HW177715   5.233   5.806  12.108
25897SOL    HW277716   5.319   5.890  11.998
25898SOL     OW77717   3.763   6.663  11.472
25898SOL    HW177718   3.862   6.652  11.463
25898SOL    HW277719   3.723   6.577  11.504
25899SOL     OW77720   4.599   7.232  11.509
25899SOL    HW177721   4.522   7.197  11.455
25899SOL    HW277722   4.567   7.303  11.571
25900SOL     OW77723   3.954   8.076   0.113
25900SOL    HW177724   3.861   8.074   0.150
25900SOL    HW277725   3.955   8.037   0.021
25901SOL     OW77726   3.949   7.723   0.996
25901SOL    HW177727   3.984   7.706   1.088
25901SOL    HW277728   3.861   7.678   0.984
25902SOL     OW77729   3.743   7.816   0.647
25902SOL    HW177730   3.661   7.859   0.686
25902SOL    HW277731   3.715   7.743   0.584
25903SOL     OW77732   4.293   8.723   1.165
25903SOL    HW177733   4.200   8.716   1.128
25903SOL    HW277734   4.304   8.812   1.209
25904SOL     OW77735   5.279   8.959   0.703
25904SOL    HW177736   5.222   8.943   0.784
25904SOL    HW277737   5.220   8.969   0.623
25905SOL     OW77738   4.859   8.151   0.717
25905SOL    HW177739   4.916   8.229   0.692
25905SOL    HW277740   4.799   8.177   0.793
25906SOL     OW77741   5.479   8.055   0.231
25906SOL    HW177742   5.467   8.042   0.132
25906SOL    HW277743   5.449   7.974   0.280
25907SOL     OW77744   4.492   8.592   1.023
25907SOL    HW177745   4.414   8.609   1.083
25907SOL    HW277746   4.526   8.679   0.987
25908SOL     OW77747   4.574   8.246   1.823
25908SOL    HW177748   4.570   8.322   1.888
25908SOL    HW277749   4.596   8.282   1.732
25909SOL     OW77750   4.409   8.460   0.665
25909SOL    HW177751   4.478   8.444   0.735
25909SOL    HW277752   4.336   8.517   0.703
25910SOL     OW77753   4.410   8.609   1.803
25910SOL    HW177754   4.470   8.688   1.817
25910SOL    HW277755   4.324   8.640   1.762
25911SOL     OW77756   4.059   8.883   1.061
25911SOL    HW177757   3.981   8.852   1.008
25911SOL    HW277758   4.117   8.941   1.004
25912SOL     OW77759   5.184   8.953   1.339
25912SOL    HW177760   5.208   9.047   1.365
25912SOL    HW277761   5.168   8.899   1.421
25913SOL     OW77762   4.162   7.840   1.499
25913SOL    HW177763   4.244   7.784   1.508
25913SOL    HW277764   4.081   7.782   1.503
25914SOL     OW77765   5.327   7.895   0.737
25914SOL    HW177766   5.253   7.941   0.687
25914SOL    HW277767   5.378   7.963   0.790
25915SOL     OW77768   3.955   9.161   0.483
25915SOL    HW177769   3.989   9.238   0.537
25915SOL    HW277770   3.999   9.161   0.393
25916SOL     OW77771   4.851   8.789   1.690
25916SOL    HW177772   4.898   8.789   1.778
25916SOL    HW277773   4.803   8.702   1.679
25917SOL     OW77774   3.954   8.882   0.538
25917SOL    HW177775   3.928   8.978   0.538
25917SOL    HW277776   3.883   8.828   0.583
25918SOL     OW77777   3.964   8.539   0.886
25918SOL    HW177778   3.978   8.455   0.938
25918SOL    HW277779   3.909   8.603   0.941
25919SOL     OW77780   4.344   9.234   1.439
25919SOL    HW177781   4.252   9.217   1.474
25919SOL    HW277782   4.372   9.326   1.465
25920SOL     OW77783   4.330   8.412   0.123
25920SOL    HW177784   4.337   8.496   0.069
25920SOL    HW277785   4.376   8.425   0.211
25921SOL     OW77786   5.318   7.562   1.480
25921SOL    HW177787   5.300   7.629   1.408
25921SOL    HW277788   5.315   7.608   1.569
25922SOL     OW77789   3.846   8.091   0.563
25922SOL    HW177790   3.801   8.003   0.580
25922SOL    HW277791   3.845   8.145   0.647
25923SOL     OW77792   5.566   9.215   0.359
25923SOL    HW177793   5.620   9.186   0.439
25923SOL    HW277794   5.596   9.305   0.330
25924SOL     OW77795   3.751   9.044   0.117
25924SOL    HW177796   3.732   8.948   0.138
25924SOL    HW277797   3.718   9.102   0.192
25925SOL     OW77798   5.413   8.370   0.612
25925SOL    HW177799   5.508   8.341   0.620
25925SOL    HW277800   5.405   8.435   0.537
25926SOL     OW77801   5.365   8.556   0.432
25926SOL    HW177802   5.451   8.558   0.380
25926SOL    HW277803   5.379   8.603   0.520
25927SOL     OW77804   3.837   8.185   1.597
25927SOL    HW177805   3.925   8.172   1.642
25927SOL    HW277806   3.824   8.282   1.575
25928SOL     OW77807   4.337   8.813   0.726
25928SOL    HW177808   4.288   8.726   0.735
25928SOL    HW277809   4.314   8.856   0.639
25929SOL     OW77810   5.017   8.676   1.423
25929SOL    HW177811   5.054   8.603   1.365
25929SOL    HW277812   5.069   8.681   1.508
25930SOL     OW77813   4.533   7.452   0.502
25930SOL    HW177814   4.573   7.543   0.493
25930SOL    HW277815   4.433   7.460   0.508
25931SOL     OW77816   3.921   8.424   1.264
25931SOL    HW177817   4.010   8.379   1.250
25931SOL    HW277818   3.848   8.359   1.245
25932SOL     OW77819   5.249   8.447   0.190
25932SOL    HW177820   5.186   8.371   0.203
25932SOL    HW277821   5.297   8.465   0.276
25933SOL     OW77822   4.911   9.240   1.616
25933SOL    HW177823   4.935   9.300   1.540
25933SOL    HW277824   4.918   9.145   1.586
25934SOL     OW77825   4.041   7.699   1.801
25934SOL    HW177826   4.112   7.770   1.807
25934SOL    HW277827   3.953   7.738   1.829
25935SOL     OW77828   5.190   8.865   0.953
25935SOL    HW177829   5.131   8.871   1.033
25935SOL    HW277830   5.175   8.777   0.907
25936SOL     OW77831   5.391   9.162   0.572
25936SOL    HW177832   5.350   9.139   0.484
25936SOL    HW277833   5.373   9.088   0.637
25937SOL     OW77834   4.322   8.177   0.270
25937SOL    HW177835   4.346   8.246   0.202
25937SOL    HW277836   4.244   8.210   0.324
25938SOL     OW77837   5.005   7.793   0.944
25938SOL    HW177838   4.919   7.743   0.931
25938SOL    HW277839   5.067   7.739   1.000
25939SOL     OW77840   5.300   9.110   0.307
25939SOL    HW177841   5.389   9.156   0.310
25939SOL    HW277842   5.279   9.086   0.212
25940SOL     OW77843   4.531   8.053   1.465
25940SOL    HW177844   4.484   8.050   1.554
25940SOL    HW277845   4.480   7.998   1.399
25941SOL     OW77846   5.118   7.917   1.674
25941SOL    HW177847   5.098   7.960   1.762
25941SOL    HW277848   5.196   7.855   1.683
25942SOL     OW77849   4.697   8.338   1.572
25942SOL    HW177850   4.743   8.254   1.543
25942SOL    HW277851   4.641   8.372   1.497
25943SOL     OW77852   4.715   7.858   1.242
25943SOL    HW177853   4.638   7.892   1.296
25943SOL    HW277854   4.681   7.807   1.163
25944SOL     OW77855   4.765   8.149   0.429
25944SOL    HW177856   4.791   8.145   0.525
25944SOL    HW277857   4.680   8.098   0.415
25945SOL     OW77858   3.800   8.259   0.789
25945SOL    HW177859   3.899   8.247   0.798
25945SOL    HW277860   3.776   8.354   0.810
25946SOL     OW77861   3.854   9.269   1.571
25946SOL    HW177862   3.844   9.254   1.670
25946SOL    HW277863   3.768   9.305   1.535
25947SOL     OW77864   4.589   7.796   0.195
25947SOL    HW177865   4.648   7.859   0.146
25947SOL    HW277866   4.608   7.702   0.166
25948SOL     OW77867   5.443   8.033   1.831
25948SOL    HW177868   5.417   8.122   1.795
25948SOL    HW277869   5.441   7.965   1.758
25949SOL     OW77870   5.086   8.592   0.545
25949SOL    HW177871   5.169   8.563   0.497
25949SOL    HW277872   5.037   8.659   0.489
25950SOL     OW77873   4.274   7.644   0.885
25950SOL    HW177874   4.269   7.639   0.985
25950SOL    HW277875   4.276   7.740   0.856
25951SOL     OW77876   4.732   8.904   0.477
25951SOL    HW177877   4.686   8.976   0.425
25951SOL    HW277878   4.728   8.924   0.575
25952SOL     OW77879   4.075   9.249   0.853
25952SOL    HW177880   4.125   9.163   0.859
25952SOL    HW277881   4.140   9.326   0.850
25953SOL     OW77882   5.519   8.514   0.873
25953SOL    HW177883   5.457   8.499   0.797
25953SOL    HW277884   5.467   8.525   0.958
25954SOL     OW77885   4.951   8.998   1.506
25954SOL    HW177886   4.957   8.921   1.570
25954SOL    HW277887   4.899   8.972   1.426
25955SOL     OW77888   4.045   8.391   0.242
25955SOL    HW177889   4.127   8.430   0.200
25955SOL    HW277890   4.018   8.309   0.193
25956SOL     OW77891   5.182   8.183   0.728
25956SOL    HW177892   5.177   8.118   0.803
25956SOL    HW277893   5.262   8.242   0.741
25957SOL     OW77894   4.185   8.714   1.727
25957SOL    HW177895   4.135   8.715   1.641
25957SOL    HW277896   4.122   8.696   1.803
25958SOL     OW77897   4.835   9.224   0.237
25958SOL    HW177898   4.775   9.162   0.287
25958SOL    HW277899   4.866   9.180   0.152
25959SOL     OW77900   3.926   7.733   1.498
25959SOL    HW177901   3.846   7.793   1.485
25959SOL    HW277902   3.916   7.684   1.584
25960SOL     OW77903   5.356   8.825   0.081
25960SOL    HW177904   5.324   8.919   0.071
25960SOL    HW277905   5.280   8.762   0.069
25961SOL     OW77906   4.188   9.191   0.323
25961SOL    HW177907   4.221   9.230   0.409
25961SOL    HW277908   4.264   9.184   0.258
25962SOL     OW77909   5.124   7.555   0.426
25962SOL    HW177910   5.100   7.518   0.336
25962SOL    HW277911   5.223   7.571   0.430
25963SOL     OW77912   3.973   9.233   1.241
25963SOL    HW177913   4.030   9.168   1.291
25963SOL    HW277914   3.957   9.200   1.148
25964SOL     OW77915   4.664   9.146   0.904
25964SOL    HW177916   4.744   9.089   0.925
25964SOL    HW277917   4.615   9.106   0.827
25965SOL     OW77918   4.106   8.148   0.480
25965SOL    HW177919   4.151   8.058   0.477
25965SOL    HW277920   4.012   8.137   0.513
25966SOL     OW77921   5.271   7.670   1.729
25966SOL    HW177922   5.266   7.707   1.821
25966SOL    HW277923   5.199   7.601   1.717
25967SOL     OW77924   4.338   7.570   0.117
25967SOL    HW177925   4.436   7.548   0.124
25967SOL    HW277926   4.307   7.553   0.024
25968SOL     OW77927   4.505   7.712   1.749
25968SOL    HW177928   4.572   7.651   1.792
25968SOL    HW277929   4.432   7.731   1.814
25969SOL     OW77930   4.612   8.962   1.195
25969SOL    HW177931   4.589   8.937   1.101
25969SOL    HW277932   4.673   8.893   1.234
25970SOL     OW77933   5.075   8.038   1.433
25970SOL    HW177934   5.103   7.995   1.518
25970SOL    HW277935   5.100   8.134   1.434
25971SOL     OW77936   4.527   8.850   0.924
25971SOL    HW177937   4.617   8.864   0.882
25971SOL    HW277938   4.456   8.852   0.853
25972SOL     OW77939   4.646   7.951   0.899
25972SOL    HW177940   4.621   7.942   0.803
25972SOL    HW277941   4.694   7.869   0.930
25973SOL     OW77942   4.263   7.512   0.512
25973SOL    HW177943   4.182   7.513   0.570
25973SOL    HW277944   4.266   7.595   0.457
25974SOL     OW77945   5.158   8.636   0.041
25974SOL    HW177946   5.190   8.560   0.098
25974SOL    HW277947   5.066   8.663   0.071
25975SOL     OW77948   4.021   7.483   0.171
25975SOL    HW177949   4.070   7.567   0.150
25975SOL    HW277950   4.083   7.418   0.216
25976SOL     OW77951   4.659   7.684   0.480
25976SOL    HW177952   4.611   7.725   0.402
25976SOL    HW277953   4.758   7.682   0.461
25977SOL     OW77954   4.800   8.131   1.464
25977SOL    HW177955   4.720   8.070   1.467
25977SOL    HW277956   4.881   8.078   1.440
25978SOL     OW77957   4.951   9.018   0.793
25978SOL    HW177958   4.972   9.092   0.728
25978SOL    HW277959   5.019   9.018   0.866
25979SOL     OW77960   4.183   8.600   0.741
25979SOL    HW177961   4.112   8.573   0.806
25979SOL    HW277962   4.157   8.572   0.648
25980SOL     OW77963   4.995   9.245   0.591
25980SOL    HW177964   5.039   9.309   0.527
25980SOL    HW277965   4.945   9.297   0.661
25981SOL     OW77966   4.756   7.997   0.016
25981SOL    HW177967   4.715   8.079  -0.023
25981SOL    HW277968   4.820   8.023   0.089
25982SOL     OW77969   3.802   8.004   1.386
25982SOL    HW177970   3.894   8.003   1.345
25982SOL    HW277971   3.796   8.078   1.453
25983SOL     OW77972   4.285   7.670   1.147
25983SOL    HW177973   4.323   7.586   1.184
25983SOL    HW277974   4.197   7.689   1.191
25984SOL     OW77975   4.590   7.902   0.642
25984SOL    HW177976   4.558   7.974   0.580
25984SOL    HW277977   4.614   7.821   0.589
25985SOL     OW77978   4.741   7.487   0.753
25985SOL    HW177979   4.669   7.492   0.684
25985SOL    HW277980   4.717   7.418   0.822
25986SOL     OW77981   5.153   8.621   0.867
25986SOL    HW177982   5.098   8.537   0.860
25986SOL    HW277983   5.179   8.650   0.775
25987SOL     OW77984   5.190   8.038   0.992
25987SOL    HW177985   5.160   7.943   0.999
25987SOL    HW277986   5.263   8.054   1.058
25988SOL     OW77987   5.581   8.281   0.377
25988SOL    HW177988   5.623   8.217   0.441
25988SOL    HW277989   5.543   8.230   0.299
25989SOL     OW77990   4.212   8.833   0.174
25989SOL    HW177991   4.125   8.818   0.221
25989SOL    HW277992   4.195   8.859   0.079
25990SOL     OW77993   5.388   8.728   0.657
25990SOL    HW177994   5.487   8.736   0.671
25990SOL    HW277995   5.343   8.812   0.688
25991SOL     OW77996   5.114   8.023   0.078
25991SOL    HW177997   5.060   8.002   0.159
25991SOL    HW277998   5.205   7.982   0.087
25992SOL     OW77999   4.251   7.704   0.328
25992SOL    HW178000   4.278   7.645   0.253
25992SOL    HW278001   4.251   7.799   0.297
25993SOL     OW78002   5.478   8.671   1.588
25993SOL    HW178003   5.569   8.632   1.575
25993SOL    HW278004   5.486   8.767   1.612
25994SOL     OW78005   4.788   8.795   1.340
25994SOL    HW178006   4.708   8.772   1.395
25994SOL    HW278007   4.871   8.769   1.389
25995SOL     OW78008   5.316   9.077   1.625
25995SOL    HW178009   5.343   9.111   1.535
25995SOL    HW278010   5.395   9.039   1.671
25996SOL     OW78011   4.835   8.643   1.100
25996SOL    HW178012   4.795   8.687   1.181
25996SOL    HW278013   4.794   8.680   1.017
25997SOL     OW78014   5.362   8.547   1.079
25997SOL    HW178015   5.367   8.628   1.138
25997SOL    HW278016   5.276   8.549   1.028
25998SOL     OW78017   4.639   7.537   1.402
25998SOL    HW178018   4.664   7.517   1.307
25998SOL    HW278019   4.711   7.593   1.444
25999SOL     OW78020   4.704   8.564   1.719
25999SOL    HW178021   4.605   8.570   1.729
25999SOL    HW278022   4.727   8.484   1.663
26000SOL     OW78023   4.429   8.498   0.368
26000SOL    HW178024   4.415   8.505   0.467
26000SOL    HW278025   4.513   8.447   0.350
26001SOL     OW78026   4.134   8.261   1.251
26001SOL    HW178027   4.220   8.273   1.301
26001SOL    HW278028   4.092   8.174   1.278
26002SOL     OW78029   4.998   7.834   1.262
26002SOL    HW178030   5.019   7.908   1.326
26002SOL    HW278031   4.909   7.851   1.219
26003SOL     OW78032   3.788   9.012   1.331
26003SOL    HW178033   3.742   9.094   1.297
26003SOL    HW278034   3.886   9.031   1.340
26004SOL     OW78035   4.091   8.548   0.501
26004SOL    HW178036   4.084   8.631   0.445
26004SOL    HW278037   4.095   8.468   0.441
26005SOL     OW78038   4.290   7.985   0.865
26005SOL    HW178039   4.302   8.051   0.791
26005SOL    HW278040   4.336   8.019   0.948
26006SOL     OW78041   4.976   8.796   0.388
26006SOL    HW178042   5.026   8.873   0.428
26006SOL    HW278043   4.881   8.798   0.420
26007SOL     OW78044   4.996   8.893   1.142
26007SOL    HW178045   5.043   8.906   1.229
26007SOL    HW278046   4.930   8.819   1.151
26008SOL     OW78047   5.306   8.087   0.472
26008SOL    HW178048   5.275   8.148   0.545
26008SOL    HW278049   5.356   8.139   0.403
26009SOL     OW78050   4.078   8.958   1.329
26009SOL    HW178051   4.057   8.914   1.242
26009SOL    HW278052   4.175   8.984   1.332
26010SOL     OW78053   4.126   8.199   1.598
26010SOL    HW178054   4.194   8.254   1.551
26010SOL    HW278055   4.166   8.111   1.625
26011SOL     OW78056   5.311   8.227   1.670
26011SOL    HW178057   5.219   8.265   1.665
26011SOL    HW278058   5.371   8.274   1.605
26012SOL     OW78059   4.737   7.553   1.770
26012SOL    HW178060   4.743   7.638   1.718
26012SOL    HW278061   4.769   7.477   1.713
26013SOL     OW78062   4.228   7.498   1.740
26013SOL    HW178063   4.186   7.441   1.670
26013SOL    HW278064   4.162   7.567   1.772
26014SOL     OW78065   4.297   8.318   1.029
26014SOL    HW178066   4.341   8.407   1.020
26014SOL    HW278067   4.234   8.318   1.106
26015SOL     OW78068   5.084   8.310   1.045
26015SOL    HW178069   5.009   8.310   0.979
26015SOL    HW278070   5.121   8.218   1.054
26016SOL     OW78071   4.933   7.973   0.275
26016SOL    HW178072   4.946   7.889   0.329
26016SOL    HW278073   4.904   8.047   0.335
26017SOL     OW78074   4.031   7.661   1.231
26017SOL    HW178075   4.008   7.698   1.321
26017SOL    HW278076   4.001   7.566   1.225
26018SOL     OW78077   3.761   8.758   1.282
26018SOL    HW178078   3.814   8.709   1.350
26018SOL    HW278079   3.783   8.856   1.287
26019SOL     OW78080   4.456   8.082   1.064
26019SOL    HW178081   4.515   8.056   0.988
26019SOL    HW278082   4.428   8.178   1.053
26020SOL     OW78083   5.452   8.383   1.854
26020SOL    HW178084   5.406   8.376   1.765
26020SOL    HW278085   5.390   8.427   1.920
26021SOL     OW78086   4.031   7.511   0.618
26021SOL    HW178087   4.020   7.605   0.651
26021SOL    HW278088   4.026   7.448   0.695
26022SOL     OW78089   5.346   7.815   0.374
26022SOL    HW178090   5.348   7.739   0.438
26022SOL    HW278091   5.298   7.892   0.414
26023SOL     OW78092   4.747   8.214   0.966
26023SOL    HW178093   4.762   8.235   1.062
26023SOL    HW278094   4.717   8.119   0.957
26024SOL     OW78095   4.704   9.021   1.700
26024SOL    HW178096   4.684   9.065   1.612
26024SOL    HW278097   4.743   8.930   1.684
26025SOL     OW78098   5.583   8.966   1.605
26025SOL    HW178099   5.597   8.993   1.510
26025SOL    HW278100   5.666   8.988   1.658
26026SOL     OW78101   4.074   8.346   1.804
26026SOL    HW178102   4.150   8.390   1.852
26026SOL    HW278103   4.109   8.299   1.722
26027SOL     OW78104   5.264   7.722   0.125
26027SOL    HW178105   5.203   7.647   0.148
26027SOL    HW278106   5.286   7.774   0.208
26028SOL     OW78107   5.027   8.286   0.042
26028SOL    HW178108   5.061   8.193   0.057
26028SOL    HW278109   5.045   8.313  -0.053
26029SOL     OW78110   4.792   8.781   0.849
26029SOL    HW178111   4.799   8.697   0.794
26029SOL    HW278112   4.854   8.850   0.813
26030SOL     OW78113   4.043   8.258   0.949
26030SOL    HW178114   4.136   8.294   0.954
26030SOL    HW278115   4.037   8.173   1.001
26031SOL     OW78116   4.063   7.957   1.006
26031SOL    HW178117   4.011   7.874   0.989
26031SOL    HW278118   4.140   7.962   0.942
26032SOL     OW78119   4.862   7.828   1.678
26032SOL    HW178120   4.817   7.891   1.742
26032SOL    HW278121   4.955   7.859   1.661
26033SOL     OW78122   4.884   7.655   1.477
26033SOL    HW178123   4.884   7.719   1.554
26033SOL    HW278124   4.912   7.703   1.394
26034SOL     OW78125   3.732   8.774   0.200
26034SOL    HW178126   3.639   8.795   0.169
26034SOL    HW278127   3.742   8.675   0.213
26035SOL     OW78128   3.812   9.249   0.927
26035SOL    HW178129   3.770   9.163   0.900
26035SOL    HW278130   3.906   9.252   0.893
26036SOL     OW78131   4.228   9.016   0.910
26036SOL    HW178132   4.294   9.090   0.919
26036SOL    HW278133   4.272   8.937   0.868
26037SOL     OW78134   4.726   8.244   1.238
26037SOL    HW178135   4.767   8.212   1.324
26037SOL    HW278136   4.630   8.217   1.235
26038SOL     OW78137   3.764   7.992   1.114
26038SOL    HW178138   3.849   7.959   1.073
26038SOL    HW278139   3.777   8.007   1.212
26039SOL     OW78140   3.913   7.968   1.722
26039SOL    HW178141   3.972   7.928   1.652
26039SOL    HW278142   3.855   8.039   1.681
26040SOL     OW78143   5.093   8.398   1.660
26040SOL    HW178144   5.132   8.487   1.680
26040SOL    HW278145   5.103   8.378   1.563
26041SOL     OW78146   4.539   8.020   0.325
26041SOL    HW178147   4.546   7.931   0.279
26041SOL    HW278148   4.445   8.054   0.317
26042SOL     OW78149   5.381   8.052   1.206
26042SOL    HW178150   5.343   7.983   1.268
26042SOL    HW278151   5.463   8.016   1.162
26043SOL     OW78152   3.976   9.012   1.744
26043SOL    HW178153   3.946   9.069   1.820
26043SOL    HW278154   3.969   8.915   1.770
26044SOL     OW78155   4.395   7.912   1.269
26044SOL    HW178156   4.361   7.823   1.239
26044SOL    HW278157   4.421   7.966   1.189
26045SOL     OW78158   4.654   9.126   1.465
26045SOL    HW178159   4.630   9.108   1.370
26045SOL    HW278160   4.684   9.220   1.475
26046SOL     OW78161   4.197   7.948   0.191
26046SOL    HW178162   4.258   8.028   0.195
26046SOL    HW278163   4.102   7.979   0.198
26047SOL     OW78164   3.883   8.585   1.466
26047SOL    HW178165   3.905   8.524   1.542
26047SOL    HW278166   3.893   8.536   1.380
26048SOL     OW78167   5.071   8.507   1.234
26048SOL    HW178168   5.095   8.444   1.160
26048SOL    HW278169   4.981   8.547   1.216
26049SOL     OW78170   5.026   8.303   0.309
26049SOL    HW178171   4.940   8.272   0.351
26049SOL    HW278172   5.022   8.289   0.210
26050SOL     OW78173   5.483   9.195   1.154
26050SOL    HW178174   5.544   9.225   1.081
26050SOL    HW278175   5.445   9.106   1.132
26051SOL     OW78176   4.976   9.179   1.128
26051SOL    HW178177   5.060   9.184   1.074
26051SOL    HW278178   4.953   9.083   1.146
26052SOL     OW78179   3.807   8.706   1.022
26052SOL    HW178180   3.802   8.705   1.122
26052SOL    HW278181   3.724   8.665   0.984
26053SOL     OW78182   4.412   9.110   1.716
26053SOL    HW178183   4.356   9.191   1.725
26053SOL    HW278184   4.464   9.114   1.630
26054SOL     OW78185   4.627   7.534   0.133
26054SOL    HW178186   4.678   7.535   0.047
26054SOL    HW278187   4.683   7.492   0.204
26055SOL     OW78188   5.450   7.583   0.523
26055SOL    HW178189   5.523   7.566   0.456
26055SOL    HW278190   5.419   7.496   0.561
26056SOL     OW78191   5.112   9.021   0.477
26056SOL    HW178192   5.179   9.033   0.403
26056SOL    HW278193   5.072   9.110   0.500
26057SOL     OW78194   3.854   9.242   1.851
26057SOL    HW178195   3.813   9.168   1.904
26057SOL    HW278196   3.918   9.293   1.909
26058SOL     OW78197   5.004   8.375   0.672
26058SOL    HW178198   5.064   8.294   0.674
26058SOL    HW278199   5.044   8.444   0.612
26059SOL     OW78200   4.554   8.721   1.422
26059SOL    HW178201   4.549   8.754   1.517
26059SOL    HW278202   4.468   8.740   1.376
26060SOL     OW78203   4.396   9.064   0.154
26060SOL    HW178204   4.405   9.074   0.055
26060SOL    HW278205   4.356   8.975   0.175
26061SOL     OW78206   5.374   9.168   1.394
26061SOL    HW178207   5.427   9.178   1.310
26061SOL    HW278208   5.347   9.258   1.428
26062SOL     OW78209   5.565   7.623   0.963
26062SOL    HW178210   5.604   7.538   0.927
26062SOL    HW278211   5.467   7.625   0.944
26063SOL     OW78212   3.987   7.774   0.720
26063SOL    HW178213   3.908   7.825   0.686
26063SOL    HW278214   3.978   7.759   0.818
26064SOL     OW78215   4.918   9.060   0.031
26064SOL    HW178216   4.924   8.967   0.068
26064SOL    HW278217   4.859   9.060  -0.049
26065SOL     OW78218   4.546   8.450   1.372
26065SOL    HW178219   4.586   8.449   1.280
26065SOL    HW278220   4.556   8.542   1.412
26066SOL     OW78221   4.640   8.358   0.291
26066SOL    HW178222   4.703   8.396   0.223
26066SOL    HW278223   4.680   8.275   0.330
26067SOL     OW78224   5.228   9.055   0.044
26067SOL    HW178225   5.136   9.092   0.051
26067SOL    HW278226   5.266   9.075  -0.046
26068SOL     OW78227   4.096   8.736   1.490
26068SOL    HW178228   4.083   8.829   1.456
26068SOL    HW278229   4.012   8.684   1.477
26069SOL     OW78230   5.338   8.740   1.289
26069SOL    HW178231   5.398   8.743   1.369
26069SOL    HW278232   5.263   8.804   1.302
26070SOL     OW78233   4.763   8.546   0.696
26070SOL    HW178234   4.693   8.499   0.750
26070SOL    HW278235   4.822   8.478   0.653
26071SOL     OW78236   4.738   7.684   0.971
26071SOL    HW178237   4.730   7.648   0.878
26071SOL    HW278238   4.736   7.608   1.036
26072SOL     OW78239   4.314   8.935   0.491
26072SOL    HW178240   4.356   8.877   0.421
26072SOL    HW278241   4.270   9.014   0.447
26073SOL     OW78242   5.433   7.833   1.381
26073SOL    HW178243   5.506   7.902   1.385
26073SOL    HW278244   5.461   7.758   1.322
26074SOL     OW78245   3.979   8.796   0.290
26074SOL    HW178246   3.883   8.797   0.263
26074SOL    HW278247   3.991   8.849   0.374
26075SOL     OW78248   3.829   8.461   1.726
26075SOL    HW178249   3.752   8.428   1.780
26075SOL    HW278250   3.914   8.431   1.768
26076SOL     OW78251   4.396   7.651   1.489
26076SOL    HW178252   4.486   7.635   1.449
26076SOL    HW278253   4.404   7.656   1.588
26077SOL     OW78254   5.164   8.304   1.398
26077SOL    HW178255   5.107   8.356   1.335
26077SOL    HW278256   5.260   8.316   1.374
26078SOL     OW78257   3.796   7.614   0.318
26078SOL    HW178258   3.779   7.697   0.264
26078SOL    HW278259   3.886   7.577   0.296
26079SOL     OW78260   4.907   8.783   0.119
26079SOL    HW178261   4.808   8.772   0.121
26079SOL    HW278262   4.941   8.798   0.212
26080SOL     OW78263   4.337   8.290   1.431
26080SOL    HW178264   4.393   8.371   1.414
26080SOL    HW278265   4.396   8.210   1.434
26081SOL     OW78266   5.217   9.215   0.959
26081SOL    HW178267   5.250   9.279   0.890
26081SOL    HW278268   5.283   9.209   1.034
26082SOL     OW78269   4.440   8.013   1.708
26082SOL    HW178270   4.459   8.078   1.782
26082SOL    HW278271   4.500   7.933   1.717
26083SOL     OW78272   5.174   8.668   1.633
26083SOL    HW178273   5.165   8.658   1.732
26083SOL    HW278274   5.270   8.661   1.607
26084SOL     OW78275   4.114   9.189   1.560
26084SOL    HW178276   4.023   9.230   1.558
26084SOL    HW278277   4.107   9.095   1.592
26085SOL     OW78278   5.398   8.331   1.254
26085SOL    HW178279   5.371   8.242   1.217
26085SOL    HW278280   5.399   8.399   1.181
26086SOL     OW78281   4.949   7.773   0.449
26086SOL    HW178282   5.014   7.699   0.438
26086SOL    HW278283   4.969   7.823   0.533
26087SOL     OW78284   4.318   8.193   0.652
26087SOL    HW178285   4.368   8.278   0.633
26087SOL    HW278286   4.230   8.195   0.604
26088SOL     OW78287   5.501   7.790   1.642
26088SOL    HW178288   5.484   7.821   1.548
26088SOL    HW278289   5.417   7.753   1.680
26089SOL     OW78290   5.454   8.382   1.517
26089SOL    HW178291   5.492   8.473   1.532
26089SOL    HW278292   5.446   8.365   1.418
26090SOL     OW78293   4.583   8.822   0.016
26090SOL    HW178294   4.537   8.837   0.104
26090SOL    HW278295   4.627   8.907  -0.014
26091SOL     OW78296   4.385   9.238   0.953
26091SOL    HW178297   4.339   9.326   0.940
26091SOL    HW278298   4.484   9.250   0.946
26092SOL     OW78299   4.583   8.404   0.861
26092SOL    HW178300   4.637   8.335   0.909
26092SOL    HW278301   4.551   8.473   0.927
26093SOL     OW78302   4.807   8.432   0.087
26093SOL    HW178303   4.784   8.485   0.005
26093SOL    HW278304   4.888   8.376   0.068
26094SOL     OW78305   5.585   9.017   0.851
26094SOL    HW178306   5.514   9.005   0.781
26094SOL    HW278307   5.586   8.938   0.911
26095SOL     OW78308   3.945   8.762   1.844
26095SOL    HW178309   3.880   8.689   1.823
26095SOL    HW278310   3.949   8.776   1.942
26096SOL     OW78311   3.803   8.688   0.653
26096SOL    HW178312   3.802   8.641   0.741
26096SOL    HW278313   3.885   8.660   0.602
26097SOL     OW78314   4.396   8.839   1.624
26097SOL    HW178315   4.318   8.789   1.662
26097SOL    HW278316   4.393   8.934   1.655
26098SOL     OW78317   5.548   7.640   1.227
26098SOL    HW178318   5.544   7.550   1.271
26098SOL    HW278319   5.551   7.629   1.128
26099SOL     OW78320   4.152   7.872   0.520
26099SOL    HW178321   4.182   7.800   0.458
26099SOL    HW278322   4.113   7.832   0.603
26100SOL     OW78323   5.429   8.935   1.104
26100SOL    HW178324   5.336   8.910   1.077
26100SOL    HW278325   5.455   8.885   1.186
26101SOL     OW78326   4.041   7.995   1.280
26101SOL    HW178327   4.079   7.936   1.352
26101SOL    HW278328   4.081   7.969   1.192
26102SOL     OW78329   4.536   9.034   0.687
26102SOL    HW178330   4.568   9.044   0.593
26102SOL    HW278331   4.457   8.972   0.689
26103SOL     OW78332   5.148   7.662   1.112
26103SOL    HW178333   5.200   7.597   1.167
26103SOL    HW278334   5.099   7.725   1.173
26104SOL     OW78335   4.725   7.482   1.154
26104SOL    HW178336   4.662   7.410   1.123
26104SOL    HW278337   4.818   7.446   1.154
26105SOL     OW78338   4.494   8.778   0.301
26105SOL    HW178339   4.448   8.691   0.318
26105SOL    HW278340   4.585   8.775   0.342
26106SOL     OW78341   4.342   9.015   1.284
26106SOL    HW178342   4.337   9.097   1.341
26106SOL    HW278343   4.431   9.012   1.239
26107SOL     OW78344   5.076   7.500   0.168
26107SOL    HW178345   5.111   7.459   0.084
26107SOL    HW278346   4.986   7.462   0.188
26108SOL     OW78347   5.024   7.901   0.691
26108SOL    HW178348   4.965   7.981   0.695
26108SOL    HW278349   5.039   7.866   0.784
26109SOL     OW78350   5.317   7.669   0.882
26109SOL    HW178351   5.233   7.668   0.936
26109SOL    HW278352   5.319   7.752   0.826
26110SOL     OW78353   3.763   8.525   0.300
26110SOL    HW178354   3.862   8.514   0.291
26110SOL    HW278355   3.723   8.439   0.332
26111SOL     OW78356   4.599   9.094   0.337
26111SOL    HW178357   4.522   9.059   0.283
26111SOL    HW278358   4.567   9.165   0.399
26112SOL     OW78359   3.954   8.076   1.975
26112SOL    HW178360   3.861   8.074   2.012
26112SOL    HW278361   3.955   8.037   1.883
26113SOL     OW78362   3.949   7.723   2.858
26113SOL    HW178363   3.984   7.706   2.950
26113SOL    HW278364   3.861   7.678   2.846
26114SOL     OW78365   3.743   7.816   2.509
26114SOL    HW178366   3.661   7.859   2.548
26114SOL    HW278367   3.715   7.743   2.446
26115SOL     OW78368   4.293   8.723   3.027
26115SOL    HW178369   4.200   8.716   2.990
26115SOL    HW278370   4.304   8.812   3.071
26116SOL     OW78371   5.279   8.959   2.565
26116SOL    HW178372   5.222   8.943   2.646
26116SOL    HW278373   5.220   8.969   2.485
26117SOL     OW78374   4.859   8.151   2.579
26117SOL    HW178375   4.916   8.229   2.554
26117SOL    HW278376   4.799   8.177   2.655
26118SOL     OW78377   5.479   8.055   2.093
26118SOL    HW178378   5.467   8.042   1.994
26118SOL    HW278379   5.449   7.974   2.142
26119SOL     OW78380   4.492   8.592   2.885
26119SOL    HW178381   4.414   8.609   2.945
26119SOL    HW278382   4.526   8.679   2.849
26120SOL     OW78383   4.574   8.246   3.685
26120SOL    HW178384   4.570   8.322   3.750
26120SOL    HW278385   4.596   8.282   3.594
26121SOL     OW78386   4.409   8.460   2.527
26121SOL    HW178387   4.478   8.444   2.597
26121SOL    HW278388   4.336   8.517   2.565
26122SOL     OW78389   4.410   8.609   3.665
26122SOL    HW178390   4.470   8.688   3.679
26122SOL    HW278391   4.324   8.640   3.624
26123SOL     OW78392   4.059   8.883   2.923
26123SOL    HW178393   3.981   8.852   2.870
26123SOL    HW278394   4.117   8.941   2.866
26124SOL     OW78395   5.184   8.953   3.201
26124SOL    HW178396   5.208   9.047   3.227
26124SOL    HW278397   5.168   8.899   3.283
26125SOL     OW78398   4.162   7.840   3.361
26125SOL    HW178399   4.244   7.784   3.370
26125SOL    HW278400   4.081   7.782   3.365
26126SOL     OW78401   5.327   7.895   2.599
26126SOL    HW178402   5.253   7.941   2.549
26126SOL    HW278403   5.378   7.963   2.652
26127SOL     OW78404   3.955   9.161   2.345
26127SOL    HW178405   3.989   9.238   2.399
26127SOL    HW278406   3.999   9.161   2.255
26128SOL     OW78407   4.851   8.789   3.552
26128SOL    HW178408   4.898   8.789   3.640
26128SOL    HW278409   4.803   8.702   3.541
26129SOL     OW78410   3.954   8.882   2.400
26129SOL    HW178411   3.928   8.978   2.400
26129SOL    HW278412   3.883   8.828   2.445
26130SOL     OW78413   3.964   8.539   2.748
26130SOL    HW178414   3.978   8.455   2.800
26130SOL    HW278415   3.909   8.603   2.803
26131SOL     OW78416   4.344   9.234   3.301
26131SOL    HW178417   4.252   9.217   3.336
26131SOL    HW278418   4.372   9.326   3.327
26132SOL     OW78419   4.330   8.412   1.985
26132SOL    HW178420   4.337   8.496   1.931
26132SOL    HW278421   4.376   8.425   2.073
26133SOL     OW78422   5.318   7.562   3.342
26133SOL    HW178423   5.300   7.629   3.270
26133SOL    HW278424   5.315   7.608   3.431
26134SOL     OW78425   3.846   8.091   2.425
26134SOL    HW178426   3.801   8.003   2.442
26134SOL    HW278427   3.845   8.145   2.509
26135SOL     OW78428   5.566   9.215   2.221
26135SOL    HW178429   5.620   9.186   2.301
26135SOL    HW278430   5.596   9.305   2.192
26136SOL     OW78431   3.751   9.044   1.979
26136SOL    HW178432   3.732   8.948   2.000
26136SOL    HW278433   3.718   9.102   2.054
26137SOL     OW78434   5.413   8.370   2.474
26137SOL    HW178435   5.508   8.341   2.482
26137SOL    HW278436   5.405   8.435   2.399
26138SOL     OW78437   5.365   8.556   2.294
26138SOL    HW178438   5.451   8.558   2.242
26138SOL    HW278439   5.379   8.603   2.382
26139SOL     OW78440   3.837   8.185   3.459
26139SOL    HW178441   3.925   8.172   3.504
26139SOL    HW278442   3.824   8.282   3.437
26140SOL     OW78443   4.337   8.813   2.588
26140SOL    HW178444   4.288   8.726   2.597
26140SOL    HW278445   4.314   8.856   2.501
26141SOL     OW78446   5.017   8.676   3.285
26141SOL    HW178447   5.054   8.603   3.227
26141SOL    HW278448   5.069   8.681   3.370
26142SOL     OW78449   4.533   7.452   2.364
26142SOL    HW178450   4.573   7.543   2.355
26142SOL    HW278451   4.433   7.460   2.370
26143SOL     OW78452   3.921   8.424   3.126
26143SOL    HW178453   4.010   8.379   3.112
26143SOL    HW278454   3.848   8.359   3.107
26144SOL     OW78455   5.249   8.447   2.052
26144SOL    HW178456   5.186   8.371   2.065
26144SOL    HW278457   5.297   8.465   2.138
26145SOL     OW78458   4.911   9.240   3.478
26145SOL    HW178459   4.935   9.300   3.402
26145SOL    HW278460   4.918   9.145   3.448
26146SOL     OW78461   4.041   7.699   3.663
26146SOL    HW178462   4.112   7.770   3.669
26146SOL    HW278463   3.953   7.738   3.691
26147SOL     OW78464   5.190   8.865   2.815
26147SOL    HW178465   5.131   8.871   2.895
26147SOL    HW278466   5.175   8.777   2.769
26148SOL     OW78467   5.391   9.162   2.434
26148SOL    HW178468   5.350   9.139   2.346
26148SOL    HW278469   5.373   9.088   2.499
26149SOL     OW78470   4.322   8.177   2.132
26149SOL    HW178471   4.346   8.246   2.064
26149SOL    HW278472   4.244   8.210   2.186
26150SOL     OW78473   5.005   7.793   2.806
26150SOL    HW178474   4.919   7.743   2.793
26150SOL    HW278475   5.067   7.739   2.862
26151SOL     OW78476   5.300   9.110   2.169
26151SOL    HW178477   5.389   9.156   2.172
26151SOL    HW278478   5.279   9.086   2.074
26152SOL     OW78479   4.531   8.053   3.327
26152SOL    HW178480   4.484   8.050   3.416
26152SOL    HW278481   4.480   7.998   3.261
26153SOL     OW78482   5.118   7.917   3.536
26153SOL    HW178483   5.098   7.960   3.624
26153SOL    HW278484   5.196   7.855   3.545
26154SOL     OW78485   4.697   8.338   3.434
26154SOL    HW178486   4.743   8.254   3.405
26154SOL    HW278487   4.641   8.372   3.359
26155SOL     OW78488   4.715   7.858   3.104
26155SOL    HW178489   4.638   7.892   3.158
26155SOL    HW278490   4.681   7.807   3.025
26156SOL     OW78491   4.765   8.149   2.291
26156SOL    HW178492   4.791   8.145   2.387
26156SOL    HW278493   4.680   8.098   2.277
26157SOL     OW78494   3.800   8.259   2.651
26157SOL    HW178495   3.899   8.247   2.660
26157SOL    HW278496   3.776   8.354   2.672
26158SOL     OW78497   3.854   9.269   3.433
26158SOL    HW178498   3.844   9.254   3.532
26158SOL    HW278499   3.768   9.305   3.397
26159SOL     OW78500   4.589   7.796   2.057
26159SOL    HW178501   4.648   7.859   2.008
26159SOL    HW278502   4.608   7.702   2.028
26160SOL     OW78503   5.443   8.033   3.693
26160SOL    HW178504   5.417   8.122   3.657
26160SOL    HW278505   5.441   7.965   3.620
26161SOL     OW78506   5.086   8.592   2.407
26161SOL    HW178507   5.169   8.563   2.359
26161SOL    HW278508   5.037   8.659   2.351
26162SOL     OW78509   4.274   7.644   2.747
26162SOL    HW178510   4.269   7.639   2.847
26162SOL    HW278511   4.276   7.740   2.718
26163SOL     OW78512   4.732   8.904   2.339
26163SOL    HW178513   4.686   8.976   2.287
26163SOL    HW278514   4.728   8.924   2.437
26164SOL     OW78515   4.075   9.249   2.715
26164SOL    HW178516   4.125   9.163   2.721
26164SOL    HW278517   4.140   9.326   2.712
26165SOL     OW78518   5.519   8.514   2.735
26165SOL    HW178519   5.457   8.499   2.659
26165SOL    HW278520   5.467   8.525   2.820
26166SOL     OW78521   4.951   8.998   3.368
26166SOL    HW178522   4.957   8.921   3.432
26166SOL    HW278523   4.899   8.972   3.288
26167SOL     OW78524   4.045   8.391   2.104
26167SOL    HW178525   4.127   8.430   2.062
26167SOL    HW278526   4.018   8.309   2.055
26168SOL     OW78527   5.182   8.183   2.590
26168SOL    HW178528   5.177   8.118   2.665
26168SOL    HW278529   5.262   8.242   2.603
26169SOL     OW78530   4.185   8.714   3.589
26169SOL    HW178531   4.135   8.715   3.503
26169SOL    HW278532   4.122   8.696   3.665
26170SOL     OW78533   4.835   9.224   2.099
26170SOL    HW178534   4.775   9.162   2.149
26170SOL    HW278535   4.866   9.180   2.014
26171SOL     OW78536   3.926   7.733   3.360
26171SOL    HW178537   3.846   7.793   3.347
26171SOL    HW278538   3.916   7.684   3.446
26172SOL     OW78539   5.356   8.825   1.943
26172SOL    HW178540   5.324   8.919   1.933
26172SOL    HW278541   5.280   8.762   1.931
26173SOL     OW78542   4.188   9.191   2.185
26173SOL    HW178543   4.221   9.230   2.271
26173SOL    HW278544   4.264   9.184   2.120
26174SOL     OW78545   5.124   7.555   2.288
26174SOL    HW178546   5.100   7.518   2.198
26174SOL    HW278547   5.223   7.571   2.292
26175SOL     OW78548   3.973   9.233   3.103
26175SOL    HW178549   4.030   9.168   3.153
26175SOL    HW278550   3.957   9.200   3.010
26176SOL     OW78551   4.664   9.146   2.766
26176SOL    HW178552   4.744   9.089   2.787
26176SOL    HW278553   4.615   9.106   2.689
26177SOL     OW78554   4.106   8.148   2.342
26177SOL    HW178555   4.151   8.058   2.339
26177SOL    HW278556   4.012   8.137   2.375
26178SOL     OW78557   5.271   7.670   3.591
26178SOL    HW178558   5.266   7.707   3.683
26178SOL    HW278559   5.199   7.601   3.579
26179SOL     OW78560   4.338   7.570   1.979
26179SOL    HW178561   4.436   7.548   1.986
26179SOL    HW278562   4.307   7.553   1.886
26180SOL     OW78563   4.505   7.712   3.611
26180SOL    HW178564   4.572   7.651   3.654
26180SOL    HW278565   4.432   7.731   3.676
26181SOL     OW78566   4.612   8.962   3.057
26181SOL    HW178567   4.589   8.937   2.963
26181SOL    HW278568   4.673   8.893   3.096
26182SOL     OW78569   5.075   8.038   3.295
26182SOL    HW178570   5.103   7.995   3.380
26182SOL    HW278571   5.100   8.134   3.296
26183SOL     OW78572   4.527   8.850   2.786
26183SOL    HW178573   4.617   8.864   2.744
26183SOL    HW278574   4.456   8.852   2.715
26184SOL     OW78575   4.646   7.951   2.761
26184SOL    HW178576   4.621   7.942   2.665
26184SOL    HW278577   4.694   7.869   2.792
26185SOL     OW78578   4.263   7.512   2.374
26185SOL    HW178579   4.182   7.513   2.432
26185SOL    HW278580   4.266   7.595   2.319
26186SOL     OW78581   5.158   8.636   1.903
26186SOL    HW178582   5.190   8.560   1.960
26186SOL    HW278583   5.066   8.663   1.933
26187SOL     OW78584   4.021   7.483   2.033
26187SOL    HW178585   4.070   7.567   2.012
26187SOL    HW278586   4.083   7.418   2.078
26188SOL     OW78587   4.659   7.684   2.342
26188SOL    HW178588   4.611   7.725   2.264
26188SOL    HW278589   4.758   7.682   2.323
26189SOL     OW78590   4.800   8.131   3.326
26189SOL    HW178591   4.720   8.070   3.329
26189SOL    HW278592   4.881   8.078   3.302
26190SOL     OW78593   4.951   9.018   2.655
26190SOL    HW178594   4.972   9.092   2.590
26190SOL    HW278595   5.019   9.018   2.728
26191SOL     OW78596   4.183   8.600   2.603
26191SOL    HW178597   4.112   8.573   2.668
26191SOL    HW278598   4.157   8.572   2.510
26192SOL     OW78599   4.995   9.245   2.453
26192SOL    HW178600   5.039   9.309   2.389
26192SOL    HW278601   4.945   9.297   2.523
26193SOL     OW78602   4.756   7.997   1.878
26193SOL    HW178603   4.715   8.079   1.839
26193SOL    HW278604   4.820   8.023   1.951
26194SOL     OW78605   3.802   8.004   3.248
26194SOL    HW178606   3.894   8.003   3.207
26194SOL    HW278607   3.796   8.078   3.315
26195SOL     OW78608   4.285   7.670   3.009
26195SOL    HW178609   4.323   7.586   3.046
26195SOL    HW278610   4.197   7.689   3.053
26196SOL     OW78611   4.590   7.902   2.504
26196SOL    HW178612   4.558   7.974   2.442
26196SOL    HW278613   4.614   7.821   2.451
26197SOL     OW78614   4.741   7.487   2.615
26197SOL    HW178615   4.669   7.492   2.546
26197SOL    HW278616   4.717   7.418   2.684
26198SOL     OW78617   5.153   8.621   2.729
26198SOL    HW178618   5.098   8.537   2.722
26198SOL    HW278619   5.179   8.650   2.637
26199SOL     OW78620   5.190   8.038   2.854
26199SOL    HW178621   5.160   7.943   2.861
26199SOL    HW278622   5.263   8.054   2.920
26200SOL     OW78623   5.581   8.281   2.239
26200SOL    HW178624   5.623   8.217   2.303
26200SOL    HW278625   5.543   8.230   2.161
26201SOL     OW78626   4.212   8.833   2.036
26201SOL    HW178627   4.125   8.818   2.083
26201SOL    HW278628   4.195   8.859   1.941
26202SOL     OW78629   5.388   8.728   2.519
26202SOL    HW178630   5.487   8.736   2.533
26202SOL    HW278631   5.343   8.812   2.550
26203SOL     OW78632   5.114   8.023   1.940
26203SOL    HW178633   5.060   8.002   2.021
26203SOL    HW278634   5.205   7.982   1.949
26204SOL     OW78635   4.251   7.704   2.190
26204SOL    HW178636   4.278   7.645   2.115
26204SOL    HW278637   4.251   7.799   2.159
26205SOL     OW78638   5.478   8.671   3.450
26205SOL    HW178639   5.569   8.632   3.437
26205SOL    HW278640   5.486   8.767   3.474
26206SOL     OW78641   4.788   8.795   3.202
26206SOL    HW178642   4.708   8.772   3.257
26206SOL    HW278643   4.871   8.769   3.251
26207SOL     OW78644   5.316   9.077   3.487
26207SOL    HW178645   5.343   9.111   3.397
26207SOL    HW278646   5.395   9.039   3.533
26208SOL     OW78647   4.835   8.643   2.962
26208SOL    HW178648   4.795   8.687   3.043
26208SOL    HW278649   4.794   8.680   2.879
26209SOL     OW78650   5.362   8.547   2.941
26209SOL    HW178651   5.367   8.628   3.000
26209SOL    HW278652   5.276   8.549   2.890
26210SOL     OW78653   4.639   7.537   3.264
26210SOL    HW178654   4.664   7.517   3.169
26210SOL    HW278655   4.711   7.593   3.306
26211SOL     OW78656   4.704   8.564   3.581
26211SOL    HW178657   4.605   8.570   3.591
26211SOL    HW278658   4.727   8.484   3.525
26212SOL     OW78659   4.429   8.498   2.230
26212SOL    HW178660   4.415   8.505   2.329
26212SOL    HW278661   4.513   8.447   2.212
26213SOL     OW78662   4.134   8.261   3.113
26213SOL    HW178663   4.220   8.273   3.163
26213SOL    HW278664   4.092   8.174   3.140
26214SOL     OW78665   4.998   7.834   3.124
26214SOL    HW178666   5.019   7.908   3.188
26214SOL    HW278667   4.909   7.851   3.081
26215SOL     OW78668   3.788   9.012   3.193
26215SOL    HW178669   3.742   9.094   3.159
26215SOL    HW278670   3.886   9.031   3.202
26216SOL     OW78671   4.091   8.548   2.363
26216SOL    HW178672   4.084   8.631   2.307
26216SOL    HW278673   4.095   8.468   2.303
26217SOL     OW78674   4.290   7.985   2.727
26217SOL    HW178675   4.302   8.051   2.653
26217SOL    HW278676   4.336   8.019   2.810
26218SOL     OW78677   4.976   8.796   2.250
26218SOL    HW178678   5.026   8.873   2.290
26218SOL    HW278679   4.881   8.798   2.282
26219SOL     OW78680   4.996   8.893   3.004
26219SOL    HW178681   5.043   8.906   3.091
26219SOL    HW278682   4.930   8.819   3.013
26220SOL     OW78683   5.306   8.087   2.334
26220SOL    HW178684   5.275   8.148   2.407
26220SOL    HW278685   5.356   8.139   2.265
26221SOL     OW78686   4.078   8.958   3.191
26221SOL    HW178687   4.057   8.914   3.104
26221SOL    HW278688   4.175   8.984   3.194
26222SOL     OW78689   4.126   8.199   3.460
26222SOL    HW178690   4.194   8.254   3.413
26222SOL    HW278691   4.166   8.111   3.487
26223SOL     OW78692   5.311   8.227   3.532
26223SOL    HW178693   5.219   8.265   3.527
26223SOL    HW278694   5.371   8.274   3.467
26224SOL     OW78695   4.737   7.553   3.632
26224SOL    HW178696   4.743   7.638   3.580
26224SOL    HW278697   4.769   7.477   3.575
26225SOL     OW78698   4.228   7.498   3.602
26225SOL    HW178699   4.186   7.441   3.532
26225SOL    HW278700   4.162   7.567   3.634
26226SOL     OW78701   4.297   8.318   2.891
26226SOL    HW178702   4.341   8.407   2.882
26226SOL    HW278703   4.234   8.318   2.968
26227SOL     OW78704   5.084   8.310   2.907
26227SOL    HW178705   5.009   8.310   2.841
26227SOL    HW278706   5.121   8.218   2.916
26228SOL     OW78707   4.933   7.973   2.137
26228SOL    HW178708   4.946   7.889   2.191
26228SOL    HW278709   4.904   8.047   2.197
26229SOL     OW78710   4.031   7.661   3.093
26229SOL    HW178711   4.008   7.698   3.183
26229SOL    HW278712   4.001   7.566   3.087
26230SOL     OW78713   3.761   8.758   3.144
26230SOL    HW178714   3.814   8.709   3.212
26230SOL    HW278715   3.783   8.856   3.149
26231SOL     OW78716   4.456   8.082   2.926
26231SOL    HW178717   4.515   8.056   2.850
26231SOL    HW278718   4.428   8.178   2.915
26232SOL     OW78719   5.452   8.383   3.716
26232SOL    HW178720   5.406   8.376   3.627
26232SOL    HW278721   5.390   8.427   3.782
26233SOL     OW78722   4.031   7.511   2.480
26233SOL    HW178723   4.020   7.605   2.513
26233SOL    HW278724   4.026   7.448   2.557
26234SOL     OW78725   5.346   7.815   2.236
26234SOL    HW178726   5.348   7.739   2.300
26234SOL    HW278727   5.298   7.892   2.276
26235SOL     OW78728   4.747   8.214   2.828
26235SOL    HW178729   4.762   8.235   2.924
26235SOL    HW278730   4.717   8.119   2.819
26236SOL     OW78731   4.704   9.021   3.562
26236SOL    HW178732   4.684   9.065   3.474
26236SOL    HW278733   4.743   8.930   3.546
26237SOL     OW78734   5.583   8.966   3.467
26237SOL    HW178735   5.597   8.993   3.372
26237SOL    HW278736   5.666   8.988   3.520
26238SOL     OW78737   4.074   8.346   3.666
26238SOL    HW178738   4.150   8.390   3.714
26238SOL    HW278739   4.109   8.299   3.584
26239SOL     OW78740   5.264   7.722   1.987
26239SOL    HW178741   5.203   7.647   2.010
26239SOL    HW278742   5.286   7.774   2.070
26240SOL     OW78743   5.027   8.286   1.904
26240SOL    HW178744   5.061   8.193   1.919
26240SOL    HW278745   5.045   8.313   1.809
26241SOL     OW78746   4.792   8.781   2.711
26241SOL    HW178747   4.799   8.697   2.656
26241SOL    HW278748   4.854   8.850   2.675
26242SOL     OW78749   4.043   8.258   2.811
26242SOL    HW178750   4.136   8.294   2.816
26242SOL    HW278751   4.037   8.173   2.863
26243SOL     OW78752   4.063   7.957   2.868
26243SOL    HW178753   4.011   7.874   2.851
26243SOL    HW278754   4.140   7.962   2.804
26244SOL     OW78755   4.862   7.828   3.540
26244SOL    HW178756   4.817   7.891   3.604
26244SOL    HW278757   4.955   7.859   3.523
26245SOL     OW78758   4.884   7.655   3.339
26245SOL    HW178759   4.884   7.719   3.416
26245SOL    HW278760   4.912   7.703   3.256
26246SOL     OW78761   3.732   8.774   2.062
26246SOL    HW178762   3.639   8.795   2.031
26246SOL    HW278763   3.742   8.675   2.075
26247SOL     OW78764   3.812   9.249   2.789
26247SOL    HW178765   3.770   9.163   2.762
26247SOL    HW278766   3.906   9.252   2.755
26248SOL     OW78767   4.228   9.016   2.772
26248SOL    HW178768   4.294   9.090   2.781
26248SOL    HW278769   4.272   8.937   2.730
26249SOL     OW78770   4.726   8.244   3.100
26249SOL    HW178771   4.767   8.212   3.186
26249SOL    HW278772   4.630   8.217   3.097
26250SOL     OW78773   3.764   7.992   2.976
26250SOL    HW178774   3.849   7.959   2.935
26250SOL    HW278775   3.777   8.007   3.074
26251SOL     OW78776   3.913   7.968   3.584
26251SOL    HW178777   3.972   7.928   3.514
26251SOL    HW278778   3.855   8.039   3.543
26252SOL     OW78779   5.093   8.398   3.522
26252SOL    HW178780   5.132   8.487   3.542
26252SOL    HW278781   5.103   8.378   3.425
26253SOL     OW78782   4.539   8.020   2.187
26253SOL    HW178783   4.546   7.931   2.141
26253SOL    HW278784   4.445   8.054   2.179
26254SOL     OW78785   5.381   8.052   3.068
26254SOL    HW178786   5.343   7.983   3.130
26254SOL    HW278787   5.463   8.016   3.024
26255SOL     OW78788   3.976   9.012   3.606
26255SOL    HW178789   3.946   9.069   3.682
26255SOL    HW278790   3.969   8.915   3.632
26256SOL     OW78791   4.395   7.912   3.131
26256SOL    HW178792   4.361   7.823   3.101
26256SOL    HW278793   4.421   7.966   3.051
26257SOL     OW78794   4.654   9.126   3.327
26257SOL    HW178795   4.630   9.108   3.232
26257SOL    HW278796   4.684   9.220   3.337
26258SOL     OW78797   4.197   7.948   2.053
26258SOL    HW178798   4.258   8.028   2.057
26258SOL    HW278799   4.102   7.979   2.060
26259SOL     OW78800   3.883   8.585   3.328
26259SOL    HW178801   3.905   8.524   3.404
26259SOL    HW278802   3.893   8.536   3.242
26260SOL     OW78803   5.071   8.507   3.096
26260SOL    HW178804   5.095   8.444   3.022
26260SOL    HW278805   4.981   8.547   3.078
26261SOL     OW78806   5.026   8.303   2.171
26261SOL    HW178807   4.940   8.272   2.213
26261SOL    HW278808   5.022   8.289   2.072
26262SOL     OW78809   5.483   9.195   3.016
26262SOL    HW178810   5.544   9.225   2.943
26262SOL    HW278811   5.445   9.106   2.994
26263SOL     OW78812   4.976   9.179   2.990
26263SOL    HW178813   5.060   9.184   2.936
26263SOL    HW278814   4.953   9.083   3.008
26264SOL     OW78815   3.807   8.706   2.884
26264SOL    HW178816   3.802   8.705   2.984
26264SOL    HW278817   3.724   8.665   2.846
26265SOL     OW78818   4.412   9.110   3.578
26265SOL    HW178819   4.356   9.191   3.587
26265SOL    HW278820   4.464   9.114   3.492
26266SOL     OW78821   5.450   7.583   2.385
26266SOL    HW178822   5.523   7.566   2.318
26266SOL    HW278823   5.419   7.496   2.423
26267SOL     OW78824   5.112   9.021   2.339
26267SOL    HW178825   5.179   9.033   2.265
26267SOL    HW278826   5.072   9.110   2.362
26268SOL     OW78827   3.854   9.242   3.713
26268SOL    HW178828   3.813   9.168   3.766
26268SOL    HW278829   3.918   9.293   3.771
26269SOL     OW78830   5.004   8.375   2.534
26269SOL    HW178831   5.064   8.294   2.536
26269SOL    HW278832   5.044   8.444   2.474
26270SOL     OW78833   4.554   8.721   3.284
26270SOL    HW178834   4.549   8.754   3.379
26270SOL    HW278835   4.468   8.740   3.238
26271SOL     OW78836   4.396   9.064   2.016
26271SOL    HW178837   4.405   9.074   1.917
26271SOL    HW278838   4.356   8.975   2.037
26272SOL     OW78839   5.374   9.168   3.256
26272SOL    HW178840   5.427   9.178   3.172
26272SOL    HW278841   5.347   9.258   3.290
26273SOL     OW78842   5.565   7.623   2.825
26273SOL    HW178843   5.604   7.538   2.789
26273SOL    HW278844   5.467   7.625   2.806
26274SOL     OW78845   3.987   7.774   2.582
26274SOL    HW178846   3.908   7.825   2.548
26274SOL    HW278847   3.978   7.759   2.680
26275SOL     OW78848   4.918   9.060   1.893
26275SOL    HW178849   4.924   8.967   1.930
26275SOL    HW278850   4.859   9.060   1.813
26276SOL     OW78851   4.546   8.450   3.234
26276SOL    HW178852   4.586   8.449   3.142
26276SOL    HW278853   4.556   8.542   3.274
26277SOL     OW78854   4.640   8.358   2.153
26277SOL    HW178855   4.703   8.396   2.085
26277SOL    HW278856   4.680   8.275   2.192
26278SOL     OW78857   5.228   9.055   1.906
26278SOL    HW178858   5.136   9.092   1.913
26278SOL    HW278859   5.266   9.075   1.816
26279SOL     OW78860   4.096   8.736   3.352
26279SOL    HW178861   4.083   8.829   3.318
26279SOL    HW278862   4.012   8.684   3.339
26280SOL     OW78863   5.338   8.740   3.151
26280SOL    HW178864   5.398   8.743   3.231
26280SOL    HW278865   5.263   8.804   3.164
26281SOL     OW78866   4.763   8.546   2.558
26281SOL    HW178867   4.693   8.499   2.612
26281SOL    HW278868   4.822   8.478   2.515
26282SOL     OW78869   4.738   7.684   2.833
26282SOL    HW178870   4.730   7.648   2.740
26282SOL    HW278871   4.736   7.608   2.898
26283SOL     OW78872   4.314   8.935   2.353
26283SOL    HW178873   4.356   8.877   2.283
26283SOL    HW278874   4.270   9.014   2.309
26284SOL     OW78875   5.433   7.833   3.243
26284SOL    HW178876   5.506   7.902   3.247
26284SOL    HW278877   5.461   7.758   3.184
26285SOL     OW78878   3.979   8.796   2.152
26285SOL    HW178879   3.883   8.797   2.125
26285SOL    HW278880   3.991   8.849   2.236
26286SOL     OW78881   3.829   8.461   3.588
26286SOL    HW178882   3.752   8.428   3.642
26286SOL    HW278883   3.914   8.431   3.630
26287SOL     OW78884   4.396   7.651   3.351
26287SOL    HW178885   4.486   7.635   3.311
26287SOL    HW278886   4.404   7.656   3.450
26288SOL     OW78887   3.799   7.793   1.895
26288SOL    HW178888   3.707   7.765   1.866
26288SOL    HW278889   3.830   7.870   1.839
26289SOL     OW78890   5.164   8.304   3.260
26289SOL    HW178891   5.107   8.356   3.197
26289SOL    HW278892   5.260   8.316   3.236
26290SOL     OW78893   3.796   7.614   2.180
26290SOL    HW178894   3.779   7.697   2.126
26290SOL    HW278895   3.886   7.577   2.158
26291SOL     OW78896   4.907   8.783   1.981
26291SOL    HW178897   4.808   8.772   1.983
26291SOL    HW278898   4.941   8.798   2.074
26292SOL     OW78899   4.337   8.290   3.293
26292SOL    HW178900   4.393   8.371   3.276
26292SOL    HW278901   4.396   8.210   3.296
26293SOL     OW78902   5.217   9.215   2.821
26293SOL    HW178903   5.250   9.279   2.752
26293SOL    HW278904   5.283   9.209   2.896
26294SOL     OW78905   4.440   8.013   3.570
26294SOL    HW178906   4.459   8.078   3.644
26294SOL    HW278907   4.500   7.933   3.579
26295SOL     OW78908   5.174   8.668   3.495
26295SOL    HW178909   5.165   8.658   3.594
26295SOL    HW278910   5.270   8.661   3.469
26296SOL     OW78911   4.114   9.189   3.422
26296SOL    HW178912   4.023   9.230   3.420
26296SOL    HW278913   4.107   9.095   3.454
26297SOL     OW78914   5.398   8.331   3.116
26297SOL    HW178915   5.371   8.242   3.079
26297SOL    HW278916   5.399   8.399   3.043
26298SOL     OW78917   4.949   7.773   2.311
26298SOL    HW178918   5.014   7.699   2.300
26298SOL    HW278919   4.969   7.823   2.395
26299SOL     OW78920   4.318   8.193   2.514
26299SOL    HW178921   4.368   8.278   2.495
26299SOL    HW278922   4.230   8.195   2.466
26300SOL     OW78923   5.501   7.790   3.504
26300SOL    HW178924   5.484   7.821   3.410
26300SOL    HW278925   5.417   7.753   3.542
26301SOL     OW78926   5.454   8.382   3.379
26301SOL    HW178927   5.492   8.473   3.394
26301SOL    HW278928   5.446   8.365   3.280
26302SOL     OW78929   4.583   8.822   1.878
26302SOL    HW178930   4.537   8.837   1.966
26302SOL    HW278931   4.627   8.907   1.848
26303SOL     OW78932   4.385   9.238   2.815
26303SOL    HW178933   4.339   9.326   2.802
26303SOL    HW278934   4.484   9.250   2.808
26304SOL     OW78935   4.583   8.404   2.723
26304SOL    HW178936   4.637   8.335   2.771
26304SOL    HW278937   4.551   8.473   2.789
26305SOL     OW78938   4.807   8.432   1.949
26305SOL    HW178939   4.784   8.485   1.867
26305SOL    HW278940   4.888   8.376   1.930
26306SOL     OW78941   5.585   9.017   2.713
26306SOL    HW178942   5.514   9.005   2.643
26306SOL    HW278943   5.586   8.938   2.773
26307SOL     OW78944   3.945   8.762   3.706
26307SOL    HW178945   3.880   8.689   3.685
26307SOL    HW278946   3.949   8.776   3.804
26308SOL     OW78947   3.803   8.688   2.515
26308SOL    HW178948   3.802   8.641   2.603
26308SOL    HW278949   3.885   8.660   2.464
26309SOL     OW78950   4.396   8.839   3.486
26309SOL    HW178951   4.318   8.789   3.524
26309SOL    HW278952   4.393   8.934   3.517
26310SOL     OW78953   5.548   7.640   3.089
26310SOL    HW178954   5.544   7.550   3.133
26310SOL    HW278955   5.551   7.629   2.990
26311SOL     OW78956   4.152   7.872   2.382
26311SOL    HW178957   4.182   7.800   2.320
26311SOL    HW278958   4.113   7.832   2.465
26312SOL     OW78959   5.429   8.935   2.966
26312SOL    HW178960   5.336   8.910   2.939
26312SOL    HW278961   5.455   8.885   3.048
26313SOL     OW78962   4.041   7.995   3.142
26313SOL    HW178963   4.079   7.936   3.214
26313SOL    HW278964   4.081   7.969   3.054
26314SOL     OW78965   4.536   9.034   2.549
26314SOL    HW178966   4.568   9.044   2.455
26314SOL    HW278967   4.457   8.972   2.551
26315SOL     OW78968   5.148   7.662   2.974
26315SOL    HW178969   5.200   7.597   3.029
26315SOL    HW278970   5.099   7.725   3.035
26316SOL     OW78971   4.725   7.482   3.016
26316SOL    HW178972   4.662   7.410   2.985
26316SOL    HW278973   4.818   7.446   3.016
26317SOL     OW78974   4.494   8.778   2.163
26317SOL    HW178975   4.448   8.691   2.180
26317SOL    HW278976   4.585   8.775   2.204
26318SOL     OW78977   4.342   9.015   3.146
26318SOL    HW178978   4.337   9.097   3.203
26318SOL    HW278979   4.431   9.012   3.101
26319SOL     OW78980   5.076   7.500   2.030
26319SOL    HW178981   5.111   7.459   1.946
26319SOL    HW278982   4.986   7.462   2.050
26320SOL     OW78983   5.024   7.901   2.553
26320SOL    HW178984   4.965   7.981   2.557
26320SOL    HW278985   5.039   7.866   2.646
26321SOL     OW78986   5.317   7.669   2.744
26321SOL    HW178987   5.233   7.668   2.798
26321SOL    HW278988   5.319   7.752   2.688
26322SOL     OW78989   3.763   8.525   2.162
26322SOL    HW178990   3.862   8.514   2.153
26322SOL    HW278991   3.723   8.439   2.194
26323SOL     OW78992   4.599   9.094   2.199
26323SOL    HW178993   4.522   9.059   2.145
26323SOL    HW278994   4.567   9.165   2.261
26324SOL     OW78995   3.954   8.076   3.837
26324SOL    HW178996   3.861   8.074   3.874
26324SOL    HW278997   3.955   8.037   3.745
26325SOL     OW78998   3.949   7.723   4.720
26325SOL    HW178999   3.984   7.706   4.812
26325SOL    HW279000   3.861   7.678   4.708
26326SOL     OW79001   3.743   7.816   4.371
26326SOL    HW179002   3.661   7.859   4.410
26326SOL    HW279003   3.715   7.743   4.308
26327SOL     OW79004   4.293   8.723   4.889
26327SOL    HW179005   4.200   8.716   4.852
26327SOL    HW279006   4.304   8.812   4.933
26328SOL     OW79007   5.279   8.959   4.427
26328SOL    HW179008   5.222   8.943   4.508
26328SOL    HW279009   5.220   8.969   4.347
26329SOL     OW79010   4.859   8.151   4.441
26329SOL    HW179011   4.916   8.229   4.416
26329SOL    HW279012   4.799   8.177   4.517
26330SOL     OW79013   5.479   8.055   3.955
26330SOL    HW179014   5.467   8.042   3.856
26330SOL    HW279015   5.449   7.974   4.004
26331SOL     OW79016   4.492   8.592   4.747
26331SOL    HW179017   4.414   8.609   4.807
26331SOL    HW279018   4.526   8.679   4.711
26332SOL     OW79019   4.574   8.246   5.547
26332SOL    HW179020   4.570   8.322   5.612
26332SOL    HW279021   4.596   8.282   5.456
26333SOL     OW79022   4.409   8.460   4.389
26333SOL    HW179023   4.478   8.444   4.459
26333SOL    HW279024   4.336   8.517   4.427
26334SOL     OW79025   4.410   8.609   5.527
26334SOL    HW179026   4.470   8.688   5.541
26334SOL    HW279027   4.324   8.640   5.486
26335SOL     OW79028   4.059   8.883   4.785
26335SOL    HW179029   3.981   8.852   4.732
26335SOL    HW279030   4.117   8.941   4.728
26336SOL     OW79031   5.184   8.953   5.063
26336SOL    HW179032   5.208   9.047   5.089
26336SOL    HW279033   5.168   8.899   5.145
26337SOL     OW79034   4.162   7.840   5.223
26337SOL    HW179035   4.244   7.784   5.232
26337SOL    HW279036   4.081   7.782   5.227
26338SOL     OW79037   5.327   7.895   4.461
26338SOL    HW179038   5.253   7.941   4.411
26338SOL    HW279039   5.378   7.963   4.514
26339SOL     OW79040   3.955   9.161   4.207
26339SOL    HW179041   3.989   9.238   4.261
26339SOL    HW279042   3.999   9.161   4.117
26340SOL     OW79043   4.851   8.789   5.414
26340SOL    HW179044   4.898   8.789   5.502
26340SOL    HW279045   4.803   8.702   5.403
26341SOL     OW79046   3.954   8.882   4.262
26341SOL    HW179047   3.928   8.978   4.262
26341SOL    HW279048   3.883   8.828   4.307
26342SOL     OW79049   3.964   8.539   4.610
26342SOL    HW179050   3.978   8.455   4.662
26342SOL    HW279051   3.909   8.603   4.665
26343SOL     OW79052   4.344   9.234   5.163
26343SOL    HW179053   4.252   9.217   5.198
26343SOL    HW279054   4.372   9.326   5.189
26344SOL     OW79055   4.330   8.412   3.847
26344SOL    HW179056   4.337   8.496   3.793
26344SOL    HW279057   4.376   8.425   3.935
26345SOL     OW79058   5.318   7.562   5.204
26345SOL    HW179059   5.300   7.629   5.132
26345SOL    HW279060   5.315   7.608   5.293
26346SOL     OW79061   3.846   8.091   4.287
26346SOL    HW179062   3.801   8.003   4.304
26346SOL    HW279063   3.845   8.145   4.371
26347SOL     OW79064   5.566   9.215   4.083
26347SOL    HW179065   5.620   9.186   4.163
26347SOL    HW279066   5.596   9.305   4.054
26348SOL     OW79067   3.751   9.044   3.841
26348SOL    HW179068   3.732   8.948   3.862
26348SOL    HW279069   3.718   9.102   3.916
26349SOL     OW79070   5.413   8.370   4.336
26349SOL    HW179071   5.508   8.341   4.344
26349SOL    HW279072   5.405   8.435   4.261
26350SOL     OW79073   5.365   8.556   4.156
26350SOL    HW179074   5.451   8.558   4.104
26350SOL    HW279075   5.379   8.603   4.244
26351SOL     OW79076   3.837   8.185   5.321
26351SOL    HW179077   3.925   8.172   5.366
26351SOL    HW279078   3.824   8.282   5.299
26352SOL     OW79079   4.337   8.813   4.450
26352SOL    HW179080   4.288   8.726   4.459
26352SOL    HW279081   4.314   8.856   4.363
26353SOL     OW79082   5.017   8.676   5.147
26353SOL    HW179083   5.054   8.603   5.089
26353SOL    HW279084   5.069   8.681   5.232
26354SOL     OW79085   4.533   7.452   4.226
26354SOL    HW179086   4.573   7.543   4.217
26354SOL    HW279087   4.433   7.460   4.232
26355SOL     OW79088   3.921   8.424   4.988
26355SOL    HW179089   4.010   8.379   4.974
26355SOL    HW279090   3.848   8.359   4.969
26356SOL     OW79091   5.249   8.447   3.914
26356SOL    HW179092   5.186   8.371   3.927
26356SOL    HW279093   5.297   8.465   4.000
26357SOL     OW79094   4.911   9.240   5.340
26357SOL    HW179095   4.935   9.300   5.264
26357SOL    HW279096   4.918   9.145   5.310
26358SOL     OW79097   4.041   7.699   5.525
26358SOL    HW179098   4.112   7.770   5.531
26358SOL    HW279099   3.953   7.738   5.553
26359SOL     OW79100   5.190   8.865   4.677
26359SOL    HW179101   5.131   8.871   4.757
26359SOL    HW279102   5.175   8.777   4.631
26360SOL     OW79103   5.391   9.162   4.296
26360SOL    HW179104   5.350   9.139   4.208
26360SOL    HW279105   5.373   9.088   4.361
26361SOL     OW79106   4.322   8.177   3.994
26361SOL    HW179107   4.346   8.246   3.926
26361SOL    HW279108   4.244   8.210   4.048
26362SOL     OW79109   5.005   7.793   4.668
26362SOL    HW179110   4.919   7.743   4.655
26362SOL    HW279111   5.067   7.739   4.724
26363SOL     OW79112   5.300   9.110   4.031
26363SOL    HW179113   5.389   9.156   4.034
26363SOL    HW279114   5.279   9.086   3.936
26364SOL     OW79115   4.531   8.053   5.189
26364SOL    HW179116   4.484   8.050   5.278
26364SOL    HW279117   4.480   7.998   5.123
26365SOL     OW79118   5.118   7.917   5.398
26365SOL    HW179119   5.098   7.960   5.486
26365SOL    HW279120   5.196   7.855   5.407
26366SOL     OW79121   4.697   8.338   5.296
26366SOL    HW179122   4.743   8.254   5.267
26366SOL    HW279123   4.641   8.372   5.221
26367SOL     OW79124   4.715   7.858   4.966
26367SOL    HW179125   4.638   7.892   5.020
26367SOL    HW279126   4.681   7.807   4.887
26368SOL     OW79127   4.765   8.149   4.153
26368SOL    HW179128   4.791   8.145   4.249
26368SOL    HW279129   4.680   8.098   4.139
26369SOL     OW79130   3.800   8.259   4.513
26369SOL    HW179131   3.899   8.247   4.522
26369SOL    HW279132   3.776   8.354   4.534
26370SOL     OW79133   3.854   9.269   5.295
26370SOL    HW179134   3.844   9.254   5.394
26370SOL    HW279135   3.768   9.305   5.259
26371SOL     OW79136   4.589   7.796   3.919
26371SOL    HW179137   4.648   7.859   3.870
26371SOL    HW279138   4.608   7.702   3.890
26372SOL     OW79139   5.443   8.033   5.555
26372SOL    HW179140   5.417   8.122   5.519
26372SOL    HW279141   5.441   7.965   5.482
26373SOL     OW79142   5.086   8.592   4.269
26373SOL    HW179143   5.169   8.563   4.221
26373SOL    HW279144   5.037   8.659   4.213
26374SOL     OW79145   4.274   7.644   4.609
26374SOL    HW179146   4.269   7.639   4.709
26374SOL    HW279147   4.276   7.740   4.580
26375SOL     OW79148   4.732   8.904   4.201
26375SOL    HW179149   4.686   8.976   4.149
26375SOL    HW279150   4.728   8.924   4.299
26376SOL     OW79151   4.075   9.249   4.577
26376SOL    HW179152   4.125   9.163   4.583
26376SOL    HW279153   4.140   9.326   4.574
26377SOL     OW79154   5.519   8.514   4.597
26377SOL    HW179155   5.457   8.499   4.521
26377SOL    HW279156   5.467   8.525   4.682
26378SOL     OW79157   4.951   8.998   5.230
26378SOL    HW179158   4.957   8.921   5.294
26378SOL    HW279159   4.899   8.972   5.150
26379SOL     OW79160   4.045   8.391   3.966
26379SOL    HW179161   4.127   8.430   3.924
26379SOL    HW279162   4.018   8.309   3.917
26380SOL     OW79163   5.182   8.183   4.452
26380SOL    HW179164   5.177   8.118   4.527
26380SOL    HW279165   5.262   8.242   4.465
26381SOL     OW79166   4.185   8.714   5.451
26381SOL    HW179167   4.135   8.715   5.365
26381SOL    HW279168   4.122   8.696   5.527
26382SOL     OW79169   4.835   9.224   3.961
26382SOL    HW179170   4.775   9.162   4.011
26382SOL    HW279171   4.866   9.180   3.876
26383SOL     OW79172   3.926   7.733   5.222
26383SOL    HW179173   3.846   7.793   5.209
26383SOL    HW279174   3.916   7.684   5.308
26384SOL     OW79175   5.356   8.825   3.805
26384SOL    HW179176   5.324   8.919   3.795
26384SOL    HW279177   5.280   8.762   3.793
26385SOL     OW79178   4.188   9.191   4.047
26385SOL    HW179179   4.221   9.230   4.133
26385SOL    HW279180   4.264   9.184   3.982
26386SOL     OW79181   5.124   7.555   4.150
26386SOL    HW179182   5.100   7.518   4.060
26386SOL    HW279183   5.223   7.571   4.154
26387SOL     OW79184   3.973   9.233   4.965
26387SOL    HW179185   4.030   9.168   5.015
26387SOL    HW279186   3.957   9.200   4.872
26388SOL     OW79187   4.664   9.146   4.628
26388SOL    HW179188   4.744   9.089   4.649
26388SOL    HW279189   4.615   9.106   4.551
26389SOL     OW79190   4.106   8.148   4.204
26389SOL    HW179191   4.151   8.058   4.201
26389SOL    HW279192   4.012   8.137   4.237
26390SOL     OW79193   5.271   7.670   5.453
26390SOL    HW179194   5.266   7.707   5.545
26390SOL    HW279195   5.199   7.601   5.441
26391SOL     OW79196   4.338   7.570   3.841
26391SOL    HW179197   4.436   7.548   3.848
26391SOL    HW279198   4.307   7.553   3.748
26392SOL     OW79199   4.505   7.712   5.473
26392SOL    HW179200   4.572   7.651   5.516
26392SOL    HW279201   4.432   7.731   5.538
26393SOL     OW79202   4.612   8.962   4.919
26393SOL    HW179203   4.589   8.937   4.825
26393SOL    HW279204   4.673   8.893   4.958
26394SOL     OW79205   5.075   8.038   5.157
26394SOL    HW179206   5.103   7.995   5.242
26394SOL    HW279207   5.100   8.134   5.158
26395SOL     OW79208   4.527   8.850   4.648
26395SOL    HW179209   4.617   8.864   4.606
26395SOL    HW279210   4.456   8.852   4.577
26396SOL     OW79211   4.646   7.951   4.623
26396SOL    HW179212   4.621   7.942   4.527
26396SOL    HW279213   4.694   7.869   4.654
26397SOL     OW79214   4.263   7.512   4.236
26397SOL    HW179215   4.182   7.513   4.294
26397SOL    HW279216   4.266   7.595   4.181
26398SOL     OW79217   5.158   8.636   3.765
26398SOL    HW179218   5.190   8.560   3.822
26398SOL    HW279219   5.066   8.663   3.795
26399SOL     OW79220   4.021   7.483   3.895
26399SOL    HW179221   4.070   7.567   3.874
26399SOL    HW279222   4.083   7.418   3.940
26400SOL     OW79223   4.659   7.684   4.204
26400SOL    HW179224   4.611   7.725   4.126
26400SOL    HW279225   4.758   7.682   4.185
26401SOL     OW79226   4.800   8.131   5.188
26401SOL    HW179227   4.720   8.070   5.191
26401SOL    HW279228   4.881   8.078   5.164
26402SOL     OW79229   4.951   9.018   4.517
26402SOL    HW179230   4.972   9.092   4.452
26402SOL    HW279231   5.019   9.018   4.590
26403SOL     OW79232   4.183   8.600   4.465
26403SOL    HW179233   4.112   8.573   4.530
26403SOL    HW279234   4.157   8.572   4.372
26404SOL     OW79235   4.995   9.245   4.315
26404SOL    HW179236   5.039   9.309   4.251
26404SOL    HW279237   4.945   9.297   4.385
26405SOL     OW79238   4.756   7.997   3.740
26405SOL    HW179239   4.715   8.079   3.701
26405SOL    HW279240   4.820   8.023   3.813
26406SOL     OW79241   3.802   8.004   5.110
26406SOL    HW179242   3.894   8.003   5.069
26406SOL    HW279243   3.796   8.078   5.177
26407SOL     OW79244   4.285   7.670   4.871
26407SOL    HW179245   4.323   7.586   4.908
26407SOL    HW279246   4.197   7.689   4.915
26408SOL     OW79247   4.590   7.902   4.366
26408SOL    HW179248   4.558   7.974   4.304
26408SOL    HW279249   4.614   7.821   4.313
26409SOL     OW79250   4.741   7.487   4.477
26409SOL    HW179251   4.669   7.492   4.408
26409SOL    HW279252   4.717   7.418   4.546
26410SOL     OW79253   5.153   8.621   4.591
26410SOL    HW179254   5.098   8.537   4.584
26410SOL    HW279255   5.179   8.650   4.499
26411SOL     OW79256   5.190   8.038   4.716
26411SOL    HW179257   5.160   7.943   4.723
26411SOL    HW279258   5.263   8.054   4.782
26412SOL     OW79259   5.581   8.281   4.101
26412SOL    HW179260   5.623   8.217   4.165
26412SOL    HW279261   5.543   8.230   4.023
26413SOL     OW79262   4.212   8.833   3.898
26413SOL    HW179263   4.125   8.818   3.945
26413SOL    HW279264   4.195   8.859   3.803
26414SOL     OW79265   5.388   8.728   4.381
26414SOL    HW179266   5.487   8.736   4.395
26414SOL    HW279267   5.343   8.812   4.412
26415SOL     OW79268   5.114   8.023   3.802
26415SOL    HW179269   5.060   8.002   3.883
26415SOL    HW279270   5.205   7.982   3.811
26416SOL     OW79271   4.251   7.704   4.052
26416SOL    HW179272   4.278   7.645   3.977
26416SOL    HW279273   4.251   7.799   4.021
26417SOL     OW79274   5.478   8.671   5.312
26417SOL    HW179275   5.569   8.632   5.299
26417SOL    HW279276   5.486   8.767   5.336
26418SOL     OW79277   4.788   8.795   5.064
26418SOL    HW179278   4.708   8.772   5.119
26418SOL    HW279279   4.871   8.769   5.113
26419SOL     OW79280   5.316   9.077   5.349
26419SOL    HW179281   5.343   9.111   5.259
26419SOL    HW279282   5.395   9.039   5.395
26420SOL     OW79283   4.835   8.643   4.824
26420SOL    HW179284   4.795   8.687   4.905
26420SOL    HW279285   4.794   8.680   4.741
26421SOL     OW79286   5.362   8.547   4.803
26421SOL    HW179287   5.367   8.628   4.862
26421SOL    HW279288   5.276   8.549   4.752
26422SOL     OW79289   4.639   7.537   5.126
26422SOL    HW179290   4.664   7.517   5.031
26422SOL    HW279291   4.711   7.593   5.168
26423SOL     OW79292   4.704   8.564   5.443
26423SOL    HW179293   4.605   8.570   5.453
26423SOL    HW279294   4.727   8.484   5.387
26424SOL     OW79295   4.429   8.498   4.092
26424SOL    HW179296   4.415   8.505   4.191
26424SOL    HW279297   4.513   8.447   4.074
26425SOL     OW79298   4.134   8.261   4.975
26425SOL    HW179299   4.220   8.273   5.025
26425SOL    HW279300   4.092   8.174   5.002
26426SOL     OW79301   4.998   7.834   4.986
26426SOL    HW179302   5.019   7.908   5.050
26426SOL    HW279303   4.909   7.851   4.943
26427SOL     OW79304   3.788   9.012   5.055
26427SOL    HW179305   3.742   9.094   5.021
26427SOL    HW279306   3.886   9.031   5.064
26428SOL     OW79307   4.091   8.548   4.225
26428SOL    HW179308   4.084   8.631   4.169
26428SOL    HW279309   4.095   8.468   4.165
26429SOL     OW79310   4.290   7.985   4.589
26429SOL    HW179311   4.302   8.051   4.515
26429SOL    HW279312   4.336   8.019   4.672
26430SOL     OW79313   4.976   8.796   4.112
26430SOL    HW179314   5.026   8.873   4.152
26430SOL    HW279315   4.881   8.798   4.144
26431SOL     OW79316   4.996   8.893   4.866
26431SOL    HW179317   5.043   8.906   4.953
26431SOL    HW279318   4.930   8.819   4.875
26432SOL     OW79319   5.306   8.087   4.196
26432SOL    HW179320   5.275   8.148   4.269
26432SOL    HW279321   5.356   8.139   4.127
26433SOL     OW79322   4.078   8.958   5.053
26433SOL    HW179323   4.057   8.914   4.966
26433SOL    HW279324   4.175   8.984   5.056
26434SOL     OW79325   4.126   8.199   5.322
26434SOL    HW179326   4.194   8.254   5.275
26434SOL    HW279327   4.166   8.111   5.349
26435SOL     OW79328   5.311   8.227   5.394
26435SOL    HW179329   5.219   8.265   5.389
26435SOL    HW279330   5.371   8.274   5.329
26436SOL     OW79331   4.737   7.553   5.494
26436SOL    HW179332   4.743   7.638   5.442
26436SOL    HW279333   4.769   7.477   5.437
26437SOL     OW79334   4.228   7.498   5.464
26437SOL    HW179335   4.186   7.441   5.394
26437SOL    HW279336   4.162   7.567   5.496
26438SOL     OW79337   4.297   8.318   4.753
26438SOL    HW179338   4.341   8.407   4.744
26438SOL    HW279339   4.234   8.318   4.830
26439SOL     OW79340   5.084   8.310   4.769
26439SOL    HW179341   5.009   8.310   4.703
26439SOL    HW279342   5.121   8.218   4.778
26440SOL     OW79343   4.933   7.973   3.999
26440SOL    HW179344   4.946   7.889   4.053
26440SOL    HW279345   4.904   8.047   4.059
26441SOL     OW79346   4.031   7.661   4.955
26441SOL    HW179347   4.008   7.698   5.045
26441SOL    HW279348   4.001   7.566   4.949
26442SOL     OW79349   3.761   8.758   5.006
26442SOL    HW179350   3.814   8.709   5.074
26442SOL    HW279351   3.783   8.856   5.011
26443SOL     OW79352   4.456   8.082   4.788
26443SOL    HW179353   4.515   8.056   4.712
26443SOL    HW279354   4.428   8.178   4.777
26444SOL     OW79355   5.452   8.383   5.578
26444SOL    HW179356   5.406   8.376   5.489
26444SOL    HW279357   5.390   8.427   5.644
26445SOL     OW79358   4.031   7.511   4.342
26445SOL    HW179359   4.020   7.605   4.375
26445SOL    HW279360   4.026   7.448   4.419
26446SOL     OW79361   5.346   7.815   4.098
26446SOL    HW179362   5.348   7.739   4.162
26446SOL    HW279363   5.298   7.892   4.138
26447SOL     OW79364   4.747   8.214   4.690
26447SOL    HW179365   4.762   8.235   4.786
26447SOL    HW279366   4.717   8.119   4.681
26448SOL     OW79367   4.704   9.021   5.424
26448SOL    HW179368   4.684   9.065   5.336
26448SOL    HW279369   4.743   8.930   5.408
26449SOL     OW79370   5.583   8.966   5.329
26449SOL    HW179371   5.597   8.993   5.234
26449SOL    HW279372   5.666   8.988   5.382
26450SOL     OW79373   4.074   8.346   5.528
26450SOL    HW179374   4.150   8.390   5.576
26450SOL    HW279375   4.109   8.299   5.446
26451SOL     OW79376   5.264   7.722   3.849
26451SOL    HW179377   5.203   7.647   3.872
26451SOL    HW279378   5.286   7.774   3.932
26452SOL     OW79379   5.027   8.286   3.766
26452SOL    HW179380   5.061   8.193   3.781
26452SOL    HW279381   5.045   8.313   3.671
26453SOL     OW79382   4.792   8.781   4.573
26453SOL    HW179383   4.799   8.697   4.518
26453SOL    HW279384   4.854   8.850   4.537
26454SOL     OW79385   4.043   8.258   4.673
26454SOL    HW179386   4.136   8.294   4.678
26454SOL    HW279387   4.037   8.173   4.725
26455SOL     OW79388   4.063   7.957   4.730
26455SOL    HW179389   4.011   7.874   4.713
26455SOL    HW279390   4.140   7.962   4.666
26456SOL     OW79391   4.862   7.828   5.402
26456SOL    HW179392   4.817   7.891   5.466
26456SOL    HW279393   4.955   7.859   5.385
26457SOL     OW79394   4.884   7.655   5.201
26457SOL    HW179395   4.884   7.719   5.278
26457SOL    HW279396   4.912   7.703   5.118
26458SOL     OW79397   3.732   8.774   3.924
26458SOL    HW179398   3.639   8.795   3.893
26458SOL    HW279399   3.742   8.675   3.937
26459SOL     OW79400   3.812   9.249   4.651
26459SOL    HW179401   3.770   9.163   4.624
26459SOL    HW279402   3.906   9.252   4.617
26460SOL     OW79403   4.228   9.016   4.634
26460SOL    HW179404   4.294   9.090   4.643
26460SOL    HW279405   4.272   8.937   4.592
26461SOL     OW79406   4.726   8.244   4.962
26461SOL    HW179407   4.767   8.212   5.048
26461SOL    HW279408   4.630   8.217   4.959
26462SOL     OW79409   3.764   7.992   4.838
26462SOL    HW179410   3.849   7.959   4.797
26462SOL    HW279411   3.777   8.007   4.936
26463SOL     OW79412   3.913   7.968   5.446
26463SOL    HW179413   3.972   7.928   5.376
26463SOL    HW279414   3.855   8.039   5.405
26464SOL     OW79415   5.093   8.398   5.384
26464SOL    HW179416   5.132   8.487   5.404
26464SOL    HW279417   5.103   8.378   5.287
26465SOL     OW79418   4.539   8.020   4.049
26465SOL    HW179419   4.546   7.931   4.003
26465SOL    HW279420   4.445   8.054   4.041
26466SOL     OW79421   5.381   8.052   4.930
26466SOL    HW179422   5.343   7.983   4.992
26466SOL    HW279423   5.463   8.016   4.886
26467SOL     OW79424   3.976   9.012   5.468
26467SOL    HW179425   3.946   9.069   5.544
26467SOL    HW279426   3.969   8.915   5.494
26468SOL     OW79427   4.395   7.912   4.993
26468SOL    HW179428   4.361   7.823   4.963
26468SOL    HW279429   4.421   7.966   4.913
26469SOL     OW79430   4.654   9.126   5.189
26469SOL    HW179431   4.630   9.108   5.094
26469SOL    HW279432   4.684   9.220   5.199
26470SOL     OW79433   4.197   7.948   3.915
26470SOL    HW179434   4.258   8.028   3.919
26470SOL    HW279435   4.102   7.979   3.922
26471SOL     OW79436   3.883   8.585   5.190
26471SOL    HW179437   3.905   8.524   5.266
26471SOL    HW279438   3.893   8.536   5.104
26472SOL     OW79439   5.071   8.507   4.958
26472SOL    HW179440   5.095   8.444   4.884
26472SOL    HW279441   4.981   8.547   4.940
26473SOL     OW79442   5.026   8.303   4.033
26473SOL    HW179443   4.940   8.272   4.075
26473SOL    HW279444   5.022   8.289   3.934
26474SOL     OW79445   5.483   9.195   4.878
26474SOL    HW179446   5.544   9.225   4.805
26474SOL    HW279447   5.445   9.106   4.856
26475SOL     OW79448   4.976   9.179   4.852
26475SOL    HW179449   5.060   9.184   4.798
26475SOL    HW279450   4.953   9.083   4.870
26476SOL     OW79451   3.807   8.706   4.746
26476SOL    HW179452   3.802   8.705   4.846
26476SOL    HW279453   3.724   8.665   4.708
26477SOL     OW79454   4.412   9.110   5.440
26477SOL    HW179455   4.356   9.191   5.449
26477SOL    HW279456   4.464   9.114   5.354
26478SOL     OW79457   5.450   7.583   4.247
26478SOL    HW179458   5.523   7.566   4.180
26478SOL    HW279459   5.419   7.496   4.285
26479SOL     OW79460   5.112   9.021   4.201
26479SOL    HW179461   5.179   9.033   4.127
26479SOL    HW279462   5.072   9.110   4.224
26480SOL     OW79463   3.854   9.242   5.575
26480SOL    HW179464   3.813   9.168   5.628
26480SOL    HW279465   3.918   9.293   5.633
26481SOL     OW79466   5.004   8.375   4.396
26481SOL    HW179467   5.064   8.294   4.398
26481SOL    HW279468   5.044   8.444   4.336
26482SOL     OW79469   4.554   8.721   5.146
26482SOL    HW179470   4.549   8.754   5.241
26482SOL    HW279471   4.468   8.740   5.100
26483SOL     OW79472   4.396   9.064   3.878
26483SOL    HW179473   4.405   9.074   3.779
26483SOL    HW279474   4.356   8.975   3.899
26484SOL     OW79475   5.374   9.168   5.118
26484SOL    HW179476   5.427   9.178   5.034
26484SOL    HW279477   5.347   9.258   5.152
26485SOL     OW79478   5.565   7.623   4.687
26485SOL    HW179479   5.604   7.538   4.651
26485SOL    HW279480   5.467   7.625   4.668
26486SOL     OW79481   3.987   7.774   4.444
26486SOL    HW179482   3.908   7.825   4.410
26486SOL    HW279483   3.978   7.759   4.542
26487SOL     OW79484   4.918   9.060   3.755
26487SOL    HW179485   4.924   8.967   3.792
26487SOL    HW279486   4.859   9.060   3.675
26488SOL     OW79487   4.546   8.450   5.096
26488SOL    HW179488   4.586   8.449   5.004
26488SOL    HW279489   4.556   8.542   5.136
26489SOL     OW79490   4.640   8.358   4.015
26489SOL    HW179491   4.703   8.396   3.947
26489SOL    HW279492   4.680   8.275   4.054
26490SOL     OW79493   5.228   9.055   3.768
26490SOL    HW179494   5.136   9.092   3.775
26490SOL    HW279495   5.266   9.075   3.678
26491SOL     OW79496   4.096   8.736   5.214
26491SOL    HW179497   4.083   8.829   5.180
26491SOL    HW279498   4.012   8.684   5.201
26492SOL     OW79499   5.338   8.740   5.013
26492SOL    HW179500   5.398   8.743   5.093
26492SOL    HW279501   5.263   8.804   5.026
26493SOL     OW79502   4.763   8.546   4.420
26493SOL    HW179503   4.693   8.499   4.474
26493SOL    HW279504   4.822   8.478   4.377
26494SOL     OW79505   4.738   7.684   4.695
26494SOL    HW179506   4.730   7.648   4.602
26494SOL    HW279507   4.736   7.608   4.760
26495SOL     OW79508   4.314   8.935   4.215
26495SOL    HW179509   4.356   8.877   4.145
26495SOL    HW279510   4.270   9.014   4.171
26496SOL     OW79511   5.433   7.833   5.105
26496SOL    HW179512   5.506   7.902   5.109
26496SOL    HW279513   5.461   7.758   5.046
26497SOL     OW79514   3.979   8.796   4.014
26497SOL    HW179515   3.883   8.797   3.987
26497SOL    HW279516   3.991   8.849   4.098
26498SOL     OW79517   3.829   8.461   5.450
26498SOL    HW179518   3.752   8.428   5.504
26498SOL    HW279519   3.914   8.431   5.492
26499SOL     OW79520   4.396   7.651   5.213
26499SOL    HW179521   4.486   7.635   5.173
26499SOL    HW279522   4.404   7.656   5.312
26500SOL     OW79523   3.799   7.793   3.757
26500SOL    HW179524   3.707   7.765   3.728
26500SOL    HW279525   3.830   7.870   3.701
26501SOL     OW79526   5.164   8.304   5.122
26501SOL    HW179527   5.107   8.356   5.059
26501SOL    HW279528   5.260   8.316   5.098
26502SOL     OW79529   3.796   7.614   4.042
26502SOL    HW179530   3.779   7.697   3.988
26502SOL    HW279531   3.886   7.577   4.020
26503SOL     OW79532   4.907   8.783   3.843
26503SOL    HW179533   4.808   8.772   3.845
26503SOL    HW279534   4.941   8.798   3.936
26504SOL     OW79535   4.337   8.290   5.155
26504SOL    HW179536   4.393   8.371   5.138
26504SOL    HW279537   4.396   8.210   5.158
26505SOL     OW79538   5.217   9.215   4.683
26505SOL    HW179539   5.250   9.279   4.614
26505SOL    HW279540   5.283   9.209   4.758
26506SOL     OW79541   4.440   8.013   5.432
26506SOL    HW179542   4.459   8.078   5.506
26506SOL    HW279543   4.500   7.933   5.441
26507SOL     OW79544   5.174   8.668   5.357
26507SOL    HW179545   5.165   8.658   5.456
26507SOL    HW279546   5.270   8.661   5.331
26508SOL     OW79547   4.114   9.189   5.284
26508SOL    HW179548   4.023   9.230   5.282
26508SOL    HW279549   4.107   9.095   5.316
26509SOL     OW79550   5.398   8.331   4.978
26509SOL    HW179551   5.371   8.242   4.941
26509SOL    HW279552   5.399   8.399   4.905
26510SOL     OW79553   4.949   7.773   4.173
26510SOL    HW179554   5.014   7.699   4.162
26510SOL    HW279555   4.969   7.823   4.257
26511SOL     OW79556   4.318   8.193   4.376
26511SOL    HW179557   4.368   8.278   4.357
26511SOL    HW279558   4.230   8.195   4.328
26512SOL     OW79559   5.501   7.790   5.366
26512SOL    HW179560   5.484   7.821   5.272
26512SOL    HW279561   5.417   7.753   5.404
26513SOL     OW79562   5.454   8.382   5.241
26513SOL    HW179563   5.492   8.473   5.256
26513SOL    HW279564   5.446   8.365   5.142
26514SOL     OW79565   4.583   8.822   3.740
26514SOL    HW179566   4.537   8.837   3.828
26514SOL    HW279567   4.627   8.907   3.710
26515SOL     OW79568   4.385   9.238   4.677
26515SOL    HW179569   4.339   9.326   4.664
26515SOL    HW279570   4.484   9.250   4.670
26516SOL     OW79571   4.583   8.404   4.585
26516SOL    HW179572   4.637   8.335   4.633
26516SOL    HW279573   4.551   8.473   4.651
26517SOL     OW79574   4.807   8.432   3.811
26517SOL    HW179575   4.784   8.485   3.729
26517SOL    HW279576   4.888   8.376   3.792
26518SOL     OW79577   5.585   9.017   4.575
26518SOL    HW179578   5.514   9.005   4.505
26518SOL    HW279579   5.586   8.938   4.635
26519SOL     OW79580   3.945   8.762   5.568
26519SOL    HW179581   3.880   8.689   5.547
26519SOL    HW279582   3.949   8.776   5.666
26520SOL     OW79583   3.803   8.688   4.377
26520SOL    HW179584   3.802   8.641   4.465
26520SOL    HW279585   3.885   8.660   4.326
26521SOL     OW79586   4.396   8.839   5.348
26521SOL    HW179587   4.318   8.789   5.386
26521SOL    HW279588   4.393   8.934   5.379
26522SOL     OW79589   5.548   7.640   4.951
26522SOL    HW179590   5.544   7.550   4.995
26522SOL    HW279591   5.551   7.629   4.852
26523SOL     OW79592   4.152   7.872   4.244
26523SOL    HW179593   4.182   7.800   4.182
26523SOL    HW279594   4.113   7.832   4.327
26524SOL     OW79595   5.429   8.935   4.828
26524SOL    HW179596   5.336   8.910   4.801
26524SOL    HW279597   5.455   8.885   4.910
26525SOL     OW79598   4.041   7.995   5.004
26525SOL    HW179599   4.079   7.936   5.076
26525SOL    HW279600   4.081   7.969   4.916
26526SOL     OW79601   4.536   9.034   4.411
26526SOL    HW179602   4.568   9.044   4.317
26526SOL    HW279603   4.457   8.972   4.413
26527SOL     OW79604   5.148   7.662   4.836
26527SOL    HW179605   5.200   7.597   4.891
26527SOL    HW279606   5.099   7.725   4.897
26528SOL     OW79607   4.725   7.482   4.878
26528SOL    HW179608   4.662   7.410   4.847
26528SOL    HW279609   4.818   7.446   4.878
26529SOL     OW79610   4.494   8.778   4.025
26529SOL    HW179611   4.448   8.691   4.042
26529SOL    HW279612   4.585   8.775   4.066
26530SOL     OW79613   4.342   9.015   5.008
26530SOL    HW179614   4.337   9.097   5.065
26530SOL    HW279615   4.431   9.012   4.963
26531SOL     OW79616   5.076   7.500   3.892
26531SOL    HW179617   5.111   7.459   3.808
26531SOL    HW279618   4.986   7.462   3.912
26532SOL     OW79619   5.024   7.901   4.415
26532SOL    HW179620   4.965   7.981   4.419
26532SOL    HW279621   5.039   7.866   4.508
26533SOL     OW79622   5.317   7.669   4.606
26533SOL    HW179623   5.233   7.668   4.660
26533SOL    HW279624   5.319   7.752   4.550
26534SOL     OW79625   3.763   8.525   4.024
26534SOL    HW179626   3.862   8.514   4.015
26534SOL    HW279627   3.723   8.439   4.056
26535SOL     OW79628   4.599   9.094   4.061
26535SOL    HW179629   4.522   9.059   4.007
26535SOL    HW279630   4.567   9.165   4.123
26536SOL     OW79631   3.954   8.076   5.699
26536SOL    HW179632   3.861   8.074   5.736
26536SOL    HW279633   3.955   8.037   5.607
26537SOL     OW79634   3.949   7.723   6.582
26537SOL    HW179635   3.984   7.706   6.674
26537SOL    HW279636   3.861   7.678   6.570
26538SOL     OW79637   3.743   7.816   6.233
26538SOL    HW179638   3.661   7.859   6.272
26538SOL    HW279639   3.715   7.743   6.170
26539SOL     OW79640   4.293   8.723   6.751
26539SOL    HW179641   4.200   8.716   6.714
26539SOL    HW279642   4.304   8.812   6.795
26540SOL     OW79643   5.279   8.959   6.289
26540SOL    HW179644   5.222   8.943   6.370
26540SOL    HW279645   5.220   8.969   6.209
26541SOL     OW79646   4.859   8.151   6.303
26541SOL    HW179647   4.916   8.229   6.278
26541SOL    HW279648   4.799   8.177   6.379
26542SOL     OW79649   5.479   8.055   5.817
26542SOL    HW179650   5.467   8.042   5.718
26542SOL    HW279651   5.449   7.974   5.866
26543SOL     OW79652   4.492   8.592   6.609
26543SOL    HW179653   4.414   8.609   6.669
26543SOL    HW279654   4.526   8.679   6.573
26544SOL     OW79655   4.574   8.246   7.409
26544SOL    HW179656   4.570   8.322   7.474
26544SOL    HW279657   4.596   8.282   7.318
26545SOL     OW79658   4.409   8.460   6.251
26545SOL    HW179659   4.478   8.444   6.321
26545SOL    HW279660   4.336   8.517   6.289
26546SOL     OW79661   4.410   8.609   7.389
26546SOL    HW179662   4.470   8.688   7.403
26546SOL    HW279663   4.324   8.640   7.348
26547SOL     OW79664   4.059   8.883   6.647
26547SOL    HW179665   3.981   8.852   6.594
26547SOL    HW279666   4.117   8.941   6.590
26548SOL     OW79667   5.184   8.953   6.925
26548SOL    HW179668   5.208   9.047   6.951
26548SOL    HW279669   5.168   8.899   7.007
26549SOL     OW79670   4.162   7.840   7.085
26549SOL    HW179671   4.244   7.784   7.094
26549SOL    HW279672   4.081   7.782   7.089
26550SOL     OW79673   5.327   7.895   6.323
26550SOL    HW179674   5.253   7.941   6.273
26550SOL    HW279675   5.378   7.963   6.376
26551SOL     OW79676   3.955   9.161   6.069
26551SOL    HW179677   3.989   9.238   6.123
26551SOL    HW279678   3.999   9.161   5.979
26552SOL     OW79679   4.851   8.789   7.276
26552SOL    HW179680   4.898   8.789   7.364
26552SOL    HW279681   4.803   8.702   7.265
26553SOL     OW79682   3.954   8.882   6.124
26553SOL    HW179683   3.928   8.978   6.124
26553SOL    HW279684   3.883   8.828   6.169
26554SOL     OW79685   3.964   8.539   6.472
26554SOL    HW179686   3.978   8.455   6.524
26554SOL    HW279687   3.909   8.603   6.527
26555SOL     OW79688   4.344   9.234   7.025
26555SOL    HW179689   4.252   9.217   7.060
26555SOL    HW279690   4.372   9.326   7.051
26556SOL     OW79691   4.330   8.412   5.709
26556SOL    HW179692   4.337   8.496   5.655
26556SOL    HW279693   4.376   8.425   5.797
26557SOL     OW79694   5.318   7.562   7.066
26557SOL    HW179695   5.300   7.629   6.994
26557SOL    HW279696   5.315   7.608   7.155
26558SOL     OW79697   3.846   8.091   6.149
26558SOL    HW179698   3.801   8.003   6.166
26558SOL    HW279699   3.845   8.145   6.233
26559SOL     OW79700   5.566   9.215   5.945
26559SOL    HW179701   5.620   9.186   6.025
26559SOL    HW279702   5.596   9.305   5.916
26560SOL     OW79703   3.751   9.044   5.703
26560SOL    HW179704   3.732   8.948   5.724
26560SOL    HW279705   3.718   9.102   5.778
26561SOL     OW79706   5.413   8.370   6.198
26561SOL    HW179707   5.508   8.341   6.206
26561SOL    HW279708   5.405   8.435   6.123
26562SOL     OW79709   5.365   8.556   6.018
26562SOL    HW179710   5.451   8.558   5.966
26562SOL    HW279711   5.379   8.603   6.106
26563SOL     OW79712   3.837   8.185   7.183
26563SOL    HW179713   3.925   8.172   7.228
26563SOL    HW279714   3.824   8.282   7.161
26564SOL     OW79715   4.337   8.813   6.312
26564SOL    HW179716   4.288   8.726   6.321
26564SOL    HW279717   4.314   8.856   6.225
26565SOL     OW79718   5.017   8.676   7.009
26565SOL    HW179719   5.054   8.603   6.951
26565SOL    HW279720   5.069   8.681   7.094
26566SOL     OW79721   4.533   7.452   6.088
26566SOL    HW179722   4.573   7.543   6.079
26566SOL    HW279723   4.433   7.460   6.094
26567SOL     OW79724   3.921   8.424   6.850
26567SOL    HW179725   4.010   8.379   6.836
26567SOL    HW279726   3.848   8.359   6.831
26568SOL     OW79727   5.249   8.447   5.776
26568SOL    HW179728   5.186   8.371   5.789
26568SOL    HW279729   5.297   8.465   5.862
26569SOL     OW79730   4.911   9.240   7.202
26569SOL    HW179731   4.935   9.300   7.126
26569SOL    HW279732   4.918   9.145   7.172
26570SOL     OW79733   4.041   7.699   7.387
26570SOL    HW179734   4.112   7.770   7.393
26570SOL    HW279735   3.953   7.738   7.415
26571SOL     OW79736   5.190   8.865   6.539
26571SOL    HW179737   5.131   8.871   6.619
26571SOL    HW279738   5.175   8.777   6.493
26572SOL     OW79739   5.391   9.162   6.158
26572SOL    HW179740   5.350   9.139   6.070
26572SOL    HW279741   5.373   9.088   6.223
26573SOL     OW79742   4.322   8.177   5.856
26573SOL    HW179743   4.346   8.246   5.788
26573SOL    HW279744   4.244   8.210   5.910
26574SOL     OW79745   5.005   7.793   6.530
26574SOL    HW179746   4.919   7.743   6.517
26574SOL    HW279747   5.067   7.739   6.586
26575SOL     OW79748   5.300   9.110   5.893
26575SOL    HW179749   5.389   9.156   5.896
26575SOL    HW279750   5.279   9.086   5.798
26576SOL     OW79751   4.531   8.053   7.051
26576SOL    HW179752   4.484   8.050   7.140
26576SOL    HW279753   4.480   7.998   6.985
26577SOL     OW79754   5.118   7.917   7.260
26577SOL    HW179755   5.098   7.960   7.348
26577SOL    HW279756   5.196   7.855   7.269
26578SOL     OW79757   4.697   8.338   7.158
26578SOL    HW179758   4.743   8.254   7.129
26578SOL    HW279759   4.641   8.372   7.083
26579SOL     OW79760   4.715   7.858   6.828
26579SOL    HW179761   4.638   7.892   6.882
26579SOL    HW279762   4.681   7.807   6.749
26580SOL     OW79763   4.765   8.149   6.015
26580SOL    HW179764   4.791   8.145   6.111
26580SOL    HW279765   4.680   8.098   6.001
26581SOL     OW79766   3.800   8.259   6.375
26581SOL    HW179767   3.899   8.247   6.384
26581SOL    HW279768   3.776   8.354   6.396
26582SOL     OW79769   3.854   9.269   7.157
26582SOL    HW179770   3.844   9.254   7.256
26582SOL    HW279771   3.768   9.305   7.121
26583SOL     OW79772   4.589   7.796   5.781
26583SOL    HW179773   4.648   7.859   5.732
26583SOL    HW279774   4.608   7.702   5.752
26584SOL     OW79775   5.443   8.033   7.417
26584SOL    HW179776   5.417   8.122   7.381
26584SOL    HW279777   5.441   7.965   7.344
26585SOL     OW79778   5.086   8.592   6.131
26585SOL    HW179779   5.169   8.563   6.083
26585SOL    HW279780   5.037   8.659   6.075
26586SOL     OW79781   4.274   7.644   6.471
26586SOL    HW179782   4.269   7.639   6.571
26586SOL    HW279783   4.276   7.740   6.442
26587SOL     OW79784   4.732   8.904   6.063
26587SOL    HW179785   4.686   8.976   6.011
26587SOL    HW279786   4.728   8.924   6.161
26588SOL     OW79787   4.075   9.249   6.439
26588SOL    HW179788   4.125   9.163   6.445
26588SOL    HW279789   4.140   9.326   6.436
26589SOL     OW79790   5.519   8.514   6.459
26589SOL    HW179791   5.457   8.499   6.383
26589SOL    HW279792   5.467   8.525   6.544
26590SOL     OW79793   4.951   8.998   7.092
26590SOL    HW179794   4.957   8.921   7.156
26590SOL    HW279795   4.899   8.972   7.012
26591SOL     OW79796   4.045   8.391   5.828
26591SOL    HW179797   4.127   8.430   5.786
26591SOL    HW279798   4.018   8.309   5.779
26592SOL     OW79799   5.182   8.183   6.314
26592SOL    HW179800   5.177   8.118   6.389
26592SOL    HW279801   5.262   8.242   6.327
26593SOL     OW79802   4.185   8.714   7.313
26593SOL    HW179803   4.135   8.715   7.227
26593SOL    HW279804   4.122   8.696   7.389
26594SOL     OW79805   4.835   9.224   5.823
26594SOL    HW179806   4.775   9.162   5.873
26594SOL    HW279807   4.866   9.180   5.738
26595SOL     OW79808   3.926   7.733   7.084
26595SOL    HW179809   3.846   7.793   7.071
26595SOL    HW279810   3.916   7.684   7.170
26596SOL     OW79811   5.356   8.825   5.667
26596SOL    HW179812   5.324   8.919   5.657
26596SOL    HW279813   5.280   8.762   5.655
26597SOL     OW79814   4.188   9.191   5.909
26597SOL    HW179815   4.221   9.230   5.995
26597SOL    HW279816   4.264   9.184   5.844
26598SOL     OW79817   5.124   7.555   6.012
26598SOL    HW179818   5.100   7.518   5.922
26598SOL    HW279819   5.223   7.571   6.016
26599SOL     OW79820   3.973   9.233   6.827
26599SOL    HW179821   4.030   9.168   6.877
26599SOL    HW279822   3.957   9.200   6.734
26600SOL     OW79823   4.664   9.146   6.490
26600SOL    HW179824   4.744   9.089   6.511
26600SOL    HW279825   4.615   9.106   6.413
26601SOL     OW79826   4.106   8.148   6.066
26601SOL    HW179827   4.151   8.058   6.063
26601SOL    HW279828   4.012   8.137   6.099
26602SOL     OW79829   5.271   7.670   7.315
26602SOL    HW179830   5.266   7.707   7.407
26602SOL    HW279831   5.199   7.601   7.303
26603SOL     OW79832   4.338   7.570   5.703
26603SOL    HW179833   4.436   7.548   5.710
26603SOL    HW279834   4.307   7.553   5.610
26604SOL     OW79835   4.505   7.712   7.335
26604SOL    HW179836   4.572   7.651   7.378
26604SOL    HW279837   4.432   7.731   7.400
26605SOL     OW79838   4.612   8.962   6.781
26605SOL    HW179839   4.589   8.937   6.687
26605SOL    HW279840   4.673   8.893   6.820
26606SOL     OW79841   5.075   8.038   7.019
26606SOL    HW179842   5.103   7.995   7.104
26606SOL    HW279843   5.100   8.134   7.020
26607SOL     OW79844   4.527   8.850   6.510
26607SOL    HW179845   4.617   8.864   6.468
26607SOL    HW279846   4.456   8.852   6.439
26608SOL     OW79847   4.646   7.951   6.485
26608SOL    HW179848   4.621   7.942   6.389
26608SOL    HW279849   4.694   7.869   6.516
26609SOL     OW79850   4.263   7.512   6.098
26609SOL    HW179851   4.182   7.513   6.156
26609SOL    HW279852   4.266   7.595   6.043
26610SOL     OW79853   5.158   8.636   5.627
26610SOL    HW179854   5.190   8.560   5.684
26610SOL    HW279855   5.066   8.663   5.657
26611SOL     OW79856   4.021   7.483   5.757
26611SOL    HW179857   4.070   7.567   5.736
26611SOL    HW279858   4.083   7.418   5.802
26612SOL     OW79859   4.659   7.684   6.066
26612SOL    HW179860   4.611   7.725   5.988
26612SOL    HW279861   4.758   7.682   6.047
26613SOL     OW79862   4.800   8.131   7.050
26613SOL    HW179863   4.720   8.070   7.053
26613SOL    HW279864   4.881   8.078   7.026
26614SOL     OW79865   4.951   9.018   6.379
26614SOL    HW179866   4.972   9.092   6.314
26614SOL    HW279867   5.019   9.018   6.452
26615SOL     OW79868   4.183   8.600   6.327
26615SOL    HW179869   4.112   8.573   6.392
26615SOL    HW279870   4.157   8.572   6.234
26616SOL     OW79871   4.995   9.245   6.177
26616SOL    HW179872   5.039   9.309   6.113
26616SOL    HW279873   4.945   9.297   6.247
26617SOL     OW79874   4.756   7.997   5.602
26617SOL    HW179875   4.715   8.079   5.563
26617SOL    HW279876   4.820   8.023   5.675
26618SOL     OW79877   3.802   8.004   6.972
26618SOL    HW179878   3.894   8.003   6.931
26618SOL    HW279879   3.796   8.078   7.039
26619SOL     OW79880   4.285   7.670   6.733
26619SOL    HW179881   4.323   7.586   6.770
26619SOL    HW279882   4.197   7.689   6.777
26620SOL     OW79883   4.590   7.902   6.228
26620SOL    HW179884   4.558   7.974   6.166
26620SOL    HW279885   4.614   7.821   6.175
26621SOL     OW79886   4.741   7.487   6.339
26621SOL    HW179887   4.669   7.492   6.270
26621SOL    HW279888   4.717   7.418   6.408
26622SOL     OW79889   5.153   8.621   6.453
26622SOL    HW179890   5.098   8.537   6.446
26622SOL    HW279891   5.179   8.650   6.361
26623SOL     OW79892   5.190   8.038   6.578
26623SOL    HW179893   5.160   7.943   6.585
26623SOL    HW279894   5.263   8.054   6.644
26624SOL     OW79895   5.581   8.281   5.963
26624SOL    HW179896   5.623   8.217   6.027
26624SOL    HW279897   5.543   8.230   5.885
26625SOL     OW79898   4.212   8.833   5.760
26625SOL    HW179899   4.125   8.818   5.807
26625SOL    HW279900   4.195   8.859   5.665
26626SOL     OW79901   5.388   8.728   6.243
26626SOL    HW179902   5.487   8.736   6.257
26626SOL    HW279903   5.343   8.812   6.274
26627SOL     OW79904   5.114   8.023   5.664
26627SOL    HW179905   5.060   8.002   5.745
26627SOL    HW279906   5.205   7.982   5.673
26628SOL     OW79907   4.251   7.704   5.914
26628SOL    HW179908   4.278   7.645   5.839
26628SOL    HW279909   4.251   7.799   5.883
26629SOL     OW79910   5.478   8.671   7.174
26629SOL    HW179911   5.569   8.632   7.161
26629SOL    HW279912   5.486   8.767   7.198
26630SOL     OW79913   4.788   8.795   6.926
26630SOL    HW179914   4.708   8.772   6.981
26630SOL    HW279915   4.871   8.769   6.975
26631SOL     OW79916   5.316   9.077   7.211
26631SOL    HW179917   5.343   9.111   7.121
26631SOL    HW279918   5.395   9.039   7.257
26632SOL     OW79919   4.835   8.643   6.686
26632SOL    HW179920   4.795   8.687   6.767
26632SOL    HW279921   4.794   8.680   6.603
26633SOL     OW79922   5.362   8.547   6.665
26633SOL    HW179923   5.367   8.628   6.724
26633SOL    HW279924   5.276   8.549   6.614
26634SOL     OW79925   4.639   7.537   6.988
26634SOL    HW179926   4.664   7.517   6.893
26634SOL    HW279927   4.711   7.593   7.030
26635SOL     OW79928   4.704   8.564   7.305
26635SOL    HW179929   4.605   8.570   7.315
26635SOL    HW279930   4.727   8.484   7.249
26636SOL     OW79931   4.429   8.498   5.954
26636SOL    HW179932   4.415   8.505   6.053
26636SOL    HW279933   4.513   8.447   5.936
26637SOL     OW79934   4.134   8.261   6.837
26637SOL    HW179935   4.220   8.273   6.887
26637SOL    HW279936   4.092   8.174   6.864
26638SOL     OW79937   4.998   7.834   6.848
26638SOL    HW179938   5.019   7.908   6.912
26638SOL    HW279939   4.909   7.851   6.805
26639SOL     OW79940   3.788   9.012   6.917
26639SOL    HW179941   3.742   9.094   6.883
26639SOL    HW279942   3.886   9.031   6.926
26640SOL     OW79943   4.091   8.548   6.087
26640SOL    HW179944   4.084   8.631   6.031
26640SOL    HW279945   4.095   8.468   6.027
26641SOL     OW79946   4.290   7.985   6.451
26641SOL    HW179947   4.302   8.051   6.377
26641SOL    HW279948   4.336   8.019   6.534
26642SOL     OW79949   4.976   8.796   5.974
26642SOL    HW179950   5.026   8.873   6.014
26642SOL    HW279951   4.881   8.798   6.006
26643SOL     OW79952   4.996   8.893   6.728
26643SOL    HW179953   5.043   8.906   6.815
26643SOL    HW279954   4.930   8.819   6.737
26644SOL     OW79955   5.306   8.087   6.058
26644SOL    HW179956   5.275   8.148   6.131
26644SOL    HW279957   5.356   8.139   5.989
26645SOL     OW79958   4.078   8.958   6.915
26645SOL    HW179959   4.057   8.914   6.828
26645SOL    HW279960   4.175   8.984   6.918
26646SOL     OW79961   4.126   8.199   7.184
26646SOL    HW179962   4.194   8.254   7.137
26646SOL    HW279963   4.166   8.111   7.211
26647SOL     OW79964   5.311   8.227   7.256
26647SOL    HW179965   5.219   8.265   7.251
26647SOL    HW279966   5.371   8.274   7.191
26648SOL     OW79967   4.737   7.553   7.356
26648SOL    HW179968   4.743   7.638   7.304
26648SOL    HW279969   4.769   7.477   7.299
26649SOL     OW79970   4.228   7.498   7.326
26649SOL    HW179971   4.186   7.441   7.256
26649SOL    HW279972   4.162   7.567   7.358
26650SOL     OW79973   4.297   8.318   6.615
26650SOL    HW179974   4.341   8.407   6.606
26650SOL    HW279975   4.234   8.318   6.692
26651SOL     OW79976   5.084   8.310   6.631
26651SOL    HW179977   5.009   8.310   6.565
26651SOL    HW279978   5.121   8.218   6.640
26652SOL     OW79979   4.933   7.973   5.861
26652SOL    HW179980   4.946   7.889   5.915
26652SOL    HW279981   4.904   8.047   5.921
26653SOL     OW79982   4.031   7.661   6.817
26653SOL    HW179983   4.008   7.698   6.907
26653SOL    HW279984   4.001   7.566   6.811
26654SOL     OW79985   3.761   8.758   6.868
26654SOL    HW179986   3.814   8.709   6.936
26654SOL    HW279987   3.783   8.856   6.873
26655SOL     OW79988   4.456   8.082   6.650
26655SOL    HW179989   4.515   8.056   6.574
26655SOL    HW279990   4.428   8.178   6.639
26656SOL     OW79991   5.452   8.383   7.440
26656SOL    HW179992   5.406   8.376   7.351
26656SOL    HW279993   5.390   8.427   7.506
26657SOL     OW79994   4.031   7.511   6.204
26657SOL    HW179995   4.020   7.605   6.237
26657SOL    HW279996   4.026   7.448   6.281
26658SOL     OW79997   5.346   7.815   5.960
26658SOL    HW179998   5.348   7.739   6.024
26658SOL    HW279999   5.298   7.892   6.000
26659SOL     OW80000   4.747   8.214   6.552
26659SOL    HW180001   4.762   8.235   6.648
26659SOL    HW280002   4.717   8.119   6.543
26660SOL     OW80003   4.704   9.021   7.286
26660SOL    HW180004   4.684   9.065   7.198
26660SOL    HW280005   4.743   8.930   7.270
26661SOL     OW80006   5.583   8.966   7.191
26661SOL    HW180007   5.597   8.993   7.096
26661SOL    HW280008   5.666   8.988   7.244
26662SOL     OW80009   4.074   8.346   7.390
26662SOL    HW180010   4.150   8.390   7.438
26662SOL    HW280011   4.109   8.299   7.308
26663SOL     OW80012   5.264   7.722   5.711
26663SOL    HW180013   5.203   7.647   5.734
26663SOL    HW280014   5.286   7.774   5.794
26664SOL     OW80015   5.027   8.286   5.628
26664SOL    HW180016   5.061   8.193   5.643
26664SOL    HW280017   5.045   8.313   5.533
26665SOL     OW80018   4.792   8.781   6.435
26665SOL    HW180019   4.799   8.697   6.380
26665SOL    HW280020   4.854   8.850   6.399
26666SOL     OW80021   4.043   8.258   6.535
26666SOL    HW180022   4.136   8.294   6.540
26666SOL    HW280023   4.037   8.173   6.587
26667SOL     OW80024   4.063   7.957   6.592
26667SOL    HW180025   4.011   7.874   6.575
26667SOL    HW280026   4.140   7.962   6.528
26668SOL     OW80027   4.862   7.828   7.264
26668SOL    HW180028   4.817   7.891   7.328
26668SOL    HW280029   4.955   7.859   7.247
26669SOL     OW80030   4.884   7.655   7.063
26669SOL    HW180031   4.884   7.719   7.140
26669SOL    HW280032   4.912   7.703   6.980
26670SOL     OW80033   3.732   8.774   5.786
26670SOL    HW180034   3.639   8.795   5.755
26670SOL    HW280035   3.742   8.675   5.799
26671SOL     OW80036   3.812   9.249   6.513
26671SOL    HW180037   3.770   9.163   6.486
26671SOL    HW280038   3.906   9.252   6.479
26672SOL     OW80039   4.228   9.016   6.496
26672SOL    HW180040   4.294   9.090   6.505
26672SOL    HW280041   4.272   8.937   6.454
26673SOL     OW80042   4.726   8.244   6.824
26673SOL    HW180043   4.767   8.212   6.910
26673SOL    HW280044   4.630   8.217   6.821
26674SOL     OW80045   3.764   7.992   6.700
26674SOL    HW180046   3.849   7.959   6.659
26674SOL    HW280047   3.777   8.007   6.798
26675SOL     OW80048   3.913   7.968   7.308
26675SOL    HW180049   3.972   7.928   7.238
26675SOL    HW280050   3.855   8.039   7.267
26676SOL     OW80051   5.093   8.398   7.246
26676SOL    HW180052   5.132   8.487   7.266
26676SOL    HW280053   5.103   8.378   7.149
26677SOL     OW80054   4.539   8.020   5.911
26677SOL    HW180055   4.546   7.931   5.865
26677SOL    HW280056   4.445   8.054   5.903
26678SOL     OW80057   5.381   8.052   6.792
26678SOL    HW180058   5.343   7.983   6.854
26678SOL    HW280059   5.463   8.016   6.748
26679SOL     OW80060   3.976   9.012   7.330
26679SOL    HW180061   3.946   9.069   7.406
26679SOL    HW280062   3.969   8.915   7.356
26680SOL     OW80063   4.395   7.912   6.855
26680SOL    HW180064   4.361   7.823   6.825
26680SOL    HW280065   4.421   7.966   6.775
26681SOL     OW80066   4.654   9.126   7.051
26681SOL    HW180067   4.630   9.108   6.956
26681SOL    HW280068   4.684   9.220   7.061
26682SOL     OW80069   4.197   7.948   5.777
26682SOL    HW180070   4.258   8.028   5.781
26682SOL    HW280071   4.102   7.979   5.784
26683SOL     OW80072   3.883   8.585   7.052
26683SOL    HW180073   3.905   8.524   7.128
26683SOL    HW280074   3.893   8.536   6.966
26684SOL     OW80075   5.071   8.507   6.820
26684SOL    HW180076   5.095   8.444   6.746
26684SOL    HW280077   4.981   8.547   6.802
26685SOL     OW80078   5.026   8.303   5.895
26685SOL    HW180079   4.940   8.272   5.937
26685SOL    HW280080   5.022   8.289   5.796
26686SOL     OW80081   5.483   9.195   6.740
26686SOL    HW180082   5.544   9.225   6.667
26686SOL    HW280083   5.445   9.106   6.718
26687SOL     OW80084   4.976   9.179   6.714
26687SOL    HW180085   5.060   9.184   6.660
26687SOL    HW280086   4.953   9.083   6.732
26688SOL     OW80087   3.807   8.706   6.608
26688SOL    HW180088   3.802   8.705   6.708
26688SOL    HW280089   3.724   8.665   6.570
26689SOL     OW80090   4.412   9.110   7.302
26689SOL    HW180091   4.356   9.191   7.311
26689SOL    HW280092   4.464   9.114   7.216
26690SOL     OW80093   5.450   7.583   6.109
26690SOL    HW180094   5.523   7.566   6.042
26690SOL    HW280095   5.419   7.496   6.147
26691SOL     OW80096   5.112   9.021   6.063
26691SOL    HW180097   5.179   9.033   5.989
26691SOL    HW280098   5.072   9.110   6.086
26692SOL     OW80099   3.854   9.242   7.437
26692SOL    HW180100   3.813   9.168   7.490
26692SOL    HW280101   3.918   9.293   7.495
26693SOL     OW80102   5.004   8.375   6.258
26693SOL    HW180103   5.064   8.294   6.260
26693SOL    HW280104   5.044   8.444   6.198
26694SOL     OW80105   4.554   8.721   7.008
26694SOL    HW180106   4.549   8.754   7.103
26694SOL    HW280107   4.468   8.740   6.962
26695SOL     OW80108   4.396   9.064   5.740
26695SOL    HW180109   4.405   9.074   5.641
26695SOL    HW280110   4.356   8.975   5.761
26696SOL     OW80111   5.374   9.168   6.980
26696SOL    HW180112   5.427   9.178   6.896
26696SOL    HW280113   5.347   9.258   7.014
26697SOL     OW80114   5.565   7.623   6.549
26697SOL    HW180115   5.604   7.538   6.513
26697SOL    HW280116   5.467   7.625   6.530
26698SOL     OW80117   3.987   7.774   6.306
26698SOL    HW180118   3.908   7.825   6.272
26698SOL    HW280119   3.978   7.759   6.404
26699SOL     OW80120   4.918   9.060   5.617
26699SOL    HW180121   4.924   8.967   5.654
26699SOL    HW280122   4.859   9.060   5.537
26700SOL     OW80123   4.546   8.450   6.958
26700SOL    HW180124   4.586   8.449   6.866
26700SOL    HW280125   4.556   8.542   6.998
26701SOL     OW80126   4.640   8.358   5.877
26701SOL    HW180127   4.703   8.396   5.809
26701SOL    HW280128   4.680   8.275   5.916
26702SOL     OW80129   5.228   9.055   5.630
26702SOL    HW180130   5.136   9.092   5.637
26702SOL    HW280131   5.266   9.075   5.540
26703SOL     OW80132   4.096   8.736   7.076
26703SOL    HW180133   4.083   8.829   7.042
26703SOL    HW280134   4.012   8.684   7.063
26704SOL     OW80135   5.338   8.740   6.875
26704SOL    HW180136   5.398   8.743   6.955
26704SOL    HW280137   5.263   8.804   6.888
26705SOL     OW80138   4.763   8.546   6.282
26705SOL    HW180139   4.693   8.499   6.336
26705SOL    HW280140   4.822   8.478   6.239
26706SOL     OW80141   4.738   7.684   6.557
26706SOL    HW180142   4.730   7.648   6.464
26706SOL    HW280143   4.736   7.608   6.622
26707SOL     OW80144   4.314   8.935   6.077
26707SOL    HW180145   4.356   8.877   6.007
26707SOL    HW280146   4.270   9.014   6.033
26708SOL     OW80147   5.433   7.833   6.967
26708SOL    HW180148   5.506   7.902   6.971
26708SOL    HW280149   5.461   7.758   6.908
26709SOL     OW80150   3.979   8.796   5.876
26709SOL    HW180151   3.883   8.797   5.849
26709SOL    HW280152   3.991   8.849   5.960
26710SOL     OW80153   3.829   8.461   7.312
26710SOL    HW180154   3.752   8.428   7.366
26710SOL    HW280155   3.914   8.431   7.354
26711SOL     OW80156   4.396   7.651   7.075
26711SOL    HW180157   4.486   7.635   7.035
26711SOL    HW280158   4.404   7.656   7.174
26712SOL     OW80159   3.799   7.793   5.619
26712SOL    HW180160   3.707   7.765   5.590
26712SOL    HW280161   3.830   7.870   5.563
26713SOL     OW80162   5.164   8.304   6.984
26713SOL    HW180163   5.107   8.356   6.921
26713SOL    HW280164   5.260   8.316   6.960
26714SOL     OW80165   3.796   7.614   5.904
26714SOL    HW180166   3.779   7.697   5.850
26714SOL    HW280167   3.886   7.577   5.882
26715SOL     OW80168   4.907   8.783   5.705
26715SOL    HW180169   4.808   8.772   5.707
26715SOL    HW280170   4.941   8.798   5.798
26716SOL     OW80171   4.337   8.290   7.017
26716SOL    HW180172   4.393   8.371   7.000
26716SOL    HW280173   4.396   8.210   7.020
26717SOL     OW80174   5.217   9.215   6.545
26717SOL    HW180175   5.250   9.279   6.476
26717SOL    HW280176   5.283   9.209   6.620
26718SOL     OW80177   4.440   8.013   7.294
26718SOL    HW180178   4.459   8.078   7.368
26718SOL    HW280179   4.500   7.933   7.303
26719SOL     OW80180   5.174   8.668   7.219
26719SOL    HW180181   5.165   8.658   7.318
26719SOL    HW280182   5.270   8.661   7.193
26720SOL     OW80183   4.114   9.189   7.146
26720SOL    HW180184   4.023   9.230   7.144
26720SOL    HW280185   4.107   9.095   7.178
26721SOL     OW80186   5.398   8.331   6.840
26721SOL    HW180187   5.371   8.242   6.803
26721SOL    HW280188   5.399   8.399   6.767
26722SOL     OW80189   4.949   7.773   6.035
26722SOL    HW180190   5.014   7.699   6.024
26722SOL    HW280191   4.969   7.823   6.119
26723SOL     OW80192   4.318   8.193   6.238
26723SOL    HW180193   4.368   8.278   6.219
26723SOL    HW280194   4.230   8.195   6.190
26724SOL     OW80195   5.501   7.790   7.228
26724SOL    HW180196   5.484   7.821   7.134
26724SOL    HW280197   5.417   7.753   7.266
26725SOL     OW80198   5.454   8.382   7.103
26725SOL    HW180199   5.492   8.473   7.118
26725SOL    HW280200   5.446   8.365   7.004
26726SOL     OW80201   4.583   8.822   5.602
26726SOL    HW180202   4.537   8.837   5.690
26726SOL    HW280203   4.627   8.907   5.572
26727SOL     OW80204   4.385   9.238   6.539
26727SOL    HW180205   4.339   9.326   6.526
26727SOL    HW280206   4.484   9.250   6.532
26728SOL     OW80207   4.583   8.404   6.447
26728SOL    HW180208   4.637   8.335   6.495
26728SOL    HW280209   4.551   8.473   6.513
26729SOL     OW80210   4.807   8.432   5.673
26729SOL    HW180211   4.784   8.485   5.591
26729SOL    HW280212   4.888   8.376   5.654
26730SOL     OW80213   5.585   9.017   6.437
26730SOL    HW180214   5.514   9.005   6.367
26730SOL    HW280215   5.586   8.938   6.497
26731SOL     OW80216   3.945   8.762   7.430
26731SOL    HW180217   3.880   8.689   7.409
26731SOL    HW280218   3.949   8.776   7.528
26732SOL     OW80219   3.803   8.688   6.239
26732SOL    HW180220   3.802   8.641   6.327
26732SOL    HW280221   3.885   8.660   6.188
26733SOL     OW80222   4.396   8.839   7.210
26733SOL    HW180223   4.318   8.789   7.248
26733SOL    HW280224   4.393   8.934   7.241
26734SOL     OW80225   5.548   7.640   6.813
26734SOL    HW180226   5.544   7.550   6.857
26734SOL    HW280227   5.551   7.629   6.714
26735SOL     OW80228   4.152   7.872   6.106
26735SOL    HW180229   4.182   7.800   6.044
26735SOL    HW280230   4.113   7.832   6.189
26736SOL     OW80231   5.429   8.935   6.690
26736SOL    HW180232   5.336   8.910   6.663
26736SOL    HW280233   5.455   8.885   6.772
26737SOL     OW80234   4.041   7.995   6.866
26737SOL    HW180235   4.079   7.936   6.938
26737SOL    HW280236   4.081   7.969   6.778
26738SOL     OW80237   4.536   9.034   6.273
26738SOL    HW180238   4.568   9.044   6.179
26738SOL    HW280239   4.457   8.972   6.275
26739SOL     OW80240   5.148   7.662   6.698
26739SOL    HW180241   5.200   7.597   6.753
26739SOL    HW280242   5.099   7.725   6.759
26740SOL     OW80243   4.725   7.482   6.740
26740SOL    HW180244   4.662   7.410   6.709
26740SOL    HW280245   4.818   7.446   6.740
26741SOL     OW80246   4.494   8.778   5.887
26741SOL    HW180247   4.448   8.691   5.904
26741SOL    HW280248   4.585   8.775   5.928
26742SOL     OW80249   4.342   9.015   6.870
26742SOL    HW180250   4.337   9.097   6.927
26742SOL    HW280251   4.431   9.012   6.825
26743SOL     OW80252   5.076   7.500   5.754
26743SOL    HW180253   5.111   7.459   5.670
26743SOL    HW280254   4.986   7.462   5.774
26744SOL     OW80255   5.024   7.901   6.277
26744SOL    HW180256   4.965   7.981   6.281
26744SOL    HW280257   5.039   7.866   6.370
26745SOL     OW80258   5.317   7.669   6.468
26745SOL    HW180259   5.233   7.668   6.522
26745SOL    HW280260   5.319   7.752   6.412
26746SOL     OW80261   3.763   8.525   5.886
26746SOL    HW180262   3.862   8.514   5.877
26746SOL    HW280263   3.723   8.439   5.918
26747SOL     OW80264   4.599   9.094   5.923
26747SOL    HW180265   4.522   9.059   5.869
26747SOL    HW280266   4.567   9.165   5.985
26748SOL     OW80267   3.954   8.076   7.561
26748SOL    HW180268   3.861   8.074   7.598
26748SOL    HW280269   3.955   8.037   7.469
26749SOL     OW80270   3.949   7.723   8.444
26749SOL    HW180271   3.984   7.706   8.536
26749SOL    HW280272   3.861   7.678   8.432
26750SOL     OW80273   3.743   7.816   8.095
26750SOL    HW180274   3.661   7.859   8.134
26750SOL    HW280275   3.715   7.743   8.032
26751SOL     OW80276   4.293   8.723   8.613
26751SOL    HW180277   4.200   8.716   8.576
26751SOL    HW280278   4.304   8.812   8.657
26752SOL     OW80279   5.279   8.959   8.151
26752SOL    HW180280   5.222   8.943   8.232
26752SOL    HW280281   5.220   8.969   8.071
26753SOL     OW80282   4.859   8.151   8.165
26753SOL    HW180283   4.916   8.229   8.140
26753SOL    HW280284   4.799   8.177   8.241
26754SOL     OW80285   5.479   8.055   7.679
26754SOL    HW180286   5.467   8.042   7.580
26754SOL    HW280287   5.449   7.974   7.728
26755SOL     OW80288   4.492   8.592   8.471
26755SOL    HW180289   4.414   8.609   8.531
26755SOL    HW280290   4.526   8.679   8.435
26756SOL     OW80291   4.574   8.246   9.271
26756SOL    HW180292   4.570   8.322   9.336
26756SOL    HW280293   4.596   8.282   9.180
26757SOL     OW80294   4.409   8.460   8.113
26757SOL    HW180295   4.478   8.444   8.183
26757SOL    HW280296   4.336   8.517   8.151
26758SOL     OW80297   4.410   8.609   9.251
26758SOL    HW180298   4.470   8.688   9.265
26758SOL    HW280299   4.324   8.640   9.210
26759SOL     OW80300   4.059   8.883   8.509
26759SOL    HW180301   3.981   8.852   8.456
26759SOL    HW280302   4.117   8.941   8.452
26760SOL     OW80303   5.184   8.953   8.787
26760SOL    HW180304   5.208   9.047   8.813
26760SOL    HW280305   5.168   8.899   8.869
26761SOL     OW80306   4.162   7.840   8.947
26761SOL    HW180307   4.244   7.784   8.956
26761SOL    HW280308   4.081   7.782   8.951
26762SOL     OW80309   5.327   7.895   8.185
26762SOL    HW180310   5.253   7.941   8.135
26762SOL    HW280311   5.378   7.963   8.238
26763SOL     OW80312   3.955   9.161   7.931
26763SOL    HW180313   3.989   9.238   7.985
26763SOL    HW280314   3.999   9.161   7.841
26764SOL     OW80315   4.851   8.789   9.138
26764SOL    HW180316   4.898   8.789   9.226
26764SOL    HW280317   4.803   8.702   9.127
26765SOL     OW80318   3.954   8.882   7.986
26765SOL    HW180319   3.928   8.978   7.986
26765SOL    HW280320   3.883   8.828   8.031
26766SOL     OW80321   3.964   8.539   8.334
26766SOL    HW180322   3.978   8.455   8.386
26766SOL    HW280323   3.909   8.603   8.389
26767SOL     OW80324   4.344   9.234   8.887
26767SOL    HW180325   4.252   9.217   8.922
26767SOL    HW280326   4.372   9.326   8.913
26768SOL     OW80327   4.330   8.412   7.571
26768SOL    HW180328   4.337   8.496   7.517
26768SOL    HW280329   4.376   8.425   7.659
26769SOL     OW80330   5.318   7.562   8.928
26769SOL    HW180331   5.300   7.629   8.856
26769SOL    HW280332   5.315   7.608   9.017
26770SOL     OW80333   3.846   8.091   8.011
26770SOL    HW180334   3.801   8.003   8.028
26770SOL    HW280335   3.845   8.145   8.095
26771SOL     OW80336   5.566   9.215   7.807
26771SOL    HW180337   5.620   9.186   7.887
26771SOL    HW280338   5.596   9.305   7.778
26772SOL     OW80339   3.751   9.044   7.565
26772SOL    HW180340   3.732   8.948   7.586
26772SOL    HW280341   3.718   9.102   7.640
26773SOL     OW80342   5.413   8.370   8.060
26773SOL    HW180343   5.508   8.341   8.068
26773SOL    HW280344   5.405   8.435   7.985
26774SOL     OW80345   5.365   8.556   7.880
26774SOL    HW180346   5.451   8.558   7.828
26774SOL    HW280347   5.379   8.603   7.968
26775SOL     OW80348   3.837   8.185   9.045
26775SOL    HW180349   3.925   8.172   9.090
26775SOL    HW280350   3.824   8.282   9.023
26776SOL     OW80351   4.337   8.813   8.174
26776SOL    HW180352   4.288   8.726   8.183
26776SOL    HW280353   4.314   8.856   8.087
26777SOL     OW80354   5.017   8.676   8.871
26777SOL    HW180355   5.054   8.603   8.813
26777SOL    HW280356   5.069   8.681   8.956
26778SOL     OW80357   4.533   7.452   7.950
26778SOL    HW180358   4.573   7.543   7.941
26778SOL    HW280359   4.433   7.460   7.956
26779SOL     OW80360   3.921   8.424   8.712
26779SOL    HW180361   4.010   8.379   8.698
26779SOL    HW280362   3.848   8.359   8.693
26780SOL     OW80363   5.249   8.447   7.638
26780SOL    HW180364   5.186   8.371   7.651
26780SOL    HW280365   5.297   8.465   7.724
26781SOL     OW80366   4.911   9.240   9.064
26781SOL    HW180367   4.935   9.300   8.988
26781SOL    HW280368   4.918   9.145   9.034
26782SOL     OW80369   4.041   7.699   9.249
26782SOL    HW180370   4.112   7.770   9.255
26782SOL    HW280371   3.953   7.738   9.277
26783SOL     OW80372   5.190   8.865   8.401
26783SOL    HW180373   5.131   8.871   8.481
26783SOL    HW280374   5.175   8.777   8.355
26784SOL     OW80375   5.391   9.162   8.020
26784SOL    HW180376   5.350   9.139   7.932
26784SOL    HW280377   5.373   9.088   8.085
26785SOL     OW80378   4.322   8.177   7.718
26785SOL    HW180379   4.346   8.246   7.650
26785SOL    HW280380   4.244   8.210   7.772
26786SOL     OW80381   5.005   7.793   8.392
26786SOL    HW180382   4.919   7.743   8.379
26786SOL    HW280383   5.067   7.739   8.448
26787SOL     OW80384   5.300   9.110   7.755
26787SOL    HW180385   5.389   9.156   7.758
26787SOL    HW280386   5.279   9.086   7.660
26788SOL     OW80387   4.531   8.053   8.913
26788SOL    HW180388   4.484   8.050   9.002
26788SOL    HW280389   4.480   7.998   8.847
26789SOL     OW80390   5.118   7.917   9.122
26789SOL    HW180391   5.098   7.960   9.210
26789SOL    HW280392   5.196   7.855   9.131
26790SOL     OW80393   4.697   8.338   9.020
26790SOL    HW180394   4.743   8.254   8.991
26790SOL    HW280395   4.641   8.372   8.945
26791SOL     OW80396   4.715   7.858   8.690
26791SOL    HW180397   4.638   7.892   8.744
26791SOL    HW280398   4.681   7.807   8.611
26792SOL     OW80399   4.765   8.149   7.877
26792SOL    HW180400   4.791   8.145   7.973
26792SOL    HW280401   4.680   8.098   7.863
26793SOL     OW80402   3.800   8.259   8.237
26793SOL    HW180403   3.899   8.247   8.246
26793SOL    HW280404   3.776   8.354   8.258
26794SOL     OW80405   3.854   9.269   9.019
26794SOL    HW180406   3.844   9.254   9.118
26794SOL    HW280407   3.768   9.305   8.983
26795SOL     OW80408   4.589   7.796   7.643
26795SOL    HW180409   4.648   7.859   7.594
26795SOL    HW280410   4.608   7.702   7.614
26796SOL     OW80411   5.443   8.033   9.279
26796SOL    HW180412   5.417   8.122   9.243
26796SOL    HW280413   5.441   7.965   9.206
26797SOL     OW80414   5.086   8.592   7.993
26797SOL    HW180415   5.169   8.563   7.945
26797SOL    HW280416   5.037   8.659   7.937
26798SOL     OW80417   4.274   7.644   8.333
26798SOL    HW180418   4.269   7.639   8.433
26798SOL    HW280419   4.276   7.740   8.304
26799SOL     OW80420   4.732   8.904   7.925
26799SOL    HW180421   4.686   8.976   7.873
26799SOL    HW280422   4.728   8.924   8.023
26800SOL     OW80423   4.075   9.249   8.301
26800SOL    HW180424   4.125   9.163   8.307
26800SOL    HW280425   4.140   9.326   8.298
26801SOL     OW80426   5.519   8.514   8.321
26801SOL    HW180427   5.457   8.499   8.245
26801SOL    HW280428   5.467   8.525   8.406
26802SOL     OW80429   4.951   8.998   8.954
26802SOL    HW180430   4.957   8.921   9.018
26802SOL    HW280431   4.899   8.972   8.874
26803SOL     OW80432   4.045   8.391   7.690
26803SOL    HW180433   4.127   8.430   7.648
26803SOL    HW280434   4.018   8.309   7.641
26804SOL     OW80435   5.182   8.183   8.176
26804SOL    HW180436   5.177   8.118   8.251
26804SOL    HW280437   5.262   8.242   8.189
26805SOL     OW80438   4.185   8.714   9.175
26805SOL    HW180439   4.135   8.715   9.089
26805SOL    HW280440   4.122   8.696   9.251
26806SOL     OW80441   4.835   9.224   7.685
26806SOL    HW180442   4.775   9.162   7.735
26806SOL    HW280443   4.866   9.180   7.600
26807SOL     OW80444   3.926   7.733   8.946
26807SOL    HW180445   3.846   7.793   8.933
26807SOL    HW280446   3.916   7.684   9.032
26808SOL     OW80447   5.356   8.825   7.529
26808SOL    HW180448   5.324   8.919   7.519
26808SOL    HW280449   5.280   8.762   7.517
26809SOL     OW80450   4.188   9.191   7.771
26809SOL    HW180451   4.221   9.230   7.857
26809SOL    HW280452   4.264   9.184   7.706
26810SOL     OW80453   5.124   7.555   7.874
26810SOL    HW180454   5.100   7.518   7.784
26810SOL    HW280455   5.223   7.571   7.878
26811SOL     OW80456   3.973   9.233   8.689
26811SOL    HW180457   4.030   9.168   8.739
26811SOL    HW280458   3.957   9.200   8.596
26812SOL     OW80459   4.664   9.146   8.352
26812SOL    HW180460   4.744   9.089   8.373
26812SOL    HW280461   4.615   9.106   8.275
26813SOL     OW80462   4.106   8.148   7.928
26813SOL    HW180463   4.151   8.058   7.925
26813SOL    HW280464   4.012   8.137   7.961
26814SOL     OW80465   5.271   7.670   9.177
26814SOL    HW180466   5.266   7.707   9.269
26814SOL    HW280467   5.199   7.601   9.165
26815SOL     OW80468   4.338   7.570   7.565
26815SOL    HW180469   4.436   7.548   7.572
26815SOL    HW280470   4.307   7.553   7.472
26816SOL     OW80471   4.505   7.712   9.197
26816SOL    HW180472   4.572   7.651   9.240
26816SOL    HW280473   4.432   7.731   9.262
26817SOL     OW80474   4.612   8.962   8.643
26817SOL    HW180475   4.589   8.937   8.549
26817SOL    HW280476   4.673   8.893   8.682
26818SOL     OW80477   5.075   8.038   8.881
26818SOL    HW180478   5.103   7.995   8.966
26818SOL    HW280479   5.100   8.134   8.882
26819SOL     OW80480   4.527   8.850   8.372
26819SOL    HW180481   4.617   8.864   8.330
26819SOL    HW280482   4.456   8.852   8.301
26820SOL     OW80483   4.646   7.951   8.347
26820SOL    HW180484   4.621   7.942   8.251
26820SOL    HW280485   4.694   7.869   8.378
26821SOL     OW80486   4.263   7.512   7.960
26821SOL    HW180487   4.182   7.513   8.018
26821SOL    HW280488   4.266   7.595   7.905
26822SOL     OW80489   5.158   8.636   7.489
26822SOL    HW180490   5.190   8.560   7.546
26822SOL    HW280491   5.066   8.663   7.519
26823SOL     OW80492   4.021   7.483   7.619
26823SOL    HW180493   4.070   7.567   7.598
26823SOL    HW280494   4.083   7.418   7.664
26824SOL     OW80495   4.659   7.684   7.928
26824SOL    HW180496   4.611   7.725   7.850
26824SOL    HW280497   4.758   7.682   7.909
26825SOL     OW80498   4.800   8.131   8.912
26825SOL    HW180499   4.720   8.070   8.915
26825SOL    HW280500   4.881   8.078   8.888
26826SOL     OW80501   4.951   9.018   8.241
26826SOL    HW180502   4.972   9.092   8.176
26826SOL    HW280503   5.019   9.018   8.314
26827SOL     OW80504   4.183   8.600   8.189
26827SOL    HW180505   4.112   8.573   8.254
26827SOL    HW280506   4.157   8.572   8.096
26828SOL     OW80507   4.995   9.245   8.039
26828SOL    HW180508   5.039   9.309   7.975
26828SOL    HW280509   4.945   9.297   8.109
26829SOL     OW80510   4.756   7.997   7.464
26829SOL    HW180511   4.715   8.079   7.425
26829SOL    HW280512   4.820   8.023   7.537
26830SOL     OW80513   3.802   8.004   8.834
26830SOL    HW180514   3.894   8.003   8.793
26830SOL    HW280515   3.796   8.078   8.901
26831SOL     OW80516   4.285   7.670   8.595
26831SOL    HW180517   4.323   7.586   8.632
26831SOL    HW280518   4.197   7.689   8.639
26832SOL     OW80519   4.590   7.902   8.090
26832SOL    HW180520   4.558   7.974   8.028
26832SOL    HW280521   4.614   7.821   8.037
26833SOL     OW80522   4.741   7.487   8.201
26833SOL    HW180523   4.669   7.492   8.132
26833SOL    HW280524   4.717   7.418   8.270
26834SOL     OW80525   5.153   8.621   8.315
26834SOL    HW180526   5.098   8.537   8.308
26834SOL    HW280527   5.179   8.650   8.223
26835SOL     OW80528   5.190   8.038   8.440
26835SOL    HW180529   5.160   7.943   8.447
26835SOL    HW280530   5.263   8.054   8.506
26836SOL     OW80531   5.581   8.281   7.825
26836SOL    HW180532   5.623   8.217   7.889
26836SOL    HW280533   5.543   8.230   7.747
26837SOL     OW80534   4.212   8.833   7.622
26837SOL    HW180535   4.125   8.818   7.669
26837SOL    HW280536   4.195   8.859   7.527
26838SOL     OW80537   5.388   8.728   8.105
26838SOL    HW180538   5.487   8.736   8.119
26838SOL    HW280539   5.343   8.812   8.136
26839SOL     OW80540   5.114   8.023   7.526
26839SOL    HW180541   5.060   8.002   7.607
26839SOL    HW280542   5.205   7.982   7.535
26840SOL     OW80543   4.251   7.704   7.776
26840SOL    HW180544   4.278   7.645   7.701
26840SOL    HW280545   4.251   7.799   7.745
26841SOL     OW80546   5.478   8.671   9.036
26841SOL    HW180547   5.569   8.632   9.023
26841SOL    HW280548   5.486   8.767   9.060
26842SOL     OW80549   4.788   8.795   8.788
26842SOL    HW180550   4.708   8.772   8.843
26842SOL    HW280551   4.871   8.769   8.837
26843SOL     OW80552   5.316   9.077   9.073
26843SOL    HW180553   5.343   9.111   8.983
26843SOL    HW280554   5.395   9.039   9.119
26844SOL     OW80555   4.835   8.643   8.548
26844SOL    HW180556   4.795   8.687   8.629
26844SOL    HW280557   4.794   8.680   8.465
26845SOL     OW80558   5.362   8.547   8.527
26845SOL    HW180559   5.367   8.628   8.586
26845SOL    HW280560   5.276   8.549   8.476
26846SOL     OW80561   4.639   7.537   8.850
26846SOL    HW180562   4.664   7.517   8.755
26846SOL    HW280563   4.711   7.593   8.892
26847SOL     OW80564   4.704   8.564   9.167
26847SOL    HW180565   4.605   8.570   9.177
26847SOL    HW280566   4.727   8.484   9.111
26848SOL     OW80567   4.429   8.498   7.816
26848SOL    HW180568   4.415   8.505   7.915
26848SOL    HW280569   4.513   8.447   7.798
26849SOL     OW80570   4.134   8.261   8.699
26849SOL    HW180571   4.220   8.273   8.749
26849SOL    HW280572   4.092   8.174   8.726
26850SOL     OW80573   4.998   7.834   8.710
26850SOL    HW180574   5.019   7.908   8.774
26850SOL    HW280575   4.909   7.851   8.667
26851SOL     OW80576   3.788   9.012   8.779
26851SOL    HW180577   3.742   9.094   8.745
26851SOL    HW280578   3.886   9.031   8.788
26852SOL     OW80579   4.091   8.548   7.949
26852SOL    HW180580   4.084   8.631   7.893
26852SOL    HW280581   4.095   8.468   7.889
26853SOL     OW80582   4.290   7.985   8.313
26853SOL    HW180583   4.302   8.051   8.239
26853SOL    HW280584   4.336   8.019   8.396
26854SOL     OW80585   4.976   8.796   7.836
26854SOL    HW180586   5.026   8.873   7.876
26854SOL    HW280587   4.881   8.798   7.868
26855SOL     OW80588   4.996   8.893   8.590
26855SOL    HW180589   5.043   8.906   8.677
26855SOL    HW280590   4.930   8.819   8.599
26856SOL     OW80591   5.306   8.087   7.920
26856SOL    HW180592   5.275   8.148   7.993
26856SOL    HW280593   5.356   8.139   7.851
26857SOL     OW80594   4.078   8.958   8.777
26857SOL    HW180595   4.057   8.914   8.690
26857SOL    HW280596   4.175   8.984   8.780
26858SOL     OW80597   4.126   8.199   9.046
26858SOL    HW180598   4.194   8.254   8.999
26858SOL    HW280599   4.166   8.111   9.073
26859SOL     OW80600   5.311   8.227   9.118
26859SOL    HW180601   5.219   8.265   9.113
26859SOL    HW280602   5.371   8.274   9.053
26860SOL     OW80603   4.737   7.553   9.218
26860SOL    HW180604   4.743   7.638   9.166
26860SOL    HW280605   4.769   7.477   9.161
26861SOL     OW80606   4.228   7.498   9.188
26861SOL    HW180607   4.186   7.441   9.118
26861SOL    HW280608   4.162   7.567   9.220
26862SOL     OW80609   4.297   8.318   8.477
26862SOL    HW180610   4.341   8.407   8.468
26862SOL    HW280611   4.234   8.318   8.554
26863SOL     OW80612   5.084   8.310   8.493
26863SOL    HW180613   5.009   8.310   8.427
26863SOL    HW280614   5.121   8.218   8.502
26864SOL     OW80615   4.933   7.973   7.723
26864SOL    HW180616   4.946   7.889   7.777
26864SOL    HW280617   4.904   8.047   7.783
26865SOL     OW80618   4.031   7.661   8.679
26865SOL    HW180619   4.008   7.698   8.769
26865SOL    HW280620   4.001   7.566   8.673
26866SOL     OW80621   3.761   8.758   8.730
26866SOL    HW180622   3.814   8.709   8.798
26866SOL    HW280623   3.783   8.856   8.735
26867SOL     OW80624   4.456   8.082   8.512
26867SOL    HW180625   4.515   8.056   8.436
26867SOL    HW280626   4.428   8.178   8.501
26868SOL     OW80627   5.452   8.383   9.302
26868SOL    HW180628   5.406   8.376   9.213
26868SOL    HW280629   5.390   8.427   9.368
26869SOL     OW80630   4.031   7.511   8.066
26869SOL    HW180631   4.020   7.605   8.099
26869SOL    HW280632   4.026   7.448   8.143
26870SOL     OW80633   5.346   7.815   7.822
26870SOL    HW180634   5.348   7.739   7.886
26870SOL    HW280635   5.298   7.892   7.862
26871SOL     OW80636   4.747   8.214   8.414
26871SOL    HW180637   4.762   8.235   8.510
26871SOL    HW280638   4.717   8.119   8.405
26872SOL     OW80639   4.704   9.021   9.148
26872SOL    HW180640   4.684   9.065   9.060
26872SOL    HW280641   4.743   8.930   9.132
26873SOL     OW80642   5.583   8.966   9.053
26873SOL    HW180643   5.597   8.993   8.958
26873SOL    HW280644   5.666   8.988   9.106
26874SOL     OW80645   4.074   8.346   9.252
26874SOL    HW180646   4.150   8.390   9.300
26874SOL    HW280647   4.109   8.299   9.170
26875SOL     OW80648   5.264   7.722   7.573
26875SOL    HW180649   5.203   7.647   7.596
26875SOL    HW280650   5.286   7.774   7.656
26876SOL     OW80651   5.027   8.286   7.490
26876SOL    HW180652   5.061   8.193   7.505
26876SOL    HW280653   5.045   8.313   7.395
26877SOL     OW80654   4.792   8.781   8.297
26877SOL    HW180655   4.799   8.697   8.242
26877SOL    HW280656   4.854   8.850   8.261
26878SOL     OW80657   4.043   8.258   8.397
26878SOL    HW180658   4.136   8.294   8.402
26878SOL    HW280659   4.037   8.173   8.449
26879SOL     OW80660   4.063   7.957   8.454
26879SOL    HW180661   4.011   7.874   8.437
26879SOL    HW280662   4.140   7.962   8.390
26880SOL     OW80663   4.862   7.828   9.126
26880SOL    HW180664   4.817   7.891   9.190
26880SOL    HW280665   4.955   7.859   9.109
26881SOL     OW80666   4.884   7.655   8.925
26881SOL    HW180667   4.884   7.719   9.002
26881SOL    HW280668   4.912   7.703   8.842
26882SOL     OW80669   3.732   8.774   7.648
26882SOL    HW180670   3.639   8.795   7.617
26882SOL    HW280671   3.742   8.675   7.661
26883SOL     OW80672   3.812   9.249   8.375
26883SOL    HW180673   3.770   9.163   8.348
26883SOL    HW280674   3.906   9.252   8.341
26884SOL     OW80675   4.228   9.016   8.358
26884SOL    HW180676   4.294   9.090   8.367
26884SOL    HW280677   4.272   8.937   8.316
26885SOL     OW80678   4.726   8.244   8.686
26885SOL    HW180679   4.767   8.212   8.772
26885SOL    HW280680   4.630   8.217   8.683
26886SOL     OW80681   3.764   7.992   8.562
26886SOL    HW180682   3.849   7.959   8.521
26886SOL    HW280683   3.777   8.007   8.660
26887SOL     OW80684   3.913   7.968   9.170
26887SOL    HW180685   3.972   7.928   9.100
26887SOL    HW280686   3.855   8.039   9.129
26888SOL     OW80687   5.093   8.398   9.108
26888SOL    HW180688   5.132   8.487   9.128
26888SOL    HW280689   5.103   8.378   9.011
26889SOL     OW80690   4.539   8.020   7.773
26889SOL    HW180691   4.546   7.931   7.727
26889SOL    HW280692   4.445   8.054   7.765
26890SOL     OW80693   5.381   8.052   8.654
26890SOL    HW180694   5.343   7.983   8.716
26890SOL    HW280695   5.463   8.016   8.610
26891SOL     OW80696   3.976   9.012   9.192
26891SOL    HW180697   3.946   9.069   9.268
26891SOL    HW280698   3.969   8.915   9.218
26892SOL     OW80699   4.395   7.912   8.717
26892SOL    HW180700   4.361   7.823   8.687
26892SOL    HW280701   4.421   7.966   8.637
26893SOL     OW80702   4.654   9.126   8.913
26893SOL    HW180703   4.630   9.108   8.818
26893SOL    HW280704   4.684   9.220   8.923
26894SOL     OW80705   4.197   7.948   7.639
26894SOL    HW180706   4.258   8.028   7.643
26894SOL    HW280707   4.102   7.979   7.646
26895SOL     OW80708   3.883   8.585   8.914
26895SOL    HW180709   3.905   8.524   8.990
26895SOL    HW280710   3.893   8.536   8.828
26896SOL     OW80711   5.071   8.507   8.682
26896SOL    HW180712   5.095   8.444   8.608
26896SOL    HW280713   4.981   8.547   8.664
26897SOL     OW80714   5.026   8.303   7.757
26897SOL    HW180715   4.940   8.272   7.799
26897SOL    HW280716   5.022   8.289   7.658
26898SOL     OW80717   5.483   9.195   8.602
26898SOL    HW180718   5.544   9.225   8.529
26898SOL    HW280719   5.445   9.106   8.580
26899SOL     OW80720   4.976   9.179   8.576
26899SOL    HW180721   5.060   9.184   8.522
26899SOL    HW280722   4.953   9.083   8.594
26900SOL     OW80723   3.807   8.706   8.470
26900SOL    HW180724   3.802   8.705   8.570
26900SOL    HW280725   3.724   8.665   8.432
26901SOL     OW80726   4.412   9.110   9.164
26901SOL    HW180727   4.356   9.191   9.173
26901SOL    HW280728   4.464   9.114   9.078
26902SOL     OW80729   5.450   7.583   7.971
26902SOL    HW180730   5.523   7.566   7.904
26902SOL    HW280731   5.419   7.496   8.009
26903SOL     OW80732   5.112   9.021   7.925
26903SOL    HW180733   5.179   9.033   7.851
26903SOL    HW280734   5.072   9.110   7.948
26904SOL     OW80735   3.854   9.242   9.299
26904SOL    HW180736   3.813   9.168   9.352
26904SOL    HW280737   3.918   9.293   9.357
26905SOL     OW80738   5.004   8.375   8.120
26905SOL    HW180739   5.064   8.294   8.122
26905SOL    HW280740   5.044   8.444   8.060
26906SOL     OW80741   4.554   8.721   8.870
26906SOL    HW180742   4.549   8.754   8.965
26906SOL    HW280743   4.468   8.740   8.824
26907SOL     OW80744   4.396   9.064   7.602
26907SOL    HW180745   4.405   9.074   7.503
26907SOL    HW280746   4.356   8.975   7.623
26908SOL     OW80747   5.374   9.168   8.842
26908SOL    HW180748   5.427   9.178   8.758
26908SOL    HW280749   5.347   9.258   8.876
26909SOL     OW80750   5.565   7.623   8.411
26909SOL    HW180751   5.604   7.538   8.375
26909SOL    HW280752   5.467   7.625   8.392
26910SOL     OW80753   3.987   7.774   8.168
26910SOL    HW180754   3.908   7.825   8.134
26910SOL    HW280755   3.978   7.759   8.266
26911SOL     OW80756   4.918   9.060   7.479
26911SOL    HW180757   4.924   8.967   7.516
26911SOL    HW280758   4.859   9.060   7.399
26912SOL     OW80759   4.546   8.450   8.820
26912SOL    HW180760   4.586   8.449   8.728
26912SOL    HW280761   4.556   8.542   8.860
26913SOL     OW80762   4.640   8.358   7.739
26913SOL    HW180763   4.703   8.396   7.671
26913SOL    HW280764   4.680   8.275   7.778
26914SOL     OW80765   5.228   9.055   7.492
26914SOL    HW180766   5.136   9.092   7.499
26914SOL    HW280767   5.266   9.075   7.402
26915SOL     OW80768   4.096   8.736   8.938
26915SOL    HW180769   4.083   8.829   8.904
26915SOL    HW280770   4.012   8.684   8.925
26916SOL     OW80771   5.338   8.740   8.737
26916SOL    HW180772   5.398   8.743   8.817
26916SOL    HW280773   5.263   8.804   8.750
26917SOL     OW80774   4.763   8.546   8.144
26917SOL    HW180775   4.693   8.499   8.198
26917SOL    HW280776   4.822   8.478   8.101
26918SOL     OW80777   4.738   7.684   8.419
26918SOL    HW180778   4.730   7.648   8.326
26918SOL    HW280779   4.736   7.608   8.484
26919SOL     OW80780   4.314   8.935   7.939
26919SOL    HW180781   4.356   8.877   7.869
26919SOL    HW280782   4.270   9.014   7.895
26920SOL     OW80783   5.433   7.833   8.829
26920SOL    HW180784   5.506   7.902   8.833
26920SOL    HW280785   5.461   7.758   8.770
26921SOL     OW80786   3.979   8.796   7.738
26921SOL    HW180787   3.883   8.797   7.711
26921SOL    HW280788   3.991   8.849   7.822
26922SOL     OW80789   3.829   8.461   9.174
26922SOL    HW180790   3.752   8.428   9.228
26922SOL    HW280791   3.914   8.431   9.216
26923SOL     OW80792   4.396   7.651   8.937
26923SOL    HW180793   4.486   7.635   8.897
26923SOL    HW280794   4.404   7.656   9.036
26924SOL     OW80795   3.799   7.793   7.481
26924SOL    HW180796   3.707   7.765   7.452
26924SOL    HW280797   3.830   7.870   7.425
26925SOL     OW80798   5.164   8.304   8.846
26925SOL    HW180799   5.107   8.356   8.783
26925SOL    HW280800   5.260   8.316   8.822
26926SOL     OW80801   3.796   7.614   7.766
26926SOL    HW180802   3.779   7.697   7.712
26926SOL    HW280803   3.886   7.577   7.744
26927SOL     OW80804   4.907   8.783   7.567
26927SOL    HW180805   4.808   8.772   7.569
26927SOL    HW280806   4.941   8.798   7.660
26928SOL     OW80807   4.337   8.290   8.879
26928SOL    HW180808   4.393   8.371   8.862
26928SOL    HW280809   4.396   8.210   8.882
26929SOL     OW80810   5.217   9.215   8.407
26929SOL    HW180811   5.250   9.279   8.338
26929SOL    HW280812   5.283   9.209   8.482
26930SOL     OW80813   4.440   8.013   9.156
26930SOL    HW180814   4.459   8.078   9.230
26930SOL    HW280815   4.500   7.933   9.165
26931SOL     OW80816   5.174   8.668   9.081
26931SOL    HW180817   5.165   8.658   9.180
26931SOL    HW280818   5.270   8.661   9.055
26932SOL     OW80819   4.114   9.189   9.008
26932SOL    HW180820   4.023   9.230   9.006
26932SOL    HW280821   4.107   9.095   9.040
26933SOL     OW80822   5.398   8.331   8.702
26933SOL    HW180823   5.371   8.242   8.665
26933SOL    HW280824   5.399   8.399   8.629
26934SOL     OW80825   4.949   7.773   7.897
26934SOL    HW180826   5.014   7.699   7.886
26934SOL    HW280827   4.969   7.823   7.981
26935SOL     OW80828   4.318   8.193   8.100
26935SOL    HW180829   4.368   8.278   8.081
26935SOL    HW280830   4.230   8.195   8.052
26936SOL     OW80831   5.501   7.790   9.090
26936SOL    HW180832   5.484   7.821   8.996
26936SOL    HW280833   5.417   7.753   9.128
26937SOL     OW80834   5.454   8.382   8.965
26937SOL    HW180835   5.492   8.473   8.980
26937SOL    HW280836   5.446   8.365   8.866
26938SOL     OW80837   4.583   8.822   7.464
26938SOL    HW180838   4.537   8.837   7.552
26938SOL    HW280839   4.627   8.907   7.434
26939SOL     OW80840   4.385   9.238   8.401
26939SOL    HW180841   4.339   9.326   8.388
26939SOL    HW280842   4.484   9.250   8.394
26940SOL     OW80843   4.583   8.404   8.309
26940SOL    HW180844   4.637   8.335   8.357
26940SOL    HW280845   4.551   8.473   8.375
26941SOL     OW80846   4.807   8.432   7.535
26941SOL    HW180847   4.784   8.485   7.453
26941SOL    HW280848   4.888   8.376   7.516
26942SOL     OW80849   5.585   9.017   8.299
26942SOL    HW180850   5.514   9.005   8.229
26942SOL    HW280851   5.586   8.938   8.359
26943SOL     OW80852   3.945   8.762   9.292
26943SOL    HW180853   3.880   8.689   9.271
26943SOL    HW280854   3.949   8.776   9.390
26944SOL     OW80855   3.803   8.688   8.101
26944SOL    HW180856   3.802   8.641   8.189
26944SOL    HW280857   3.885   8.660   8.050
26945SOL     OW80858   4.396   8.839   9.072
26945SOL    HW180859   4.318   8.789   9.110
26945SOL    HW280860   4.393   8.934   9.103
26946SOL     OW80861   5.548   7.640   8.675
26946SOL    HW180862   5.544   7.550   8.719
26946SOL    HW280863   5.551   7.629   8.576
26947SOL     OW80864   4.152   7.872   7.968
26947SOL    HW180865   4.182   7.800   7.906
26947SOL    HW280866   4.113   7.832   8.051
26948SOL     OW80867   5.429   8.935   8.552
26948SOL    HW180868   5.336   8.910   8.525
26948SOL    HW280869   5.455   8.885   8.634
26949SOL     OW80870   4.041   7.995   8.728
26949SOL    HW180871   4.079   7.936   8.800
26949SOL    HW280872   4.081   7.969   8.640
26950SOL     OW80873   4.536   9.034   8.135
26950SOL    HW180874   4.568   9.044   8.041
26950SOL    HW280875   4.457   8.972   8.137
26951SOL     OW80876   5.148   7.662   8.560
26951SOL    HW180877   5.200   7.597   8.615
26951SOL    HW280878   5.099   7.725   8.621
26952SOL     OW80879   4.725   7.482   8.602
26952SOL    HW180880   4.662   7.410   8.571
26952SOL    HW280881   4.818   7.446   8.602
26953SOL     OW80882   4.494   8.778   7.749
26953SOL    HW180883   4.448   8.691   7.766
26953SOL    HW280884   4.585   8.775   7.790
26954SOL     OW80885   4.342   9.015   8.732
26954SOL    HW180886   4.337   9.097   8.789
26954SOL    HW280887   4.431   9.012   8.687
26955SOL     OW80888   5.076   7.500   7.616
26955SOL    HW180889   5.111   7.459   7.532
26955SOL    HW280890   4.986   7.462   7.636
26956SOL     OW80891   5.024   7.901   8.139
26956SOL    HW180892   4.965   7.981   8.143
26956SOL    HW280893   5.039   7.866   8.232
26957SOL     OW80894   5.317   7.669   8.330
26957SOL    HW180895   5.233   7.668   8.384
26957SOL    HW280896   5.319   7.752   8.274
26958SOL     OW80897   3.763   8.525   7.748
26958SOL    HW180898   3.862   8.514   7.739
26958SOL    HW280899   3.723   8.439   7.780
26959SOL     OW80900   4.599   9.094   7.785
26959SOL    HW180901   4.522   9.059   7.731
26959SOL    HW280902   4.567   9.165   7.847
26960SOL     OW80903   3.954   8.076   9.423
26960SOL    HW180904   3.861   8.074   9.460
26960SOL    HW280905   3.955   8.037   9.331
26961SOL     OW80906   3.949   7.723  10.306
26961SOL    HW180907   3.984   7.706  10.398
26961SOL    HW280908   3.861   7.678  10.294
26962SOL     OW80909   3.743   7.816   9.957
26962SOL    HW180910   3.661   7.859   9.996
26962SOL    HW280911   3.715   7.743   9.894
26963SOL     OW80912   4.293   8.723  10.475
26963SOL    HW180913   4.200   8.716  10.438
26963SOL    HW280914   4.304   8.812  10.519
26964SOL     OW80915   5.279   8.959  10.013
26964SOL    HW180916   5.222   8.943  10.094
26964SOL    HW280917   5.220   8.969   9.933
26965SOL     OW80918   4.859   8.151  10.027
26965SOL    HW180919   4.916   8.229  10.002
26965SOL    HW280920   4.799   8.177  10.103
26966SOL     OW80921   5.479   8.055   9.541
26966SOL    HW180922   5.467   8.042   9.442
26966SOL    HW280923   5.449   7.974   9.590
26967SOL     OW80924   4.492   8.592  10.333
26967SOL    HW180925   4.414   8.609  10.393
26967SOL    HW280926   4.526   8.679  10.297
26968SOL     OW80927   4.574   8.246  11.133
26968SOL    HW180928   4.570   8.322  11.198
26968SOL    HW280929   4.596   8.282  11.042
26969SOL     OW80930   4.409   8.460   9.975
26969SOL    HW180931   4.478   8.444  10.045
26969SOL    HW280932   4.336   8.517  10.013
26970SOL     OW80933   4.410   8.609  11.113
26970SOL    HW180934   4.470   8.688  11.127
26970SOL    HW280935   4.324   8.640  11.072
26971SOL     OW80936   4.059   8.883  10.371
26971SOL    HW180937   3.981   8.852  10.318
26971SOL    HW280938   4.117   8.941  10.314
26972SOL     OW80939   5.184   8.953  10.649
26972SOL    HW180940   5.208   9.047  10.675
26972SOL    HW280941   5.168   8.899  10.731
26973SOL     OW80942   4.162   7.840  10.809
26973SOL    HW180943   4.244   7.784  10.818
26973SOL    HW280944   4.081   7.782  10.813
26974SOL     OW80945   5.327   7.895  10.047
26974SOL    HW180946   5.253   7.941   9.997
26974SOL    HW280947   5.378   7.963  10.100
26975SOL     OW80948   3.955   9.161   9.793
26975SOL    HW180949   3.989   9.238   9.847
26975SOL    HW280950   3.999   9.161   9.703
26976SOL     OW80951   4.851   8.789  11.000
26976SOL    HW180952   4.898   8.789  11.088
26976SOL    HW280953   4.803   8.702  10.989
26977SOL     OW80954   3.954   8.882   9.848
26977SOL    HW180955   3.928   8.978   9.848
26977SOL    HW280956   3.883   8.828   9.893
26978SOL     OW80957   3.964   8.539  10.196
26978SOL    HW180958   3.978   8.455  10.248
26978SOL    HW280959   3.909   8.603  10.251
26979SOL     OW80960   4.344   9.234  10.749
26979SOL    HW180961   4.252   9.217  10.784
26979SOL    HW280962   4.372   9.326  10.775
26980SOL     OW80963   4.330   8.412   9.433
26980SOL    HW180964   4.337   8.496   9.379
26980SOL    HW280965   4.376   8.425   9.521
26981SOL     OW80966   5.318   7.562  10.790
26981SOL    HW180967   5.300   7.629  10.718
26981SOL    HW280968   5.315   7.608  10.879
26982SOL     OW80969   3.846   8.091   9.873
26982SOL    HW180970   3.801   8.003   9.890
26982SOL    HW280971   3.845   8.145   9.957
26983SOL     OW80972   5.566   9.215   9.669
26983SOL    HW180973   5.620   9.186   9.749
26983SOL    HW280974   5.596   9.305   9.640
26984SOL     OW80975   3.751   9.044   9.427
26984SOL    HW180976   3.732   8.948   9.448
26984SOL    HW280977   3.718   9.102   9.502
26985SOL     OW80978   5.413   8.370   9.922
26985SOL    HW180979   5.508   8.341   9.930
26985SOL    HW280980   5.405   8.435   9.847
26986SOL     OW80981   5.365   8.556   9.742
26986SOL    HW180982   5.451   8.558   9.690
26986SOL    HW280983   5.379   8.603   9.830
26987SOL     OW80984   3.837   8.185  10.907
26987SOL    HW180985   3.925   8.172  10.952
26987SOL    HW280986   3.824   8.282  10.885
26988SOL     OW80987   4.337   8.813  10.036
26988SOL    HW180988   4.288   8.726  10.045
26988SOL    HW280989   4.314   8.856   9.949
26989SOL     OW80990   5.017   8.676  10.733
26989SOL    HW180991   5.054   8.603  10.675
26989SOL    HW280992   5.069   8.681  10.818
26990SOL     OW80993   4.533   7.452   9.812
26990SOL    HW180994   4.573   7.543   9.803
26990SOL    HW280995   4.433   7.460   9.818
26991SOL     OW80996   3.921   8.424  10.574
26991SOL    HW180997   4.010   8.379  10.560
26991SOL    HW280998   3.848   8.359  10.555
26992SOL     OW80999   5.249   8.447   9.500
26992SOL    HW181000   5.186   8.371   9.513
26992SOL    HW281001   5.297   8.465   9.586
26993SOL     OW81002   4.911   9.240  10.926
26993SOL    HW181003   4.935   9.300  10.850
26993SOL    HW281004   4.918   9.145  10.896
26994SOL     OW81005   4.041   7.699  11.111
26994SOL    HW181006   4.112   7.770  11.117
26994SOL    HW281007   3.953   7.738  11.139
26995SOL     OW81008   5.190   8.865  10.263
26995SOL    HW181009   5.131   8.871  10.343
26995SOL    HW281010   5.175   8.777  10.217
26996SOL     OW81011   5.391   9.162   9.882
26996SOL    HW181012   5.350   9.139   9.794
26996SOL    HW281013   5.373   9.088   9.947
26997SOL     OW81014   4.322   8.177   9.580
26997SOL    HW181015   4.346   8.246   9.512
26997SOL    HW281016   4.244   8.210   9.634
26998SOL     OW81017   5.005   7.793  10.254
26998SOL    HW181018   4.919   7.743  10.241
26998SOL    HW281019   5.067   7.739  10.310
26999SOL     OW81020   5.300   9.110   9.617
26999SOL    HW181021   5.389   9.156   9.620
26999SOL    HW281022   5.279   9.086   9.522
27000SOL     OW81023   4.531   8.053  10.775
27000SOL    HW181024   4.484   8.050  10.864
27000SOL    HW281025   4.480   7.998  10.709
27001SOL     OW81026   5.118   7.917  10.984
27001SOL    HW181027   5.098   7.960  11.072
27001SOL    HW281028   5.196   7.855  10.993
27002SOL     OW81029   4.697   8.338  10.882
27002SOL    HW181030   4.743   8.254  10.853
27002SOL    HW281031   4.641   8.372  10.807
27003SOL     OW81032   4.715   7.858  10.552
27003SOL    HW181033   4.638   7.892  10.606
27003SOL    HW281034   4.681   7.807  10.473
27004SOL     OW81035   4.765   8.149   9.739
27004SOL    HW181036   4.791   8.145   9.835
27004SOL    HW281037   4.680   8.098   9.725
27005SOL     OW81038   3.800   8.259  10.099
27005SOL    HW181039   3.899   8.247  10.108
27005SOL    HW281040   3.776   8.354  10.120
27006SOL     OW81041   3.854   9.269  10.881
27006SOL    HW181042   3.844   9.254  10.980
27006SOL    HW281043   3.768   9.305  10.845
27007SOL     OW81044   4.589   7.796   9.505
27007SOL    HW181045   4.648   7.859   9.456
27007SOL    HW281046   4.608   7.702   9.476
27008SOL     OW81047   5.443   8.033  11.141
27008SOL    HW181048   5.417   8.122  11.105
27008SOL    HW281049   5.441   7.965  11.068
27009SOL     OW81050   5.086   8.592   9.855
27009SOL    HW181051   5.169   8.563   9.807
27009SOL    HW281052   5.037   8.659   9.799
27010SOL     OW81053   4.274   7.644  10.195
27010SOL    HW181054   4.269   7.639  10.295
27010SOL    HW281055   4.276   7.740  10.166
27011SOL     OW81056   4.732   8.904   9.787
27011SOL    HW181057   4.686   8.976   9.735
27011SOL    HW281058   4.728   8.924   9.885
27012SOL     OW81059   4.075   9.249  10.163
27012SOL    HW181060   4.125   9.163  10.169
27012SOL    HW281061   4.140   9.326  10.160
27013SOL     OW81062   5.519   8.514  10.183
27013SOL    HW181063   5.457   8.499  10.107
27013SOL    HW281064   5.467   8.525  10.268
27014SOL     OW81065   4.951   8.998  10.816
27014SOL    HW181066   4.957   8.921  10.880
27014SOL    HW281067   4.899   8.972  10.736
27015SOL     OW81068   4.045   8.391   9.552
27015SOL    HW181069   4.127   8.430   9.510
27015SOL    HW281070   4.018   8.309   9.503
27016SOL     OW81071   5.182   8.183  10.038
27016SOL    HW181072   5.177   8.118  10.113
27016SOL    HW281073   5.262   8.242  10.051
27017SOL     OW81074   4.185   8.714  11.037
27017SOL    HW181075   4.135   8.715  10.951
27017SOL    HW281076   4.122   8.696  11.113
27018SOL     OW81077   4.835   9.224   9.547
27018SOL    HW181078   4.775   9.162   9.597
27018SOL    HW281079   4.866   9.180   9.462
27019SOL     OW81080   3.926   7.733  10.808
27019SOL    HW181081   3.846   7.793  10.795
27019SOL    HW281082   3.916   7.684  10.894
27020SOL     OW81083   5.356   8.825   9.391
27020SOL    HW181084   5.324   8.919   9.381
27020SOL    HW281085   5.280   8.762   9.379
27021SOL     OW81086   4.188   9.191   9.633
27021SOL    HW181087   4.221   9.230   9.719
27021SOL    HW281088   4.264   9.184   9.568
27022SOL     OW81089   5.124   7.555   9.736
27022SOL    HW181090   5.100   7.518   9.646
27022SOL    HW281091   5.223   7.571   9.740
27023SOL     OW81092   3.973   9.233  10.551
27023SOL    HW181093   4.030   9.168  10.601
27023SOL    HW281094   3.957   9.200  10.458
27024SOL     OW81095   4.664   9.146  10.214
27024SOL    HW181096   4.744   9.089  10.235
27024SOL    HW281097   4.615   9.106  10.137
27025SOL     OW81098   4.106   8.148   9.790
27025SOL    HW181099   4.151   8.058   9.787
27025SOL    HW281100   4.012   8.137   9.823
27026SOL     OW81101   5.271   7.670  11.039
27026SOL    HW181102   5.266   7.707  11.131
27026SOL    HW281103   5.199   7.601  11.027
27027SOL     OW81104   4.338   7.570   9.427
27027SOL    HW181105   4.436   7.548   9.434
27027SOL    HW281106   4.307   7.553   9.334
27028SOL     OW81107   4.505   7.712  11.059
27028SOL    HW181108   4.572   7.651  11.102
27028SOL    HW281109   4.432   7.731  11.124
27029SOL     OW81110   4.612   8.962  10.505
27029SOL    HW181111   4.589   8.937  10.411
27029SOL    HW281112   4.673   8.893  10.544
27030SOL     OW81113   5.075   8.038  10.743
27030SOL    HW181114   5.103   7.995  10.828
27030SOL    HW281115   5.100   8.134  10.744
27031SOL     OW81116   4.527   8.850  10.234
27031SOL    HW181117   4.617   8.864  10.192
27031SOL    HW281118   4.456   8.852  10.163
27032SOL     OW81119   4.646   7.951  10.209
27032SOL    HW181120   4.621   7.942  10.113
27032SOL    HW281121   4.694   7.869  10.240
27033SOL     OW81122   4.263   7.512   9.822
27033SOL    HW181123   4.182   7.513   9.880
27033SOL    HW281124   4.266   7.595   9.767
27034SOL     OW81125   5.158   8.636   9.351
27034SOL    HW181126   5.190   8.560   9.408
27034SOL    HW281127   5.066   8.663   9.381
27035SOL     OW81128   4.021   7.483   9.481
27035SOL    HW181129   4.070   7.567   9.460
27035SOL    HW281130   4.083   7.418   9.526
27036SOL     OW81131   4.659   7.684   9.790
27036SOL    HW181132   4.611   7.725   9.712
27036SOL    HW281133   4.758   7.682   9.771
27037SOL     OW81134   4.800   8.131  10.774
27037SOL    HW181135   4.720   8.070  10.777
27037SOL    HW281136   4.881   8.078  10.750
27038SOL     OW81137   4.951   9.018  10.103
27038SOL    HW181138   4.972   9.092  10.038
27038SOL    HW281139   5.019   9.018  10.176
27039SOL     OW81140   4.183   8.600  10.051
27039SOL    HW181141   4.112   8.573  10.116
27039SOL    HW281142   4.157   8.572   9.958
27040SOL     OW81143   4.995   9.245   9.901
27040SOL    HW181144   5.039   9.309   9.837
27040SOL    HW281145   4.945   9.297   9.971
27041SOL     OW81146   4.756   7.997   9.326
27041SOL    HW181147   4.715   8.079   9.287
27041SOL    HW281148   4.820   8.023   9.399
27042SOL     OW81149   3.802   8.004  10.696
27042SOL    HW181150   3.894   8.003  10.655
27042SOL    HW281151   3.796   8.078  10.763
27043SOL     OW81152   4.285   7.670  10.457
27043SOL    HW181153   4.323   7.586  10.494
27043SOL    HW281154   4.197   7.689  10.501
27044SOL     OW81155   4.590   7.902   9.952
27044SOL    HW181156   4.558   7.974   9.890
27044SOL    HW281157   4.614   7.821   9.899
27045SOL     OW81158   4.741   7.487  10.063
27045SOL    HW181159   4.669   7.492   9.994
27045SOL    HW281160   4.717   7.418  10.132
27046SOL     OW81161   5.153   8.621  10.177
27046SOL    HW181162   5.098   8.537  10.170
27046SOL    HW281163   5.179   8.650  10.085
27047SOL     OW81164   5.190   8.038  10.302
27047SOL    HW181165   5.160   7.943  10.309
27047SOL    HW281166   5.263   8.054  10.368
27048SOL     OW81167   5.581   8.281   9.687
27048SOL    HW181168   5.623   8.217   9.751
27048SOL    HW281169   5.543   8.230   9.609
27049SOL     OW81170   4.212   8.833   9.484
27049SOL    HW181171   4.125   8.818   9.531
27049SOL    HW281172   4.195   8.859   9.389
27050SOL     OW81173   5.388   8.728   9.967
27050SOL    HW181174   5.487   8.736   9.981
27050SOL    HW281175   5.343   8.812   9.998
27051SOL     OW81176   5.114   8.023   9.388
27051SOL    HW181177   5.060   8.002   9.469
27051SOL    HW281178   5.205   7.982   9.397
27052SOL     OW81179   4.251   7.704   9.638
27052SOL    HW181180   4.278   7.645   9.563
27052SOL    HW281181   4.251   7.799   9.607
27053SOL     OW81182   5.478   8.671  10.898
27053SOL    HW181183   5.569   8.632  10.885
27053SOL    HW281184   5.486   8.767  10.922
27054SOL     OW81185   4.788   8.795  10.650
27054SOL    HW181186   4.708   8.772  10.705
27054SOL    HW281187   4.871   8.769  10.699
27055SOL     OW81188   5.316   9.077  10.935
27055SOL    HW181189   5.343   9.111  10.845
27055SOL    HW281190   5.395   9.039  10.981
27056SOL     OW81191   4.835   8.643  10.410
27056SOL    HW181192   4.795   8.687  10.491
27056SOL    HW281193   4.794   8.680  10.327
27057SOL     OW81194   5.362   8.547  10.389
27057SOL    HW181195   5.367   8.628  10.448
27057SOL    HW281196   5.276   8.549  10.338
27058SOL     OW81197   4.639   7.537  10.712
27058SOL    HW181198   4.664   7.517  10.617
27058SOL    HW281199   4.711   7.593  10.754
27059SOL     OW81200   4.704   8.564  11.029
27059SOL    HW181201   4.605   8.570  11.039
27059SOL    HW281202   4.727   8.484  10.973
27060SOL     OW81203   4.429   8.498   9.678
27060SOL    HW181204   4.415   8.505   9.777
27060SOL    HW281205   4.513   8.447   9.660
27061SOL     OW81206   4.134   8.261  10.561
27061SOL    HW181207   4.220   8.273  10.611
27061SOL    HW281208   4.092   8.174  10.588
27062SOL     OW81209   4.998   7.834  10.572
27062SOL    HW181210   5.019   7.908  10.636
27062SOL    HW281211   4.909   7.851  10.529
27063SOL     OW81212   3.788   9.012  10.641
27063SOL    HW181213   3.742   9.094  10.607
27063SOL    HW281214   3.886   9.031  10.650
27064SOL     OW81215   4.091   8.548   9.811
27064SOL    HW181216   4.084   8.631   9.755
27064SOL    HW281217   4.095   8.468   9.751
27065SOL     OW81218   4.290   7.985  10.175
27065SOL    HW181219   4.302   8.051  10.101
27065SOL    HW281220   4.336   8.019  10.258
27066SOL     OW81221   4.976   8.796   9.698
27066SOL    HW181222   5.026   8.873   9.738
27066SOL    HW281223   4.881   8.798   9.730
27067SOL     OW81224   4.996   8.893  10.452
27067SOL    HW181225   5.043   8.906  10.539
27067SOL    HW281226   4.930   8.819  10.461
27068SOL     OW81227   5.306   8.087   9.782
27068SOL    HW181228   5.275   8.148   9.855
27068SOL    HW281229   5.356   8.139   9.713
27069SOL     OW81230   4.078   8.958  10.639
27069SOL    HW181231   4.057   8.914  10.552
27069SOL    HW281232   4.175   8.984  10.642
27070SOL     OW81233   4.126   8.199  10.908
27070SOL    HW181234   4.194   8.254  10.861
27070SOL    HW281235   4.166   8.111  10.935
27071SOL     OW81236   5.311   8.227  10.980
27071SOL    HW181237   5.219   8.265  10.975
27071SOL    HW281238   5.371   8.274  10.915
27072SOL     OW81239   4.737   7.553  11.080
27072SOL    HW181240   4.743   7.638  11.028
27072SOL    HW281241   4.769   7.477  11.023
27073SOL     OW81242   4.228   7.498  11.050
27073SOL    HW181243   4.186   7.441  10.980
27073SOL    HW281244   4.162   7.567  11.082
27074SOL     OW81245   4.297   8.318  10.339
27074SOL    HW181246   4.341   8.407  10.330
27074SOL    HW281247   4.234   8.318  10.416
27075SOL     OW81248   5.084   8.310  10.355
27075SOL    HW181249   5.009   8.310  10.289
27075SOL    HW281250   5.121   8.218  10.364
27076SOL     OW81251   4.933   7.973   9.585
27076SOL    HW181252   4.946   7.889   9.639
27076SOL    HW281253   4.904   8.047   9.645
27077SOL     OW81254   4.031   7.661  10.541
27077SOL    HW181255   4.008   7.698  10.631
27077SOL    HW281256   4.001   7.566  10.535
27078SOL     OW81257   3.761   8.758  10.592
27078SOL    HW181258   3.814   8.709  10.660
27078SOL    HW281259   3.783   8.856  10.597
27079SOL     OW81260   4.456   8.082  10.374
27079SOL    HW181261   4.515   8.056  10.298
27079SOL    HW281262   4.428   8.178  10.363
27080SOL     OW81263   5.452   8.383  11.164
27080SOL    HW181264   5.406   8.376  11.075
27080SOL    HW281265   5.390   8.427  11.230
27081SOL     OW81266   4.031   7.511   9.928
27081SOL    HW181267   4.020   7.605   9.961
27081SOL    HW281268   4.026   7.448  10.005
27082SOL     OW81269   5.346   7.815   9.684
27082SOL    HW181270   5.348   7.739   9.748
27082SOL    HW281271   5.298   7.892   9.724
27083SOL     OW81272   4.747   8.214  10.276
27083SOL    HW181273   4.762   8.235  10.372
27083SOL    HW281274   4.717   8.119  10.267
27084SOL     OW81275   4.704   9.021  11.010
27084SOL    HW181276   4.684   9.065  10.922
27084SOL    HW281277   4.743   8.930  10.994
27085SOL     OW81278   5.583   8.966  10.915
27085SOL    HW181279   5.597   8.993  10.820
27085SOL    HW281280   5.666   8.988  10.968
27086SOL     OW81281   4.074   8.346  11.114
27086SOL    HW181282   4.150   8.390  11.162
27086SOL    HW281283   4.109   8.299  11.032
27087SOL     OW81284   5.264   7.722   9.435
27087SOL    HW181285   5.203   7.647   9.458
27087SOL    HW281286   5.286   7.774   9.518
27088SOL     OW81287   5.027   8.286   9.352
27088SOL    HW181288   5.061   8.193   9.367
27088SOL    HW281289   5.045   8.313   9.257
27089SOL     OW81290   4.792   8.781  10.159
27089SOL    HW181291   4.799   8.697  10.104
27089SOL    HW281292   4.854   8.850  10.123
27090SOL     OW81293   4.043   8.258  10.259
27090SOL    HW181294   4.136   8.294  10.264
27090SOL    HW281295   4.037   8.173  10.311
27091SOL     OW81296   4.063   7.957  10.316
27091SOL    HW181297   4.011   7.874  10.299
27091SOL    HW281298   4.140   7.962  10.252
27092SOL     OW81299   4.862   7.828  10.988
27092SOL    HW181300   4.817   7.891  11.052
27092SOL    HW281301   4.955   7.859  10.971
27093SOL     OW81302   4.884   7.655  10.787
27093SOL    HW181303   4.884   7.719  10.864
27093SOL    HW281304   4.912   7.703  10.704
27094SOL     OW81305   3.732   8.774   9.510
27094SOL    HW181306   3.639   8.795   9.479
27094SOL    HW281307   3.742   8.675   9.523
27095SOL     OW81308   3.812   9.249  10.237
27095SOL    HW181309   3.770   9.163  10.210
27095SOL    HW281310   3.906   9.252  10.203
27096SOL     OW81311   4.228   9.016  10.220
27096SOL    HW181312   4.294   9.090  10.229
27096SOL    HW281313   4.272   8.937  10.178
27097SOL     OW81314   4.726   8.244  10.548
27097SOL    HW181315   4.767   8.212  10.634
27097SOL    HW281316   4.630   8.217  10.545
27098SOL     OW81317   3.764   7.992  10.424
27098SOL    HW181318   3.849   7.959  10.383
27098SOL    HW281319   3.777   8.007  10.522
27099SOL     OW81320   3.913   7.968  11.032
27099SOL    HW181321   3.972   7.928  10.962
27099SOL    HW281322   3.855   8.039  10.991
27100SOL     OW81323   5.093   8.398  10.970
27100SOL    HW181324   5.132   8.487  10.990
27100SOL    HW281325   5.103   8.378  10.873
27101SOL     OW81326   4.539   8.020   9.635
27101SOL    HW181327   4.546   7.931   9.589
27101SOL    HW281328   4.445   8.054   9.627
27102SOL     OW81329   5.381   8.052  10.516
27102SOL    HW181330   5.343   7.983  10.578
27102SOL    HW281331   5.463   8.016  10.472
27103SOL     OW81332   3.976   9.012  11.054
27103SOL    HW181333   3.946   9.069  11.130
27103SOL    HW281334   3.969   8.915  11.080
27104SOL     OW81335   4.395   7.912  10.579
27104SOL    HW181336   4.361   7.823  10.549
27104SOL    HW281337   4.421   7.966  10.499
27105SOL     OW81338   4.654   9.126  10.775
27105SOL    HW181339   4.630   9.108  10.680
27105SOL    HW281340   4.684   9.220  10.785
27106SOL     OW81341   4.197   7.948   9.501
27106SOL    HW181342   4.258   8.028   9.505
27106SOL    HW281343   4.102   7.979   9.508
27107SOL     OW81344   3.883   8.585  10.776
27107SOL    HW181345   3.905   8.524  10.852
27107SOL    HW281346   3.893   8.536  10.690
27108SOL     OW81347   5.071   8.507  10.544
27108SOL    HW181348   5.095   8.444  10.470
27108SOL    HW281349   4.981   8.547  10.526
27109SOL     OW81350   5.026   8.303   9.619
27109SOL    HW181351   4.940   8.272   9.661
27109SOL    HW281352   5.022   8.289   9.520
27110SOL     OW81353   5.483   9.195  10.464
27110SOL    HW181354   5.544   9.225  10.391
27110SOL    HW281355   5.445   9.106  10.442
27111SOL     OW81356   4.976   9.179  10.438
27111SOL    HW181357   5.060   9.184  10.384
27111SOL    HW281358   4.953   9.083  10.456
27112SOL     OW81359   3.807   8.706  10.332
27112SOL    HW181360   3.802   8.705  10.432
27112SOL    HW281361   3.724   8.665  10.294
27113SOL     OW81362   4.412   9.110  11.026
27113SOL    HW181363   4.356   9.191  11.035
27113SOL    HW281364   4.464   9.114  10.940
27114SOL     OW81365   5.450   7.583   9.833
27114SOL    HW181366   5.523   7.566   9.766
27114SOL    HW281367   5.419   7.496   9.871
27115SOL     OW81368   5.112   9.021   9.787
27115SOL    HW181369   5.179   9.033   9.713
27115SOL    HW281370   5.072   9.110   9.810
27116SOL     OW81371   3.854   9.242  11.161
27116SOL    HW181372   3.813   9.168  11.214
27116SOL    HW281373   3.918   9.293  11.219
27117SOL     OW81374   5.004   8.375   9.982
27117SOL    HW181375   5.064   8.294   9.984
27117SOL    HW281376   5.044   8.444   9.922
27118SOL     OW81377   4.554   8.721  10.732
27118SOL    HW181378   4.549   8.754  10.827
27118SOL    HW281379   4.468   8.740  10.686
27119SOL     OW81380   4.396   9.064   9.464
27119SOL    HW181381   4.405   9.074   9.365
27119SOL    HW281382   4.356   8.975   9.485
27120SOL     OW81383   5.374   9.168  10.704
27120SOL    HW181384   5.427   9.178  10.620
27120SOL    HW281385   5.347   9.258  10.738
27121SOL     OW81386   5.565   7.623  10.273
27121SOL    HW181387   5.604   7.538  10.237
27121SOL    HW281388   5.467   7.625  10.254
27122SOL     OW81389   3.987   7.774  10.030
27122SOL    HW181390   3.908   7.825   9.996
27122SOL    HW281391   3.978   7.759  10.128
27123SOL     OW81392   4.918   9.060   9.341
27123SOL    HW181393   4.924   8.967   9.378
27123SOL    HW281394   4.859   9.060   9.261
27124SOL     OW81395   4.546   8.450  10.682
27124SOL    HW181396   4.586   8.449  10.590
27124SOL    HW281397   4.556   8.542  10.722
27125SOL     OW81398   4.640   8.358   9.601
27125SOL    HW181399   4.703   8.396   9.533
27125SOL    HW281400   4.680   8.275   9.640
27126SOL     OW81401   5.228   9.055   9.354
27126SOL    HW181402   5.136   9.092   9.361
27126SOL    HW281403   5.266   9.075   9.264
27127SOL     OW81404   4.096   8.736  10.800
27127SOL    HW181405   4.083   8.829  10.766
27127SOL    HW281406   4.012   8.684  10.787
27128SOL     OW81407   5.338   8.740  10.599
27128SOL    HW181408   5.398   8.743  10.679
27128SOL    HW281409   5.263   8.804  10.612
27129SOL     OW81410   4.763   8.546  10.006
27129SOL    HW181411   4.693   8.499  10.060
27129SOL    HW281412   4.822   8.478   9.963
27130SOL     OW81413   4.738   7.684  10.281
27130SOL    HW181414   4.730   7.648  10.188
27130SOL    HW281415   4.736   7.608  10.346
27131SOL     OW81416   4.314   8.935   9.801
27131SOL    HW181417   4.356   8.877   9.731
27131SOL    HW281418   4.270   9.014   9.757
27132SOL     OW81419   5.433   7.833  10.691
27132SOL    HW181420   5.506   7.902  10.695
27132SOL    HW281421   5.461   7.758  10.632
27133SOL     OW81422   3.979   8.796   9.600
27133SOL    HW181423   3.883   8.797   9.573
27133SOL    HW281424   3.991   8.849   9.684
27134SOL     OW81425   3.829   8.461  11.036
27134SOL    HW181426   3.752   8.428  11.090
27134SOL    HW281427   3.914   8.431  11.078
27135SOL     OW81428   4.396   7.651  10.799
27135SOL    HW181429   4.486   7.635  10.759
27135SOL    HW281430   4.404   7.656  10.898
27136SOL     OW81431   3.799   7.793   9.343
27136SOL    HW181432   3.707   7.765   9.314
27136SOL    HW281433   3.830   7.870   9.287
27137SOL     OW81434   5.164   8.304  10.708
27137SOL    HW181435   5.107   8.356  10.645
27137SOL    HW281436   5.260   8.316  10.684
27138SOL     OW81437   3.796   7.614   9.628
27138SOL    HW181438   3.779   7.697   9.574
27138SOL    HW281439   3.886   7.577   9.606
27139SOL     OW81440   4.907   8.783   9.429
27139SOL    HW181441   4.808   8.772   9.431
27139SOL    HW281442   4.941   8.798   9.522
27140SOL     OW81443   4.337   8.290  10.741
27140SOL    HW181444   4.393   8.371  10.724
27140SOL    HW281445   4.396   8.210  10.744
27141SOL     OW81446   5.217   9.215  10.269
27141SOL    HW181447   5.250   9.279  10.200
27141SOL    HW281448   5.283   9.209  10.344
27142SOL     OW81449   4.440   8.013  11.018
27142SOL    HW181450   4.459   8.078  11.092
27142SOL    HW281451   4.500   7.933  11.027
27143SOL     OW81452   5.174   8.668  10.943
27143SOL    HW181453   5.165   8.658  11.042
27143SOL    HW281454   5.270   8.661  10.917
27144SOL     OW81455   4.114   9.189  10.870
27144SOL    HW181456   4.023   9.230  10.868
27144SOL    HW281457   4.107   9.095  10.902
27145SOL     OW81458   5.398   8.331  10.564
27145SOL    HW181459   5.371   8.242  10.527
27145SOL    HW281460   5.399   8.399  10.491
27146SOL     OW81461   4.949   7.773   9.759
27146SOL    HW181462   5.014   7.699   9.748
27146SOL    HW281463   4.969   7.823   9.843
27147SOL     OW81464   4.318   8.193   9.962
27147SOL    HW181465   4.368   8.278   9.943
27147SOL    HW281466   4.230   8.195   9.914
27148SOL     OW81467   5.501   7.790  10.952
27148SOL    HW181468   5.484   7.821  10.858
27148SOL    HW281469   5.417   7.753  10.990
27149SOL     OW81470   5.454   8.382  10.827
27149SOL    HW181471   5.492   8.473  10.842
27149SOL    HW281472   5.446   8.365  10.728
27150SOL     OW81473   4.583   8.822   9.326
27150SOL    HW181474   4.537   8.837   9.414
27150SOL    HW281475   4.627   8.907   9.296
27151SOL     OW81476   4.385   9.238  10.263
27151SOL    HW181477   4.339   9.326  10.250
27151SOL    HW281478   4.484   9.250  10.256
27152SOL     OW81479   4.583   8.404  10.171
27152SOL    HW181480   4.637   8.335  10.219
27152SOL    HW281481   4.551   8.473  10.237
27153SOL     OW81482   4.807   8.432   9.397
27153SOL    HW181483   4.784   8.485   9.315
27153SOL    HW281484   4.888   8.376   9.378
27154SOL     OW81485   5.585   9.017  10.161
27154SOL    HW181486   5.514   9.005  10.091
27154SOL    HW281487   5.586   8.938  10.221
27155SOL     OW81488   3.945   8.762  11.154
27155SOL    HW181489   3.880   8.689  11.133
27155SOL    HW281490   3.949   8.776  11.252
27156SOL     OW81491   3.803   8.688   9.963
27156SOL    HW181492   3.802   8.641  10.051
27156SOL    HW281493   3.885   8.660   9.912
27157SOL     OW81494   4.396   8.839  10.934
27157SOL    HW181495   4.318   8.789  10.972
27157SOL    HW281496   4.393   8.934  10.965
27158SOL     OW81497   5.548   7.640  10.537
27158SOL    HW181498   5.544   7.550  10.581
27158SOL    HW281499   5.551   7.629  10.438
27159SOL     OW81500   4.152   7.872   9.830
27159SOL    HW181501   4.182   7.800   9.768
27159SOL    HW281502   4.113   7.832   9.913
27160SOL     OW81503   5.429   8.935  10.414
27160SOL    HW181504   5.336   8.910  10.387
27160SOL    HW281505   5.455   8.885  10.496
27161SOL     OW81506   4.041   7.995  10.590
27161SOL    HW181507   4.079   7.936  10.662
27161SOL    HW281508   4.081   7.969  10.502
27162SOL     OW81509   4.536   9.034   9.997
27162SOL    HW181510   4.568   9.044   9.903
27162SOL    HW281511   4.457   8.972   9.999
27163SOL     OW81512   5.148   7.662  10.422
27163SOL    HW181513   5.200   7.597  10.477
27163SOL    HW281514   5.099   7.725  10.483
27164SOL     OW81515   4.725   7.482  10.464
27164SOL    HW181516   4.662   7.410  10.433
27164SOL    HW281517   4.818   7.446  10.464
27165SOL     OW81518   4.494   8.778   9.611
27165SOL    HW181519   4.448   8.691   9.628
27165SOL    HW281520   4.585   8.775   9.652
27166SOL     OW81521   4.342   9.015  10.594
27166SOL    HW181522   4.337   9.097  10.651
27166SOL    HW281523   4.431   9.012  10.549
27167SOL     OW81524   5.076   7.500   9.478
27167SOL    HW181525   5.111   7.459   9.394
27167SOL    HW281526   4.986   7.462   9.498
27168SOL     OW81527   5.024   7.901  10.001
27168SOL    HW181528   4.965   7.981  10.005
27168SOL    HW281529   5.039   7.866  10.094
27169SOL     OW81530   5.317   7.669  10.192
27169SOL    HW181531   5.233   7.668  10.246
27169SOL    HW281532   5.319   7.752  10.136
27170SOL     OW81533   3.763   8.525   9.610
27170SOL    HW181534   3.862   8.514   9.601
27170SOL    HW281535   3.723   8.439   9.642
27171SOL     OW81536   4.599   9.094   9.647
27171SOL    HW181537   4.522   9.059   9.593
27171SOL    HW281538   4.567   9.165   9.709
27172SOL     OW81539   3.954   8.076  11.285
27172SOL    HW181540   3.861   8.074  11.322
27172SOL    HW281541   3.955   8.037  11.193
27173SOL     OW81542   3.949   7.723  12.168
27173SOL    HW181543   3.984   7.706  12.260
27173SOL    HW281544   3.861   7.678  12.156
27174SOL     OW81545   3.743   7.816  11.819
27174SOL    HW181546   3.661   7.859  11.858
27174SOL    HW281547   3.715   7.743  11.756
27175SOL     OW81548   4.293   8.723  12.337
27175SOL    HW181549   4.200   8.716  12.300
27175SOL    HW281550   4.304   8.812  12.381
27176SOL     OW81551   5.279   8.959  11.875
27176SOL    HW181552   5.222   8.943  11.956
27176SOL    HW281553   5.220   8.969  11.795
27177SOL     OW81554   4.859   8.151  11.889
27177SOL    HW181555   4.916   8.229  11.864
27177SOL    HW281556   4.799   8.177  11.965
27178SOL     OW81557   5.479   8.055  11.403
27178SOL    HW181558   5.467   8.042  11.304
27178SOL    HW281559   5.449   7.974  11.452
27179SOL     OW81560   4.492   8.592  12.195
27179SOL    HW181561   4.414   8.609  12.255
27179SOL    HW281562   4.526   8.679  12.159
27180SOL     OW81563   4.409   8.460  11.837
27180SOL    HW181564   4.478   8.444  11.907
27180SOL    HW281565   4.336   8.517  11.875
27181SOL     OW81566   4.059   8.883  12.233
27181SOL    HW181567   3.981   8.852  12.180
27181SOL    HW281568   4.117   8.941  12.176
27182SOL     OW81569   5.184   8.953  12.511
27182SOL    HW181570   5.208   9.047  12.537
27182SOL    HW281571   5.168   8.899  12.593
27183SOL     OW81572   4.162   7.840  12.671
27183SOL    HW181573   4.244   7.784  12.680
27183SOL    HW281574   4.081   7.782  12.675
27184SOL     OW81575   5.327   7.895  11.909
27184SOL    HW181576   5.253   7.941  11.859
27184SOL    HW281577   5.378   7.963  11.962
27185SOL     OW81578   3.955   9.161  11.655
27185SOL    HW181579   3.989   9.238  11.709
27185SOL    HW281580   3.999   9.161  11.565
27186SOL     OW81581   3.954   8.882  11.710
27186SOL    HW181582   3.928   8.978  11.710
27186SOL    HW281583   3.883   8.828  11.755
27187SOL     OW81584   3.964   8.539  12.058
27187SOL    HW181585   3.978   8.455  12.110
27187SOL    HW281586   3.909   8.603  12.113
27188SOL     OW81587   4.344   9.234  12.611
27188SOL    HW181588   4.252   9.217  12.646
27188SOL    HW281589   4.372   9.326  12.637
27189SOL     OW81590   4.330   8.412  11.295
27189SOL    HW181591   4.337   8.496  11.241
27189SOL    HW281592   4.376   8.425  11.383
27190SOL     OW81593   5.318   7.562  12.652
27190SOL    HW181594   5.300   7.629  12.580
27190SOL    HW281595   5.315   7.608  12.741
27191SOL     OW81596   3.846   8.091  11.735
27191SOL    HW181597   3.801   8.003  11.752
27191SOL    HW281598   3.845   8.145  11.819
27192SOL     OW81599   5.566   9.215  11.531
27192SOL    HW181600   5.620   9.186  11.611
27192SOL    HW281601   5.596   9.305  11.502
27193SOL     OW81602   3.751   9.044  11.289
27193SOL    HW181603   3.732   8.948  11.310
27193SOL    HW281604   3.718   9.102  11.364
27194SOL     OW81605   5.413   8.370  11.784
27194SOL    HW181606   5.508   8.341  11.792
27194SOL    HW281607   5.405   8.435  11.709
27195SOL     OW81608   5.365   8.556  11.604
27195SOL    HW181609   5.451   8.558  11.552
27195SOL    HW281610   5.379   8.603  11.692
27196SOL     OW81611   3.837   8.185  12.769
27196SOL    HW181612   3.925   8.172  12.814
27196SOL    HW281613   3.824   8.282  12.747
27197SOL     OW81614   4.337   8.813  11.898
27197SOL    HW181615   4.288   8.726  11.907
27197SOL    HW281616   4.314   8.856  11.811
27198SOL     OW81617   5.017   8.676  12.595
27198SOL    HW181618   5.054   8.603  12.537
27198SOL    HW281619   5.069   8.681  12.680
27199SOL     OW81620   4.533   7.452  11.674
27199SOL    HW181621   4.573   7.543  11.665
27199SOL    HW281622   4.433   7.460  11.680
27200SOL     OW81623   3.921   8.424  12.436
27200SOL    HW181624   4.010   8.379  12.422
27200SOL    HW281625   3.848   8.359  12.417
27201SOL     OW81626   5.249   8.447  11.362
27201SOL    HW181627   5.186   8.371  11.375
27201SOL    HW281628   5.297   8.465  11.448
27202SOL     OW81629   5.190   8.865  12.125
27202SOL    HW181630   5.131   8.871  12.205
27202SOL    HW281631   5.175   8.777  12.079
27203SOL     OW81632   5.391   9.162  11.744
27203SOL    HW181633   5.350   9.139  11.656
27203SOL    HW281634   5.373   9.088  11.809
27204SOL     OW81635   4.322   8.177  11.442
27204SOL    HW181636   4.346   8.246  11.374
27204SOL    HW281637   4.244   8.210  11.496
27205SOL     OW81638   5.005   7.793  12.116
27205SOL    HW181639   4.919   7.743  12.103
27205SOL    HW281640   5.067   7.739  12.172
27206SOL     OW81641   5.300   9.110  11.479
27206SOL    HW181642   5.389   9.156  11.482
27206SOL    HW281643   5.279   9.086  11.384
27207SOL     OW81644   4.531   8.053  12.637
27207SOL    HW181645   4.484   8.050  12.726
27207SOL    HW281646   4.480   7.998  12.571
27208SOL     OW81647   4.697   8.338  12.744
27208SOL    HW181648   4.743   8.254  12.715
27208SOL    HW281649   4.641   8.372  12.669
27209SOL     OW81650   4.715   7.858  12.414
27209SOL    HW181651   4.638   7.892  12.468
27209SOL    HW281652   4.681   7.807  12.335
27210SOL     OW81653   4.765   8.149  11.601
27210SOL    HW181654   4.791   8.145  11.697
27210SOL    HW281655   4.680   8.098  11.587
27211SOL     OW81656   3.800   8.259  11.961
27211SOL    HW181657   3.899   8.247  11.970
27211SOL    HW281658   3.776   8.354  11.982
27212SOL     OW81659   3.854   9.269  12.743
27212SOL    HW181660   3.844   9.254  12.842
27212SOL    HW281661   3.768   9.305  12.707
27213SOL     OW81662   4.589   7.796  11.367
27213SOL    HW181663   4.648   7.859  11.318
27213SOL    HW281664   4.608   7.702  11.338
27214SOL     OW81665   5.086   8.592  11.717
27214SOL    HW181666   5.169   8.563  11.669
27214SOL    HW281667   5.037   8.659  11.661
27215SOL     OW81668   4.274   7.644  12.057
27215SOL    HW181669   4.269   7.639  12.157
27215SOL    HW281670   4.276   7.740  12.028
27216SOL     OW81671   4.732   8.904  11.649
27216SOL    HW181672   4.686   8.976  11.597
27216SOL    HW281673   4.728   8.924  11.747
27217SOL     OW81674   4.075   9.249  12.025
27217SOL    HW181675   4.125   9.163  12.031
27217SOL    HW281676   4.140   9.326  12.022
27218SOL     OW81677   5.519   8.514  12.045
27218SOL    HW181678   5.457   8.499  11.969
27218SOL    HW281679   5.467   8.525  12.130
27219SOL     OW81680   4.951   8.998  12.678
27219SOL    HW181681   4.957   8.921  12.742
27219SOL    HW281682   4.899   8.972  12.598
27220SOL     OW81683   4.045   8.391  11.414
27220SOL    HW181684   4.127   8.430  11.372
27220SOL    HW281685   4.018   8.309  11.365
27221SOL     OW81686   5.182   8.183  11.900
27221SOL    HW181687   5.177   8.118  11.975
27221SOL    HW281688   5.262   8.242  11.913
27222SOL     OW81689   4.835   9.224  11.409
27222SOL    HW181690   4.775   9.162  11.459
27222SOL    HW281691   4.866   9.180  11.324
27223SOL     OW81692   3.926   7.733  12.670
27223SOL    HW181693   3.846   7.793  12.657
27223SOL    HW281694   3.916   7.684  12.756
27224SOL     OW81695   5.356   8.825  11.253
27224SOL    HW181696   5.324   8.919  11.243
27224SOL    HW281697   5.280   8.762  11.241
27225SOL     OW81698   4.188   9.191  11.495
27225SOL    HW181699   4.221   9.230  11.581
27225SOL    HW281700   4.264   9.184  11.430
27226SOL     OW81701   5.124   7.555  11.598
27226SOL    HW181702   5.100   7.518  11.508
27226SOL    HW281703   5.223   7.571  11.602
27227SOL     OW81704   3.973   9.233  12.413
27227SOL    HW181705   4.030   9.168  12.463
27227SOL    HW281706   3.957   9.200  12.320
27228SOL     OW81707   4.664   9.146  12.076
27228SOL    HW181708   4.744   9.089  12.097
27228SOL    HW281709   4.615   9.106  11.999
27229SOL     OW81710   4.106   8.148  11.652
27229SOL    HW181711   4.151   8.058  11.649
27229SOL    HW281712   4.012   8.137  11.685
27230SOL     OW81713   4.338   7.570  11.289
27230SOL    HW181714   4.436   7.548  11.296
27230SOL    HW281715   4.307   7.553  11.196
27231SOL     OW81716   4.612   8.962  12.367
27231SOL    HW181717   4.589   8.937  12.273
27231SOL    HW281718   4.673   8.893  12.406
27232SOL     OW81719   5.075   8.038  12.605
27232SOL    HW181720   5.103   7.995  12.690
27232SOL    HW281721   5.100   8.134  12.606
27233SOL     OW81722   4.527   8.850  12.096
27233SOL    HW181723   4.617   8.864  12.054
27233SOL    HW281724   4.456   8.852  12.025
27234SOL     OW81725   4.646   7.951  12.071
27234SOL    HW181726   4.621   7.942  11.975
27234SOL    HW281727   4.694   7.869  12.102
27235SOL     OW81728   4.263   7.512  11.684
27235SOL    HW181729   4.182   7.513  11.742
27235SOL    HW281730   4.266   7.595  11.629
27236SOL     OW81731   5.158   8.636  11.213
27236SOL    HW181732   5.190   8.560  11.270
27236SOL    HW281733   5.066   8.663  11.243
27237SOL     OW81734   4.021   7.483  11.343
27237SOL    HW181735   4.070   7.567  11.322
27237SOL    HW281736   4.083   7.418  11.388
27238SOL     OW81737   4.659   7.684  11.652
27238SOL    HW181738   4.611   7.725  11.574
27238SOL    HW281739   4.758   7.682  11.633
27239SOL     OW81740   4.800   8.131  12.636
27239SOL    HW181741   4.720   8.070  12.639
27239SOL    HW281742   4.881   8.078  12.612
27240SOL     OW81743   4.951   9.018  11.965
27240SOL    HW181744   4.972   9.092  11.900
27240SOL    HW281745   5.019   9.018  12.038
27241SOL     OW81746   4.183   8.600  11.913
27241SOL    HW181747   4.112   8.573  11.978
27241SOL    HW281748   4.157   8.572  11.820
27242SOL     OW81749   4.995   9.245  11.763
27242SOL    HW181750   5.039   9.309  11.699
27242SOL    HW281751   4.945   9.297  11.833
27243SOL     OW81752   4.756   7.997  11.188
27243SOL    HW181753   4.715   8.079  11.149
27243SOL    HW281754   4.820   8.023  11.261
27244SOL     OW81755   3.802   8.004  12.558
27244SOL    HW181756   3.894   8.003  12.517
27244SOL    HW281757   3.796   8.078  12.625
27245SOL     OW81758   4.285   7.670  12.319
27245SOL    HW181759   4.323   7.586  12.356
27245SOL    HW281760   4.197   7.689  12.363
27246SOL     OW81761   4.590   7.902  11.814
27246SOL    HW181762   4.558   7.974  11.752
27246SOL    HW281763   4.614   7.821  11.761
27247SOL     OW81764   4.741   7.487  11.925
27247SOL    HW181765   4.669   7.492  11.856
27247SOL    HW281766   4.717   7.418  11.994
27248SOL     OW81767   5.153   8.621  12.039
27248SOL    HW181768   5.098   8.537  12.032
27248SOL    HW281769   5.179   8.650  11.947
27249SOL     OW81770   5.190   8.038  12.164
27249SOL    HW181771   5.160   7.943  12.171
27249SOL    HW281772   5.263   8.054  12.230
27250SOL     OW81773   5.581   8.281  11.549
27250SOL    HW181774   5.623   8.217  11.613
27250SOL    HW281775   5.543   8.230  11.471
27251SOL     OW81776   4.212   8.833  11.346
27251SOL    HW181777   4.125   8.818  11.393
27251SOL    HW281778   4.195   8.859  11.251
27252SOL     OW81779   5.388   8.728  11.829
27252SOL    HW181780   5.487   8.736  11.843
27252SOL    HW281781   5.343   8.812  11.860
27253SOL     OW81782   5.114   8.023  11.250
27253SOL    HW181783   5.060   8.002  11.331
27253SOL    HW281784   5.205   7.982  11.259
27254SOL     OW81785   4.251   7.704  11.500
27254SOL    HW181786   4.278   7.645  11.425
27254SOL    HW281787   4.251   7.799  11.469
27255SOL     OW81788   5.478   8.671  12.760
27255SOL    HW181789   5.569   8.632  12.747
27255SOL    HW281790   5.486   8.767  12.784
27256SOL     OW81791   4.788   8.795  12.512
27256SOL    HW181792   4.708   8.772  12.567
27256SOL    HW281793   4.871   8.769  12.561
27257SOL     OW81794   4.835   8.643  12.272
27257SOL    HW181795   4.795   8.687  12.353
27257SOL    HW281796   4.794   8.680  12.189
27258SOL     OW81797   5.362   8.547  12.251
27258SOL    HW181798   5.367   8.628  12.310
27258SOL    HW281799   5.276   8.549  12.200
27259SOL     OW81800   4.639   7.537  12.574
27259SOL    HW181801   4.664   7.517  12.479
27259SOL    HW281802   4.711   7.593  12.616
27260SOL     OW81803   4.429   8.498  11.540
27260SOL    HW181804   4.415   8.505  11.639
27260SOL    HW281805   4.513   8.447  11.522
27261SOL     OW81806   4.134   8.261  12.423
27261SOL    HW181807   4.220   8.273  12.473
27261SOL    HW281808   4.092   8.174  12.450
27262SOL     OW81809   4.998   7.834  12.434
27262SOL    HW181810   5.019   7.908  12.498
27262SOL    HW281811   4.909   7.851  12.391
27263SOL     OW81812   3.788   9.012  12.503
27263SOL    HW181813   3.742   9.094  12.469
27263SOL    HW281814   3.886   9.031  12.512
27264SOL     OW81815   4.091   8.548  11.673
27264SOL    HW181816   4.084   8.631  11.617
27264SOL    HW281817   4.095   8.468  11.613
27265SOL     OW81818   4.290   7.985  12.037
27265SOL    HW181819   4.302   8.051  11.963
27265SOL    HW281820   4.336   8.019  12.120
27266SOL     OW81821   4.976   8.796  11.560
27266SOL    HW181822   5.026   8.873  11.600
27266SOL    HW281823   4.881   8.798  11.592
27267SOL     OW81824   4.996   8.893  12.314
27267SOL    HW181825   5.043   8.906  12.401
27267SOL    HW281826   4.930   8.819  12.323
27268SOL     OW81827   5.306   8.087  11.644
27268SOL    HW181828   5.275   8.148  11.717
27268SOL    HW281829   5.356   8.139  11.575
27269SOL     OW81830   4.078   8.958  12.501
27269SOL    HW181831   4.057   8.914  12.414
27269SOL    HW281832   4.175   8.984  12.504
27270SOL     OW81833   4.126   8.199  12.770
27270SOL    HW181834   4.194   8.254  12.723
27270SOL    HW281835   4.166   8.111  12.797
27271SOL     OW81836   5.311   8.227  12.842
27271SOL    HW181837   5.219   8.265  12.837
27271SOL    HW281838   5.371   8.274  12.777
27272SOL     OW81839   4.297   8.318  12.201
27272SOL    HW181840   4.341   8.407  12.192
27272SOL    HW281841   4.234   8.318  12.278
27273SOL     OW81842   5.084   8.310  12.217
27273SOL    HW181843   5.009   8.310  12.151
27273SOL    HW281844   5.121   8.218  12.226
27274SOL     OW81845   4.933   7.973  11.447
27274SOL    HW181846   4.946   7.889  11.501
27274SOL    HW281847   4.904   8.047  11.507
27275SOL     OW81848   4.031   7.661  12.403
27275SOL    HW181849   4.008   7.698  12.493
27275SOL    HW281850   4.001   7.566  12.397
27276SOL     OW81851   3.761   8.758  12.454
27276SOL    HW181852   3.814   8.709  12.522
27276SOL    HW281853   3.783   8.856  12.459
27277SOL     OW81854   4.456   8.082  12.236
27277SOL    HW181855   4.515   8.056  12.160
27277SOL    HW281856   4.428   8.178  12.225
27278SOL     OW81857   4.031   7.511  11.790
27278SOL    HW181858   4.020   7.605  11.823
27278SOL    HW281859   4.026   7.448  11.867
27279SOL     OW81860   5.346   7.815  11.546
27279SOL    HW181861   5.348   7.739  11.610
27279SOL    HW281862   5.298   7.892  11.586
27280SOL     OW81863   4.747   8.214  12.138
27280SOL    HW181864   4.762   8.235  12.234
27280SOL    HW281865   4.717   8.119  12.129
27281SOL     OW81866   5.264   7.722  11.297
27281SOL    HW181867   5.203   7.647  11.320
27281SOL    HW281868   5.286   7.774  11.380
27282SOL     OW81869   5.027   8.286  11.214
27282SOL    HW181870   5.061   8.193  11.229
27282SOL    HW281871   5.045   8.313  11.119
27283SOL     OW81872   4.792   8.781  12.021
27283SOL    HW181873   4.799   8.697  11.966
27283SOL    HW281874   4.854   8.850  11.985
27284SOL     OW81875   4.043   8.258  12.121
27284SOL    HW181876   4.136   8.294  12.126
27284SOL    HW281877   4.037   8.173  12.173
27285SOL     OW81878   4.063   7.957  12.178
27285SOL    HW181879   4.011   7.874  12.161
27285SOL    HW281880   4.140   7.962  12.114
27286SOL     OW81881   4.884   7.655  12.649
27286SOL    HW181882   4.884   7.719  12.726
27286SOL    HW281883   4.912   7.703  12.566
27287SOL     OW81884   3.732   8.774  11.372
27287SOL    HW181885   3.639   8.795  11.341
27287SOL    HW281886   3.742   8.675  11.385
27288SOL     OW81887   3.812   9.249  12.099
27288SOL    HW181888   3.770   9.163  12.072
27288SOL    HW281889   3.906   9.252  12.065
27289SOL     OW81890   4.228   9.016  12.082
27289SOL    HW181891   4.294   9.090  12.091
27289SOL    HW281892   4.272   8.937  12.040
27290SOL     OW81893   4.726   8.244  12.410
27290SOL    HW181894   4.767   8.212  12.496
27290SOL    HW281895   4.630   8.217  12.407
27291SOL     OW81896   3.764   7.992  12.286
27291SOL    HW181897   3.849   7.959  12.245
27291SOL    HW281898   3.777   8.007  12.384
27292SOL     OW81899   4.539   8.020  11.497
27292SOL    HW181900   4.546   7.931  11.451
27292SOL    HW281901   4.445   8.054  11.489
27293SOL     OW81902   5.381   8.052  12.378
27293SOL    HW181903   5.343   7.983  12.440
27293SOL    HW281904   5.463   8.016  12.334
27294SOL     OW81905   3.976   9.012  12.916
27294SOL    HW181906   3.946   9.069  12.992
27294SOL    HW281907   3.969   8.915  12.942
27295SOL     OW81908   4.395   7.912  12.441
27295SOL    HW181909   4.361   7.823  12.411
27295SOL    HW281910   4.421   7.966  12.361
27296SOL     OW81911   4.654   9.126  12.637
27296SOL    HW181912   4.630   9.108  12.542
27296SOL    HW281913   4.684   9.220  12.647
27297SOL     OW81914   4.197   7.948  11.363
27297SOL    HW181915   4.258   8.028  11.367
27297SOL    HW281916   4.102   7.979  11.370
27298SOL     OW81917   3.883   8.585  12.638
27298SOL    HW181918   3.905   8.524  12.714
27298SOL    HW281919   3.893   8.536  12.552
27299SOL     OW81920   5.071   8.507  12.406
27299SOL    HW181921   5.095   8.444  12.332
27299SOL    HW281922   4.981   8.547  12.388
27300SOL     OW81923   5.026   8.303  11.481
27300SOL    HW181924   4.940   8.272  11.523
27300SOL    HW281925   5.022   8.289  11.382
27301SOL     OW81926   5.483   9.195  12.326
27301SOL    HW181927   5.544   9.225  12.253
27301SOL    HW281928   5.445   9.106  12.304
27302SOL     OW81929   4.976   9.179  12.300
27302SOL    HW181930   5.060   9.184  12.246
27302SOL    HW281931   4.953   9.083  12.318
27303SOL     OW81932   3.807   8.706  12.194
27303SOL    HW181933   3.802   8.705  12.294
27303SOL    HW281934   3.724   8.665  12.156
27304SOL     OW81935   5.450   7.583  11.695
27304SOL    HW181936   5.523   7.566  11.628
27304SOL    HW281937   5.419   7.496  11.733
27305SOL     OW81938   5.112   9.021  11.649
27305SOL    HW181939   5.179   9.033  11.575
27305SOL    HW281940   5.072   9.110  11.672
27306SOL     OW81941   5.004   8.375  11.844
27306SOL    HW181942   5.064   8.294  11.846
27306SOL    HW281943   5.044   8.444  11.784
27307SOL     OW81944   4.554   8.721  12.594
27307SOL    HW181945   4.549   8.754  12.689
27307SOL    HW281946   4.468   8.740  12.548
27308SOL     OW81947   4.396   9.064  11.326
27308SOL    HW181948   4.405   9.074  11.227
27308SOL    HW281949   4.356   8.975  11.347
27309SOL     OW81950   5.374   9.168  12.566
27309SOL    HW181951   5.427   9.178  12.482
27309SOL    HW281952   5.347   9.258  12.600
27310SOL     OW81953   5.565   7.623  12.135
27310SOL    HW181954   5.604   7.538  12.099
27310SOL    HW281955   5.467   7.625  12.116
27311SOL     OW81956   3.987   7.774  11.892
27311SOL    HW181957   3.908   7.825  11.858
27311SOL    HW281958   3.978   7.759  11.990
27312SOL     OW81959   4.918   9.060  11.203
27312SOL    HW181960   4.924   8.967  11.240
27312SOL    HW281961   4.859   9.060  11.123
27313SOL     OW81962   4.546   8.450  12.544
27313SOL    HW181963   4.586   8.449  12.452
27313SOL    HW281964   4.556   8.542  12.584
27314SOL     OW81965   4.640   8.358  11.463
27314SOL    HW181966   4.703   8.396  11.395
27314SOL    HW281967   4.680   8.275  11.502
27315SOL     OW81968   5.228   9.055  11.216
27315SOL    HW181969   5.136   9.092  11.223
27315SOL    HW281970   5.266   9.075  11.126
27316SOL     OW81971   4.096   8.736  12.662
27316SOL    HW181972   4.083   8.829  12.628
27316SOL    HW281973   4.012   8.684  12.649
27317SOL     OW81974   5.338   8.740  12.461
27317SOL    HW181975   5.398   8.743  12.541
27317SOL    HW281976   5.263   8.804  12.474
27318SOL     OW81977   4.763   8.546  11.868
27318SOL    HW181978   4.693   8.499  11.922
27318SOL    HW281979   4.822   8.478  11.825
27319SOL     OW81980   4.738   7.684  12.143
27319SOL    HW181981   4.730   7.648  12.050
27319SOL    HW281982   4.736   7.608  12.208
27320SOL     OW81983   4.314   8.935  11.663
27320SOL    HW181984   4.356   8.877  11.593
27320SOL    HW281985   4.270   9.014  11.619
27321SOL     OW81986   5.433   7.833  12.553
27321SOL    HW181987   5.506   7.902  12.557
27321SOL    HW281988   5.461   7.758  12.494
27322SOL     OW81989   3.979   8.796  11.462
27322SOL    HW181990   3.883   8.797  11.435
27322SOL    HW281991   3.991   8.849  11.546
27323SOL     OW81992   3.829   8.461  12.898
27323SOL    HW181993   3.752   8.428  12.952
27323SOL    HW281994   3.914   8.431  12.940
27324SOL     OW81995   4.396   7.651  12.661
27324SOL    HW181996   4.486   7.635  12.621
27324SOL    HW281997   4.404   7.656  12.760
27325SOL     OW81998   3.799   7.793  11.205
27325SOL    HW181999   3.707   7.765  11.176
27325SOL    HW282000   3.830   7.870  11.149
27326SOL     OW82001   5.164   8.304  12.570
27326SOL    HW182002   5.107   8.356  12.507
27326SOL    HW282003   5.260   8.316  12.546
27327SOL     OW82004   3.796   7.614  11.490
27327SOL    HW182005   3.779   7.697  11.436
27327SOL    HW282006   3.886   7.577  11.468
27328SOL     OW82007   4.907   8.783  11.291
27328SOL    HW182008   4.808   8.772  11.293
27328SOL    HW282009   4.941   8.798  11.384
27329SOL     OW82010   4.337   8.290  12.603
27329SOL    HW182011   4.393   8.371  12.586
27329SOL    HW282012   4.396   8.210  12.606
27330SOL     OW82013   5.217   9.215  12.131
27330SOL    HW182014   5.250   9.279  12.062
27330SOL    HW282015   5.283   9.209  12.206
27331SOL     OW82016   4.440   8.013  12.880
27331SOL    HW182017   4.459   8.078  12.954
27331SOL    HW282018   4.500   7.933  12.889
27332SOL     OW82019   4.114   9.189  12.732
27332SOL    HW182020   4.023   9.230  12.730
27332SOL    HW282021   4.107   9.095  12.764
27333SOL     OW82022   5.398   8.331  12.426
27333SOL    HW182023   5.371   8.242  12.389
27333SOL    HW282024   5.399   8.399  12.353
27334SOL     OW82025   4.949   7.773  11.621
27334SOL    HW182026   5.014   7.699  11.610
27334SOL    HW282027   4.969   7.823  11.705
27335SOL     OW82028   4.318   8.193  11.824
27335SOL    HW182029   4.368   8.278  11.805
27335SOL    HW282030   4.230   8.195  11.776
27336SOL     OW82031   5.501   7.790  12.814
27336SOL    HW182032   5.484   7.821  12.720
27336SOL    HW282033   5.417   7.753  12.852
27337SOL     OW82034   5.454   8.382  12.689
27337SOL    HW182035   5.492   8.473  12.704
27337SOL    HW282036   5.446   8.365  12.590
27338SOL     OW82037   4.583   8.822  11.188
27338SOL    HW182038   4.537   8.837  11.276
27338SOL    HW282039   4.627   8.907  11.158
27339SOL     OW82040   4.385   9.238  12.125
27339SOL    HW182041   4.339   9.326  12.112
27339SOL    HW282042   4.484   9.250  12.118
27340SOL     OW82043   4.583   8.404  12.033
27340SOL    HW182044   4.637   8.335  12.081
27340SOL    HW282045   4.551   8.473  12.099
27341SOL     OW82046   4.807   8.432  11.259
27341SOL    HW182047   4.784   8.485  11.177
27341SOL    HW282048   4.888   8.376  11.240
27342SOL     OW82049   5.585   9.017  12.023
27342SOL    HW182050   5.514   9.005  11.953
27342SOL    HW282051   5.586   8.938  12.083
27343SOL     OW82052   3.803   8.688  11.825
27343SOL    HW182053   3.802   8.641  11.913
27343SOL    HW282054   3.885   8.660  11.774
27344SOL     OW82055   4.396   8.839  12.796
27344SOL    HW182056   4.318   8.789  12.834
27344SOL    HW282057   4.393   8.934  12.827
27345SOL     OW82058   5.548   7.640  12.399
27345SOL    HW182059   5.544   7.550  12.443
27345SOL    HW282060   5.551   7.629  12.300
27346SOL     OW82061   4.152   7.872  11.692
27346SOL    HW182062   4.182   7.800  11.630
27346SOL    HW282063   4.113   7.832  11.775
27347SOL     OW82064   5.429   8.935  12.276
27347SOL    HW182065   5.336   8.910  12.249
27347SOL    HW282066   5.455   8.885  12.358
27348SOL     OW82067   4.041   7.995  12.452
27348SOL    HW182068   4.079   7.936  12.524
27348SOL    HW282069   4.081   7.969  12.364
27349SOL     OW82070   4.536   9.034  11.859
27349SOL    HW182071   4.568   9.044  11.765
27349SOL    HW282072   4.457   8.972  11.861
27350SOL     OW82073   5.148   7.662  12.284
27350SOL    HW182074   5.200   7.597  12.339
27350SOL    HW282075   5.099   7.725  12.345
27351SOL     OW82076   4.725   7.482  12.326
27351SOL    HW182077   4.662   7.410  12.295
27351SOL    HW282078   4.818   7.446  12.326
27352SOL     OW82079   4.494   8.778  11.473
27352SOL    HW182080   4.448   8.691  11.490
27352SOL    HW282081   4.585   8.775  11.514
27353SOL     OW82082   4.342   9.015  12.456
27353SOL    HW182083   4.337   9.097  12.513
27353SOL    HW282084   4.431   9.012  12.411
27354SOL     OW82085   5.076   7.500  11.340
27354SOL    HW182086   5.111   7.459  11.256
27354SOL    HW282087   4.986   7.462  11.360
27355SOL     OW82088   5.024   7.901  11.863
27355SOL    HW182089   4.965   7.981  11.867
27355SOL    HW282090   5.039   7.866  11.956
27356SOL     OW82091   5.317   7.669  12.054
27356SOL    HW182092   5.233   7.668  12.108
27356SOL    HW282093   5.319   7.752  11.998
27357SOL     OW82094   3.763   8.525  11.472
27357SOL    HW182095   3.862   8.514  11.463
27357SOL    HW282096   3.723   8.439  11.504
27358SOL     OW82097   4.599   9.094  11.509
27358SOL    HW182098   4.522   9.059  11.455
27358SOL    HW282099   4.567   9.165  11.571
27359SOL     OW82100   3.954   9.938   0.113
27359SOL    HW182101   3.861   9.936   0.150
27359SOL    HW282102   3.955   9.899   0.021
27360SOL     OW82103   3.949   9.585   0.996
27360SOL    HW182104   3.984   9.568   1.088
27360SOL    HW282105   3.861   9.540   0.984
27361SOL     OW82106   3.743   9.678   0.647
27361SOL    HW182107   3.661   9.721   0.686
27361SOL    HW282108   3.715   9.605   0.584
27362SOL     OW82109   4.293  10.585   1.165
27362SOL    HW182110   4.200  10.578   1.128
27362SOL    HW282111   4.304  10.674   1.209
27363SOL     OW82112   5.279  10.821   0.703
27363SOL    HW182113   5.222  10.805   0.784
27363SOL    HW282114   5.220  10.831   0.623
27364SOL     OW82115   4.859  10.013   0.717
27364SOL    HW182116   4.916  10.091   0.692
27364SOL    HW282117   4.799  10.039   0.793
27365SOL     OW82118   5.479   9.917   0.231
27365SOL    HW182119   5.467   9.904   0.132
27365SOL    HW282120   5.449   9.836   0.280
27366SOL     OW82121   4.492  10.454   1.023
27366SOL    HW182122   4.414  10.471   1.083
27366SOL    HW282123   4.526  10.541   0.987
27367SOL     OW82124   4.574  10.108   1.823
27367SOL    HW182125   4.570  10.184   1.888
27367SOL    HW282126   4.596  10.144   1.732
27368SOL     OW82127   4.409  10.322   0.665
27368SOL    HW182128   4.478  10.306   0.735
27368SOL    HW282129   4.336  10.379   0.703
27369SOL     OW82130   4.410  10.471   1.803
27369SOL    HW182131   4.470  10.550   1.817
27369SOL    HW282132   4.324  10.502   1.762
27370SOL     OW82133   4.059  10.745   1.061
27370SOL    HW182134   3.981  10.714   1.008
27370SOL    HW282135   4.117  10.803   1.004
27371SOL     OW82136   5.184  10.815   1.339
27371SOL    HW182137   5.208  10.909   1.365
27371SOL    HW282138   5.168  10.761   1.421
27372SOL     OW82139   4.162   9.702   1.499
27372SOL    HW182140   4.244   9.646   1.508
27372SOL    HW282141   4.081   9.644   1.503
27373SOL     OW82142   5.327   9.757   0.737
27373SOL    HW182143   5.253   9.803   0.687
27373SOL    HW282144   5.378   9.825   0.790
27374SOL     OW82145   3.955  11.023   0.483
27374SOL    HW182146   3.989  11.100   0.537
27374SOL    HW282147   3.999  11.023   0.393
27375SOL     OW82148   4.851  10.651   1.690
27375SOL    HW182149   4.898  10.651   1.778
27375SOL    HW282150   4.803  10.564   1.679
27376SOL     OW82151   3.954  10.744   0.538
27376SOL    HW182152   3.928  10.840   0.538
27376SOL    HW282153   3.883  10.690   0.583
27377SOL     OW82154   3.964  10.401   0.886
27377SOL    HW182155   3.978  10.317   0.938
27377SOL    HW282156   3.909  10.465   0.941
27378SOL     OW82157   4.344  11.096   1.439
27378SOL    HW182158   4.252  11.079   1.474
27378SOL    HW282159   4.372  11.188   1.465
27379SOL     OW82160   4.330  10.274   0.123
27379SOL    HW182161   4.337  10.358   0.069
27379SOL    HW282162   4.376  10.287   0.211
27380SOL     OW82163   5.318   9.424   1.480
27380SOL    HW182164   5.300   9.491   1.408
27380SOL    HW282165   5.315   9.470   1.569
27381SOL     OW82166   3.846   9.953   0.563
27381SOL    HW182167   3.801   9.865   0.580
27381SOL    HW282168   3.845  10.007   0.647
27382SOL     OW82169   5.566  11.077   0.359
27382SOL    HW182170   5.620  11.048   0.439
27382SOL    HW282171   5.596  11.167   0.330
27383SOL     OW82172   3.751  10.906   0.117
27383SOL    HW182173   3.732  10.810   0.138
27383SOL    HW282174   3.718  10.964   0.192
27384SOL     OW82175   5.413  10.232   0.612
27384SOL    HW182176   5.508  10.203   0.620
27384SOL    HW282177   5.405  10.297   0.537
27385SOL     OW82178   5.365  10.418   0.432
27385SOL    HW182179   5.451  10.420   0.380
27385SOL    HW282180   5.379  10.465   0.520
27386SOL     OW82181   3.837  10.047   1.597
27386SOL    HW182182   3.925  10.034   1.642
27386SOL    HW282183   3.824  10.144   1.575
27387SOL     OW82184   4.337  10.675   0.726
27387SOL    HW182185   4.288  10.588   0.735
27387SOL    HW282186   4.314  10.718   0.639
27388SOL     OW82187   5.017  10.538   1.423
27388SOL    HW182188   5.054  10.465   1.365
27388SOL    HW282189   5.069  10.543   1.508
27389SOL     OW82190   4.533   9.314   0.502
27389SOL    HW182191   4.573   9.405   0.493
27389SOL    HW282192   4.433   9.322   0.508
27390SOL     OW82193   3.921  10.286   1.264
27390SOL    HW182194   4.010  10.241   1.250
27390SOL    HW282195   3.848  10.221   1.245
27391SOL     OW82196   5.249  10.309   0.190
27391SOL    HW182197   5.186  10.233   0.203
27391SOL    HW282198   5.297  10.327   0.276
27392SOL     OW82199   4.911  11.102   1.616
27392SOL    HW182200   4.935  11.162   1.540
27392SOL    HW282201   4.918  11.007   1.586
27393SOL     OW82202   4.041   9.561   1.801
27393SOL    HW182203   4.112   9.632   1.807
27393SOL    HW282204   3.953   9.600   1.829
27394SOL     OW82205   5.190  10.727   0.953
27394SOL    HW182206   5.131  10.733   1.033
27394SOL    HW282207   5.175  10.639   0.907
27395SOL     OW82208   5.391  11.024   0.572
27395SOL    HW182209   5.350  11.001   0.484
27395SOL    HW282210   5.373  10.950   0.637
27396SOL     OW82211   4.322  10.039   0.270
27396SOL    HW182212   4.346  10.108   0.202
27396SOL    HW282213   4.244  10.072   0.324
27397SOL     OW82214   5.005   9.655   0.944
27397SOL    HW182215   4.919   9.605   0.931
27397SOL    HW282216   5.067   9.601   1.000
27398SOL     OW82217   5.300  10.972   0.307
27398SOL    HW182218   5.389  11.018   0.310
27398SOL    HW282219   5.279  10.948   0.212
27399SOL     OW82220   4.531   9.915   1.465
27399SOL    HW182221   4.484   9.912   1.554
27399SOL    HW282222   4.480   9.860   1.399
27400SOL     OW82223   5.118   9.779   1.674
27400SOL    HW182224   5.098   9.822   1.762
27400SOL    HW282225   5.196   9.717   1.683
27401SOL     OW82226   4.697  10.200   1.572
27401SOL    HW182227   4.743  10.116   1.543
27401SOL    HW282228   4.641  10.234   1.497
27402SOL     OW82229   4.715   9.720   1.242
27402SOL    HW182230   4.638   9.754   1.296
27402SOL    HW282231   4.681   9.669   1.163
27403SOL     OW82232   4.765  10.011   0.429
27403SOL    HW182233   4.791  10.007   0.525
27403SOL    HW282234   4.680   9.960   0.415
27404SOL     OW82235   3.800  10.121   0.789
27404SOL    HW182236   3.899  10.109   0.798
27404SOL    HW282237   3.776  10.216   0.810
27405SOL     OW82238   3.854  11.131   1.571
27405SOL    HW182239   3.844  11.116   1.670
27405SOL    HW282240   3.768  11.167   1.535
27406SOL     OW82241   4.589   9.658   0.195
27406SOL    HW182242   4.648   9.721   0.146
27406SOL    HW282243   4.608   9.564   0.166
27407SOL     OW82244   5.443   9.895   1.831
27407SOL    HW182245   5.417   9.984   1.795
27407SOL    HW282246   5.441   9.827   1.758
27408SOL     OW82247   5.086  10.454   0.545
27408SOL    HW182248   5.169  10.425   0.497
27408SOL    HW282249   5.037  10.521   0.489
27409SOL     OW82250   4.274   9.506   0.885
27409SOL    HW182251   4.269   9.501   0.985
27409SOL    HW282252   4.276   9.602   0.856
27410SOL     OW82253   4.732  10.766   0.477
27410SOL    HW182254   4.686  10.838   0.425
27410SOL    HW282255   4.728  10.786   0.575
27411SOL     OW82256   4.075  11.111   0.853
27411SOL    HW182257   4.125  11.025   0.859
27411SOL    HW282258   4.140  11.188   0.850
27412SOL     OW82259   5.519  10.376   0.873
27412SOL    HW182260   5.457  10.361   0.797
27412SOL    HW282261   5.467  10.387   0.958
27413SOL     OW82262   4.951  10.860   1.506
27413SOL    HW182263   4.957  10.783   1.570
27413SOL    HW282264   4.899  10.834   1.426
27414SOL     OW82265   4.045  10.253   0.242
27414SOL    HW182266   4.127  10.292   0.200
27414SOL    HW282267   4.018  10.171   0.193
27415SOL     OW82268   5.182  10.045   0.728
27415SOL    HW182269   5.177   9.980   0.803
27415SOL    HW282270   5.262  10.104   0.741
27416SOL     OW82271   4.185  10.576   1.727
27416SOL    HW182272   4.135  10.577   1.641
27416SOL    HW282273   4.122  10.558   1.803
27417SOL     OW82274   4.835  11.086   0.237
27417SOL    HW182275   4.775  11.024   0.287
27417SOL    HW282276   4.866  11.042   0.152
27418SOL     OW82277   3.926   9.595   1.498
27418SOL    HW182278   3.846   9.655   1.485
27418SOL    HW282279   3.916   9.546   1.584
27419SOL     OW82280   5.356  10.687   0.081
27419SOL    HW182281   5.324  10.781   0.071
27419SOL    HW282282   5.280  10.624   0.069
27420SOL     OW82283   4.188  11.053   0.323
27420SOL    HW182284   4.221  11.092   0.409
27420SOL    HW282285   4.264  11.046   0.258
27421SOL     OW82286   5.124   9.417   0.426
27421SOL    HW182287   5.100   9.380   0.336
27421SOL    HW282288   5.223   9.433   0.430
27422SOL     OW82289   3.973  11.095   1.241
27422SOL    HW182290   4.030  11.030   1.291
27422SOL    HW282291   3.957  11.062   1.148
27423SOL     OW82292   4.664  11.008   0.904
27423SOL    HW182293   4.744  10.951   0.925
27423SOL    HW282294   4.615  10.968   0.827
27424SOL     OW82295   4.106  10.010   0.480
27424SOL    HW182296   4.151   9.920   0.477
27424SOL    HW282297   4.012   9.999   0.513
27425SOL     OW82298   5.271   9.532   1.729
27425SOL    HW182299   5.266   9.569   1.821
27425SOL    HW282300   5.199   9.463   1.717
27426SOL     OW82301   4.338   9.432   0.117
27426SOL    HW182302   4.436   9.410   0.124
27426SOL    HW282303   4.307   9.415   0.024
27427SOL     OW82304   4.505   9.574   1.749
27427SOL    HW182305   4.572   9.513   1.792
27427SOL    HW282306   4.432   9.593   1.814
27428SOL     OW82307   4.612  10.824   1.195
27428SOL    HW182308   4.589  10.799   1.101
27428SOL    HW282309   4.673  10.755   1.234
27429SOL     OW82310   5.075   9.900   1.433
27429SOL    HW182311   5.103   9.857   1.518
27429SOL    HW282312   5.100   9.996   1.434
27430SOL     OW82313   4.527  10.712   0.924
27430SOL    HW182314   4.617  10.726   0.882
27430SOL    HW282315   4.456  10.714   0.853
27431SOL     OW82316   4.646   9.813   0.899
27431SOL    HW182317   4.621   9.804   0.803
27431SOL    HW282318   4.694   9.731   0.930
27432SOL     OW82319   4.263   9.374   0.512
27432SOL    HW182320   4.182   9.375   0.570
27432SOL    HW282321   4.266   9.457   0.457
27433SOL     OW82322   5.158  10.498   0.041
27433SOL    HW182323   5.190  10.422   0.098
27433SOL    HW282324   5.066  10.525   0.071
27434SOL     OW82325   4.021   9.345   0.171
27434SOL    HW182326   4.070   9.429   0.150
27434SOL    HW282327   4.083   9.280   0.216
27435SOL     OW82328   4.659   9.546   0.480
27435SOL    HW182329   4.611   9.587   0.402
27435SOL    HW282330   4.758   9.544   0.461
27436SOL     OW82331   4.800   9.993   1.464
27436SOL    HW182332   4.720   9.932   1.467
27436SOL    HW282333   4.881   9.940   1.440
27437SOL     OW82334   4.951  10.880   0.793
27437SOL    HW182335   4.972  10.954   0.728
27437SOL    HW282336   5.019  10.880   0.866
27438SOL     OW82337   4.183  10.462   0.741
27438SOL    HW182338   4.112  10.435   0.806
27438SOL    HW282339   4.157  10.434   0.648
27439SOL     OW82340   4.995  11.107   0.591
27439SOL    HW182341   5.039  11.171   0.527
27439SOL    HW282342   4.945  11.159   0.661
27440SOL     OW82343   4.756   9.859   0.016
27440SOL    HW182344   4.715   9.941  -0.023
27440SOL    HW282345   4.820   9.885   0.089
27441SOL     OW82346   3.802   9.866   1.386
27441SOL    HW182347   3.894   9.865   1.345
27441SOL    HW282348   3.796   9.940   1.453
27442SOL     OW82349   4.285   9.532   1.147
27442SOL    HW182350   4.323   9.448   1.184
27442SOL    HW282351   4.197   9.551   1.191
27443SOL     OW82352   4.590   9.764   0.642
27443SOL    HW182353   4.558   9.836   0.580
27443SOL    HW282354   4.614   9.683   0.589
27444SOL     OW82355   4.741   9.349   0.753
27444SOL    HW182356   4.669   9.354   0.684
27444SOL    HW282357   4.717   9.280   0.822
27445SOL     OW82358   5.153  10.483   0.867
27445SOL    HW182359   5.098  10.399   0.860
27445SOL    HW282360   5.179  10.512   0.775
27446SOL     OW82361   5.190   9.900   0.992
27446SOL    HW182362   5.160   9.805   0.999
27446SOL    HW282363   5.263   9.916   1.058
27447SOL     OW82364   5.581  10.143   0.377
27447SOL    HW182365   5.623  10.079   0.441
27447SOL    HW282366   5.543  10.092   0.299
27448SOL     OW82367   4.212  10.695   0.174
27448SOL    HW182368   4.125  10.680   0.221
27448SOL    HW282369   4.195  10.721   0.079
27449SOL     OW82370   5.388  10.590   0.657
27449SOL    HW182371   5.487  10.598   0.671
27449SOL    HW282372   5.343  10.674   0.688
27450SOL     OW82373   5.114   9.885   0.078
27450SOL    HW182374   5.060   9.864   0.159
27450SOL    HW282375   5.205   9.844   0.087
27451SOL     OW82376   4.251   9.566   0.328
27451SOL    HW182377   4.278   9.507   0.253
27451SOL    HW282378   4.251   9.661   0.297
27452SOL     OW82379   5.478  10.533   1.588
27452SOL    HW182380   5.569  10.494   1.575
27452SOL    HW282381   5.486  10.629   1.612
27453SOL     OW82382   4.788  10.657   1.340
27453SOL    HW182383   4.708  10.634   1.395
27453SOL    HW282384   4.871  10.631   1.389
27454SOL     OW82385   5.316  10.939   1.625
27454SOL    HW182386   5.343  10.973   1.535
27454SOL    HW282387   5.395  10.901   1.671
27455SOL     OW82388   4.835  10.505   1.100
27455SOL    HW182389   4.795  10.549   1.181
27455SOL    HW282390   4.794  10.542   1.017
27456SOL     OW82391   5.362  10.409   1.079
27456SOL    HW182392   5.367  10.490   1.138
27456SOL    HW282393   5.276  10.411   1.028
27457SOL     OW82394   4.639   9.399   1.402
27457SOL    HW182395   4.664   9.379   1.307
27457SOL    HW282396   4.711   9.455   1.444
27458SOL     OW82397   4.704  10.426   1.719
27458SOL    HW182398   4.605  10.432   1.729
27458SOL    HW282399   4.727  10.346   1.663
27459SOL     OW82400   4.429  10.360   0.368
27459SOL    HW182401   4.415  10.367   0.467
27459SOL    HW282402   4.513  10.309   0.350
27460SOL     OW82403   4.134  10.123   1.251
27460SOL    HW182404   4.220  10.135   1.301
27460SOL    HW282405   4.092  10.036   1.278
27461SOL     OW82406   4.998   9.696   1.262
27461SOL    HW182407   5.019   9.770   1.326
27461SOL    HW282408   4.909   9.713   1.219
27462SOL     OW82409   3.788  10.874   1.331
27462SOL    HW182410   3.742  10.956   1.297
27462SOL    HW282411   3.886  10.893   1.340
27463SOL     OW82412   4.091  10.410   0.501
27463SOL    HW182413   4.084  10.493   0.445
27463SOL    HW282414   4.095  10.330   0.441
27464SOL     OW82415   4.290   9.847   0.865
27464SOL    HW182416   4.302   9.913   0.791
27464SOL    HW282417   4.336   9.881   0.948
27465SOL     OW82418   4.976  10.658   0.388
27465SOL    HW182419   5.026  10.735   0.428
27465SOL    HW282420   4.881  10.660   0.420
27466SOL     OW82421   4.996  10.755   1.142
27466SOL    HW182422   5.043  10.768   1.229
27466SOL    HW282423   4.930  10.681   1.151
27467SOL     OW82424   5.306   9.949   0.472
27467SOL    HW182425   5.275  10.010   0.545
27467SOL    HW282426   5.356  10.001   0.403
27468SOL     OW82427   4.078  10.820   1.329
27468SOL    HW182428   4.057  10.776   1.242
27468SOL    HW282429   4.175  10.846   1.332
27469SOL     OW82430   4.126  10.061   1.598
27469SOL    HW182431   4.194  10.116   1.551
27469SOL    HW282432   4.166   9.973   1.625
27470SOL     OW82433   5.311  10.089   1.670
27470SOL    HW182434   5.219  10.127   1.665
27470SOL    HW282435   5.371  10.136   1.605
27471SOL     OW82436   4.737   9.415   1.770
27471SOL    HW182437   4.743   9.500   1.718
27471SOL    HW282438   4.769   9.339   1.713
27472SOL     OW82439   4.228   9.360   1.740
27472SOL    HW182440   4.186   9.303   1.670
27472SOL    HW282441   4.162   9.429   1.772
27473SOL     OW82442   4.297  10.180   1.029
27473SOL    HW182443   4.341  10.269   1.020
27473SOL    HW282444   4.234  10.180   1.106
27474SOL     OW82445   5.084  10.172   1.045
27474SOL    HW182446   5.009  10.172   0.979
27474SOL    HW282447   5.121  10.080   1.054
27475SOL     OW82448   4.933   9.835   0.275
27475SOL    HW182449   4.946   9.751   0.329
27475SOL    HW282450   4.904   9.909   0.335
27476SOL     OW82451   4.031   9.523   1.231
27476SOL    HW182452   4.008   9.560   1.321
27476SOL    HW282453   4.001   9.428   1.225
27477SOL     OW82454   3.761  10.620   1.282
27477SOL    HW182455   3.814  10.571   1.350
27477SOL    HW282456   3.783  10.718   1.287
27478SOL     OW82457   4.456   9.944   1.064
27478SOL    HW182458   4.515   9.918   0.988
27478SOL    HW282459   4.428  10.040   1.053
27479SOL     OW82460   5.452  10.245   1.854
27479SOL    HW182461   5.406  10.238   1.765
27479SOL    HW282462   5.390  10.289   1.920
27480SOL     OW82463   4.031   9.373   0.618
27480SOL    HW182464   4.020   9.467   0.651
27480SOL    HW282465   4.026   9.310   0.695
27481SOL     OW82466   5.346   9.677   0.374
27481SOL    HW182467   5.348   9.601   0.438
27481SOL    HW282468   5.298   9.754   0.414
27482SOL     OW82469   4.747  10.076   0.966
27482SOL    HW182470   4.762  10.097   1.062
27482SOL    HW282471   4.717   9.981   0.957
27483SOL     OW82472   4.704  10.883   1.700
27483SOL    HW182473   4.684  10.927   1.612
27483SOL    HW282474   4.743  10.792   1.684
27484SOL     OW82475   5.583  10.828   1.605
27484SOL    HW182476   5.597  10.855   1.510
27484SOL    HW282477   5.666  10.850   1.658
27485SOL     OW82478   4.074  10.208   1.804
27485SOL    HW182479   4.150  10.252   1.852
27485SOL    HW282480   4.109  10.161   1.722
27486SOL     OW82481   5.264   9.584   0.125
27486SOL    HW182482   5.203   9.509   0.148
27486SOL    HW282483   5.286   9.636   0.208
27487SOL     OW82484   5.027  10.148   0.042
27487SOL    HW182485   5.061  10.055   0.057
27487SOL    HW282486   5.045  10.175  -0.053
27488SOL     OW82487   4.792  10.643   0.849
27488SOL    HW182488   4.799  10.559   0.794
27488SOL    HW282489   4.854  10.712   0.813
27489SOL     OW82490   4.043  10.120   0.949
27489SOL    HW182491   4.136  10.156   0.954
27489SOL    HW282492   4.037  10.035   1.001
27490SOL     OW82493   4.063   9.819   1.006
27490SOL    HW182494   4.011   9.736   0.989
27490SOL    HW282495   4.140   9.824   0.942
27491SOL     OW82496   4.862   9.690   1.678
27491SOL    HW182497   4.817   9.753   1.742
27491SOL    HW282498   4.955   9.721   1.661
27492SOL     OW82499   4.884   9.517   1.477
27492SOL    HW182500   4.884   9.581   1.554
27492SOL    HW282501   4.912   9.565   1.394
27493SOL     OW82502   3.732  10.636   0.200
27493SOL    HW182503   3.639  10.657   0.169
27493SOL    HW282504   3.742  10.537   0.213
27494SOL     OW82505   3.812  11.111   0.927
27494SOL    HW182506   3.770  11.025   0.900
27494SOL    HW282507   3.906  11.114   0.893
27495SOL     OW82508   4.228  10.878   0.910
27495SOL    HW182509   4.294  10.952   0.919
27495SOL    HW282510   4.272  10.799   0.868
27496SOL     OW82511   4.726  10.106   1.238
27496SOL    HW182512   4.767  10.074   1.324
27496SOL    HW282513   4.630  10.079   1.235
27497SOL     OW82514   3.764   9.854   1.114
27497SOL    HW182515   3.849   9.821   1.073
27497SOL    HW282516   3.777   9.869   1.212
27498SOL     OW82517   3.913   9.830   1.722
27498SOL    HW182518   3.972   9.790   1.652
27498SOL    HW282519   3.855   9.901   1.681
27499SOL     OW82520   5.093  10.260   1.660
27499SOL    HW182521   5.132  10.349   1.680
27499SOL    HW282522   5.103  10.240   1.563
27500SOL     OW82523   4.539   9.882   0.325
27500SOL    HW182524   4.546   9.793   0.279
27500SOL    HW282525   4.445   9.916   0.317
27501SOL     OW82526   5.381   9.914   1.206
27501SOL    HW182527   5.343   9.845   1.268
27501SOL    HW282528   5.463   9.878   1.162
27502SOL     OW82529   3.976  10.874   1.744
27502SOL    HW182530   3.946  10.931   1.820
27502SOL    HW282531   3.969  10.777   1.770
27503SOL     OW82532   4.395   9.774   1.269
27503SOL    HW182533   4.361   9.685   1.239
27503SOL    HW282534   4.421   9.828   1.189
27504SOL     OW82535   4.654  10.988   1.465
27504SOL    HW182536   4.630  10.970   1.370
27504SOL    HW282537   4.684  11.082   1.475
27505SOL     OW82538   4.197   9.810   0.191
27505SOL    HW182539   4.258   9.890   0.195
27505SOL    HW282540   4.102   9.841   0.198
27506SOL     OW82541   3.883  10.447   1.466
27506SOL    HW182542   3.905  10.386   1.542
27506SOL    HW282543   3.893  10.398   1.380
27507SOL     OW82544   5.071  10.369   1.234
27507SOL    HW182545   5.095  10.306   1.160
27507SOL    HW282546   4.981  10.409   1.216
27508SOL     OW82547   5.026  10.165   0.309
27508SOL    HW182548   4.940  10.134   0.351
27508SOL    HW282549   5.022  10.151   0.210
27509SOL     OW82550   5.483  11.057   1.154
27509SOL    HW182551   5.544  11.087   1.081
27509SOL    HW282552   5.445  10.968   1.132
27510SOL     OW82553   4.976  11.041   1.128
27510SOL    HW182554   5.060  11.046   1.074
27510SOL    HW282555   4.953  10.945   1.146
27511SOL     OW82556   3.807  10.568   1.022
27511SOL    HW182557   3.802  10.567   1.122
27511SOL    HW282558   3.724  10.527   0.984
27512SOL     OW82559   4.412  10.972   1.716
27512SOL    HW182560   4.356  11.053   1.725
27512SOL    HW282561   4.464  10.976   1.630
27513SOL     OW82562   4.627   9.396   0.133
27513SOL    HW182563   4.678   9.397   0.047
27513SOL    HW282564   4.683   9.354   0.204
27514SOL     OW82565   5.450   9.445   0.523
27514SOL    HW182566   5.523   9.428   0.456
27514SOL    HW282567   5.419   9.358   0.561
27515SOL     OW82568   5.112  10.883   0.477
27515SOL    HW182569   5.179  10.895   0.403
27515SOL    HW282570   5.072  10.972   0.500
27516SOL     OW82571   3.854  11.104   1.851
27516SOL    HW182572   3.813  11.030   1.904
27516SOL    HW282573   3.918  11.155   1.909
27517SOL     OW82574   5.004  10.237   0.672
27517SOL    HW182575   5.064  10.156   0.674
27517SOL    HW282576   5.044  10.306   0.612
27518SOL     OW82577   4.554  10.583   1.422
27518SOL    HW182578   4.549  10.616   1.517
27518SOL    HW282579   4.468  10.602   1.376
27519SOL     OW82580   4.396  10.926   0.154
27519SOL    HW182581   4.405  10.936   0.055
27519SOL    HW282582   4.356  10.837   0.175
27520SOL     OW82583   5.374  11.030   1.394
27520SOL    HW182584   5.427  11.040   1.310
27520SOL    HW282585   5.347  11.120   1.428
27521SOL     OW82586   5.565   9.485   0.963
27521SOL    HW182587   5.604   9.400   0.927
27521SOL    HW282588   5.467   9.487   0.944
27522SOL     OW82589   3.987   9.636   0.720
27522SOL    HW182590   3.908   9.687   0.686
27522SOL    HW282591   3.978   9.621   0.818
27523SOL     OW82592   4.918  10.922   0.031
27523SOL    HW182593   4.924  10.829   0.068
27523SOL    HW282594   4.859  10.922  -0.049
27524SOL     OW82595   4.546  10.312   1.372
27524SOL    HW182596   4.586  10.311   1.280
27524SOL    HW282597   4.556  10.404   1.412
27525SOL     OW82598   4.640  10.220   0.291
27525SOL    HW182599   4.703  10.258   0.223
27525SOL    HW282600   4.680  10.137   0.330
27526SOL     OW82601   5.228  10.917   0.044
27526SOL    HW182602   5.136  10.954   0.051
27526SOL    HW282603   5.266  10.937  -0.046
27527SOL     OW82604   4.096  10.598   1.490
27527SOL    HW182605   4.083  10.691   1.456
27527SOL    HW282606   4.012  10.546   1.477
27528SOL     OW82607   5.338  10.602   1.289
27528SOL    HW182608   5.398  10.605   1.369
27528SOL    HW282609   5.263  10.666   1.302
27529SOL     OW82610   4.763  10.408   0.696
27529SOL    HW182611   4.693  10.361   0.750
27529SOL    HW282612   4.822  10.340   0.653
27530SOL     OW82613   4.738   9.546   0.971
27530SOL    HW182614   4.730   9.510   0.878
27530SOL    HW282615   4.736   9.470   1.036
27531SOL     OW82616   4.314  10.797   0.491
27531SOL    HW182617   4.356  10.739   0.421
27531SOL    HW282618   4.270  10.876   0.447
27532SOL     OW82619   5.433   9.695   1.381
27532SOL    HW182620   5.506   9.764   1.385
27532SOL    HW282621   5.461   9.620   1.322
27533SOL     OW82622   3.979  10.658   0.290
27533SOL    HW182623   3.883  10.659   0.263
27533SOL    HW282624   3.991  10.711   0.374
27534SOL     OW82625   3.829  10.323   1.726
27534SOL    HW182626   3.752  10.290   1.780
27534SOL    HW282627   3.914  10.293   1.768
27535SOL     OW82628   4.396   9.513   1.489
27535SOL    HW182629   4.486   9.497   1.449
27535SOL    HW282630   4.404   9.518   1.588
27536SOL     OW82631   3.799   9.655   0.033
27536SOL    HW182632   3.707   9.627   0.004
27536SOL    HW282633   3.830   9.732  -0.023
27537SOL     OW82634   5.164  10.166   1.398
27537SOL    HW182635   5.107  10.218   1.335
27537SOL    HW282636   5.260  10.178   1.374
27538SOL     OW82637   3.796   9.476   0.318
27538SOL    HW182638   3.779   9.559   0.264
27538SOL    HW282639   3.886   9.439   0.296
27539SOL     OW82640   4.907  10.645   0.119
27539SOL    HW182641   4.808  10.634   0.121
27539SOL    HW282642   4.941  10.660   0.212
27540SOL     OW82643   4.337  10.152   1.431
27540SOL    HW182644   4.393  10.233   1.414
27540SOL    HW282645   4.396  10.072   1.434
27541SOL     OW82646   5.217  11.077   0.959
27541SOL    HW182647   5.250  11.141   0.890
27541SOL    HW282648   5.283  11.071   1.034
27542SOL     OW82649   4.440   9.875   1.708
27542SOL    HW182650   4.459   9.940   1.782
27542SOL    HW282651   4.500   9.795   1.717
27543SOL     OW82652   5.174  10.530   1.633
27543SOL    HW182653   5.165  10.520   1.732
27543SOL    HW282654   5.270  10.523   1.607
27544SOL     OW82655   4.114  11.051   1.560
27544SOL    HW182656   4.023  11.092   1.558
27544SOL    HW282657   4.107  10.957   1.592
27545SOL     OW82658   5.398  10.193   1.254
27545SOL    HW182659   5.371  10.104   1.217
27545SOL    HW282660   5.399  10.261   1.181
27546SOL     OW82661   4.949   9.635   0.449
27546SOL    HW182662   5.014   9.561   0.438
27546SOL    HW282663   4.969   9.685   0.533
27547SOL     OW82664   4.318  10.055   0.652
27547SOL    HW182665   4.368  10.140   0.633
27547SOL    HW282666   4.230  10.057   0.604
27548SOL     OW82667   5.501   9.652   1.642
27548SOL    HW182668   5.484   9.683   1.548
27548SOL    HW282669   5.417   9.615   1.680
27549SOL     OW82670   5.454  10.244   1.517
27549SOL    HW182671   5.492  10.335   1.532
27549SOL    HW282672   5.446  10.227   1.418
27550SOL     OW82673   4.583  10.684   0.016
27550SOL    HW182674   4.537  10.699   0.104
27550SOL    HW282675   4.627  10.769  -0.014
27551SOL     OW82676   4.385  11.100   0.953
27551SOL    HW182677   4.339  11.188   0.940
27551SOL    HW282678   4.484  11.112   0.946
27552SOL     OW82679   4.583  10.266   0.861
27552SOL    HW182680   4.637  10.197   0.909
27552SOL    HW282681   4.551  10.335   0.927
27553SOL     OW82682   4.807  10.294   0.087
27553SOL    HW182683   4.784  10.347   0.005
27553SOL    HW282684   4.888  10.238   0.068
27554SOL     OW82685   5.585  10.879   0.851
27554SOL    HW182686   5.514  10.867   0.781
27554SOL    HW282687   5.586  10.800   0.911
27555SOL     OW82688   3.945  10.624   1.844
27555SOL    HW182689   3.880  10.551   1.823
27555SOL    HW282690   3.949  10.638   1.942
27556SOL     OW82691   3.803  10.550   0.653
27556SOL    HW182692   3.802  10.503   0.741
27556SOL    HW282693   3.885  10.522   0.602
27557SOL     OW82694   4.396  10.701   1.624
27557SOL    HW182695   4.318  10.651   1.662
27557SOL    HW282696   4.393  10.796   1.655
27558SOL     OW82697   5.548   9.502   1.227
27558SOL    HW182698   5.544   9.412   1.271
27558SOL    HW282699   5.551   9.491   1.128
27559SOL     OW82700   4.152   9.734   0.520
27559SOL    HW182701   4.182   9.662   0.458
27559SOL    HW282702   4.113   9.694   0.603
27560SOL     OW82703   5.429  10.797   1.104
27560SOL    HW182704   5.336  10.772   1.077
27560SOL    HW282705   5.455  10.747   1.186
27561SOL     OW82706   4.041   9.857   1.280
27561SOL    HW182707   4.079   9.798   1.352
27561SOL    HW282708   4.081   9.831   1.192
27562SOL     OW82709   4.536  10.896   0.687
27562SOL    HW182710   4.568  10.906   0.593
27562SOL    HW282711   4.457  10.834   0.689
27563SOL     OW82712   5.148   9.524   1.112
27563SOL    HW182713   5.200   9.459   1.167
27563SOL    HW282714   5.099   9.587   1.173
27564SOL     OW82715   4.725   9.344   1.154
27564SOL    HW182716   4.662   9.272   1.123
27564SOL    HW282717   4.818   9.308   1.154
27565SOL     OW82718   4.494  10.640   0.301
27565SOL    HW182719   4.448  10.553   0.318
27565SOL    HW282720   4.585  10.637   0.342
27566SOL     OW82721   4.342  10.877   1.284
27566SOL    HW182722   4.337  10.959   1.341
27566SOL    HW282723   4.431  10.874   1.239
27567SOL     OW82724   5.076   9.362   0.168
27567SOL    HW182725   5.111   9.321   0.084
27567SOL    HW282726   4.986   9.324   0.188
27568SOL     OW82727   5.024   9.763   0.691
27568SOL    HW182728   4.965   9.843   0.695
27568SOL    HW282729   5.039   9.728   0.784
27569SOL     OW82730   5.317   9.531   0.882
27569SOL    HW182731   5.233   9.530   0.936
27569SOL    HW282732   5.319   9.614   0.826
27570SOL     OW82733   3.763  10.387   0.300
27570SOL    HW182734   3.862  10.376   0.291
27570SOL    HW282735   3.723  10.301   0.332
27571SOL     OW82736   4.599  10.956   0.337
27571SOL    HW182737   4.522  10.921   0.283
27571SOL    HW282738   4.567  11.027   0.399
27572SOL     OW82739   3.954   9.938   1.975
27572SOL    HW182740   3.861   9.936   2.012
27572SOL    HW282741   3.955   9.899   1.883
27573SOL     OW82742   3.949   9.585   2.858
27573SOL    HW182743   3.984   9.568   2.950
27573SOL    HW282744   3.861   9.540   2.846
27574SOL     OW82745   3.743   9.678   2.509
27574SOL    HW182746   3.661   9.721   2.548
27574SOL    HW282747   3.715   9.605   2.446
27575SOL     OW82748   4.293  10.585   3.027
27575SOL    HW182749   4.200  10.578   2.990
27575SOL    HW282750   4.304  10.674   3.071
27576SOL     OW82751   5.279  10.821   2.565
27576SOL    HW182752   5.222  10.805   2.646
27576SOL    HW282753   5.220  10.831   2.485
27577SOL     OW82754   4.859  10.013   2.579
27577SOL    HW182755   4.916  10.091   2.554
27577SOL    HW282756   4.799  10.039   2.655
27578SOL     OW82757   5.479   9.917   2.093
27578SOL    HW182758   5.467   9.904   1.994
27578SOL    HW282759   5.449   9.836   2.142
27579SOL     OW82760   4.492  10.454   2.885
27579SOL    HW182761   4.414  10.471   2.945
27579SOL    HW282762   4.526  10.541   2.849
27580SOL     OW82763   4.574  10.108   3.685
27580SOL    HW182764   4.570  10.184   3.750
27580SOL    HW282765   4.596  10.144   3.594
27581SOL     OW82766   4.409  10.322   2.527
27581SOL    HW182767   4.478  10.306   2.597
27581SOL    HW282768   4.336  10.379   2.565
27582SOL     OW82769   4.410  10.471   3.665
27582SOL    HW182770   4.470  10.550   3.679
27582SOL    HW282771   4.324  10.502   3.624
27583SOL     OW82772   4.059  10.745   2.923
27583SOL    HW182773   3.981  10.714   2.870
27583SOL    HW282774   4.117  10.803   2.866
27584SOL     OW82775   5.184  10.815   3.201
27584SOL    HW182776   5.208  10.909   3.227
27584SOL    HW282777   5.168  10.761   3.283
27585SOL     OW82778   4.162   9.702   3.361
27585SOL    HW182779   4.244   9.646   3.370
27585SOL    HW282780   4.081   9.644   3.365
27586SOL     OW82781   5.327   9.757   2.599
27586SOL    HW182782   5.253   9.803   2.549
27586SOL    HW282783   5.378   9.825   2.652
27587SOL     OW82784   3.955  11.023   2.345
27587SOL    HW182785   3.989  11.100   2.399
27587SOL    HW282786   3.999  11.023   2.255
27588SOL     OW82787   4.851  10.651   3.552
27588SOL    HW182788   4.898  10.651   3.640
27588SOL    HW282789   4.803  10.564   3.541
27589SOL     OW82790   3.954  10.744   2.400
27589SOL    HW182791   3.928  10.840   2.400
27589SOL    HW282792   3.883  10.690   2.445
27590SOL     OW82793   3.964  10.401   2.748
27590SOL    HW182794   3.978  10.317   2.800
27590SOL    HW282795   3.909  10.465   2.803
27591SOL     OW82796   4.344  11.096   3.301
27591SOL    HW182797   4.252  11.079   3.336
27591SOL    HW282798   4.372  11.188   3.327
27592SOL     OW82799   4.330  10.274   1.985
27592SOL    HW182800   4.337  10.358   1.931
27592SOL    HW282801   4.376  10.287   2.073
27593SOL     OW82802   5.318   9.424   3.342
27593SOL    HW182803   5.300   9.491   3.270
27593SOL    HW282804   5.315   9.470   3.431
27594SOL     OW82805   3.846   9.953   2.425
27594SOL    HW182806   3.801   9.865   2.442
27594SOL    HW282807   3.845  10.007   2.509
27595SOL     OW82808   5.566  11.077   2.221
27595SOL    HW182809   5.620  11.048   2.301
27595SOL    HW282810   5.596  11.167   2.192
27596SOL     OW82811   3.751  10.906   1.979
27596SOL    HW182812   3.732  10.810   2.000
27596SOL    HW282813   3.718  10.964   2.054
27597SOL     OW82814   5.413  10.232   2.474
27597SOL    HW182815   5.508  10.203   2.482
27597SOL    HW282816   5.405  10.297   2.399
27598SOL     OW82817   5.365  10.418   2.294
27598SOL    HW182818   5.451  10.420   2.242
27598SOL    HW282819   5.379  10.465   2.382
27599SOL     OW82820   3.837  10.047   3.459
27599SOL    HW182821   3.925  10.034   3.504
27599SOL    HW282822   3.824  10.144   3.437
27600SOL     OW82823   4.337  10.675   2.588
27600SOL    HW182824   4.288  10.588   2.597
27600SOL    HW282825   4.314  10.718   2.501
27601SOL     OW82826   5.017  10.538   3.285
27601SOL    HW182827   5.054  10.465   3.227
27601SOL    HW282828   5.069  10.543   3.370
27602SOL     OW82829   4.533   9.314   2.364
27602SOL    HW182830   4.573   9.405   2.355
27602SOL    HW282831   4.433   9.322   2.370
27603SOL     OW82832   3.921  10.286   3.126
27603SOL    HW182833   4.010  10.241   3.112
27603SOL    HW282834   3.848  10.221   3.107
27604SOL     OW82835   5.249  10.309   2.052
27604SOL    HW182836   5.186  10.233   2.065
27604SOL    HW282837   5.297  10.327   2.138
27605SOL     OW82838   4.911  11.102   3.478
27605SOL    HW182839   4.935  11.162   3.402
27605SOL    HW282840   4.918  11.007   3.448
27606SOL     OW82841   4.041   9.561   3.663
27606SOL    HW182842   4.112   9.632   3.669
27606SOL    HW282843   3.953   9.600   3.691
27607SOL     OW82844   5.190  10.727   2.815
27607SOL    HW182845   5.131  10.733   2.895
27607SOL    HW282846   5.175  10.639   2.769
27608SOL     OW82847   5.391  11.024   2.434
27608SOL    HW182848   5.350  11.001   2.346
27608SOL    HW282849   5.373  10.950   2.499
27609SOL     OW82850   4.322  10.039   2.132
27609SOL    HW182851   4.346  10.108   2.064
27609SOL    HW282852   4.244  10.072   2.186
27610SOL     OW82853   5.005   9.655   2.806
27610SOL    HW182854   4.919   9.605   2.793
27610SOL    HW282855   5.067   9.601   2.862
27611SOL     OW82856   5.300  10.972   2.169
27611SOL    HW182857   5.389  11.018   2.172
27611SOL    HW282858   5.279  10.948   2.074
27612SOL     OW82859   4.531   9.915   3.327
27612SOL    HW182860   4.484   9.912   3.416
27612SOL    HW282861   4.480   9.860   3.261
27613SOL     OW82862   5.118   9.779   3.536
27613SOL    HW182863   5.098   9.822   3.624
27613SOL    HW282864   5.196   9.717   3.545
27614SOL     OW82865   4.697  10.200   3.434
27614SOL    HW182866   4.743  10.116   3.405
27614SOL    HW282867   4.641  10.234   3.359
27615SOL     OW82868   4.715   9.720   3.104
27615SOL    HW182869   4.638   9.754   3.158
27615SOL    HW282870   4.681   9.669   3.025
27616SOL     OW82871   4.765  10.011   2.291
27616SOL    HW182872   4.791  10.007   2.387
27616SOL    HW282873   4.680   9.960   2.277
27617SOL     OW82874   3.800  10.121   2.651
27617SOL    HW182875   3.899  10.109   2.660
27617SOL    HW282876   3.776  10.216   2.672
27618SOL     OW82877   3.854  11.131   3.433
27618SOL    HW182878   3.844  11.116   3.532
27618SOL    HW282879   3.768  11.167   3.397
27619SOL     OW82880   4.589   9.658   2.057
27619SOL    HW182881   4.648   9.721   2.008
27619SOL    HW282882   4.608   9.564   2.028
27620SOL     OW82883   5.443   9.895   3.693
27620SOL    HW182884   5.417   9.984   3.657
27620SOL    HW282885   5.441   9.827   3.620
27621SOL     OW82886   5.086  10.454   2.407
27621SOL    HW182887   5.169  10.425   2.359
27621SOL    HW282888   5.037  10.521   2.351
27622SOL     OW82889   4.274   9.506   2.747
27622SOL    HW182890   4.269   9.501   2.847
27622SOL    HW282891   4.276   9.602   2.718
27623SOL     OW82892   4.732  10.766   2.339
27623SOL    HW182893   4.686  10.838   2.287
27623SOL    HW282894   4.728  10.786   2.437
27624SOL     OW82895   4.075  11.111   2.715
27624SOL    HW182896   4.125  11.025   2.721
27624SOL    HW282897   4.140  11.188   2.712
27625SOL     OW82898   5.519  10.376   2.735
27625SOL    HW182899   5.457  10.361   2.659
27625SOL    HW282900   5.467  10.387   2.820
27626SOL     OW82901   4.951  10.860   3.368
27626SOL    HW182902   4.957  10.783   3.432
27626SOL    HW282903   4.899  10.834   3.288
27627SOL     OW82904   4.045  10.253   2.104
27627SOL    HW182905   4.127  10.292   2.062
27627SOL    HW282906   4.018  10.171   2.055
27628SOL     OW82907   5.182  10.045   2.590
27628SOL    HW182908   5.177   9.980   2.665
27628SOL    HW282909   5.262  10.104   2.603
27629SOL     OW82910   4.185  10.576   3.589
27629SOL    HW182911   4.135  10.577   3.503
27629SOL    HW282912   4.122  10.558   3.665
27630SOL     OW82913   4.835  11.086   2.099
27630SOL    HW182914   4.775  11.024   2.149
27630SOL    HW282915   4.866  11.042   2.014
27631SOL     OW82916   3.926   9.595   3.360
27631SOL    HW182917   3.846   9.655   3.347
27631SOL    HW282918   3.916   9.546   3.446
27632SOL     OW82919   5.356  10.687   1.943
27632SOL    HW182920   5.324  10.781   1.933
27632SOL    HW282921   5.280  10.624   1.931
27633SOL     OW82922   4.188  11.053   2.185
27633SOL    HW182923   4.221  11.092   2.271
27633SOL    HW282924   4.264  11.046   2.120
27634SOL     OW82925   5.124   9.417   2.288
27634SOL    HW182926   5.100   9.380   2.198
27634SOL    HW282927   5.223   9.433   2.292
27635SOL     OW82928   3.973  11.095   3.103
27635SOL    HW182929   4.030  11.030   3.153
27635SOL    HW282930   3.957  11.062   3.010
27636SOL     OW82931   4.664  11.008   2.766
27636SOL    HW182932   4.744  10.951   2.787
27636SOL    HW282933   4.615  10.968   2.689
27637SOL     OW82934   4.106  10.010   2.342
27637SOL    HW182935   4.151   9.920   2.339
27637SOL    HW282936   4.012   9.999   2.375
27638SOL     OW82937   5.271   9.532   3.591
27638SOL    HW182938   5.266   9.569   3.683
27638SOL    HW282939   5.199   9.463   3.579
27639SOL     OW82940   4.338   9.432   1.979
27639SOL    HW182941   4.436   9.410   1.986
27639SOL    HW282942   4.307   9.415   1.886
27640SOL     OW82943   4.505   9.574   3.611
27640SOL    HW182944   4.572   9.513   3.654
27640SOL    HW282945   4.432   9.593   3.676
27641SOL     OW82946   4.612  10.824   3.057
27641SOL    HW182947   4.589  10.799   2.963
27641SOL    HW282948   4.673  10.755   3.096
27642SOL     OW82949   5.075   9.900   3.295
27642SOL    HW182950   5.103   9.857   3.380
27642SOL    HW282951   5.100   9.996   3.296
27643SOL     OW82952   4.527  10.712   2.786
27643SOL    HW182953   4.617  10.726   2.744
27643SOL    HW282954   4.456  10.714   2.715
27644SOL     OW82955   4.646   9.813   2.761
27644SOL    HW182956   4.621   9.804   2.665
27644SOL    HW282957   4.694   9.731   2.792
27645SOL     OW82958   4.263   9.374   2.374
27645SOL    HW182959   4.182   9.375   2.432
27645SOL    HW282960   4.266   9.457   2.319
27646SOL     OW82961   5.158  10.498   1.903
27646SOL    HW182962   5.190  10.422   1.960
27646SOL    HW282963   5.066  10.525   1.933
27647SOL     OW82964   4.021   9.345   2.033
27647SOL    HW182965   4.070   9.429   2.012
27647SOL    HW282966   4.083   9.280   2.078
27648SOL     OW82967   4.659   9.546   2.342
27648SOL    HW182968   4.611   9.587   2.264
27648SOL    HW282969   4.758   9.544   2.323
27649SOL     OW82970   4.800   9.993   3.326
27649SOL    HW182971   4.720   9.932   3.329
27649SOL    HW282972   4.881   9.940   3.302
27650SOL     OW82973   4.951  10.880   2.655
27650SOL    HW182974   4.972  10.954   2.590
27650SOL    HW282975   5.019  10.880   2.728
27651SOL     OW82976   4.183  10.462   2.603
27651SOL    HW182977   4.112  10.435   2.668
27651SOL    HW282978   4.157  10.434   2.510
27652SOL     OW82979   4.995  11.107   2.453
27652SOL    HW182980   5.039  11.171   2.389
27652SOL    HW282981   4.945  11.159   2.523
27653SOL     OW82982   4.756   9.859   1.878
27653SOL    HW182983   4.715   9.941   1.839
27653SOL    HW282984   4.820   9.885   1.951
27654SOL     OW82985   3.802   9.866   3.248
27654SOL    HW182986   3.894   9.865   3.207
27654SOL    HW282987   3.796   9.940   3.315
27655SOL     OW82988   4.285   9.532   3.009
27655SOL    HW182989   4.323   9.448   3.046
27655SOL    HW282990   4.197   9.551   3.053
27656SOL     OW82991   4.590   9.764   2.504
27656SOL    HW182992   4.558   9.836   2.442
27656SOL    HW282993   4.614   9.683   2.451
27657SOL     OW82994   4.741   9.349   2.615
27657SOL    HW182995   4.669   9.354   2.546
27657SOL    HW282996   4.717   9.280   2.684
27658SOL     OW82997   5.153  10.483   2.729
27658SOL    HW182998   5.098  10.399   2.722
27658SOL    HW282999   5.179  10.512   2.637
27659SOL     OW83000   5.190   9.900   2.854
27659SOL    HW183001   5.160   9.805   2.861
27659SOL    HW283002   5.263   9.916   2.920
27660SOL     OW83003   5.581  10.143   2.239
27660SOL    HW183004   5.623  10.079   2.303
27660SOL    HW283005   5.543  10.092   2.161
27661SOL     OW83006   4.212  10.695   2.036
27661SOL    HW183007   4.125  10.680   2.083
27661SOL    HW283008   4.195  10.721   1.941
27662SOL     OW83009   5.388  10.590   2.519
27662SOL    HW183010   5.487  10.598   2.533
27662SOL    HW283011   5.343  10.674   2.550
27663SOL     OW83012   5.114   9.885   1.940
27663SOL    HW183013   5.060   9.864   2.021
27663SOL    HW283014   5.205   9.844   1.949
27664SOL     OW83015   4.251   9.566   2.190
27664SOL    HW183016   4.278   9.507   2.115
27664SOL    HW283017   4.251   9.661   2.159
27665SOL     OW83018   5.478  10.533   3.450
27665SOL    HW183019   5.569  10.494   3.437
27665SOL    HW283020   5.486  10.629   3.474
27666SOL     OW83021   4.788  10.657   3.202
27666SOL    HW183022   4.708  10.634   3.257
27666SOL    HW283023   4.871  10.631   3.251
27667SOL     OW83024   5.316  10.939   3.487
27667SOL    HW183025   5.343  10.973   3.397
27667SOL    HW283026   5.395  10.901   3.533
27668SOL     OW83027   4.835  10.505   2.962
27668SOL    HW183028   4.795  10.549   3.043
27668SOL    HW283029   4.794  10.542   2.879
27669SOL     OW83030   5.362  10.409   2.941
27669SOL    HW183031   5.367  10.490   3.000
27669SOL    HW283032   5.276  10.411   2.890
27670SOL     OW83033   4.639   9.399   3.264
27670SOL    HW183034   4.664   9.379   3.169
27670SOL    HW283035   4.711   9.455   3.306
27671SOL     OW83036   4.704  10.426   3.581
27671SOL    HW183037   4.605  10.432   3.591
27671SOL    HW283038   4.727  10.346   3.525
27672SOL     OW83039   4.429  10.360   2.230
27672SOL    HW183040   4.415  10.367   2.329
27672SOL    HW283041   4.513  10.309   2.212
27673SOL     OW83042   4.134  10.123   3.113
27673SOL    HW183043   4.220  10.135   3.163
27673SOL    HW283044   4.092  10.036   3.140
27674SOL     OW83045   4.998   9.696   3.124
27674SOL    HW183046   5.019   9.770   3.188
27674SOL    HW283047   4.909   9.713   3.081
27675SOL     OW83048   3.788  10.874   3.193
27675SOL    HW183049   3.742  10.956   3.159
27675SOL    HW283050   3.886  10.893   3.202
27676SOL     OW83051   4.091  10.410   2.363
27676SOL    HW183052   4.084  10.493   2.307
27676SOL    HW283053   4.095  10.330   2.303
27677SOL     OW83054   4.290   9.847   2.727
27677SOL    HW183055   4.302   9.913   2.653
27677SOL    HW283056   4.336   9.881   2.810
27678SOL     OW83057   4.976  10.658   2.250
27678SOL    HW183058   5.026  10.735   2.290
27678SOL    HW283059   4.881  10.660   2.282
27679SOL     OW83060   4.996  10.755   3.004
27679SOL    HW183061   5.043  10.768   3.091
27679SOL    HW283062   4.930  10.681   3.013
27680SOL     OW83063   5.306   9.949   2.334
27680SOL    HW183064   5.275  10.010   2.407
27680SOL    HW283065   5.356  10.001   2.265
27681SOL     OW83066   4.078  10.820   3.191
27681SOL    HW183067   4.057  10.776   3.104
27681SOL    HW283068   4.175  10.846   3.194
27682SOL     OW83069   4.126  10.061   3.460
27682SOL    HW183070   4.194  10.116   3.413
27682SOL    HW283071   4.166   9.973   3.487
27683SOL     OW83072   5.311  10.089   3.532
27683SOL    HW183073   5.219  10.127   3.527
27683SOL    HW283074   5.371  10.136   3.467
27684SOL     OW83075   4.737   9.415   3.632
27684SOL    HW183076   4.743   9.500   3.580
27684SOL    HW283077   4.769   9.339   3.575
27685SOL     OW83078   4.228   9.360   3.602
27685SOL    HW183079   4.186   9.303   3.532
27685SOL    HW283080   4.162   9.429   3.634
27686SOL     OW83081   4.297  10.180   2.891
27686SOL    HW183082   4.341  10.269   2.882
27686SOL    HW283083   4.234  10.180   2.968
27687SOL     OW83084   5.084  10.172   2.907
27687SOL    HW183085   5.009  10.172   2.841
27687SOL    HW283086   5.121  10.080   2.916
27688SOL     OW83087   4.933   9.835   2.137
27688SOL    HW183088   4.946   9.751   2.191
27688SOL    HW283089   4.904   9.909   2.197
27689SOL     OW83090   4.031   9.523   3.093
27689SOL    HW183091   4.008   9.560   3.183
27689SOL    HW283092   4.001   9.428   3.087
27690SOL     OW83093   3.761  10.620   3.144
27690SOL    HW183094   3.814  10.571   3.212
27690SOL    HW283095   3.783  10.718   3.149
27691SOL     OW83096   4.456   9.944   2.926
27691SOL    HW183097   4.515   9.918   2.850
27691SOL    HW283098   4.428  10.040   2.915
27692SOL     OW83099   5.452  10.245   3.716
27692SOL    HW183100   5.406  10.238   3.627
27692SOL    HW283101   5.390  10.289   3.782
27693SOL     OW83102   4.031   9.373   2.480
27693SOL    HW183103   4.020   9.467   2.513
27693SOL    HW283104   4.026   9.310   2.557
27694SOL     OW83105   5.346   9.677   2.236
27694SOL    HW183106   5.348   9.601   2.300
27694SOL    HW283107   5.298   9.754   2.276
27695SOL     OW83108   4.747  10.076   2.828
27695SOL    HW183109   4.762  10.097   2.924
27695SOL    HW283110   4.717   9.981   2.819
27696SOL     OW83111   4.704  10.883   3.562
27696SOL    HW183112   4.684  10.927   3.474
27696SOL    HW283113   4.743  10.792   3.546
27697SOL     OW83114   5.583  10.828   3.467
27697SOL    HW183115   5.597  10.855   3.372
27697SOL    HW283116   5.666  10.850   3.520
27698SOL     OW83117   4.074  10.208   3.666
27698SOL    HW183118   4.150  10.252   3.714
27698SOL    HW283119   4.109  10.161   3.584
27699SOL     OW83120   5.264   9.584   1.987
27699SOL    HW183121   5.203   9.509   2.010
27699SOL    HW283122   5.286   9.636   2.070
27700SOL     OW83123   5.027  10.148   1.904
27700SOL    HW183124   5.061  10.055   1.919
27700SOL    HW283125   5.045  10.175   1.809
27701SOL     OW83126   4.792  10.643   2.711
27701SOL    HW183127   4.799  10.559   2.656
27701SOL    HW283128   4.854  10.712   2.675
27702SOL     OW83129   4.043  10.120   2.811
27702SOL    HW183130   4.136  10.156   2.816
27702SOL    HW283131   4.037  10.035   2.863
27703SOL     OW83132   4.063   9.819   2.868
27703SOL    HW183133   4.011   9.736   2.851
27703SOL    HW283134   4.140   9.824   2.804
27704SOL     OW83135   4.862   9.690   3.540
27704SOL    HW183136   4.817   9.753   3.604
27704SOL    HW283137   4.955   9.721   3.523
27705SOL     OW83138   4.884   9.517   3.339
27705SOL    HW183139   4.884   9.581   3.416
27705SOL    HW283140   4.912   9.565   3.256
27706SOL     OW83141   3.732  10.636   2.062
27706SOL    HW183142   3.639  10.657   2.031
27706SOL    HW283143   3.742  10.537   2.075
27707SOL     OW83144   3.812  11.111   2.789
27707SOL    HW183145   3.770  11.025   2.762
27707SOL    HW283146   3.906  11.114   2.755
27708SOL     OW83147   4.228  10.878   2.772
27708SOL    HW183148   4.294  10.952   2.781
27708SOL    HW283149   4.272  10.799   2.730
27709SOL     OW83150   4.726  10.106   3.100
27709SOL    HW183151   4.767  10.074   3.186
27709SOL    HW283152   4.630  10.079   3.097
27710SOL     OW83153   3.764   9.854   2.976
27710SOL    HW183154   3.849   9.821   2.935
27710SOL    HW283155   3.777   9.869   3.074
27711SOL     OW83156   3.913   9.830   3.584
27711SOL    HW183157   3.972   9.790   3.514
27711SOL    HW283158   3.855   9.901   3.543
27712SOL     OW83159   5.093  10.260   3.522
27712SOL    HW183160   5.132  10.349   3.542
27712SOL    HW283161   5.103  10.240   3.425
27713SOL     OW83162   4.539   9.882   2.187
27713SOL    HW183163   4.546   9.793   2.141
27713SOL    HW283164   4.445   9.916   2.179
27714SOL     OW83165   5.381   9.914   3.068
27714SOL    HW183166   5.343   9.845   3.130
27714SOL    HW283167   5.463   9.878   3.024
27715SOL     OW83168   3.976  10.874   3.606
27715SOL    HW183169   3.946  10.931   3.682
27715SOL    HW283170   3.969  10.777   3.632
27716SOL     OW83171   4.395   9.774   3.131
27716SOL    HW183172   4.361   9.685   3.101
27716SOL    HW283173   4.421   9.828   3.051
27717SOL     OW83174   4.654  10.988   3.327
27717SOL    HW183175   4.630  10.970   3.232
27717SOL    HW283176   4.684  11.082   3.337
27718SOL     OW83177   4.197   9.810   2.053
27718SOL    HW183178   4.258   9.890   2.057
27718SOL    HW283179   4.102   9.841   2.060
27719SOL     OW83180   3.883  10.447   3.328
27719SOL    HW183181   3.905  10.386   3.404
27719SOL    HW283182   3.893  10.398   3.242
27720SOL     OW83183   5.071  10.369   3.096
27720SOL    HW183184   5.095  10.306   3.022
27720SOL    HW283185   4.981  10.409   3.078
27721SOL     OW83186   5.026  10.165   2.171
27721SOL    HW183187   4.940  10.134   2.213
27721SOL    HW283188   5.022  10.151   2.072
27722SOL     OW83189   5.483  11.057   3.016
27722SOL    HW183190   5.544  11.087   2.943
27722SOL    HW283191   5.445  10.968   2.994
27723SOL     OW83192   4.976  11.041   2.990
27723SOL    HW183193   5.060  11.046   2.936
27723SOL    HW283194   4.953  10.945   3.008
27724SOL     OW83195   3.807  10.568   2.884
27724SOL    HW183196   3.802  10.567   2.984
27724SOL    HW283197   3.724  10.527   2.846
27725SOL     OW83198   4.412  10.972   3.578
27725SOL    HW183199   4.356  11.053   3.587
27725SOL    HW283200   4.464  10.976   3.492
27726SOL     OW83201   5.450   9.445   2.385
27726SOL    HW183202   5.523   9.428   2.318
27726SOL    HW283203   5.419   9.358   2.423
27727SOL     OW83204   5.112  10.883   2.339
27727SOL    HW183205   5.179  10.895   2.265
27727SOL    HW283206   5.072  10.972   2.362
27728SOL     OW83207   3.854  11.104   3.713
27728SOL    HW183208   3.813  11.030   3.766
27728SOL    HW283209   3.918  11.155   3.771
27729SOL     OW83210   5.004  10.237   2.534
27729SOL    HW183211   5.064  10.156   2.536
27729SOL    HW283212   5.044  10.306   2.474
27730SOL     OW83213   4.554  10.583   3.284
27730SOL    HW183214   4.549  10.616   3.379
27730SOL    HW283215   4.468  10.602   3.238
27731SOL     OW83216   4.396  10.926   2.016
27731SOL    HW183217   4.405  10.936   1.917
27731SOL    HW283218   4.356  10.837   2.037
27732SOL     OW83219   5.374  11.030   3.256
27732SOL    HW183220   5.427  11.040   3.172
27732SOL    HW283221   5.347  11.120   3.290
27733SOL     OW83222   5.565   9.485   2.825
27733SOL    HW183223   5.604   9.400   2.789
27733SOL    HW283224   5.467   9.487   2.806
27734SOL     OW83225   3.987   9.636   2.582
27734SOL    HW183226   3.908   9.687   2.548
27734SOL    HW283227   3.978   9.621   2.680
27735SOL     OW83228   4.918  10.922   1.893
27735SOL    HW183229   4.924  10.829   1.930
27735SOL    HW283230   4.859  10.922   1.813
27736SOL     OW83231   4.546  10.312   3.234
27736SOL    HW183232   4.586  10.311   3.142
27736SOL    HW283233   4.556  10.404   3.274
27737SOL     OW83234   4.640  10.220   2.153
27737SOL    HW183235   4.703  10.258   2.085
27737SOL    HW283236   4.680  10.137   2.192
27738SOL     OW83237   5.228  10.917   1.906
27738SOL    HW183238   5.136  10.954   1.913
27738SOL    HW283239   5.266  10.937   1.816
27739SOL     OW83240   4.096  10.598   3.352
27739SOL    HW183241   4.083  10.691   3.318
27739SOL    HW283242   4.012  10.546   3.339
27740SOL     OW83243   5.338  10.602   3.151
27740SOL    HW183244   5.398  10.605   3.231
27740SOL    HW283245   5.263  10.666   3.164
27741SOL     OW83246   4.763  10.408   2.558
27741SOL    HW183247   4.693  10.361   2.612
27741SOL    HW283248   4.822  10.340   2.515
27742SOL     OW83249   4.738   9.546   2.833
27742SOL    HW183250   4.730   9.510   2.740
27742SOL    HW283251   4.736   9.470   2.898
27743SOL     OW83252   4.314  10.797   2.353
27743SOL    HW183253   4.356  10.739   2.283
27743SOL    HW283254   4.270  10.876   2.309
27744SOL     OW83255   5.433   9.695   3.243
27744SOL    HW183256   5.506   9.764   3.247
27744SOL    HW283257   5.461   9.620   3.184
27745SOL     OW83258   3.979  10.658   2.152
27745SOL    HW183259   3.883  10.659   2.125
27745SOL    HW283260   3.991  10.711   2.236
27746SOL     OW83261   3.829  10.323   3.588
27746SOL    HW183262   3.752  10.290   3.642
27746SOL    HW283263   3.914  10.293   3.630
27747SOL     OW83264   4.396   9.513   3.351
27747SOL    HW183265   4.486   9.497   3.311
27747SOL    HW283266   4.404   9.518   3.450
27748SOL     OW83267   3.799   9.655   1.895
27748SOL    HW183268   3.707   9.627   1.866
27748SOL    HW283269   3.830   9.732   1.839
27749SOL     OW83270   5.164  10.166   3.260
27749SOL    HW183271   5.107  10.218   3.197
27749SOL    HW283272   5.260  10.178   3.236
27750SOL     OW83273   3.796   9.476   2.180
27750SOL    HW183274   3.779   9.559   2.126
27750SOL    HW283275   3.886   9.439   2.158
27751SOL     OW83276   4.907  10.645   1.981
27751SOL    HW183277   4.808  10.634   1.983
27751SOL    HW283278   4.941  10.660   2.074
27752SOL     OW83279   4.337  10.152   3.293
27752SOL    HW183280   4.393  10.233   3.276
27752SOL    HW283281   4.396  10.072   3.296
27753SOL     OW83282   5.217  11.077   2.821
27753SOL    HW183283   5.250  11.141   2.752
27753SOL    HW283284   5.283  11.071   2.896
27754SOL     OW83285   4.440   9.875   3.570
27754SOL    HW183286   4.459   9.940   3.644
27754SOL    HW283287   4.500   9.795   3.579
27755SOL     OW83288   5.174  10.530   3.495
27755SOL    HW183289   5.165  10.520   3.594
27755SOL    HW283290   5.270  10.523   3.469
27756SOL     OW83291   4.114  11.051   3.422
27756SOL    HW183292   4.023  11.092   3.420
27756SOL    HW283293   4.107  10.957   3.454
27757SOL     OW83294   5.398  10.193   3.116
27757SOL    HW183295   5.371  10.104   3.079
27757SOL    HW283296   5.399  10.261   3.043
27758SOL     OW83297   4.949   9.635   2.311
27758SOL    HW183298   5.014   9.561   2.300
27758SOL    HW283299   4.969   9.685   2.395
27759SOL     OW83300   4.318  10.055   2.514
27759SOL    HW183301   4.368  10.140   2.495
27759SOL    HW283302   4.230  10.057   2.466
27760SOL     OW83303   5.501   9.652   3.504
27760SOL    HW183304   5.484   9.683   3.410
27760SOL    HW283305   5.417   9.615   3.542
27761SOL     OW83306   5.454  10.244   3.379
27761SOL    HW183307   5.492  10.335   3.394
27761SOL    HW283308   5.446  10.227   3.280
27762SOL     OW83309   4.583  10.684   1.878
27762SOL    HW183310   4.537  10.699   1.966
27762SOL    HW283311   4.627  10.769   1.848
27763SOL     OW83312   4.385  11.100   2.815
27763SOL    HW183313   4.339  11.188   2.802
27763SOL    HW283314   4.484  11.112   2.808
27764SOL     OW83315   4.583  10.266   2.723
27764SOL    HW183316   4.637  10.197   2.771
27764SOL    HW283317   4.551  10.335   2.789
27765SOL     OW83318   4.807  10.294   1.949
27765SOL    HW183319   4.784  10.347   1.867
27765SOL    HW283320   4.888  10.238   1.930
27766SOL     OW83321   5.585  10.879   2.713
27766SOL    HW183322   5.514  10.867   2.643
27766SOL    HW283323   5.586  10.800   2.773
27767SOL     OW83324   3.945  10.624   3.706
27767SOL    HW183325   3.880  10.551   3.685
27767SOL    HW283326   3.949  10.638   3.804
27768SOL     OW83327   3.803  10.550   2.515
27768SOL    HW183328   3.802  10.503   2.603
27768SOL    HW283329   3.885  10.522   2.464
27769SOL     OW83330   4.396  10.701   3.486
27769SOL    HW183331   4.318  10.651   3.524
27769SOL    HW283332   4.393  10.796   3.517
27770SOL     OW83333   5.548   9.502   3.089
27770SOL    HW183334   5.544   9.412   3.133
27770SOL    HW283335   5.551   9.491   2.990
27771SOL     OW83336   4.152   9.734   2.382
27771SOL    HW183337   4.182   9.662   2.320
27771SOL    HW283338   4.113   9.694   2.465
27772SOL     OW83339   5.429  10.797   2.966
27772SOL    HW183340   5.336  10.772   2.939
27772SOL    HW283341   5.455  10.747   3.048
27773SOL     OW83342   4.041   9.857   3.142
27773SOL    HW183343   4.079   9.798   3.214
27773SOL    HW283344   4.081   9.831   3.054
27774SOL     OW83345   4.536  10.896   2.549
27774SOL    HW183346   4.568  10.906   2.455
27774SOL    HW283347   4.457  10.834   2.551
27775SOL     OW83348   5.148   9.524   2.974
27775SOL    HW183349   5.200   9.459   3.029
27775SOL    HW283350   5.099   9.587   3.035
27776SOL     OW83351   4.725   9.344   3.016
27776SOL    HW183352   4.662   9.272   2.985
27776SOL    HW283353   4.818   9.308   3.016
27777SOL     OW83354   4.494  10.640   2.163
27777SOL    HW183355   4.448  10.553   2.180
27777SOL    HW283356   4.585  10.637   2.204
27778SOL     OW83357   4.342  10.877   3.146
27778SOL    HW183358   4.337  10.959   3.203
27778SOL    HW283359   4.431  10.874   3.101
27779SOL     OW83360   5.076   9.362   2.030
27779SOL    HW183361   5.111   9.321   1.946
27779SOL    HW283362   4.986   9.324   2.050
27780SOL     OW83363   5.024   9.763   2.553
27780SOL    HW183364   4.965   9.843   2.557
27780SOL    HW283365   5.039   9.728   2.646
27781SOL     OW83366   5.317   9.531   2.744
27781SOL    HW183367   5.233   9.530   2.798
27781SOL    HW283368   5.319   9.614   2.688
27782SOL     OW83369   3.763  10.387   2.162
27782SOL    HW183370   3.862  10.376   2.153
27782SOL    HW283371   3.723  10.301   2.194
27783SOL     OW83372   4.599  10.956   2.199
27783SOL    HW183373   4.522  10.921   2.145
27783SOL    HW283374   4.567  11.027   2.261
27784SOL     OW83375   3.954   9.938   3.837
27784SOL    HW183376   3.861   9.936   3.874
27784SOL    HW283377   3.955   9.899   3.745
27785SOL     OW83378   3.949   9.585   4.720
27785SOL    HW183379   3.984   9.568   4.812
27785SOL    HW283380   3.861   9.540   4.708
27786SOL     OW83381   3.743   9.678   4.371
27786SOL    HW183382   3.661   9.721   4.410
27786SOL    HW283383   3.715   9.605   4.308
27787SOL     OW83384   4.293  10.585   4.889
27787SOL    HW183385   4.200  10.578   4.852
27787SOL    HW283386   4.304  10.674   4.933
27788SOL     OW83387   5.279  10.821   4.427
27788SOL    HW183388   5.222  10.805   4.508
27788SOL    HW283389   5.220  10.831   4.347
27789SOL     OW83390   4.859  10.013   4.441
27789SOL    HW183391   4.916  10.091   4.416
27789SOL    HW283392   4.799  10.039   4.517
27790SOL     OW83393   5.479   9.917   3.955
27790SOL    HW183394   5.467   9.904   3.856
27790SOL    HW283395   5.449   9.836   4.004
27791SOL     OW83396   4.492  10.454   4.747
27791SOL    HW183397   4.414  10.471   4.807
27791SOL    HW283398   4.526  10.541   4.711
27792SOL     OW83399   4.574  10.108   5.547
27792SOL    HW183400   4.570  10.184   5.612
27792SOL    HW283401   4.596  10.144   5.456
27793SOL     OW83402   4.409  10.322   4.389
27793SOL    HW183403   4.478  10.306   4.459
27793SOL    HW283404   4.336  10.379   4.427
27794SOL     OW83405   4.410  10.471   5.527
27794SOL    HW183406   4.470  10.550   5.541
27794SOL    HW283407   4.324  10.502   5.486
27795SOL     OW83408   4.059  10.745   4.785
27795SOL    HW183409   3.981  10.714   4.732
27795SOL    HW283410   4.117  10.803   4.728
27796SOL     OW83411   5.184  10.815   5.063
27796SOL    HW183412   5.208  10.909   5.089
27796SOL    HW283413   5.168  10.761   5.145
27797SOL     OW83414   4.162   9.702   5.223
27797SOL    HW183415   4.244   9.646   5.232
27797SOL    HW283416   4.081   9.644   5.227
27798SOL     OW83417   5.327   9.757   4.461
27798SOL    HW183418   5.253   9.803   4.411
27798SOL    HW283419   5.378   9.825   4.514
27799SOL     OW83420   3.955  11.023   4.207
27799SOL    HW183421   3.989  11.100   4.261
27799SOL    HW283422   3.999  11.023   4.117
27800SOL     OW83423   4.851  10.651   5.414
27800SOL    HW183424   4.898  10.651   5.502
27800SOL    HW283425   4.803  10.564   5.403
27801SOL     OW83426   3.954  10.744   4.262
27801SOL    HW183427   3.928  10.840   4.262
27801SOL    HW283428   3.883  10.690   4.307
27802SOL     OW83429   3.964  10.401   4.610
27802SOL    HW183430   3.978  10.317   4.662
27802SOL    HW283431   3.909  10.465   4.665
27803SOL     OW83432   4.344  11.096   5.163
27803SOL    HW183433   4.252  11.079   5.198
27803SOL    HW283434   4.372  11.188   5.189
27804SOL     OW83435   4.330  10.274   3.847
27804SOL    HW183436   4.337  10.358   3.793
27804SOL    HW283437   4.376  10.287   3.935
27805SOL     OW83438   5.318   9.424   5.204
27805SOL    HW183439   5.300   9.491   5.132
27805SOL    HW283440   5.315   9.470   5.293
27806SOL     OW83441   3.846   9.953   4.287
27806SOL    HW183442   3.801   9.865   4.304
27806SOL    HW283443   3.845  10.007   4.371
27807SOL     OW83444   5.566  11.077   4.083
27807SOL    HW183445   5.620  11.048   4.163
27807SOL    HW283446   5.596  11.167   4.054
27808SOL     OW83447   3.751  10.906   3.841
27808SOL    HW183448   3.732  10.810   3.862
27808SOL    HW283449   3.718  10.964   3.916
27809SOL     OW83450   5.413  10.232   4.336
27809SOL    HW183451   5.508  10.203   4.344
27809SOL    HW283452   5.405  10.297   4.261
27810SOL     OW83453   5.365  10.418   4.156
27810SOL    HW183454   5.451  10.420   4.104
27810SOL    HW283455   5.379  10.465   4.244
27811SOL     OW83456   3.837  10.047   5.321
27811SOL    HW183457   3.925  10.034   5.366
27811SOL    HW283458   3.824  10.144   5.299
27812SOL     OW83459   4.337  10.675   4.450
27812SOL    HW183460   4.288  10.588   4.459
27812SOL    HW283461   4.314  10.718   4.363
27813SOL     OW83462   5.017  10.538   5.147
27813SOL    HW183463   5.054  10.465   5.089
27813SOL    HW283464   5.069  10.543   5.232
27814SOL     OW83465   4.533   9.314   4.226
27814SOL    HW183466   4.573   9.405   4.217
27814SOL    HW283467   4.433   9.322   4.232
27815SOL     OW83468   3.921  10.286   4.988
27815SOL    HW183469   4.010  10.241   4.974
27815SOL    HW283470   3.848  10.221   4.969
27816SOL     OW83471   5.249  10.309   3.914
27816SOL    HW183472   5.186  10.233   3.927
27816SOL    HW283473   5.297  10.327   4.000
27817SOL     OW83474   4.911  11.102   5.340
27817SOL    HW183475   4.935  11.162   5.264
27817SOL    HW283476   4.918  11.007   5.310
27818SOL     OW83477   4.041   9.561   5.525
27818SOL    HW183478   4.112   9.632   5.531
27818SOL    HW283479   3.953   9.600   5.553
27819SOL     OW83480   5.190  10.727   4.677
27819SOL    HW183481   5.131  10.733   4.757
27819SOL    HW283482   5.175  10.639   4.631
27820SOL     OW83483   5.391  11.024   4.296
27820SOL    HW183484   5.350  11.001   4.208
27820SOL    HW283485   5.373  10.950   4.361
27821SOL     OW83486   4.322  10.039   3.994
27821SOL    HW183487   4.346  10.108   3.926
27821SOL    HW283488   4.244  10.072   4.048
27822SOL     OW83489   5.005   9.655   4.668
27822SOL    HW183490   4.919   9.605   4.655
27822SOL    HW283491   5.067   9.601   4.724
27823SOL     OW83492   5.300  10.972   4.031
27823SOL    HW183493   5.389  11.018   4.034
27823SOL    HW283494   5.279  10.948   3.936
27824SOL     OW83495   4.531   9.915   5.189
27824SOL    HW183496   4.484   9.912   5.278
27824SOL    HW283497   4.480   9.860   5.123
27825SOL     OW83498   5.118   9.779   5.398
27825SOL    HW183499   5.098   9.822   5.486
27825SOL    HW283500   5.196   9.717   5.407
27826SOL     OW83501   4.697  10.200   5.296
27826SOL    HW183502   4.743  10.116   5.267
27826SOL    HW283503   4.641  10.234   5.221
27827SOL     OW83504   4.715   9.720   4.966
27827SOL    HW183505   4.638   9.754   5.020
27827SOL    HW283506   4.681   9.669   4.887
27828SOL     OW83507   4.765  10.011   4.153
27828SOL    HW183508   4.791  10.007   4.249
27828SOL    HW283509   4.680   9.960   4.139
27829SOL     OW83510   3.800  10.121   4.513
27829SOL    HW183511   3.899  10.109   4.522
27829SOL    HW283512   3.776  10.216   4.534
27830SOL     OW83513   3.854  11.131   5.295
27830SOL    HW183514   3.844  11.116   5.394
27830SOL    HW283515   3.768  11.167   5.259
27831SOL     OW83516   4.589   9.658   3.919
27831SOL    HW183517   4.648   9.721   3.870
27831SOL    HW283518   4.608   9.564   3.890
27832SOL     OW83519   5.443   9.895   5.555
27832SOL    HW183520   5.417   9.984   5.519
27832SOL    HW283521   5.441   9.827   5.482
27833SOL     OW83522   5.086  10.454   4.269
27833SOL    HW183523   5.169  10.425   4.221
27833SOL    HW283524   5.037  10.521   4.213
27834SOL     OW83525   4.274   9.506   4.609
27834SOL    HW183526   4.269   9.501   4.709
27834SOL    HW283527   4.276   9.602   4.580
27835SOL     OW83528   4.732  10.766   4.201
27835SOL    HW183529   4.686  10.838   4.149
27835SOL    HW283530   4.728  10.786   4.299
27836SOL     OW83531   4.075  11.111   4.577
27836SOL    HW183532   4.125  11.025   4.583
27836SOL    HW283533   4.140  11.188   4.574
27837SOL     OW83534   5.519  10.376   4.597
27837SOL    HW183535   5.457  10.361   4.521
27837SOL    HW283536   5.467  10.387   4.682
27838SOL     OW83537   4.951  10.860   5.230
27838SOL    HW183538   4.957  10.783   5.294
27838SOL    HW283539   4.899  10.834   5.150
27839SOL     OW83540   4.045  10.253   3.966
27839SOL    HW183541   4.127  10.292   3.924
27839SOL    HW283542   4.018  10.171   3.917
27840SOL     OW83543   5.182  10.045   4.452
27840SOL    HW183544   5.177   9.980   4.527
27840SOL    HW283545   5.262  10.104   4.465
27841SOL     OW83546   4.185  10.576   5.451
27841SOL    HW183547   4.135  10.577   5.365
27841SOL    HW283548   4.122  10.558   5.527
27842SOL     OW83549   4.835  11.086   3.961
27842SOL    HW183550   4.775  11.024   4.011
27842SOL    HW283551   4.866  11.042   3.876
27843SOL     OW83552   3.926   9.595   5.222
27843SOL    HW183553   3.846   9.655   5.209
27843SOL    HW283554   3.916   9.546   5.308
27844SOL     OW83555   5.356  10.687   3.805
27844SOL    HW183556   5.324  10.781   3.795
27844SOL    HW283557   5.280  10.624   3.793
27845SOL     OW83558   4.188  11.053   4.047
27845SOL    HW183559   4.221  11.092   4.133
27845SOL    HW283560   4.264  11.046   3.982
27846SOL     OW83561   5.124   9.417   4.150
27846SOL    HW183562   5.100   9.380   4.060
27846SOL    HW283563   5.223   9.433   4.154
27847SOL     OW83564   3.973  11.095   4.965
27847SOL    HW183565   4.030  11.030   5.015
27847SOL    HW283566   3.957  11.062   4.872
27848SOL     OW83567   4.664  11.008   4.628
27848SOL    HW183568   4.744  10.951   4.649
27848SOL    HW283569   4.615  10.968   4.551
27849SOL     OW83570   4.106  10.010   4.204
27849SOL    HW183571   4.151   9.920   4.201
27849SOL    HW283572   4.012   9.999   4.237
27850SOL     OW83573   5.271   9.532   5.453
27850SOL    HW183574   5.266   9.569   5.545
27850SOL    HW283575   5.199   9.463   5.441
27851SOL     OW83576   4.338   9.432   3.841
27851SOL    HW183577   4.436   9.410   3.848
27851SOL    HW283578   4.307   9.415   3.748
27852SOL     OW83579   4.505   9.574   5.473
27852SOL    HW183580   4.572   9.513   5.516
27852SOL    HW283581   4.432   9.593   5.538
27853SOL     OW83582   4.612  10.824   4.919
27853SOL    HW183583   4.589  10.799   4.825
27853SOL    HW283584   4.673  10.755   4.958
27854SOL     OW83585   5.075   9.900   5.157
27854SOL    HW183586   5.103   9.857   5.242
27854SOL    HW283587   5.100   9.996   5.158
27855SOL     OW83588   4.527  10.712   4.648
27855SOL    HW183589   4.617  10.726   4.606
27855SOL    HW283590   4.456  10.714   4.577
27856SOL     OW83591   4.646   9.813   4.623
27856SOL    HW183592   4.621   9.804   4.527
27856SOL    HW283593   4.694   9.731   4.654
27857SOL     OW83594   4.263   9.374   4.236
27857SOL    HW183595   4.182   9.375   4.294
27857SOL    HW283596   4.266   9.457   4.181
27858SOL     OW83597   5.158  10.498   3.765
27858SOL    HW183598   5.190  10.422   3.822
27858SOL    HW283599   5.066  10.525   3.795
27859SOL     OW83600   4.021   9.345   3.895
27859SOL    HW183601   4.070   9.429   3.874
27859SOL    HW283602   4.083   9.280   3.940
27860SOL     OW83603   4.659   9.546   4.204
27860SOL    HW183604   4.611   9.587   4.126
27860SOL    HW283605   4.758   9.544   4.185
27861SOL     OW83606   4.800   9.993   5.188
27861SOL    HW183607   4.720   9.932   5.191
27861SOL    HW283608   4.881   9.940   5.164
27862SOL     OW83609   4.951  10.880   4.517
27862SOL    HW183610   4.972  10.954   4.452
27862SOL    HW283611   5.019  10.880   4.590
27863SOL     OW83612   4.183  10.462   4.465
27863SOL    HW183613   4.112  10.435   4.530
27863SOL    HW283614   4.157  10.434   4.372
27864SOL     OW83615   4.995  11.107   4.315
27864SOL    HW183616   5.039  11.171   4.251
27864SOL    HW283617   4.945  11.159   4.385
27865SOL     OW83618   4.756   9.859   3.740
27865SOL    HW183619   4.715   9.941   3.701
27865SOL    HW283620   4.820   9.885   3.813
27866SOL     OW83621   3.802   9.866   5.110
27866SOL    HW183622   3.894   9.865   5.069
27866SOL    HW283623   3.796   9.940   5.177
27867SOL     OW83624   4.285   9.532   4.871
27867SOL    HW183625   4.323   9.448   4.908
27867SOL    HW283626   4.197   9.551   4.915
27868SOL     OW83627   4.590   9.764   4.366
27868SOL    HW183628   4.558   9.836   4.304
27868SOL    HW283629   4.614   9.683   4.313
27869SOL     OW83630   4.741   9.349   4.477
27869SOL    HW183631   4.669   9.354   4.408
27869SOL    HW283632   4.717   9.280   4.546
27870SOL     OW83633   5.153  10.483   4.591
27870SOL    HW183634   5.098  10.399   4.584
27870SOL    HW283635   5.179  10.512   4.499
27871SOL     OW83636   5.190   9.900   4.716
27871SOL    HW183637   5.160   9.805   4.723
27871SOL    HW283638   5.263   9.916   4.782
27872SOL     OW83639   5.581  10.143   4.101
27872SOL    HW183640   5.623  10.079   4.165
27872SOL    HW283641   5.543  10.092   4.023
27873SOL     OW83642   4.212  10.695   3.898
27873SOL    HW183643   4.125  10.680   3.945
27873SOL    HW283644   4.195  10.721   3.803
27874SOL     OW83645   5.388  10.590   4.381
27874SOL    HW183646   5.487  10.598   4.395
27874SOL    HW283647   5.343  10.674   4.412
27875SOL     OW83648   5.114   9.885   3.802
27875SOL    HW183649   5.060   9.864   3.883
27875SOL    HW283650   5.205   9.844   3.811
27876SOL     OW83651   4.251   9.566   4.052
27876SOL    HW183652   4.278   9.507   3.977
27876SOL    HW283653   4.251   9.661   4.021
27877SOL     OW83654   5.478  10.533   5.312
27877SOL    HW183655   5.569  10.494   5.299
27877SOL    HW283656   5.486  10.629   5.336
27878SOL     OW83657   4.788  10.657   5.064
27878SOL    HW183658   4.708  10.634   5.119
27878SOL    HW283659   4.871  10.631   5.113
27879SOL     OW83660   5.316  10.939   5.349
27879SOL    HW183661   5.343  10.973   5.259
27879SOL    HW283662   5.395  10.901   5.395
27880SOL     OW83663   4.835  10.505   4.824
27880SOL    HW183664   4.795  10.549   4.905
27880SOL    HW283665   4.794  10.542   4.741
27881SOL     OW83666   5.362  10.409   4.803
27881SOL    HW183667   5.367  10.490   4.862
27881SOL    HW283668   5.276  10.411   4.752
27882SOL     OW83669   4.639   9.399   5.126
27882SOL    HW183670   4.664   9.379   5.031
27882SOL    HW283671   4.711   9.455   5.168
27883SOL     OW83672   4.704  10.426   5.443
27883SOL    HW183673   4.605  10.432   5.453
27883SOL    HW283674   4.727  10.346   5.387
27884SOL     OW83675   4.429  10.360   4.092
27884SOL    HW183676   4.415  10.367   4.191
27884SOL    HW283677   4.513  10.309   4.074
27885SOL     OW83678   4.134  10.123   4.975
27885SOL    HW183679   4.220  10.135   5.025
27885SOL    HW283680   4.092  10.036   5.002
27886SOL     OW83681   4.998   9.696   4.986
27886SOL    HW183682   5.019   9.770   5.050
27886SOL    HW283683   4.909   9.713   4.943
27887SOL     OW83684   3.788  10.874   5.055
27887SOL    HW183685   3.742  10.956   5.021
27887SOL    HW283686   3.886  10.893   5.064
27888SOL     OW83687   4.091  10.410   4.225
27888SOL    HW183688   4.084  10.493   4.169
27888SOL    HW283689   4.095  10.330   4.165
27889SOL     OW83690   4.290   9.847   4.589
27889SOL    HW183691   4.302   9.913   4.515
27889SOL    HW283692   4.336   9.881   4.672
27890SOL     OW83693   4.976  10.658   4.112
27890SOL    HW183694   5.026  10.735   4.152
27890SOL    HW283695   4.881  10.660   4.144
27891SOL     OW83696   4.996  10.755   4.866
27891SOL    HW183697   5.043  10.768   4.953
27891SOL    HW283698   4.930  10.681   4.875
27892SOL     OW83699   5.306   9.949   4.196
27892SOL    HW183700   5.275  10.010   4.269
27892SOL    HW283701   5.356  10.001   4.127
27893SOL     OW83702   4.078  10.820   5.053
27893SOL    HW183703   4.057  10.776   4.966
27893SOL    HW283704   4.175  10.846   5.056
27894SOL     OW83705   4.126  10.061   5.322
27894SOL    HW183706   4.194  10.116   5.275
27894SOL    HW283707   4.166   9.973   5.349
27895SOL     OW83708   5.311  10.089   5.394
27895SOL    HW183709   5.219  10.127   5.389
27895SOL    HW283710   5.371  10.136   5.329
27896SOL     OW83711   4.737   9.415   5.494
27896SOL    HW183712   4.743   9.500   5.442
27896SOL    HW283713   4.769   9.339   5.437
27897SOL     OW83714   4.228   9.360   5.464
27897SOL    HW183715   4.186   9.303   5.394
27897SOL    HW283716   4.162   9.429   5.496
27898SOL     OW83717   4.297  10.180   4.753
27898SOL    HW183718   4.341  10.269   4.744
27898SOL    HW283719   4.234  10.180   4.830
27899SOL     OW83720   5.084  10.172   4.769
27899SOL    HW183721   5.009  10.172   4.703
27899SOL    HW283722   5.121  10.080   4.778
27900SOL     OW83723   4.933   9.835   3.999
27900SOL    HW183724   4.946   9.751   4.053
27900SOL    HW283725   4.904   9.909   4.059
27901SOL     OW83726   4.031   9.523   4.955
27901SOL    HW183727   4.008   9.560   5.045
27901SOL    HW283728   4.001   9.428   4.949
27902SOL     OW83729   3.761  10.620   5.006
27902SOL    HW183730   3.814  10.571   5.074
27902SOL    HW283731   3.783  10.718   5.011
27903SOL     OW83732   4.456   9.944   4.788
27903SOL    HW183733   4.515   9.918   4.712
27903SOL    HW283734   4.428  10.040   4.777
27904SOL     OW83735   5.452  10.245   5.578
27904SOL    HW183736   5.406  10.238   5.489
27904SOL    HW283737   5.390  10.289   5.644
27905SOL     OW83738   4.031   9.373   4.342
27905SOL    HW183739   4.020   9.467   4.375
27905SOL    HW283740   4.026   9.310   4.419
27906SOL     OW83741   5.346   9.677   4.098
27906SOL    HW183742   5.348   9.601   4.162
27906SOL    HW283743   5.298   9.754   4.138
27907SOL     OW83744   4.747  10.076   4.690
27907SOL    HW183745   4.762  10.097   4.786
27907SOL    HW283746   4.717   9.981   4.681
27908SOL     OW83747   4.704  10.883   5.424
27908SOL    HW183748   4.684  10.927   5.336
27908SOL    HW283749   4.743  10.792   5.408
27909SOL     OW83750   5.583  10.828   5.329
27909SOL    HW183751   5.597  10.855   5.234
27909SOL    HW283752   5.666  10.850   5.382
27910SOL     OW83753   4.074  10.208   5.528
27910SOL    HW183754   4.150  10.252   5.576
27910SOL    HW283755   4.109  10.161   5.446
27911SOL     OW83756   5.264   9.584   3.849
27911SOL    HW183757   5.203   9.509   3.872
27911SOL    HW283758   5.286   9.636   3.932
27912SOL     OW83759   5.027  10.148   3.766
27912SOL    HW183760   5.061  10.055   3.781
27912SOL    HW283761   5.045  10.175   3.671
27913SOL     OW83762   4.792  10.643   4.573
27913SOL    HW183763   4.799  10.559   4.518
27913SOL    HW283764   4.854  10.712   4.537
27914SOL     OW83765   4.043  10.120   4.673
27914SOL    HW183766   4.136  10.156   4.678
27914SOL    HW283767   4.037  10.035   4.725
27915SOL     OW83768   4.063   9.819   4.730
27915SOL    HW183769   4.011   9.736   4.713
27915SOL    HW283770   4.140   9.824   4.666
27916SOL     OW83771   4.862   9.690   5.402
27916SOL    HW183772   4.817   9.753   5.466
27916SOL    HW283773   4.955   9.721   5.385
27917SOL     OW83774   4.884   9.517   5.201
27917SOL    HW183775   4.884   9.581   5.278
27917SOL    HW283776   4.912   9.565   5.118
27918SOL     OW83777   3.732  10.636   3.924
27918SOL    HW183778   3.639  10.657   3.893
27918SOL    HW283779   3.742  10.537   3.937
27919SOL     OW83780   3.812  11.111   4.651
27919SOL    HW183781   3.770  11.025   4.624
27919SOL    HW283782   3.906  11.114   4.617
27920SOL     OW83783   4.228  10.878   4.634
27920SOL    HW183784   4.294  10.952   4.643
27920SOL    HW283785   4.272  10.799   4.592
27921SOL     OW83786   4.726  10.106   4.962
27921SOL    HW183787   4.767  10.074   5.048
27921SOL    HW283788   4.630  10.079   4.959
27922SOL     OW83789   3.764   9.854   4.838
27922SOL    HW183790   3.849   9.821   4.797
27922SOL    HW283791   3.777   9.869   4.936
27923SOL     OW83792   3.913   9.830   5.446
27923SOL    HW183793   3.972   9.790   5.376
27923SOL    HW283794   3.855   9.901   5.405
27924SOL     OW83795   5.093  10.260   5.384
27924SOL    HW183796   5.132  10.349   5.404
27924SOL    HW283797   5.103  10.240   5.287
27925SOL     OW83798   4.539   9.882   4.049
27925SOL    HW183799   4.546   9.793   4.003
27925SOL    HW283800   4.445   9.916   4.041
27926SOL     OW83801   5.381   9.914   4.930
27926SOL    HW183802   5.343   9.845   4.992
27926SOL    HW283803   5.463   9.878   4.886
27927SOL     OW83804   3.976  10.874   5.468
27927SOL    HW183805   3.946  10.931   5.544
27927SOL    HW283806   3.969  10.777   5.494
27928SOL     OW83807   4.395   9.774   4.993
27928SOL    HW183808   4.361   9.685   4.963
27928SOL    HW283809   4.421   9.828   4.913
27929SOL     OW83810   4.654  10.988   5.189
27929SOL    HW183811   4.630  10.970   5.094
27929SOL    HW283812   4.684  11.082   5.199
27930SOL     OW83813   4.197   9.810   3.915
27930SOL    HW183814   4.258   9.890   3.919
27930SOL    HW283815   4.102   9.841   3.922
27931SOL     OW83816   3.883  10.447   5.190
27931SOL    HW183817   3.905  10.386   5.266
27931SOL    HW283818   3.893  10.398   5.104
27932SOL     OW83819   5.071  10.369   4.958
27932SOL    HW183820   5.095  10.306   4.884
27932SOL    HW283821   4.981  10.409   4.940
27933SOL     OW83822   5.026  10.165   4.033
27933SOL    HW183823   4.940  10.134   4.075
27933SOL    HW283824   5.022  10.151   3.934
27934SOL     OW83825   5.483  11.057   4.878
27934SOL    HW183826   5.544  11.087   4.805
27934SOL    HW283827   5.445  10.968   4.856
27935SOL     OW83828   4.976  11.041   4.852
27935SOL    HW183829   5.060  11.046   4.798
27935SOL    HW283830   4.953  10.945   4.870
27936SOL     OW83831   3.807  10.568   4.746
27936SOL    HW183832   3.802  10.567   4.846
27936SOL    HW283833   3.724  10.527   4.708
27937SOL     OW83834   4.412  10.972   5.440
27937SOL    HW183835   4.356  11.053   5.449
27937SOL    HW283836   4.464  10.976   5.354
27938SOL     OW83837   5.450   9.445   4.247
27938SOL    HW183838   5.523   9.428   4.180
27938SOL    HW283839   5.419   9.358   4.285
27939SOL     OW83840   5.112  10.883   4.201
27939SOL    HW183841   5.179  10.895   4.127
27939SOL    HW283842   5.072  10.972   4.224
27940SOL     OW83843   3.854  11.104   5.575
27940SOL    HW183844   3.813  11.030   5.628
27940SOL    HW283845   3.918  11.155   5.633
27941SOL     OW83846   5.004  10.237   4.396
27941SOL    HW183847   5.064  10.156   4.398
27941SOL    HW283848   5.044  10.306   4.336
27942SOL     OW83849   4.554  10.583   5.146
27942SOL    HW183850   4.549  10.616   5.241
27942SOL    HW283851   4.468  10.602   5.100
27943SOL     OW83852   4.396  10.926   3.878
27943SOL    HW183853   4.405  10.936   3.779
27943SOL    HW283854   4.356  10.837   3.899
27944SOL     OW83855   5.374  11.030   5.118
27944SOL    HW183856   5.427  11.040   5.034
27944SOL    HW283857   5.347  11.120   5.152
27945SOL     OW83858   5.565   9.485   4.687
27945SOL    HW183859   5.604   9.400   4.651
27945SOL    HW283860   5.467   9.487   4.668
27946SOL     OW83861   3.987   9.636   4.444
27946SOL    HW183862   3.908   9.687   4.410
27946SOL    HW283863   3.978   9.621   4.542
27947SOL     OW83864   4.918  10.922   3.755
27947SOL    HW183865   4.924  10.829   3.792
27947SOL    HW283866   4.859  10.922   3.675
27948SOL     OW83867   4.546  10.312   5.096
27948SOL    HW183868   4.586  10.311   5.004
27948SOL    HW283869   4.556  10.404   5.136
27949SOL     OW83870   4.640  10.220   4.015
27949SOL    HW183871   4.703  10.258   3.947
27949SOL    HW283872   4.680  10.137   4.054
27950SOL     OW83873   5.228  10.917   3.768
27950SOL    HW183874   5.136  10.954   3.775
27950SOL    HW283875   5.266  10.937   3.678
27951SOL     OW83876   4.096  10.598   5.214
27951SOL    HW183877   4.083  10.691   5.180
27951SOL    HW283878   4.012  10.546   5.201
27952SOL     OW83879   5.338  10.602   5.013
27952SOL    HW183880   5.398  10.605   5.093
27952SOL    HW283881   5.263  10.666   5.026
27953SOL     OW83882   4.763  10.408   4.420
27953SOL    HW183883   4.693  10.361   4.474
27953SOL    HW283884   4.822  10.340   4.377
27954SOL     OW83885   4.738   9.546   4.695
27954SOL    HW183886   4.730   9.510   4.602
27954SOL    HW283887   4.736   9.470   4.760
27955SOL     OW83888   4.314  10.797   4.215
27955SOL    HW183889   4.356  10.739   4.145
27955SOL    HW283890   4.270  10.876   4.171
27956SOL     OW83891   5.433   9.695   5.105
27956SOL    HW183892   5.506   9.764   5.109
27956SOL    HW283893   5.461   9.620   5.046
27957SOL     OW83894   3.979  10.658   4.014
27957SOL    HW183895   3.883  10.659   3.987
27957SOL    HW283896   3.991  10.711   4.098
27958SOL     OW83897   3.829  10.323   5.450
27958SOL    HW183898   3.752  10.290   5.504
27958SOL    HW283899   3.914  10.293   5.492
27959SOL     OW83900   4.396   9.513   5.213
27959SOL    HW183901   4.486   9.497   5.173
27959SOL    HW283902   4.404   9.518   5.312
27960SOL     OW83903   3.799   9.655   3.757
27960SOL    HW183904   3.707   9.627   3.728
27960SOL    HW283905   3.830   9.732   3.701
27961SOL     OW83906   5.164  10.166   5.122
27961SOL    HW183907   5.107  10.218   5.059
27961SOL    HW283908   5.260  10.178   5.098
27962SOL     OW83909   3.796   9.476   4.042
27962SOL    HW183910   3.779   9.559   3.988
27962SOL    HW283911   3.886   9.439   4.020
27963SOL     OW83912   4.907  10.645   3.843
27963SOL    HW183913   4.808  10.634   3.845
27963SOL    HW283914   4.941  10.660   3.936
27964SOL     OW83915   4.337  10.152   5.155
27964SOL    HW183916   4.393  10.233   5.138
27964SOL    HW283917   4.396  10.072   5.158
27965SOL     OW83918   5.217  11.077   4.683
27965SOL    HW183919   5.250  11.141   4.614
27965SOL    HW283920   5.283  11.071   4.758
27966SOL     OW83921   4.440   9.875   5.432
27966SOL    HW183922   4.459   9.940   5.506
27966SOL    HW283923   4.500   9.795   5.441
27967SOL     OW83924   5.174  10.530   5.357
27967SOL    HW183925   5.165  10.520   5.456
27967SOL    HW283926   5.270  10.523   5.331
27968SOL     OW83927   4.114  11.051   5.284
27968SOL    HW183928   4.023  11.092   5.282
27968SOL    HW283929   4.107  10.957   5.316
27969SOL     OW83930   5.398  10.193   4.978
27969SOL    HW183931   5.371  10.104   4.941
27969SOL    HW283932   5.399  10.261   4.905
27970SOL     OW83933   4.949   9.635   4.173
27970SOL    HW183934   5.014   9.561   4.162
27970SOL    HW283935   4.969   9.685   4.257
27971SOL     OW83936   4.318  10.055   4.376
27971SOL    HW183937   4.368  10.140   4.357
27971SOL    HW283938   4.230  10.057   4.328
27972SOL     OW83939   5.501   9.652   5.366
27972SOL    HW183940   5.484   9.683   5.272
27972SOL    HW283941   5.417   9.615   5.404
27973SOL     OW83942   5.454  10.244   5.241
27973SOL    HW183943   5.492  10.335   5.256
27973SOL    HW283944   5.446  10.227   5.142
27974SOL     OW83945   4.583  10.684   3.740
27974SOL    HW183946   4.537  10.699   3.828
27974SOL    HW283947   4.627  10.769   3.710
27975SOL     OW83948   4.385  11.100   4.677
27975SOL    HW183949   4.339  11.188   4.664
27975SOL    HW283950   4.484  11.112   4.670
27976SOL     OW83951   4.583  10.266   4.585
27976SOL    HW183952   4.637  10.197   4.633
27976SOL    HW283953   4.551  10.335   4.651
27977SOL     OW83954   4.807  10.294   3.811
27977SOL    HW183955   4.784  10.347   3.729
27977SOL    HW283956   4.888  10.238   3.792
27978SOL     OW83957   5.585  10.879   4.575
27978SOL    HW183958   5.514  10.867   4.505
27978SOL    HW283959   5.586  10.800   4.635
27979SOL     OW83960   3.945  10.624   5.568
27979SOL    HW183961   3.880  10.551   5.547
27979SOL    HW283962   3.949  10.638   5.666
27980SOL     OW83963   3.803  10.550   4.377
27980SOL    HW183964   3.802  10.503   4.465
27980SOL    HW283965   3.885  10.522   4.326
27981SOL     OW83966   4.396  10.701   5.348
27981SOL    HW183967   4.318  10.651   5.386
27981SOL    HW283968   4.393  10.796   5.379
27982SOL     OW83969   5.548   9.502   4.951
27982SOL    HW183970   5.544   9.412   4.995
27982SOL    HW283971   5.551   9.491   4.852
27983SOL     OW83972   4.152   9.734   4.244
27983SOL    HW183973   4.182   9.662   4.182
27983SOL    HW283974   4.113   9.694   4.327
27984SOL     OW83975   5.429  10.797   4.828
27984SOL    HW183976   5.336  10.772   4.801
27984SOL    HW283977   5.455  10.747   4.910
27985SOL     OW83978   4.041   9.857   5.004
27985SOL    HW183979   4.079   9.798   5.076
27985SOL    HW283980   4.081   9.831   4.916
27986SOL     OW83981   4.536  10.896   4.411
27986SOL    HW183982   4.568  10.906   4.317
27986SOL    HW283983   4.457  10.834   4.413
27987SOL     OW83984   5.148   9.524   4.836
27987SOL    HW183985   5.200   9.459   4.891
27987SOL    HW283986   5.099   9.587   4.897
27988SOL     OW83987   4.725   9.344   4.878
27988SOL    HW183988   4.662   9.272   4.847
27988SOL    HW283989   4.818   9.308   4.878
27989SOL     OW83990   4.494  10.640   4.025
27989SOL    HW183991   4.448  10.553   4.042
27989SOL    HW283992   4.585  10.637   4.066
27990SOL     OW83993   4.342  10.877   5.008
27990SOL    HW183994   4.337  10.959   5.065
27990SOL    HW283995   4.431  10.874   4.963
27991SOL     OW83996   5.076   9.362   3.892
27991SOL    HW183997   5.111   9.321   3.808
27991SOL    HW283998   4.986   9.324   3.912
27992SOL     OW83999   5.024   9.763   4.415
27992SOL    HW184000   4.965   9.843   4.419
27992SOL    HW284001   5.039   9.728   4.508
27993SOL     OW84002   5.317   9.531   4.606
27993SOL    HW184003   5.233   9.530   4.660
27993SOL    HW284004   5.319   9.614   4.550
27994SOL     OW84005   3.763  10.387   4.024
27994SOL    HW184006   3.862  10.376   4.015
27994SOL    HW284007   3.723  10.301   4.056
27995SOL     OW84008   4.599  10.956   4.061
27995SOL    HW184009   4.522  10.921   4.007
27995SOL    HW284010   4.567  11.027   4.123
27996SOL     OW84011   3.954   9.938   5.699
27996SOL    HW184012   3.861   9.936   5.736
27996SOL    HW284013   3.955   9.899   5.607
27997SOL     OW84014   3.949   9.585   6.582
27997SOL    HW184015   3.984   9.568   6.674
27997SOL    HW284016   3.861   9.540   6.570
27998SOL     OW84017   3.743   9.678   6.233
27998SOL    HW184018   3.661   9.721   6.272
27998SOL    HW284019   3.715   9.605   6.170
27999SOL     OW84020   4.293  10.585   6.751
27999SOL    HW184021   4.200  10.578   6.714
27999SOL    HW284022   4.304  10.674   6.795
28000SOL     OW84023   5.279  10.821   6.289
28000SOL    HW184024   5.222  10.805   6.370
28000SOL    HW284025   5.220  10.831   6.209
28001SOL     OW84026   4.859  10.013   6.303
28001SOL    HW184027   4.916  10.091   6.278
28001SOL    HW284028   4.799  10.039   6.379
28002SOL     OW84029   5.479   9.917   5.817
28002SOL    HW184030   5.467   9.904   5.718
28002SOL    HW284031   5.449   9.836   5.866
28003SOL     OW84032   4.492  10.454   6.609
28003SOL    HW184033   4.414  10.471   6.669
28003SOL    HW284034   4.526  10.541   6.573
28004SOL     OW84035   4.574  10.108   7.409
28004SOL    HW184036   4.570  10.184   7.474
28004SOL    HW284037   4.596  10.144   7.318
28005SOL     OW84038   4.409  10.322   6.251
28005SOL    HW184039   4.478  10.306   6.321
28005SOL    HW284040   4.336  10.379   6.289
28006SOL     OW84041   4.410  10.471   7.389
28006SOL    HW184042   4.470  10.550   7.403
28006SOL    HW284043   4.324  10.502   7.348
28007SOL     OW84044   4.059  10.745   6.647
28007SOL    HW184045   3.981  10.714   6.594
28007SOL    HW284046   4.117  10.803   6.590
28008SOL     OW84047   5.184  10.815   6.925
28008SOL    HW184048   5.208  10.909   6.951
28008SOL    HW284049   5.168  10.761   7.007
28009SOL     OW84050   4.162   9.702   7.085
28009SOL    HW184051   4.244   9.646   7.094
28009SOL    HW284052   4.081   9.644   7.089
28010SOL     OW84053   5.327   9.757   6.323
28010SOL    HW184054   5.253   9.803   6.273
28010SOL    HW284055   5.378   9.825   6.376
28011SOL     OW84056   3.955  11.023   6.069
28011SOL    HW184057   3.989  11.100   6.123
28011SOL    HW284058   3.999  11.023   5.979
28012SOL     OW84059   4.851  10.651   7.276
28012SOL    HW184060   4.898  10.651   7.364
28012SOL    HW284061   4.803  10.564   7.265
28013SOL     OW84062   3.954  10.744   6.124
28013SOL    HW184063   3.928  10.840   6.124
28013SOL    HW284064   3.883  10.690   6.169
28014SOL     OW84065   3.964  10.401   6.472
28014SOL    HW184066   3.978  10.317   6.524
28014SOL    HW284067   3.909  10.465   6.527
28015SOL     OW84068   4.344  11.096   7.025
28015SOL    HW184069   4.252  11.079   7.060
28015SOL    HW284070   4.372  11.188   7.051
28016SOL     OW84071   4.330  10.274   5.709
28016SOL    HW184072   4.337  10.358   5.655
28016SOL    HW284073   4.376  10.287   5.797
28017SOL     OW84074   5.318   9.424   7.066
28017SOL    HW184075   5.300   9.491   6.994
28017SOL    HW284076   5.315   9.470   7.155
28018SOL     OW84077   3.846   9.953   6.149
28018SOL    HW184078   3.801   9.865   6.166
28018SOL    HW284079   3.845  10.007   6.233
28019SOL     OW84080   5.566  11.077   5.945
28019SOL    HW184081   5.620  11.048   6.025
28019SOL    HW284082   5.596  11.167   5.916
28020SOL     OW84083   3.751  10.906   5.703
28020SOL    HW184084   3.732  10.810   5.724
28020SOL    HW284085   3.718  10.964   5.778
28021SOL     OW84086   5.413  10.232   6.198
28021SOL    HW184087   5.508  10.203   6.206
28021SOL    HW284088   5.405  10.297   6.123
28022SOL     OW84089   5.365  10.418   6.018
28022SOL    HW184090   5.451  10.420   5.966
28022SOL    HW284091   5.379  10.465   6.106
28023SOL     OW84092   3.837  10.047   7.183
28023SOL    HW184093   3.925  10.034   7.228
28023SOL    HW284094   3.824  10.144   7.161
28024SOL     OW84095   4.337  10.675   6.312
28024SOL    HW184096   4.288  10.588   6.321
28024SOL    HW284097   4.314  10.718   6.225
28025SOL     OW84098   5.017  10.538   7.009
28025SOL    HW184099   5.054  10.465   6.951
28025SOL    HW284100   5.069  10.543   7.094
28026SOL     OW84101   4.533   9.314   6.088
28026SOL    HW184102   4.573   9.405   6.079
28026SOL    HW284103   4.433   9.322   6.094
28027SOL     OW84104   3.921  10.286   6.850
28027SOL    HW184105   4.010  10.241   6.836
28027SOL    HW284106   3.848  10.221   6.831
28028SOL     OW84107   5.249  10.309   5.776
28028SOL    HW184108   5.186  10.233   5.789
28028SOL    HW284109   5.297  10.327   5.862
28029SOL     OW84110   4.911  11.102   7.202
28029SOL    HW184111   4.935  11.162   7.126
28029SOL    HW284112   4.918  11.007   7.172
28030SOL     OW84113   4.041   9.561   7.387
28030SOL    HW184114   4.112   9.632   7.393
28030SOL    HW284115   3.953   9.600   7.415
28031SOL     OW84116   5.190  10.727   6.539
28031SOL    HW184117   5.131  10.733   6.619
28031SOL    HW284118   5.175  10.639   6.493
28032SOL     OW84119   5.391  11.024   6.158
28032SOL    HW184120   5.350  11.001   6.070
28032SOL    HW284121   5.373  10.950   6.223
28033SOL     OW84122   4.322  10.039   5.856
28033SOL    HW184123   4.346  10.108   5.788
28033SOL    HW284124   4.244  10.072   5.910
28034SOL     OW84125   5.005   9.655   6.530
28034SOL    HW184126   4.919   9.605   6.517
28034SOL    HW284127   5.067   9.601   6.586
28035SOL     OW84128   5.300  10.972   5.893
28035SOL    HW184129   5.389  11.018   5.896
28035SOL    HW284130   5.279  10.948   5.798
28036SOL     OW84131   4.531   9.915   7.051
28036SOL    HW184132   4.484   9.912   7.140
28036SOL    HW284133   4.480   9.860   6.985
28037SOL     OW84134   5.118   9.779   7.260
28037SOL    HW184135   5.098   9.822   7.348
28037SOL    HW284136   5.196   9.717   7.269
28038SOL     OW84137   4.697  10.200   7.158
28038SOL    HW184138   4.743  10.116   7.129
28038SOL    HW284139   4.641  10.234   7.083
28039SOL     OW84140   4.715   9.720   6.828
28039SOL    HW184141   4.638   9.754   6.882
28039SOL    HW284142   4.681   9.669   6.749
28040SOL     OW84143   4.765  10.011   6.015
28040SOL    HW184144   4.791  10.007   6.111
28040SOL    HW284145   4.680   9.960   6.001
28041SOL     OW84146   3.800  10.121   6.375
28041SOL    HW184147   3.899  10.109   6.384
28041SOL    HW284148   3.776  10.216   6.396
28042SOL     OW84149   3.854  11.131   7.157
28042SOL    HW184150   3.844  11.116   7.256
28042SOL    HW284151   3.768  11.167   7.121
28043SOL     OW84152   4.589   9.658   5.781
28043SOL    HW184153   4.648   9.721   5.732
28043SOL    HW284154   4.608   9.564   5.752
28044SOL     OW84155   5.443   9.895   7.417
28044SOL    HW184156   5.417   9.984   7.381
28044SOL    HW284157   5.441   9.827   7.344
28045SOL     OW84158   5.086  10.454   6.131
28045SOL    HW184159   5.169  10.425   6.083
28045SOL    HW284160   5.037  10.521   6.075
28046SOL     OW84161   4.274   9.506   6.471
28046SOL    HW184162   4.269   9.501   6.571
28046SOL    HW284163   4.276   9.602   6.442
28047SOL     OW84164   4.732  10.766   6.063
28047SOL    HW184165   4.686  10.838   6.011
28047SOL    HW284166   4.728  10.786   6.161
28048SOL     OW84167   4.075  11.111   6.439
28048SOL    HW184168   4.125  11.025   6.445
28048SOL    HW284169   4.140  11.188   6.436
28049SOL     OW84170   5.519  10.376   6.459
28049SOL    HW184171   5.457  10.361   6.383
28049SOL    HW284172   5.467  10.387   6.544
28050SOL     OW84173   4.951  10.860   7.092
28050SOL    HW184174   4.957  10.783   7.156
28050SOL    HW284175   4.899  10.834   7.012
28051SOL     OW84176   4.045  10.253   5.828
28051SOL    HW184177   4.127  10.292   5.786
28051SOL    HW284178   4.018  10.171   5.779
28052SOL     OW84179   5.182  10.045   6.314
28052SOL    HW184180   5.177   9.980   6.389
28052SOL    HW284181   5.262  10.104   6.327
28053SOL     OW84182   4.185  10.576   7.313
28053SOL    HW184183   4.135  10.577   7.227
28053SOL    HW284184   4.122  10.558   7.389
28054SOL     OW84185   4.835  11.086   5.823
28054SOL    HW184186   4.775  11.024   5.873
28054SOL    HW284187   4.866  11.042   5.738
28055SOL     OW84188   3.926   9.595   7.084
28055SOL    HW184189   3.846   9.655   7.071
28055SOL    HW284190   3.916   9.546   7.170
28056SOL     OW84191   5.356  10.687   5.667
28056SOL    HW184192   5.324  10.781   5.657
28056SOL    HW284193   5.280  10.624   5.655
28057SOL     OW84194   4.188  11.053   5.909
28057SOL    HW184195   4.221  11.092   5.995
28057SOL    HW284196   4.264  11.046   5.844
28058SOL     OW84197   5.124   9.417   6.012
28058SOL    HW184198   5.100   9.380   5.922
28058SOL    HW284199   5.223   9.433   6.016
28059SOL     OW84200   3.973  11.095   6.827
28059SOL    HW184201   4.030  11.030   6.877
28059SOL    HW284202   3.957  11.062   6.734
28060SOL     OW84203   4.664  11.008   6.490
28060SOL    HW184204   4.744  10.951   6.511
28060SOL    HW284205   4.615  10.968   6.413
28061SOL     OW84206   4.106  10.010   6.066
28061SOL    HW184207   4.151   9.920   6.063
28061SOL    HW284208   4.012   9.999   6.099
28062SOL     OW84209   5.271   9.532   7.315
28062SOL    HW184210   5.266   9.569   7.407
28062SOL    HW284211   5.199   9.463   7.303
28063SOL     OW84212   4.338   9.432   5.703
28063SOL    HW184213   4.436   9.410   5.710
28063SOL    HW284214   4.307   9.415   5.610
28064SOL     OW84215   4.505   9.574   7.335
28064SOL    HW184216   4.572   9.513   7.378
28064SOL    HW284217   4.432   9.593   7.400
28065SOL     OW84218   4.612  10.824   6.781
28065SOL    HW184219   4.589  10.799   6.687
28065SOL    HW284220   4.673  10.755   6.820
28066SOL     OW84221   5.075   9.900   7.019
28066SOL    HW184222   5.103   9.857   7.104
28066SOL    HW284223   5.100   9.996   7.020
28067SOL     OW84224   4.527  10.712   6.510
28067SOL    HW184225   4.617  10.726   6.468
28067SOL    HW284226   4.456  10.714   6.439
28068SOL     OW84227   4.646   9.813   6.485
28068SOL    HW184228   4.621   9.804   6.389
28068SOL    HW284229   4.694   9.731   6.516
28069SOL     OW84230   4.263   9.374   6.098
28069SOL    HW184231   4.182   9.375   6.156
28069SOL    HW284232   4.266   9.457   6.043
28070SOL     OW84233   5.158  10.498   5.627
28070SOL    HW184234   5.190  10.422   5.684
28070SOL    HW284235   5.066  10.525   5.657
28071SOL     OW84236   4.021   9.345   5.757
28071SOL    HW184237   4.070   9.429   5.736
28071SOL    HW284238   4.083   9.280   5.802
28072SOL     OW84239   4.659   9.546   6.066
28072SOL    HW184240   4.611   9.587   5.988
28072SOL    HW284241   4.758   9.544   6.047
28073SOL     OW84242   4.800   9.993   7.050
28073SOL    HW184243   4.720   9.932   7.053
28073SOL    HW284244   4.881   9.940   7.026
28074SOL     OW84245   4.951  10.880   6.379
28074SOL    HW184246   4.972  10.954   6.314
28074SOL    HW284247   5.019  10.880   6.452
28075SOL     OW84248   4.183  10.462   6.327
28075SOL    HW184249   4.112  10.435   6.392
28075SOL    HW284250   4.157  10.434   6.234
28076SOL     OW84251   4.995  11.107   6.177
28076SOL    HW184252   5.039  11.171   6.113
28076SOL    HW284253   4.945  11.159   6.247
28077SOL     OW84254   4.756   9.859   5.602
28077SOL    HW184255   4.715   9.941   5.563
28077SOL    HW284256   4.820   9.885   5.675
28078SOL     OW84257   3.802   9.866   6.972
28078SOL    HW184258   3.894   9.865   6.931
28078SOL    HW284259   3.796   9.940   7.039
28079SOL     OW84260   4.285   9.532   6.733
28079SOL    HW184261   4.323   9.448   6.770
28079SOL    HW284262   4.197   9.551   6.777
28080SOL     OW84263   4.590   9.764   6.228
28080SOL    HW184264   4.558   9.836   6.166
28080SOL    HW284265   4.614   9.683   6.175
28081SOL     OW84266   4.741   9.349   6.339
28081SOL    HW184267   4.669   9.354   6.270
28081SOL    HW284268   4.717   9.280   6.408
28082SOL     OW84269   5.153  10.483   6.453
28082SOL    HW184270   5.098  10.399   6.446
28082SOL    HW284271   5.179  10.512   6.361
28083SOL     OW84272   5.190   9.900   6.578
28083SOL    HW184273   5.160   9.805   6.585
28083SOL    HW284274   5.263   9.916   6.644
28084SOL     OW84275   5.581  10.143   5.963
28084SOL    HW184276   5.623  10.079   6.027
28084SOL    HW284277   5.543  10.092   5.885
28085SOL     OW84278   4.212  10.695   5.760
28085SOL    HW184279   4.125  10.680   5.807
28085SOL    HW284280   4.195  10.721   5.665
28086SOL     OW84281   5.388  10.590   6.243
28086SOL    HW184282   5.487  10.598   6.257
28086SOL    HW284283   5.343  10.674   6.274
28087SOL     OW84284   5.114   9.885   5.664
28087SOL    HW184285   5.060   9.864   5.745
28087SOL    HW284286   5.205   9.844   5.673
28088SOL     OW84287   4.251   9.566   5.914
28088SOL    HW184288   4.278   9.507   5.839
28088SOL    HW284289   4.251   9.661   5.883
28089SOL     OW84290   5.478  10.533   7.174
28089SOL    HW184291   5.569  10.494   7.161
28089SOL    HW284292   5.486  10.629   7.198
28090SOL     OW84293   4.788  10.657   6.926
28090SOL    HW184294   4.708  10.634   6.981
28090SOL    HW284295   4.871  10.631   6.975
28091SOL     OW84296   5.316  10.939   7.211
28091SOL    HW184297   5.343  10.973   7.121
28091SOL    HW284298   5.395  10.901   7.257
28092SOL     OW84299   4.835  10.505   6.686
28092SOL    HW184300   4.795  10.549   6.767
28092SOL    HW284301   4.794  10.542   6.603
28093SOL     OW84302   5.362  10.409   6.665
28093SOL    HW184303   5.367  10.490   6.724
28093SOL    HW284304   5.276  10.411   6.614
28094SOL     OW84305   4.639   9.399   6.988
28094SOL    HW184306   4.664   9.379   6.893
28094SOL    HW284307   4.711   9.455   7.030
28095SOL     OW84308   4.704  10.426   7.305
28095SOL    HW184309   4.605  10.432   7.315
28095SOL    HW284310   4.727  10.346   7.249
28096SOL     OW84311   4.429  10.360   5.954
28096SOL    HW184312   4.415  10.367   6.053
28096SOL    HW284313   4.513  10.309   5.936
28097SOL     OW84314   4.134  10.123   6.837
28097SOL    HW184315   4.220  10.135   6.887
28097SOL    HW284316   4.092  10.036   6.864
28098SOL     OW84317   4.998   9.696   6.848
28098SOL    HW184318   5.019   9.770   6.912
28098SOL    HW284319   4.909   9.713   6.805
28099SOL     OW84320   3.788  10.874   6.917
28099SOL    HW184321   3.742  10.956   6.883
28099SOL    HW284322   3.886  10.893   6.926
28100SOL     OW84323   4.091  10.410   6.087
28100SOL    HW184324   4.084  10.493   6.031
28100SOL    HW284325   4.095  10.330   6.027
28101SOL     OW84326   4.290   9.847   6.451
28101SOL    HW184327   4.302   9.913   6.377
28101SOL    HW284328   4.336   9.881   6.534
28102SOL     OW84329   4.976  10.658   5.974
28102SOL    HW184330   5.026  10.735   6.014
28102SOL    HW284331   4.881  10.660   6.006
28103SOL     OW84332   4.996  10.755   6.728
28103SOL    HW184333   5.043  10.768   6.815
28103SOL    HW284334   4.930  10.681   6.737
28104SOL     OW84335   5.306   9.949   6.058
28104SOL    HW184336   5.275  10.010   6.131
28104SOL    HW284337   5.356  10.001   5.989
28105SOL     OW84338   4.078  10.820   6.915
28105SOL    HW184339   4.057  10.776   6.828
28105SOL    HW284340   4.175  10.846   6.918
28106SOL     OW84341   4.126  10.061   7.184
28106SOL    HW184342   4.194  10.116   7.137
28106SOL    HW284343   4.166   9.973   7.211
28107SOL     OW84344   5.311  10.089   7.256
28107SOL    HW184345   5.219  10.127   7.251
28107SOL    HW284346   5.371  10.136   7.191
28108SOL     OW84347   4.737   9.415   7.356
28108SOL    HW184348   4.743   9.500   7.304
28108SOL    HW284349   4.769   9.339   7.299
28109SOL     OW84350   4.228   9.360   7.326
28109SOL    HW184351   4.186   9.303   7.256
28109SOL    HW284352   4.162   9.429   7.358
28110SOL     OW84353   4.297  10.180   6.615
28110SOL    HW184354   4.341  10.269   6.606
28110SOL    HW284355   4.234  10.180   6.692
28111SOL     OW84356   5.084  10.172   6.631
28111SOL    HW184357   5.009  10.172   6.565
28111SOL    HW284358   5.121  10.080   6.640
28112SOL     OW84359   4.933   9.835   5.861
28112SOL    HW184360   4.946   9.751   5.915
28112SOL    HW284361   4.904   9.909   5.921
28113SOL     OW84362   4.031   9.523   6.817
28113SOL    HW184363   4.008   9.560   6.907
28113SOL    HW284364   4.001   9.428   6.811
28114SOL     OW84365   3.761  10.620   6.868
28114SOL    HW184366   3.814  10.571   6.936
28114SOL    HW284367   3.783  10.718   6.873
28115SOL     OW84368   4.456   9.944   6.650
28115SOL    HW184369   4.515   9.918   6.574
28115SOL    HW284370   4.428  10.040   6.639
28116SOL     OW84371   5.452  10.245   7.440
28116SOL    HW184372   5.406  10.238   7.351
28116SOL    HW284373   5.390  10.289   7.506
28117SOL     OW84374   4.031   9.373   6.204
28117SOL    HW184375   4.020   9.467   6.237
28117SOL    HW284376   4.026   9.310   6.281
28118SOL     OW84377   5.346   9.677   5.960
28118SOL    HW184378   5.348   9.601   6.024
28118SOL    HW284379   5.298   9.754   6.000
28119SOL     OW84380   4.747  10.076   6.552
28119SOL    HW184381   4.762  10.097   6.648
28119SOL    HW284382   4.717   9.981   6.543
28120SOL     OW84383   4.704  10.883   7.286
28120SOL    HW184384   4.684  10.927   7.198
28120SOL    HW284385   4.743  10.792   7.270
28121SOL     OW84386   5.583  10.828   7.191
28121SOL    HW184387   5.597  10.855   7.096
28121SOL    HW284388   5.666  10.850   7.244
28122SOL     OW84389   4.074  10.208   7.390
28122SOL    HW184390   4.150  10.252   7.438
28122SOL    HW284391   4.109  10.161   7.308
28123SOL     OW84392   5.264   9.584   5.711
28123SOL    HW184393   5.203   9.509   5.734
28123SOL    HW284394   5.286   9.636   5.794
28124SOL     OW84395   5.027  10.148   5.628
28124SOL    HW184396   5.061  10.055   5.643
28124SOL    HW284397   5.045  10.175   5.533
28125SOL     OW84398   4.792  10.643   6.435
28125SOL    HW184399   4.799  10.559   6.380
28125SOL    HW284400   4.854  10.712   6.399
28126SOL     OW84401   4.043  10.120   6.535
28126SOL    HW184402   4.136  10.156   6.540
28126SOL    HW284403   4.037  10.035   6.587
28127SOL     OW84404   4.063   9.819   6.592
28127SOL    HW184405   4.011   9.736   6.575
28127SOL    HW284406   4.140   9.824   6.528
28128SOL     OW84407   4.862   9.690   7.264
28128SOL    HW184408   4.817   9.753   7.328
28128SOL    HW284409   4.955   9.721   7.247
28129SOL     OW84410   4.884   9.517   7.063
28129SOL    HW184411   4.884   9.581   7.140
28129SOL    HW284412   4.912   9.565   6.980
28130SOL     OW84413   3.732  10.636   5.786
28130SOL    HW184414   3.639  10.657   5.755
28130SOL    HW284415   3.742  10.537   5.799
28131SOL     OW84416   3.812  11.111   6.513
28131SOL    HW184417   3.770  11.025   6.486
28131SOL    HW284418   3.906  11.114   6.479
28132SOL     OW84419   4.228  10.878   6.496
28132SOL    HW184420   4.294  10.952   6.505
28132SOL    HW284421   4.272  10.799   6.454
28133SOL     OW84422   4.726  10.106   6.824
28133SOL    HW184423   4.767  10.074   6.910
28133SOL    HW284424   4.630  10.079   6.821
28134SOL     OW84425   3.764   9.854   6.700
28134SOL    HW184426   3.849   9.821   6.659
28134SOL    HW284427   3.777   9.869   6.798
28135SOL     OW84428   3.913   9.830   7.308
28135SOL    HW184429   3.972   9.790   7.238
28135SOL    HW284430   3.855   9.901   7.267
28136SOL     OW84431   5.093  10.260   7.246
28136SOL    HW184432   5.132  10.349   7.266
28136SOL    HW284433   5.103  10.240   7.149
28137SOL     OW84434   4.539   9.882   5.911
28137SOL    HW184435   4.546   9.793   5.865
28137SOL    HW284436   4.445   9.916   5.903
28138SOL     OW84437   5.381   9.914   6.792
28138SOL    HW184438   5.343   9.845   6.854
28138SOL    HW284439   5.463   9.878   6.748
28139SOL     OW84440   3.976  10.874   7.330
28139SOL    HW184441   3.946  10.931   7.406
28139SOL    HW284442   3.969  10.777   7.356
28140SOL     OW84443   4.395   9.774   6.855
28140SOL    HW184444   4.361   9.685   6.825
28140SOL    HW284445   4.421   9.828   6.775
28141SOL     OW84446   4.654  10.988   7.051
28141SOL    HW184447   4.630  10.970   6.956
28141SOL    HW284448   4.684  11.082   7.061
28142SOL     OW84449   4.197   9.810   5.777
28142SOL    HW184450   4.258   9.890   5.781
28142SOL    HW284451   4.102   9.841   5.784
28143SOL     OW84452   3.883  10.447   7.052
28143SOL    HW184453   3.905  10.386   7.128
28143SOL    HW284454   3.893  10.398   6.966
28144SOL     OW84455   5.071  10.369   6.820
28144SOL    HW184456   5.095  10.306   6.746
28144SOL    HW284457   4.981  10.409   6.802
28145SOL     OW84458   5.026  10.165   5.895
28145SOL    HW184459   4.940  10.134   5.937
28145SOL    HW284460   5.022  10.151   5.796
28146SOL     OW84461   5.483  11.057   6.740
28146SOL    HW184462   5.544  11.087   6.667
28146SOL    HW284463   5.445  10.968   6.718
28147SOL     OW84464   4.976  11.041   6.714
28147SOL    HW184465   5.060  11.046   6.660
28147SOL    HW284466   4.953  10.945   6.732
28148SOL     OW84467   3.807  10.568   6.608
28148SOL    HW184468   3.802  10.567   6.708
28148SOL    HW284469   3.724  10.527   6.570
28149SOL     OW84470   4.412  10.972   7.302
28149SOL    HW184471   4.356  11.053   7.311
28149SOL    HW284472   4.464  10.976   7.216
28150SOL     OW84473   5.450   9.445   6.109
28150SOL    HW184474   5.523   9.428   6.042
28150SOL    HW284475   5.419   9.358   6.147
28151SOL     OW84476   5.112  10.883   6.063
28151SOL    HW184477   5.179  10.895   5.989
28151SOL    HW284478   5.072  10.972   6.086
28152SOL     OW84479   3.854  11.104   7.437
28152SOL    HW184480   3.813  11.030   7.490
28152SOL    HW284481   3.918  11.155   7.495
28153SOL     OW84482   5.004  10.237   6.258
28153SOL    HW184483   5.064  10.156   6.260
28153SOL    HW284484   5.044  10.306   6.198
28154SOL     OW84485   4.554  10.583   7.008
28154SOL    HW184486   4.549  10.616   7.103
28154SOL    HW284487   4.468  10.602   6.962
28155SOL     OW84488   4.396  10.926   5.740
28155SOL    HW184489   4.405  10.936   5.641
28155SOL    HW284490   4.356  10.837   5.761
28156SOL     OW84491   5.374  11.030   6.980
28156SOL    HW184492   5.427  11.040   6.896
28156SOL    HW284493   5.347  11.120   7.014
28157SOL     OW84494   5.565   9.485   6.549
28157SOL    HW184495   5.604   9.400   6.513
28157SOL    HW284496   5.467   9.487   6.530
28158SOL     OW84497   3.987   9.636   6.306
28158SOL    HW184498   3.908   9.687   6.272
28158SOL    HW284499   3.978   9.621   6.404
28159SOL     OW84500   4.918  10.922   5.617
28159SOL    HW184501   4.924  10.829   5.654
28159SOL    HW284502   4.859  10.922   5.537
28160SOL     OW84503   4.546  10.312   6.958
28160SOL    HW184504   4.586  10.311   6.866
28160SOL    HW284505   4.556  10.404   6.998
28161SOL     OW84506   4.640  10.220   5.877
28161SOL    HW184507   4.703  10.258   5.809
28161SOL    HW284508   4.680  10.137   5.916
28162SOL     OW84509   5.228  10.917   5.630
28162SOL    HW184510   5.136  10.954   5.637
28162SOL    HW284511   5.266  10.937   5.540
28163SOL     OW84512   4.096  10.598   7.076
28163SOL    HW184513   4.083  10.691   7.042
28163SOL    HW284514   4.012  10.546   7.063
28164SOL     OW84515   5.338  10.602   6.875
28164SOL    HW184516   5.398  10.605   6.955
28164SOL    HW284517   5.263  10.666   6.888
28165SOL     OW84518   4.763  10.408   6.282
28165SOL    HW184519   4.693  10.361   6.336
28165SOL    HW284520   4.822  10.340   6.239
28166SOL     OW84521   4.738   9.546   6.557
28166SOL    HW184522   4.730   9.510   6.464
28166SOL    HW284523   4.736   9.470   6.622
28167SOL     OW84524   4.314  10.797   6.077
28167SOL    HW184525   4.356  10.739   6.007
28167SOL    HW284526   4.270  10.876   6.033
28168SOL     OW84527   5.433   9.695   6.967
28168SOL    HW184528   5.506   9.764   6.971
28168SOL    HW284529   5.461   9.620   6.908
28169SOL     OW84530   3.979  10.658   5.876
28169SOL    HW184531   3.883  10.659   5.849
28169SOL    HW284532   3.991  10.711   5.960
28170SOL     OW84533   3.829  10.323   7.312
28170SOL    HW184534   3.752  10.290   7.366
28170SOL    HW284535   3.914  10.293   7.354
28171SOL     OW84536   4.396   9.513   7.075
28171SOL    HW184537   4.486   9.497   7.035
28171SOL    HW284538   4.404   9.518   7.174
28172SOL     OW84539   3.799   9.655   5.619
28172SOL    HW184540   3.707   9.627   5.590
28172SOL    HW284541   3.830   9.732   5.563
28173SOL     OW84542   5.164  10.166   6.984
28173SOL    HW184543   5.107  10.218   6.921
28173SOL    HW284544   5.260  10.178   6.960
28174SOL     OW84545   3.796   9.476   5.904
28174SOL    HW184546   3.779   9.559   5.850
28174SOL    HW284547   3.886   9.439   5.882
28175SOL     OW84548   4.907  10.645   5.705
28175SOL    HW184549   4.808  10.634   5.707
28175SOL    HW284550   4.941  10.660   5.798
28176SOL     OW84551   4.337  10.152   7.017
28176SOL    HW184552   4.393  10.233   7.000
28176SOL    HW284553   4.396  10.072   7.020
28177SOL     OW84554   5.217  11.077   6.545
28177SOL    HW184555   5.250  11.141   6.476
28177SOL    HW284556   5.283  11.071   6.620
28178SOL     OW84557   4.440   9.875   7.294
28178SOL    HW184558   4.459   9.940   7.368
28178SOL    HW284559   4.500   9.795   7.303
28179SOL     OW84560   5.174  10.530   7.219
28179SOL    HW184561   5.165  10.520   7.318
28179SOL    HW284562   5.270  10.523   7.193
28180SOL     OW84563   4.114  11.051   7.146
28180SOL    HW184564   4.023  11.092   7.144
28180SOL    HW284565   4.107  10.957   7.178
28181SOL     OW84566   5.398  10.193   6.840
28181SOL    HW184567   5.371  10.104   6.803
28181SOL    HW284568   5.399  10.261   6.767
28182SOL     OW84569   4.949   9.635   6.035
28182SOL    HW184570   5.014   9.561   6.024
28182SOL    HW284571   4.969   9.685   6.119
28183SOL     OW84572   4.318  10.055   6.238
28183SOL    HW184573   4.368  10.140   6.219
28183SOL    HW284574   4.230  10.057   6.190
28184SOL     OW84575   5.501   9.652   7.228
28184SOL    HW184576   5.484   9.683   7.134
28184SOL    HW284577   5.417   9.615   7.266
28185SOL     OW84578   5.454  10.244   7.103
28185SOL    HW184579   5.492  10.335   7.118
28185SOL    HW284580   5.446  10.227   7.004
28186SOL     OW84581   4.583  10.684   5.602
28186SOL    HW184582   4.537  10.699   5.690
28186SOL    HW284583   4.627  10.769   5.572
28187SOL     OW84584   4.385  11.100   6.539
28187SOL    HW184585   4.339  11.188   6.526
28187SOL    HW284586   4.484  11.112   6.532
28188SOL     OW84587   4.583  10.266   6.447
28188SOL    HW184588   4.637  10.197   6.495
28188SOL    HW284589   4.551  10.335   6.513
28189SOL     OW84590   4.807  10.294   5.673
28189SOL    HW184591   4.784  10.347   5.591
28189SOL    HW284592   4.888  10.238   5.654
28190SOL     OW84593   5.585  10.879   6.437
28190SOL    HW184594   5.514  10.867   6.367
28190SOL    HW284595   5.586  10.800   6.497
28191SOL     OW84596   3.945  10.624   7.430
28191SOL    HW184597   3.880  10.551   7.409
28191SOL    HW284598   3.949  10.638   7.528
28192SOL     OW84599   3.803  10.550   6.239
28192SOL    HW184600   3.802  10.503   6.327
28192SOL    HW284601   3.885  10.522   6.188
28193SOL     OW84602   4.396  10.701   7.210
28193SOL    HW184603   4.318  10.651   7.248
28193SOL    HW284604   4.393  10.796   7.241
28194SOL     OW84605   5.548   9.502   6.813
28194SOL    HW184606   5.544   9.412   6.857
28194SOL    HW284607   5.551   9.491   6.714
28195SOL     OW84608   4.152   9.734   6.106
28195SOL    HW184609   4.182   9.662   6.044
28195SOL    HW284610   4.113   9.694   6.189
28196SOL     OW84611   5.429  10.797   6.690
28196SOL    HW184612   5.336  10.772   6.663
28196SOL    HW284613   5.455  10.747   6.772
28197SOL     OW84614   4.041   9.857   6.866
28197SOL    HW184615   4.079   9.798   6.938
28197SOL    HW284616   4.081   9.831   6.778
28198SOL     OW84617   4.536  10.896   6.273
28198SOL    HW184618   4.568  10.906   6.179
28198SOL    HW284619   4.457  10.834   6.275
28199SOL     OW84620   5.148   9.524   6.698
28199SOL    HW184621   5.200   9.459   6.753
28199SOL    HW284622   5.099   9.587   6.759
28200SOL     OW84623   4.725   9.344   6.740
28200SOL    HW184624   4.662   9.272   6.709
28200SOL    HW284625   4.818   9.308   6.740
28201SOL     OW84626   4.494  10.640   5.887
28201SOL    HW184627   4.448  10.553   5.904
28201SOL    HW284628   4.585  10.637   5.928
28202SOL     OW84629   4.342  10.877   6.870
28202SOL    HW184630   4.337  10.959   6.927
28202SOL    HW284631   4.431  10.874   6.825
28203SOL     OW84632   5.076   9.362   5.754
28203SOL    HW184633   5.111   9.321   5.670
28203SOL    HW284634   4.986   9.324   5.774
28204SOL     OW84635   5.024   9.763   6.277
28204SOL    HW184636   4.965   9.843   6.281
28204SOL    HW284637   5.039   9.728   6.370
28205SOL     OW84638   5.317   9.531   6.468
28205SOL    HW184639   5.233   9.530   6.522
28205SOL    HW284640   5.319   9.614   6.412
28206SOL     OW84641   3.763  10.387   5.886
28206SOL    HW184642   3.862  10.376   5.877
28206SOL    HW284643   3.723  10.301   5.918
28207SOL     OW84644   4.599  10.956   5.923
28207SOL    HW184645   4.522  10.921   5.869
28207SOL    HW284646   4.567  11.027   5.985
28208SOL     OW84647   3.954   9.938   7.561
28208SOL    HW184648   3.861   9.936   7.598
28208SOL    HW284649   3.955   9.899   7.469
28209SOL     OW84650   3.949   9.585   8.444
28209SOL    HW184651   3.984   9.568   8.536
28209SOL    HW284652   3.861   9.540   8.432
28210SOL     OW84653   3.743   9.678   8.095
28210SOL    HW184654   3.661   9.721   8.134
28210SOL    HW284655   3.715   9.605   8.032
28211SOL     OW84656   4.293  10.585   8.613
28211SOL    HW184657   4.200  10.578   8.576
28211SOL    HW284658   4.304  10.674   8.657
28212SOL     OW84659   5.279  10.821   8.151
28212SOL    HW184660   5.222  10.805   8.232
28212SOL    HW284661   5.220  10.831   8.071
28213SOL     OW84662   4.859  10.013   8.165
28213SOL    HW184663   4.916  10.091   8.140
28213SOL    HW284664   4.799  10.039   8.241
28214SOL     OW84665   5.479   9.917   7.679
28214SOL    HW184666   5.467   9.904   7.580
28214SOL    HW284667   5.449   9.836   7.728
28215SOL     OW84668   4.492  10.454   8.471
28215SOL    HW184669   4.414  10.471   8.531
28215SOL    HW284670   4.526  10.541   8.435
28216SOL     OW84671   4.574  10.108   9.271
28216SOL    HW184672   4.570  10.184   9.336
28216SOL    HW284673   4.596  10.144   9.180
28217SOL     OW84674   4.409  10.322   8.113
28217SOL    HW184675   4.478  10.306   8.183
28217SOL    HW284676   4.336  10.379   8.151
28218SOL     OW84677   4.410  10.471   9.251
28218SOL    HW184678   4.470  10.550   9.265
28218SOL    HW284679   4.324  10.502   9.210
28219SOL     OW84680   4.059  10.745   8.509
28219SOL    HW184681   3.981  10.714   8.456
28219SOL    HW284682   4.117  10.803   8.452
28220SOL     OW84683   5.184  10.815   8.787
28220SOL    HW184684   5.208  10.909   8.813
28220SOL    HW284685   5.168  10.761   8.869
28221SOL     OW84686   4.162   9.702   8.947
28221SOL    HW184687   4.244   9.646   8.956
28221SOL    HW284688   4.081   9.644   8.951
28222SOL     OW84689   5.327   9.757   8.185
28222SOL    HW184690   5.253   9.803   8.135
28222SOL    HW284691   5.378   9.825   8.238
28223SOL     OW84692   3.955  11.023   7.931
28223SOL    HW184693   3.989  11.100   7.985
28223SOL    HW284694   3.999  11.023   7.841
28224SOL     OW84695   4.851  10.651   9.138
28224SOL    HW184696   4.898  10.651   9.226
28224SOL    HW284697   4.803  10.564   9.127
28225SOL     OW84698   3.954  10.744   7.986
28225SOL    HW184699   3.928  10.840   7.986
28225SOL    HW284700   3.883  10.690   8.031
28226SOL     OW84701   3.964  10.401   8.334
28226SOL    HW184702   3.978  10.317   8.386
28226SOL    HW284703   3.909  10.465   8.389
28227SOL     OW84704   4.344  11.096   8.887
28227SOL    HW184705   4.252  11.079   8.922
28227SOL    HW284706   4.372  11.188   8.913
28228SOL     OW84707   4.330  10.274   7.571
28228SOL    HW184708   4.337  10.358   7.517
28228SOL    HW284709   4.376  10.287   7.659
28229SOL     OW84710   5.318   9.424   8.928
28229SOL    HW184711   5.300   9.491   8.856
28229SOL    HW284712   5.315   9.470   9.017
28230SOL     OW84713   3.846   9.953   8.011
28230SOL    HW184714   3.801   9.865   8.028
28230SOL    HW284715   3.845  10.007   8.095
28231SOL     OW84716   5.566  11.077   7.807
28231SOL    HW184717   5.620  11.048   7.887
28231SOL    HW284718   5.596  11.167   7.778
28232SOL     OW84719   3.751  10.906   7.565
28232SOL    HW184720   3.732  10.810   7.586
28232SOL    HW284721   3.718  10.964   7.640
28233SOL     OW84722   5.413  10.232   8.060
28233SOL    HW184723   5.508  10.203   8.068
28233SOL    HW284724   5.405  10.297   7.985
28234SOL     OW84725   5.365  10.418   7.880
28234SOL    HW184726   5.451  10.420   7.828
28234SOL    HW284727   5.379  10.465   7.968
28235SOL     OW84728   3.837  10.047   9.045
28235SOL    HW184729   3.925  10.034   9.090
28235SOL    HW284730   3.824  10.144   9.023
28236SOL     OW84731   4.337  10.675   8.174
28236SOL    HW184732   4.288  10.588   8.183
28236SOL    HW284733   4.314  10.718   8.087
28237SOL     OW84734   5.017  10.538   8.871
28237SOL    HW184735   5.054  10.465   8.813
28237SOL    HW284736   5.069  10.543   8.956
28238SOL     OW84737   4.533   9.314   7.950
28238SOL    HW184738   4.573   9.405   7.941
28238SOL    HW284739   4.433   9.322   7.956
28239SOL     OW84740   3.921  10.286   8.712
28239SOL    HW184741   4.010  10.241   8.698
28239SOL    HW284742   3.848  10.221   8.693
28240SOL     OW84743   5.249  10.309   7.638
28240SOL    HW184744   5.186  10.233   7.651
28240SOL    HW284745   5.297  10.327   7.724
28241SOL     OW84746   4.911  11.102   9.064
28241SOL    HW184747   4.935  11.162   8.988
28241SOL    HW284748   4.918  11.007   9.034
28242SOL     OW84749   4.041   9.561   9.249
28242SOL    HW184750   4.112   9.632   9.255
28242SOL    HW284751   3.953   9.600   9.277
28243SOL     OW84752   5.190  10.727   8.401
28243SOL    HW184753   5.131  10.733   8.481
28243SOL    HW284754   5.175  10.639   8.355
28244SOL     OW84755   5.391  11.024   8.020
28244SOL    HW184756   5.350  11.001   7.932
28244SOL    HW284757   5.373  10.950   8.085
28245SOL     OW84758   4.322  10.039   7.718
28245SOL    HW184759   4.346  10.108   7.650
28245SOL    HW284760   4.244  10.072   7.772
28246SOL     OW84761   5.005   9.655   8.392
28246SOL    HW184762   4.919   9.605   8.379
28246SOL    HW284763   5.067   9.601   8.448
28247SOL     OW84764   5.300  10.972   7.755
28247SOL    HW184765   5.389  11.018   7.758
28247SOL    HW284766   5.279  10.948   7.660
28248SOL     OW84767   4.531   9.915   8.913
28248SOL    HW184768   4.484   9.912   9.002
28248SOL    HW284769   4.480   9.860   8.847
28249SOL     OW84770   5.118   9.779   9.122
28249SOL    HW184771   5.098   9.822   9.210
28249SOL    HW284772   5.196   9.717   9.131
28250SOL     OW84773   4.697  10.200   9.020
28250SOL    HW184774   4.743  10.116   8.991
28250SOL    HW284775   4.641  10.234   8.945
28251SOL     OW84776   4.715   9.720   8.690
28251SOL    HW184777   4.638   9.754   8.744
28251SOL    HW284778   4.681   9.669   8.611
28252SOL     OW84779   4.765  10.011   7.877
28252SOL    HW184780   4.791  10.007   7.973
28252SOL    HW284781   4.680   9.960   7.863
28253SOL     OW84782   3.800  10.121   8.237
28253SOL    HW184783   3.899  10.109   8.246
28253SOL    HW284784   3.776  10.216   8.258
28254SOL     OW84785   3.854  11.131   9.019
28254SOL    HW184786   3.844  11.116   9.118
28254SOL    HW284787   3.768  11.167   8.983
28255SOL     OW84788   4.589   9.658   7.643
28255SOL    HW184789   4.648   9.721   7.594
28255SOL    HW284790   4.608   9.564   7.614
28256SOL     OW84791   5.443   9.895   9.279
28256SOL    HW184792   5.417   9.984   9.243
28256SOL    HW284793   5.441   9.827   9.206
28257SOL     OW84794   5.086  10.454   7.993
28257SOL    HW184795   5.169  10.425   7.945
28257SOL    HW284796   5.037  10.521   7.937
28258SOL     OW84797   4.274   9.506   8.333
28258SOL    HW184798   4.269   9.501   8.433
28258SOL    HW284799   4.276   9.602   8.304
28259SOL     OW84800   4.732  10.766   7.925
28259SOL    HW184801   4.686  10.838   7.873
28259SOL    HW284802   4.728  10.786   8.023
28260SOL     OW84803   4.075  11.111   8.301
28260SOL    HW184804   4.125  11.025   8.307
28260SOL    HW284805   4.140  11.188   8.298
28261SOL     OW84806   5.519  10.376   8.321
28261SOL    HW184807   5.457  10.361   8.245
28261SOL    HW284808   5.467  10.387   8.406
28262SOL     OW84809   4.951  10.860   8.954
28262SOL    HW184810   4.957  10.783   9.018
28262SOL    HW284811   4.899  10.834   8.874
28263SOL     OW84812   4.045  10.253   7.690
28263SOL    HW184813   4.127  10.292   7.648
28263SOL    HW284814   4.018  10.171   7.641
28264SOL     OW84815   5.182  10.045   8.176
28264SOL    HW184816   5.177   9.980   8.251
28264SOL    HW284817   5.262  10.104   8.189
28265SOL     OW84818   4.185  10.576   9.175
28265SOL    HW184819   4.135  10.577   9.089
28265SOL    HW284820   4.122  10.558   9.251
28266SOL     OW84821   4.835  11.086   7.685
28266SOL    HW184822   4.775  11.024   7.735
28266SOL    HW284823   4.866  11.042   7.600
28267SOL     OW84824   3.926   9.595   8.946
28267SOL    HW184825   3.846   9.655   8.933
28267SOL    HW284826   3.916   9.546   9.032
28268SOL     OW84827   5.356  10.687   7.529
28268SOL    HW184828   5.324  10.781   7.519
28268SOL    HW284829   5.280  10.624   7.517
28269SOL     OW84830   4.188  11.053   7.771
28269SOL    HW184831   4.221  11.092   7.857
28269SOL    HW284832   4.264  11.046   7.706
28270SOL     OW84833   5.124   9.417   7.874
28270SOL    HW184834   5.100   9.380   7.784
28270SOL    HW284835   5.223   9.433   7.878
28271SOL     OW84836   3.973  11.095   8.689
28271SOL    HW184837   4.030  11.030   8.739
28271SOL    HW284838   3.957  11.062   8.596
28272SOL     OW84839   4.664  11.008   8.352
28272SOL    HW184840   4.744  10.951   8.373
28272SOL    HW284841   4.615  10.968   8.275
28273SOL     OW84842   4.106  10.010   7.928
28273SOL    HW184843   4.151   9.920   7.925
28273SOL    HW284844   4.012   9.999   7.961
28274SOL     OW84845   5.271   9.532   9.177
28274SOL    HW184846   5.266   9.569   9.269
28274SOL    HW284847   5.199   9.463   9.165
28275SOL     OW84848   4.338   9.432   7.565
28275SOL    HW184849   4.436   9.410   7.572
28275SOL    HW284850   4.307   9.415   7.472
28276SOL     OW84851   4.505   9.574   9.197
28276SOL    HW184852   4.572   9.513   9.240
28276SOL    HW284853   4.432   9.593   9.262
28277SOL     OW84854   4.612  10.824   8.643
28277SOL    HW184855   4.589  10.799   8.549
28277SOL    HW284856   4.673  10.755   8.682
28278SOL     OW84857   5.075   9.900   8.881
28278SOL    HW184858   5.103   9.857   8.966
28278SOL    HW284859   5.100   9.996   8.882
28279SOL     OW84860   4.527  10.712   8.372
28279SOL    HW184861   4.617  10.726   8.330
28279SOL    HW284862   4.456  10.714   8.301
28280SOL     OW84863   4.646   9.813   8.347
28280SOL    HW184864   4.621   9.804   8.251
28280SOL    HW284865   4.694   9.731   8.378
28281SOL     OW84866   4.263   9.374   7.960
28281SOL    HW184867   4.182   9.375   8.018
28281SOL    HW284868   4.266   9.457   7.905
28282SOL     OW84869   5.158  10.498   7.489
28282SOL    HW184870   5.190  10.422   7.546
28282SOL    HW284871   5.066  10.525   7.519
28283SOL     OW84872   4.021   9.345   7.619
28283SOL    HW184873   4.070   9.429   7.598
28283SOL    HW284874   4.083   9.280   7.664
28284SOL     OW84875   4.659   9.546   7.928
28284SOL    HW184876   4.611   9.587   7.850
28284SOL    HW284877   4.758   9.544   7.909
28285SOL     OW84878   4.800   9.993   8.912
28285SOL    HW184879   4.720   9.932   8.915
28285SOL    HW284880   4.881   9.940   8.888
28286SOL     OW84881   4.951  10.880   8.241
28286SOL    HW184882   4.972  10.954   8.176
28286SOL    HW284883   5.019  10.880   8.314
28287SOL     OW84884   4.183  10.462   8.189
28287SOL    HW184885   4.112  10.435   8.254
28287SOL    HW284886   4.157  10.434   8.096
28288SOL     OW84887   4.995  11.107   8.039
28288SOL    HW184888   5.039  11.171   7.975
28288SOL    HW284889   4.945  11.159   8.109
28289SOL     OW84890   4.756   9.859   7.464
28289SOL    HW184891   4.715   9.941   7.425
28289SOL    HW284892   4.820   9.885   7.537
28290SOL     OW84893   3.802   9.866   8.834
28290SOL    HW184894   3.894   9.865   8.793
28290SOL    HW284895   3.796   9.940   8.901
28291SOL     OW84896   4.285   9.532   8.595
28291SOL    HW184897   4.323   9.448   8.632
28291SOL    HW284898   4.197   9.551   8.639
28292SOL     OW84899   4.590   9.764   8.090
28292SOL    HW184900   4.558   9.836   8.028
28292SOL    HW284901   4.614   9.683   8.037
28293SOL     OW84902   4.741   9.349   8.201
28293SOL    HW184903   4.669   9.354   8.132
28293SOL    HW284904   4.717   9.280   8.270
28294SOL     OW84905   5.153  10.483   8.315
28294SOL    HW184906   5.098  10.399   8.308
28294SOL    HW284907   5.179  10.512   8.223
28295SOL     OW84908   5.190   9.900   8.440
28295SOL    HW184909   5.160   9.805   8.447
28295SOL    HW284910   5.263   9.916   8.506
28296SOL     OW84911   5.581  10.143   7.825
28296SOL    HW184912   5.623  10.079   7.889
28296SOL    HW284913   5.543  10.092   7.747
28297SOL     OW84914   4.212  10.695   7.622
28297SOL    HW184915   4.125  10.680   7.669
28297SOL    HW284916   4.195  10.721   7.527
28298SOL     OW84917   5.388  10.590   8.105
28298SOL    HW184918   5.487  10.598   8.119
28298SOL    HW284919   5.343  10.674   8.136
28299SOL     OW84920   5.114   9.885   7.526
28299SOL    HW184921   5.060   9.864   7.607
28299SOL    HW284922   5.205   9.844   7.535
28300SOL     OW84923   4.251   9.566   7.776
28300SOL    HW184924   4.278   9.507   7.701
28300SOL    HW284925   4.251   9.661   7.745
28301SOL     OW84926   5.478  10.533   9.036
28301SOL    HW184927   5.569  10.494   9.023
28301SOL    HW284928   5.486  10.629   9.060
28302SOL     OW84929   4.788  10.657   8.788
28302SOL    HW184930   4.708  10.634   8.843
28302SOL    HW284931   4.871  10.631   8.837
28303SOL     OW84932   5.316  10.939   9.073
28303SOL    HW184933   5.343  10.973   8.983
28303SOL    HW284934   5.395  10.901   9.119
28304SOL     OW84935   4.835  10.505   8.548
28304SOL    HW184936   4.795  10.549   8.629
28304SOL    HW284937   4.794  10.542   8.465
28305SOL     OW84938   5.362  10.409   8.527
28305SOL    HW184939   5.367  10.490   8.586
28305SOL    HW284940   5.276  10.411   8.476
28306SOL     OW84941   4.639   9.399   8.850
28306SOL    HW184942   4.664   9.379   8.755
28306SOL    HW284943   4.711   9.455   8.892
28307SOL     OW84944   4.704  10.426   9.167
28307SOL    HW184945   4.605  10.432   9.177
28307SOL    HW284946   4.727  10.346   9.111
28308SOL     OW84947   4.429  10.360   7.816
28308SOL    HW184948   4.415  10.367   7.915
28308SOL    HW284949   4.513  10.309   7.798
28309SOL     OW84950   4.134  10.123   8.699
28309SOL    HW184951   4.220  10.135   8.749
28309SOL    HW284952   4.092  10.036   8.726
28310SOL     OW84953   4.998   9.696   8.710
28310SOL    HW184954   5.019   9.770   8.774
28310SOL    HW284955   4.909   9.713   8.667
28311SOL     OW84956   3.788  10.874   8.779
28311SOL    HW184957   3.742  10.956   8.745
28311SOL    HW284958   3.886  10.893   8.788
28312SOL     OW84959   4.091  10.410   7.949
28312SOL    HW184960   4.084  10.493   7.893
28312SOL    HW284961   4.095  10.330   7.889
28313SOL     OW84962   4.290   9.847   8.313
28313SOL    HW184963   4.302   9.913   8.239
28313SOL    HW284964   4.336   9.881   8.396
28314SOL     OW84965   4.976  10.658   7.836
28314SOL    HW184966   5.026  10.735   7.876
28314SOL    HW284967   4.881  10.660   7.868
28315SOL     OW84968   4.996  10.755   8.590
28315SOL    HW184969   5.043  10.768   8.677
28315SOL    HW284970   4.930  10.681   8.599
28316SOL     OW84971   5.306   9.949   7.920
28316SOL    HW184972   5.275  10.010   7.993
28316SOL    HW284973   5.356  10.001   7.851
28317SOL     OW84974   4.078  10.820   8.777
28317SOL    HW184975   4.057  10.776   8.690
28317SOL    HW284976   4.175  10.846   8.780
28318SOL     OW84977   4.126  10.061   9.046
28318SOL    HW184978   4.194  10.116   8.999
28318SOL    HW284979   4.166   9.973   9.073
28319SOL     OW84980   5.311  10.089   9.118
28319SOL    HW184981   5.219  10.127   9.113
28319SOL    HW284982   5.371  10.136   9.053
28320SOL     OW84983   4.737   9.415   9.218
28320SOL    HW184984   4.743   9.500   9.166
28320SOL    HW284985   4.769   9.339   9.161
28321SOL     OW84986   4.228   9.360   9.188
28321SOL    HW184987   4.186   9.303   9.118
28321SOL    HW284988   4.162   9.429   9.220
28322SOL     OW84989   4.297  10.180   8.477
28322SOL    HW184990   4.341  10.269   8.468
28322SOL    HW284991   4.234  10.180   8.554
28323SOL     OW84992   5.084  10.172   8.493
28323SOL    HW184993   5.009  10.172   8.427
28323SOL    HW284994   5.121  10.080   8.502
28324SOL     OW84995   4.933   9.835   7.723
28324SOL    HW184996   4.946   9.751   7.777
28324SOL    HW284997   4.904   9.909   7.783
28325SOL     OW84998   4.031   9.523   8.679
28325SOL    HW184999   4.008   9.560   8.769
28325SOL    HW285000   4.001   9.428   8.673
28326SOL     OW85001   3.761  10.620   8.730
28326SOL    HW185002   3.814  10.571   8.798
28326SOL    HW285003   3.783  10.718   8.735
28327SOL     OW85004   4.456   9.944   8.512
28327SOL    HW185005   4.515   9.918   8.436
28327SOL    HW285006   4.428  10.040   8.501
28328SOL     OW85007   5.452  10.245   9.302
28328SOL    HW185008   5.406  10.238   9.213
28328SOL    HW285009   5.390  10.289   9.368
28329SOL     OW85010   4.031   9.373   8.066
28329SOL    HW185011   4.020   9.467   8.099
28329SOL    HW285012   4.026   9.310   8.143
28330SOL     OW85013   5.346   9.677   7.822
28330SOL    HW185014   5.348   9.601   7.886
28330SOL    HW285015   5.298   9.754   7.862
28331SOL     OW85016   4.747  10.076   8.414
28331SOL    HW185017   4.762  10.097   8.510
28331SOL    HW285018   4.717   9.981   8.405
28332SOL     OW85019   4.704  10.883   9.148
28332SOL    HW185020   4.684  10.927   9.060
28332SOL    HW285021   4.743  10.792   9.132
28333SOL     OW85022   5.583  10.828   9.053
28333SOL    HW185023   5.597  10.855   8.958
28333SOL    HW285024   5.666  10.850   9.106
28334SOL     OW85025   4.074  10.208   9.252
28334SOL    HW185026   4.150  10.252   9.300
28334SOL    HW285027   4.109  10.161   9.170
28335SOL     OW85028   5.264   9.584   7.573
28335SOL    HW185029   5.203   9.509   7.596
28335SOL    HW285030   5.286   9.636   7.656
28336SOL     OW85031   5.027  10.148   7.490
28336SOL    HW185032   5.061  10.055   7.505
28336SOL    HW285033   5.045  10.175   7.395
28337SOL     OW85034   4.792  10.643   8.297
28337SOL    HW185035   4.799  10.559   8.242
28337SOL    HW285036   4.854  10.712   8.261
28338SOL     OW85037   4.043  10.120   8.397
28338SOL    HW185038   4.136  10.156   8.402
28338SOL    HW285039   4.037  10.035   8.449
28339SOL     OW85040   4.063   9.819   8.454
28339SOL    HW185041   4.011   9.736   8.437
28339SOL    HW285042   4.140   9.824   8.390
28340SOL     OW85043   4.862   9.690   9.126
28340SOL    HW185044   4.817   9.753   9.190
28340SOL    HW285045   4.955   9.721   9.109
28341SOL     OW85046   4.884   9.517   8.925
28341SOL    HW185047   4.884   9.581   9.002
28341SOL    HW285048   4.912   9.565   8.842
28342SOL     OW85049   3.732  10.636   7.648
28342SOL    HW185050   3.639  10.657   7.617
28342SOL    HW285051   3.742  10.537   7.661
28343SOL     OW85052   3.812  11.111   8.375
28343SOL    HW185053   3.770  11.025   8.348
28343SOL    HW285054   3.906  11.114   8.341
28344SOL     OW85055   4.228  10.878   8.358
28344SOL    HW185056   4.294  10.952   8.367
28344SOL    HW285057   4.272  10.799   8.316
28345SOL     OW85058   4.726  10.106   8.686
28345SOL    HW185059   4.767  10.074   8.772
28345SOL    HW285060   4.630  10.079   8.683
28346SOL     OW85061   3.764   9.854   8.562
28346SOL    HW185062   3.849   9.821   8.521
28346SOL    HW285063   3.777   9.869   8.660
28347SOL     OW85064   3.913   9.830   9.170
28347SOL    HW185065   3.972   9.790   9.100
28347SOL    HW285066   3.855   9.901   9.129
28348SOL     OW85067   5.093  10.260   9.108
28348SOL    HW185068   5.132  10.349   9.128
28348SOL    HW285069   5.103  10.240   9.011
28349SOL     OW85070   4.539   9.882   7.773
28349SOL    HW185071   4.546   9.793   7.727
28349SOL    HW285072   4.445   9.916   7.765
28350SOL     OW85073   5.381   9.914   8.654
28350SOL    HW185074   5.343   9.845   8.716
28350SOL    HW285075   5.463   9.878   8.610
28351SOL     OW85076   3.976  10.874   9.192
28351SOL    HW185077   3.946  10.931   9.268
28351SOL    HW285078   3.969  10.777   9.218
28352SOL     OW85079   4.395   9.774   8.717
28352SOL    HW185080   4.361   9.685   8.687
28352SOL    HW285081   4.421   9.828   8.637
28353SOL     OW85082   4.654  10.988   8.913
28353SOL    HW185083   4.630  10.970   8.818
28353SOL    HW285084   4.684  11.082   8.923
28354SOL     OW85085   4.197   9.810   7.639
28354SOL    HW185086   4.258   9.890   7.643
28354SOL    HW285087   4.102   9.841   7.646
28355SOL     OW85088   3.883  10.447   8.914
28355SOL    HW185089   3.905  10.386   8.990
28355SOL    HW285090   3.893  10.398   8.828
28356SOL     OW85091   5.071  10.369   8.682
28356SOL    HW185092   5.095  10.306   8.608
28356SOL    HW285093   4.981  10.409   8.664
28357SOL     OW85094   5.026  10.165   7.757
28357SOL    HW185095   4.940  10.134   7.799
28357SOL    HW285096   5.022  10.151   7.658
28358SOL     OW85097   5.483  11.057   8.602
28358SOL    HW185098   5.544  11.087   8.529
28358SOL    HW285099   5.445  10.968   8.580
28359SOL     OW85100   4.976  11.041   8.576
28359SOL    HW185101   5.060  11.046   8.522
28359SOL    HW285102   4.953  10.945   8.594
28360SOL     OW85103   3.807  10.568   8.470
28360SOL    HW185104   3.802  10.567   8.570
28360SOL    HW285105   3.724  10.527   8.432
28361SOL     OW85106   4.412  10.972   9.164
28361SOL    HW185107   4.356  11.053   9.173
28361SOL    HW285108   4.464  10.976   9.078
28362SOL     OW85109   5.450   9.445   7.971
28362SOL    HW185110   5.523   9.428   7.904
28362SOL    HW285111   5.419   9.358   8.009
28363SOL     OW85112   5.112  10.883   7.925
28363SOL    HW185113   5.179  10.895   7.851
28363SOL    HW285114   5.072  10.972   7.948
28364SOL     OW85115   3.854  11.104   9.299
28364SOL    HW185116   3.813  11.030   9.352
28364SOL    HW285117   3.918  11.155   9.357
28365SOL     OW85118   5.004  10.237   8.120
28365SOL    HW185119   5.064  10.156   8.122
28365SOL    HW285120   5.044  10.306   8.060
28366SOL     OW85121   4.554  10.583   8.870
28366SOL    HW185122   4.549  10.616   8.965
28366SOL    HW285123   4.468  10.602   8.824
28367SOL     OW85124   4.396  10.926   7.602
28367SOL    HW185125   4.405  10.936   7.503
28367SOL    HW285126   4.356  10.837   7.623
28368SOL     OW85127   5.374  11.030   8.842
28368SOL    HW185128   5.427  11.040   8.758
28368SOL    HW285129   5.347  11.120   8.876
28369SOL     OW85130   5.565   9.485   8.411
28369SOL    HW185131   5.604   9.400   8.375
28369SOL    HW285132   5.467   9.487   8.392
28370SOL     OW85133   3.987   9.636   8.168
28370SOL    HW185134   3.908   9.687   8.134
28370SOL    HW285135   3.978   9.621   8.266
28371SOL     OW85136   4.918  10.922   7.479
28371SOL    HW185137   4.924  10.829   7.516
28371SOL    HW285138   4.859  10.922   7.399
28372SOL     OW85139   4.546  10.312   8.820
28372SOL    HW185140   4.586  10.311   8.728
28372SOL    HW285141   4.556  10.404   8.860
28373SOL     OW85142   4.640  10.220   7.739
28373SOL    HW185143   4.703  10.258   7.671
28373SOL    HW285144   4.680  10.137   7.778
28374SOL     OW85145   5.228  10.917   7.492
28374SOL    HW185146   5.136  10.954   7.499
28374SOL    HW285147   5.266  10.937   7.402
28375SOL     OW85148   4.096  10.598   8.938
28375SOL    HW185149   4.083  10.691   8.904
28375SOL    HW285150   4.012  10.546   8.925
28376SOL     OW85151   5.338  10.602   8.737
28376SOL    HW185152   5.398  10.605   8.817
28376SOL    HW285153   5.263  10.666   8.750
28377SOL     OW85154   4.763  10.408   8.144
28377SOL    HW185155   4.693  10.361   8.198
28377SOL    HW285156   4.822  10.340   8.101
28378SOL     OW85157   4.738   9.546   8.419
28378SOL    HW185158   4.730   9.510   8.326
28378SOL    HW285159   4.736   9.470   8.484
28379SOL     OW85160   4.314  10.797   7.939
28379SOL    HW185161   4.356  10.739   7.869
28379SOL    HW285162   4.270  10.876   7.895
28380SOL     OW85163   5.433   9.695   8.829
28380SOL    HW185164   5.506   9.764   8.833
28380SOL    HW285165   5.461   9.620   8.770
28381SOL     OW85166   3.979  10.658   7.738
28381SOL    HW185167   3.883  10.659   7.711
28381SOL    HW285168   3.991  10.711   7.822
28382SOL     OW85169   3.829  10.323   9.174
28382SOL    HW185170   3.752  10.290   9.228
28382SOL    HW285171   3.914  10.293   9.216
28383SOL     OW85172   4.396   9.513   8.937
28383SOL    HW185173   4.486   9.497   8.897
28383SOL    HW285174   4.404   9.518   9.036
28384SOL     OW85175   3.799   9.655   7.481
28384SOL    HW185176   3.707   9.627   7.452
28384SOL    HW285177   3.830   9.732   7.425
28385SOL     OW85178   5.164  10.166   8.846
28385SOL    HW185179   5.107  10.218   8.783
28385SOL    HW285180   5.260  10.178   8.822
28386SOL     OW85181   3.796   9.476   7.766
28386SOL    HW185182   3.779   9.559   7.712
28386SOL    HW285183   3.886   9.439   7.744
28387SOL     OW85184   4.907  10.645   7.567
28387SOL    HW185185   4.808  10.634   7.569
28387SOL    HW285186   4.941  10.660   7.660
28388SOL     OW85187   4.337  10.152   8.879
28388SOL    HW185188   4.393  10.233   8.862
28388SOL    HW285189   4.396  10.072   8.882
28389SOL     OW85190   5.217  11.077   8.407
28389SOL    HW185191   5.250  11.141   8.338
28389SOL    HW285192   5.283  11.071   8.482
28390SOL     OW85193   4.440   9.875   9.156
28390SOL    HW185194   4.459   9.940   9.230
28390SOL    HW285195   4.500   9.795   9.165
28391SOL     OW85196   5.174  10.530   9.081
28391SOL    HW185197   5.165  10.520   9.180
28391SOL    HW285198   5.270  10.523   9.055
28392SOL     OW85199   4.114  11.051   9.008
28392SOL    HW185200   4.023  11.092   9.006
28392SOL    HW285201   4.107  10.957   9.040
28393SOL     OW85202   5.398  10.193   8.702
28393SOL    HW185203   5.371  10.104   8.665
28393SOL    HW285204   5.399  10.261   8.629
28394SOL     OW85205   4.949   9.635   7.897
28394SOL    HW185206   5.014   9.561   7.886
28394SOL    HW285207   4.969   9.685   7.981
28395SOL     OW85208   4.318  10.055   8.100
28395SOL    HW185209   4.368  10.140   8.081
28395SOL    HW285210   4.230  10.057   8.052
28396SOL     OW85211   5.501   9.652   9.090
28396SOL    HW185212   5.484   9.683   8.996
28396SOL    HW285213   5.417   9.615   9.128
28397SOL     OW85214   5.454  10.244   8.965
28397SOL    HW185215   5.492  10.335   8.980
28397SOL    HW285216   5.446  10.227   8.866
28398SOL     OW85217   4.583  10.684   7.464
28398SOL    HW185218   4.537  10.699   7.552
28398SOL    HW285219   4.627  10.769   7.434
28399SOL     OW85220   4.385  11.100   8.401
28399SOL    HW185221   4.339  11.188   8.388
28399SOL    HW285222   4.484  11.112   8.394
28400SOL     OW85223   4.583  10.266   8.309
28400SOL    HW185224   4.637  10.197   8.357
28400SOL    HW285225   4.551  10.335   8.375
28401SOL     OW85226   4.807  10.294   7.535
28401SOL    HW185227   4.784  10.347   7.453
28401SOL    HW285228   4.888  10.238   7.516
28402SOL     OW85229   5.585  10.879   8.299
28402SOL    HW185230   5.514  10.867   8.229
28402SOL    HW285231   5.586  10.800   8.359
28403SOL     OW85232   3.945  10.624   9.292
28403SOL    HW185233   3.880  10.551   9.271
28403SOL    HW285234   3.949  10.638   9.390
28404SOL     OW85235   3.803  10.550   8.101
28404SOL    HW185236   3.802  10.503   8.189
28404SOL    HW285237   3.885  10.522   8.050
28405SOL     OW85238   4.396  10.701   9.072
28405SOL    HW185239   4.318  10.651   9.110
28405SOL    HW285240   4.393  10.796   9.103
28406SOL     OW85241   5.548   9.502   8.675
28406SOL    HW185242   5.544   9.412   8.719
28406SOL    HW285243   5.551   9.491   8.576
28407SOL     OW85244   4.152   9.734   7.968
28407SOL    HW185245   4.182   9.662   7.906
28407SOL    HW285246   4.113   9.694   8.051
28408SOL     OW85247   5.429  10.797   8.552
28408SOL    HW185248   5.336  10.772   8.525
28408SOL    HW285249   5.455  10.747   8.634
28409SOL     OW85250   4.041   9.857   8.728
28409SOL    HW185251   4.079   9.798   8.800
28409SOL    HW285252   4.081   9.831   8.640
28410SOL     OW85253   4.536  10.896   8.135
28410SOL    HW185254   4.568  10.906   8.041
28410SOL    HW285255   4.457  10.834   8.137
28411SOL     OW85256   5.148   9.524   8.560
28411SOL    HW185257   5.200   9.459   8.615
28411SOL    HW285258   5.099   9.587   8.621
28412SOL     OW85259   4.725   9.344   8.602
28412SOL    HW185260   4.662   9.272   8.571
28412SOL    HW285261   4.818   9.308   8.602
28413SOL     OW85262   4.494  10.640   7.749
28413SOL    HW185263   4.448  10.553   7.766
28413SOL    HW285264   4.585  10.637   7.790
28414SOL     OW85265   4.342  10.877   8.732
28414SOL    HW185266   4.337  10.959   8.789
28414SOL    HW285267   4.431  10.874   8.687
28415SOL     OW85268   5.076   9.362   7.616
28415SOL    HW185269   5.111   9.321   7.532
28415SOL    HW285270   4.986   9.324   7.636
28416SOL     OW85271   5.024   9.763   8.139
28416SOL    HW185272   4.965   9.843   8.143
28416SOL    HW285273   5.039   9.728   8.232
28417SOL     OW85274   5.317   9.531   8.330
28417SOL    HW185275   5.233   9.530   8.384
28417SOL    HW285276   5.319   9.614   8.274
28418SOL     OW85277   3.763  10.387   7.748
28418SOL    HW185278   3.862  10.376   7.739
28418SOL    HW285279   3.723  10.301   7.780
28419SOL     OW85280   4.599  10.956   7.785
28419SOL    HW185281   4.522  10.921   7.731
28419SOL    HW285282   4.567  11.027   7.847
28420SOL     OW85283   3.954   9.938   9.423
28420SOL    HW185284   3.861   9.936   9.460
28420SOL    HW285285   3.955   9.899   9.331
28421SOL     OW85286   3.949   9.585  10.306
28421SOL    HW185287   3.984   9.568  10.398
28421SOL    HW285288   3.861   9.540  10.294
28422SOL     OW85289   3.743   9.678   9.957
28422SOL    HW185290   3.661   9.721   9.996
28422SOL    HW285291   3.715   9.605   9.894
28423SOL     OW85292   4.293  10.585  10.475
28423SOL    HW185293   4.200  10.578  10.438
28423SOL    HW285294   4.304  10.674  10.519
28424SOL     OW85295   5.279  10.821  10.013
28424SOL    HW185296   5.222  10.805  10.094
28424SOL    HW285297   5.220  10.831   9.933
28425SOL     OW85298   4.859  10.013  10.027
28425SOL    HW185299   4.916  10.091  10.002
28425SOL    HW285300   4.799  10.039  10.103
28426SOL     OW85301   5.479   9.917   9.541
28426SOL    HW185302   5.467   9.904   9.442
28426SOL    HW285303   5.449   9.836   9.590
28427SOL     OW85304   4.492  10.454  10.333
28427SOL    HW185305   4.414  10.471  10.393
28427SOL    HW285306   4.526  10.541  10.297
28428SOL     OW85307   4.574  10.108  11.133
28428SOL    HW185308   4.570  10.184  11.198
28428SOL    HW285309   4.596  10.144  11.042
28429SOL     OW85310   4.409  10.322   9.975
28429SOL    HW185311   4.478  10.306  10.045
28429SOL    HW285312   4.336  10.379  10.013
28430SOL     OW85313   4.410  10.471  11.113
28430SOL    HW185314   4.470  10.550  11.127
28430SOL    HW285315   4.324  10.502  11.072
28431SOL     OW85316   4.059  10.745  10.371
28431SOL    HW185317   3.981  10.714  10.318
28431SOL    HW285318   4.117  10.803  10.314
28432SOL     OW85319   5.184  10.815  10.649
28432SOL    HW185320   5.208  10.909  10.675
28432SOL    HW285321   5.168  10.761  10.731
28433SOL     OW85322   4.162   9.702  10.809
28433SOL    HW185323   4.244   9.646  10.818
28433SOL    HW285324   4.081   9.644  10.813
28434SOL     OW85325   5.327   9.757  10.047
28434SOL    HW185326   5.253   9.803   9.997
28434SOL    HW285327   5.378   9.825  10.100
28435SOL     OW85328   3.955  11.023   9.793
28435SOL    HW185329   3.989  11.100   9.847
28435SOL    HW285330   3.999  11.023   9.703
28436SOL     OW85331   4.851  10.651  11.000
28436SOL    HW185332   4.898  10.651  11.088
28436SOL    HW285333   4.803  10.564  10.989
28437SOL     OW85334   3.954  10.744   9.848
28437SOL    HW185335   3.928  10.840   9.848
28437SOL    HW285336   3.883  10.690   9.893
28438SOL     OW85337   3.964  10.401  10.196
28438SOL    HW185338   3.978  10.317  10.248
28438SOL    HW285339   3.909  10.465  10.251
28439SOL     OW85340   4.344  11.096  10.749
28439SOL    HW185341   4.252  11.079  10.784
28439SOL    HW285342   4.372  11.188  10.775
28440SOL     OW85343   4.330  10.274   9.433
28440SOL    HW185344   4.337  10.358   9.379
28440SOL    HW285345   4.376  10.287   9.521
28441SOL     OW85346   5.318   9.424  10.790
28441SOL    HW185347   5.300   9.491  10.718
28441SOL    HW285348   5.315   9.470  10.879
28442SOL     OW85349   3.846   9.953   9.873
28442SOL    HW185350   3.801   9.865   9.890
28442SOL    HW285351   3.845  10.007   9.957
28443SOL     OW85352   5.566  11.077   9.669
28443SOL    HW185353   5.620  11.048   9.749
28443SOL    HW285354   5.596  11.167   9.640
28444SOL     OW85355   3.751  10.906   9.427
28444SOL    HW185356   3.732  10.810   9.448
28444SOL    HW285357   3.718  10.964   9.502
28445SOL     OW85358   5.413  10.232   9.922
28445SOL    HW185359   5.508  10.203   9.930
28445SOL    HW285360   5.405  10.297   9.847
28446SOL     OW85361   5.365  10.418   9.742
28446SOL    HW185362   5.451  10.420   9.690
28446SOL    HW285363   5.379  10.465   9.830
28447SOL     OW85364   3.837  10.047  10.907
28447SOL    HW185365   3.925  10.034  10.952
28447SOL    HW285366   3.824  10.144  10.885
28448SOL     OW85367   4.337  10.675  10.036
28448SOL    HW185368   4.288  10.588  10.045
28448SOL    HW285369   4.314  10.718   9.949
28449SOL     OW85370   5.017  10.538  10.733
28449SOL    HW185371   5.054  10.465  10.675
28449SOL    HW285372   5.069  10.543  10.818
28450SOL     OW85373   4.533   9.314   9.812
28450SOL    HW185374   4.573   9.405   9.803
28450SOL    HW285375   4.433   9.322   9.818
28451SOL     OW85376   3.921  10.286  10.574
28451SOL    HW185377   4.010  10.241  10.560
28451SOL    HW285378   3.848  10.221  10.555
28452SOL     OW85379   5.249  10.309   9.500
28452SOL    HW185380   5.186  10.233   9.513
28452SOL    HW285381   5.297  10.327   9.586
28453SOL     OW85382   4.911  11.102  10.926
28453SOL    HW185383   4.935  11.162  10.850
28453SOL    HW285384   4.918  11.007  10.896
28454SOL     OW85385   4.041   9.561  11.111
28454SOL    HW185386   4.112   9.632  11.117
28454SOL    HW285387   3.953   9.600  11.139
28455SOL     OW85388   5.190  10.727  10.263
28455SOL    HW185389   5.131  10.733  10.343
28455SOL    HW285390   5.175  10.639  10.217
28456SOL     OW85391   5.391  11.024   9.882
28456SOL    HW185392   5.350  11.001   9.794
28456SOL    HW285393   5.373  10.950   9.947
28457SOL     OW85394   4.322  10.039   9.580
28457SOL    HW185395   4.346  10.108   9.512
28457SOL    HW285396   4.244  10.072   9.634
28458SOL     OW85397   5.005   9.655  10.254
28458SOL    HW185398   4.919   9.605  10.241
28458SOL    HW285399   5.067   9.601  10.310
28459SOL     OW85400   5.300  10.972   9.617
28459SOL    HW185401   5.389  11.018   9.620
28459SOL    HW285402   5.279  10.948   9.522
28460SOL     OW85403   4.531   9.915  10.775
28460SOL    HW185404   4.484   9.912  10.864
28460SOL    HW285405   4.480   9.860  10.709
28461SOL     OW85406   5.118   9.779  10.984
28461SOL    HW185407   5.098   9.822  11.072
28461SOL    HW285408   5.196   9.717  10.993
28462SOL     OW85409   4.697  10.200  10.882
28462SOL    HW185410   4.743  10.116  10.853
28462SOL    HW285411   4.641  10.234  10.807
28463SOL     OW85412   4.715   9.720  10.552
28463SOL    HW185413   4.638   9.754  10.606
28463SOL    HW285414   4.681   9.669  10.473
28464SOL     OW85415   4.765  10.011   9.739
28464SOL    HW185416   4.791  10.007   9.835
28464SOL    HW285417   4.680   9.960   9.725
28465SOL     OW85418   3.800  10.121  10.099
28465SOL    HW185419   3.899  10.109  10.108
28465SOL    HW285420   3.776  10.216  10.120
28466SOL     OW85421   3.854  11.131  10.881
28466SOL    HW185422   3.844  11.116  10.980
28466SOL    HW285423   3.768  11.167  10.845
28467SOL     OW85424   4.589   9.658   9.505
28467SOL    HW185425   4.648   9.721   9.456
28467SOL    HW285426   4.608   9.564   9.476
28468SOL     OW85427   5.443   9.895  11.141
28468SOL    HW185428   5.417   9.984  11.105
28468SOL    HW285429   5.441   9.827  11.068
28469SOL     OW85430   5.086  10.454   9.855
28469SOL    HW185431   5.169  10.425   9.807
28469SOL    HW285432   5.037  10.521   9.799
28470SOL     OW85433   4.274   9.506  10.195
28470SOL    HW185434   4.269   9.501  10.295
28470SOL    HW285435   4.276   9.602  10.166
28471SOL     OW85436   4.732  10.766   9.787
28471SOL    HW185437   4.686  10.838   9.735
28471SOL    HW285438   4.728  10.786   9.885
28472SOL     OW85439   4.075  11.111  10.163
28472SOL    HW185440   4.125  11.025  10.169
28472SOL    HW285441   4.140  11.188  10.160
28473SOL     OW85442   5.519  10.376  10.183
28473SOL    HW185443   5.457  10.361  10.107
28473SOL    HW285444   5.467  10.387  10.268
28474SOL     OW85445   4.951  10.860  10.816
28474SOL    HW185446   4.957  10.783  10.880
28474SOL    HW285447   4.899  10.834  10.736
28475SOL     OW85448   4.045  10.253   9.552
28475SOL    HW185449   4.127  10.292   9.510
28475SOL    HW285450   4.018  10.171   9.503
28476SOL     OW85451   5.182  10.045  10.038
28476SOL    HW185452   5.177   9.980  10.113
28476SOL    HW285453   5.262  10.104  10.051
28477SOL     OW85454   4.185  10.576  11.037
28477SOL    HW185455   4.135  10.577  10.951
28477SOL    HW285456   4.122  10.558  11.113
28478SOL     OW85457   4.835  11.086   9.547
28478SOL    HW185458   4.775  11.024   9.597
28478SOL    HW285459   4.866  11.042   9.462
28479SOL     OW85460   3.926   9.595  10.808
28479SOL    HW185461   3.846   9.655  10.795
28479SOL    HW285462   3.916   9.546  10.894
28480SOL     OW85463   5.356  10.687   9.391
28480SOL    HW185464   5.324  10.781   9.381
28480SOL    HW285465   5.280  10.624   9.379
28481SOL     OW85466   4.188  11.053   9.633
28481SOL    HW185467   4.221  11.092   9.719
28481SOL    HW285468   4.264  11.046   9.568
28482SOL     OW85469   5.124   9.417   9.736
28482SOL    HW185470   5.100   9.380   9.646
28482SOL    HW285471   5.223   9.433   9.740
28483SOL     OW85472   3.973  11.095  10.551
28483SOL    HW185473   4.030  11.030  10.601
28483SOL    HW285474   3.957  11.062  10.458
28484SOL     OW85475   4.664  11.008  10.214
28484SOL    HW185476   4.744  10.951  10.235
28484SOL    HW285477   4.615  10.968  10.137
28485SOL     OW85478   4.106  10.010   9.790
28485SOL    HW185479   4.151   9.920   9.787
28485SOL    HW285480   4.012   9.999   9.823
28486SOL     OW85481   5.271   9.532  11.039
28486SOL    HW185482   5.266   9.569  11.131
28486SOL    HW285483   5.199   9.463  11.027
28487SOL     OW85484   4.338   9.432   9.427
28487SOL    HW185485   4.436   9.410   9.434
28487SOL    HW285486   4.307   9.415   9.334
28488SOL     OW85487   4.505   9.574  11.059
28488SOL    HW185488   4.572   9.513  11.102
28488SOL    HW285489   4.432   9.593  11.124
28489SOL     OW85490   4.612  10.824  10.505
28489SOL    HW185491   4.589  10.799  10.411
28489SOL    HW285492   4.673  10.755  10.544
28490SOL     OW85493   5.075   9.900  10.743
28490SOL    HW185494   5.103   9.857  10.828
28490SOL    HW285495   5.100   9.996  10.744
28491SOL     OW85496   4.527  10.712  10.234
28491SOL    HW185497   4.617  10.726  10.192
28491SOL    HW285498   4.456  10.714  10.163
28492SOL     OW85499   4.646   9.813  10.209
28492SOL    HW185500   4.621   9.804  10.113
28492SOL    HW285501   4.694   9.731  10.240
28493SOL     OW85502   4.263   9.374   9.822
28493SOL    HW185503   4.182   9.375   9.880
28493SOL    HW285504   4.266   9.457   9.767
28494SOL     OW85505   5.158  10.498   9.351
28494SOL    HW185506   5.190  10.422   9.408
28494SOL    HW285507   5.066  10.525   9.381
28495SOL     OW85508   4.021   9.345   9.481
28495SOL    HW185509   4.070   9.429   9.460
28495SOL    HW285510   4.083   9.280   9.526
28496SOL     OW85511   4.659   9.546   9.790
28496SOL    HW185512   4.611   9.587   9.712
28496SOL    HW285513   4.758   9.544   9.771
28497SOL     OW85514   4.800   9.993  10.774
28497SOL    HW185515   4.720   9.932  10.777
28497SOL    HW285516   4.881   9.940  10.750
28498SOL     OW85517   4.951  10.880  10.103
28498SOL    HW185518   4.972  10.954  10.038
28498SOL    HW285519   5.019  10.880  10.176
28499SOL     OW85520   4.183  10.462  10.051
28499SOL    HW185521   4.112  10.435  10.116
28499SOL    HW285522   4.157  10.434   9.958
28500SOL     OW85523   4.995  11.107   9.901
28500SOL    HW185524   5.039  11.171   9.837
28500SOL    HW285525   4.945  11.159   9.971
28501SOL     OW85526   4.756   9.859   9.326
28501SOL    HW185527   4.715   9.941   9.287
28501SOL    HW285528   4.820   9.885   9.399
28502SOL     OW85529   3.802   9.866  10.696
28502SOL    HW185530   3.894   9.865  10.655
28502SOL    HW285531   3.796   9.940  10.763
28503SOL     OW85532   4.285   9.532  10.457
28503SOL    HW185533   4.323   9.448  10.494
28503SOL    HW285534   4.197   9.551  10.501
28504SOL     OW85535   4.590   9.764   9.952
28504SOL    HW185536   4.558   9.836   9.890
28504SOL    HW285537   4.614   9.683   9.899
28505SOL     OW85538   4.741   9.349  10.063
28505SOL    HW185539   4.669   9.354   9.994
28505SOL    HW285540   4.717   9.280  10.132
28506SOL     OW85541   5.153  10.483  10.177
28506SOL    HW185542   5.098  10.399  10.170
28506SOL    HW285543   5.179  10.512  10.085
28507SOL     OW85544   5.190   9.900  10.302
28507SOL    HW185545   5.160   9.805  10.309
28507SOL    HW285546   5.263   9.916  10.368
28508SOL     OW85547   5.581  10.143   9.687
28508SOL    HW185548   5.623  10.079   9.751
28508SOL    HW285549   5.543  10.092   9.609
28509SOL     OW85550   4.212  10.695   9.484
28509SOL    HW185551   4.125  10.680   9.531
28509SOL    HW285552   4.195  10.721   9.389
28510SOL     OW85553   5.388  10.590   9.967
28510SOL    HW185554   5.487  10.598   9.981
28510SOL    HW285555   5.343  10.674   9.998
28511SOL     OW85556   5.114   9.885   9.388
28511SOL    HW185557   5.060   9.864   9.469
28511SOL    HW285558   5.205   9.844   9.397
28512SOL     OW85559   4.251   9.566   9.638
28512SOL    HW185560   4.278   9.507   9.563
28512SOL    HW285561   4.251   9.661   9.607
28513SOL     OW85562   5.478  10.533  10.898
28513SOL    HW185563   5.569  10.494  10.885
28513SOL    HW285564   5.486  10.629  10.922
28514SOL     OW85565   4.788  10.657  10.650
28514SOL    HW185566   4.708  10.634  10.705
28514SOL    HW285567   4.871  10.631  10.699
28515SOL     OW85568   5.316  10.939  10.935
28515SOL    HW185569   5.343  10.973  10.845
28515SOL    HW285570   5.395  10.901  10.981
28516SOL     OW85571   4.835  10.505  10.410
28516SOL    HW185572   4.795  10.549  10.491
28516SOL    HW285573   4.794  10.542  10.327
28517SOL     OW85574   5.362  10.409  10.389
28517SOL    HW185575   5.367  10.490  10.448
28517SOL    HW285576   5.276  10.411  10.338
28518SOL     OW85577   4.639   9.399  10.712
28518SOL    HW185578   4.664   9.379  10.617
28518SOL    HW285579   4.711   9.455  10.754
28519SOL     OW85580   4.704  10.426  11.029
28519SOL    HW185581   4.605  10.432  11.039
28519SOL    HW285582   4.727  10.346  10.973
28520SOL     OW85583   4.429  10.360   9.678
28520SOL    HW185584   4.415  10.367   9.777
28520SOL    HW285585   4.513  10.309   9.660
28521SOL     OW85586   4.134  10.123  10.561
28521SOL    HW185587   4.220  10.135  10.611
28521SOL    HW285588   4.092  10.036  10.588
28522SOL     OW85589   4.998   9.696  10.572
28522SOL    HW185590   5.019   9.770  10.636
28522SOL    HW285591   4.909   9.713  10.529
28523SOL     OW85592   3.788  10.874  10.641
28523SOL    HW185593   3.742  10.956  10.607
28523SOL    HW285594   3.886  10.893  10.650
28524SOL     OW85595   4.091  10.410   9.811
28524SOL    HW185596   4.084  10.493   9.755
28524SOL    HW285597   4.095  10.330   9.751
28525SOL     OW85598   4.290   9.847  10.175
28525SOL    HW185599   4.302   9.913  10.101
28525SOL    HW285600   4.336   9.881  10.258
28526SOL     OW85601   4.976  10.658   9.698
28526SOL    HW185602   5.026  10.735   9.738
28526SOL    HW285603   4.881  10.660   9.730
28527SOL     OW85604   4.996  10.755  10.452
28527SOL    HW185605   5.043  10.768  10.539
28527SOL    HW285606   4.930  10.681  10.461
28528SOL     OW85607   5.306   9.949   9.782
28528SOL    HW185608   5.275  10.010   9.855
28528SOL    HW285609   5.356  10.001   9.713
28529SOL     OW85610   4.078  10.820  10.639
28529SOL    HW185611   4.057  10.776  10.552
28529SOL    HW285612   4.175  10.846  10.642
28530SOL     OW85613   4.126  10.061  10.908
28530SOL    HW185614   4.194  10.116  10.861
28530SOL    HW285615   4.166   9.973  10.935
28531SOL     OW85616   5.311  10.089  10.980
28531SOL    HW185617   5.219  10.127  10.975
28531SOL    HW285618   5.371  10.136  10.915
28532SOL     OW85619   4.737   9.415  11.080
28532SOL    HW185620   4.743   9.500  11.028
28532SOL    HW285621   4.769   9.339  11.023
28533SOL     OW85622   4.228   9.360  11.050
28533SOL    HW185623   4.186   9.303  10.980
28533SOL    HW285624   4.162   9.429  11.082
28534SOL     OW85625   4.297  10.180  10.339
28534SOL    HW185626   4.341  10.269  10.330
28534SOL    HW285627   4.234  10.180  10.416
28535SOL     OW85628   5.084  10.172  10.355
28535SOL    HW185629   5.009  10.172  10.289
28535SOL    HW285630   5.121  10.080  10.364
28536SOL     OW85631   4.933   9.835   9.585
28536SOL    HW185632   4.946   9.751   9.639
28536SOL    HW285633   4.904   9.909   9.645
28537SOL     OW85634   4.031   9.523  10.541
28537SOL    HW185635   4.008   9.560  10.631
28537SOL    HW285636   4.001   9.428  10.535
28538SOL     OW85637   3.761  10.620  10.592
28538SOL    HW185638   3.814  10.571  10.660
28538SOL    HW285639   3.783  10.718  10.597
28539SOL     OW85640   4.456   9.944  10.374
28539SOL    HW185641   4.515   9.918  10.298
28539SOL    HW285642   4.428  10.040  10.363
28540SOL     OW85643   5.452  10.245  11.164
28540SOL    HW185644   5.406  10.238  11.075
28540SOL    HW285645   5.390  10.289  11.230
28541SOL     OW85646   4.031   9.373   9.928
28541SOL    HW185647   4.020   9.467   9.961
28541SOL    HW285648   4.026   9.310  10.005
28542SOL     OW85649   5.346   9.677   9.684
28542SOL    HW185650   5.348   9.601   9.748
28542SOL    HW285651   5.298   9.754   9.724
28543SOL     OW85652   4.747  10.076  10.276
28543SOL    HW185653   4.762  10.097  10.372
28543SOL    HW285654   4.717   9.981  10.267
28544SOL     OW85655   4.704  10.883  11.010
28544SOL    HW185656   4.684  10.927  10.922
28544SOL    HW285657   4.743  10.792  10.994
28545SOL     OW85658   5.583  10.828  10.915
28545SOL    HW185659   5.597  10.855  10.820
28545SOL    HW285660   5.666  10.850  10.968
28546SOL     OW85661   4.074  10.208  11.114
28546SOL    HW185662   4.150  10.252  11.162
28546SOL    HW285663   4.109  10.161  11.032
28547SOL     OW85664   5.264   9.584   9.435
28547SOL    HW185665   5.203   9.509   9.458
28547SOL    HW285666   5.286   9.636   9.518
28548SOL     OW85667   5.027  10.148   9.352
28548SOL    HW185668   5.061  10.055   9.367
28548SOL    HW285669   5.045  10.175   9.257
28549SOL     OW85670   4.792  10.643  10.159
28549SOL    HW185671   4.799  10.559  10.104
28549SOL    HW285672   4.854  10.712  10.123
28550SOL     OW85673   4.043  10.120  10.259
28550SOL    HW185674   4.136  10.156  10.264
28550SOL    HW285675   4.037  10.035  10.311
28551SOL     OW85676   4.063   9.819  10.316
28551SOL    HW185677   4.011   9.736  10.299
28551SOL    HW285678   4.140   9.824  10.252
28552SOL     OW85679   4.862   9.690  10.988
28552SOL    HW185680   4.817   9.753  11.052
28552SOL    HW285681   4.955   9.721  10.971
28553SOL     OW85682   4.884   9.517  10.787
28553SOL    HW185683   4.884   9.581  10.864
28553SOL    HW285684   4.912   9.565  10.704
28554SOL     OW85685   3.732  10.636   9.510
28554SOL    HW185686   3.639  10.657   9.479
28554SOL    HW285687   3.742  10.537   9.523
28555SOL     OW85688   3.812  11.111  10.237
28555SOL    HW185689   3.770  11.025  10.210
28555SOL    HW285690   3.906  11.114  10.203
28556SOL     OW85691   4.228  10.878  10.220
28556SOL    HW185692   4.294  10.952  10.229
28556SOL    HW285693   4.272  10.799  10.178
28557SOL     OW85694   4.726  10.106  10.548
28557SOL    HW185695   4.767  10.074  10.634
28557SOL    HW285696   4.630  10.079  10.545
28558SOL     OW85697   3.764   9.854  10.424
28558SOL    HW185698   3.849   9.821  10.383
28558SOL    HW285699   3.777   9.869  10.522
28559SOL     OW85700   3.913   9.830  11.032
28559SOL    HW185701   3.972   9.790  10.962
28559SOL    HW285702   3.855   9.901  10.991
28560SOL     OW85703   5.093  10.260  10.970
28560SOL    HW185704   5.132  10.349  10.990
28560SOL    HW285705   5.103  10.240  10.873
28561SOL     OW85706   4.539   9.882   9.635
28561SOL    HW185707   4.546   9.793   9.589
28561SOL    HW285708   4.445   9.916   9.627
28562SOL     OW85709   5.381   9.914  10.516
28562SOL    HW185710   5.343   9.845  10.578
28562SOL    HW285711   5.463   9.878  10.472
28563SOL     OW85712   3.976  10.874  11.054
28563SOL    HW185713   3.946  10.931  11.130
28563SOL    HW285714   3.969  10.777  11.080
28564SOL     OW85715   4.395   9.774  10.579
28564SOL    HW185716   4.361   9.685  10.549
28564SOL    HW285717   4.421   9.828  10.499
28565SOL     OW85718   4.654  10.988  10.775
28565SOL    HW185719   4.630  10.970  10.680
28565SOL    HW285720   4.684  11.082  10.785
28566SOL     OW85721   4.197   9.810   9.501
28566SOL    HW185722   4.258   9.890   9.505
28566SOL    HW285723   4.102   9.841   9.508
28567SOL     OW85724   3.883  10.447  10.776
28567SOL    HW185725   3.905  10.386  10.852
28567SOL    HW285726   3.893  10.398  10.690
28568SOL     OW85727   5.071  10.369  10.544
28568SOL    HW185728   5.095  10.306  10.470
28568SOL    HW285729   4.981  10.409  10.526
28569SOL     OW85730   5.026  10.165   9.619
28569SOL    HW185731   4.940  10.134   9.661
28569SOL    HW285732   5.022  10.151   9.520
28570SOL     OW85733   5.483  11.057  10.464
28570SOL    HW185734   5.544  11.087  10.391
28570SOL    HW285735   5.445  10.968  10.442
28571SOL     OW85736   4.976  11.041  10.438
28571SOL    HW185737   5.060  11.046  10.384
28571SOL    HW285738   4.953  10.945  10.456
28572SOL     OW85739   3.807  10.568  10.332
28572SOL    HW185740   3.802  10.567  10.432
28572SOL    HW285741   3.724  10.527  10.294
28573SOL     OW85742   4.412  10.972  11.026
28573SOL    HW185743   4.356  11.053  11.035
28573SOL    HW285744   4.464  10.976  10.940
28574SOL     OW85745   5.450   9.445   9.833
28574SOL    HW185746   5.523   9.428   9.766
28574SOL    HW285747   5.419   9.358   9.871
28575SOL     OW85748   5.112  10.883   9.787
28575SOL    HW185749   5.179  10.895   9.713
28575SOL    HW285750   5.072  10.972   9.810
28576SOL     OW85751   3.854  11.104  11.161
28576SOL    HW185752   3.813  11.030  11.214
28576SOL    HW285753   3.918  11.155  11.219
28577SOL     OW85754   5.004  10.237   9.982
28577SOL    HW185755   5.064  10.156   9.984
28577SOL    HW285756   5.044  10.306   9.922
28578SOL     OW85757   4.554  10.583  10.732
28578SOL    HW185758   4.549  10.616  10.827
28578SOL    HW285759   4.468  10.602  10.686
28579SOL     OW85760   4.396  10.926   9.464
28579SOL    HW185761   4.405  10.936   9.365
28579SOL    HW285762   4.356  10.837   9.485
28580SOL     OW85763   5.374  11.030  10.704
28580SOL    HW185764   5.427  11.040  10.620
28580SOL    HW285765   5.347  11.120  10.738
28581SOL     OW85766   5.565   9.485  10.273
28581SOL    HW185767   5.604   9.400  10.237
28581SOL    HW285768   5.467   9.487  10.254
28582SOL     OW85769   3.987   9.636  10.030
28582SOL    HW185770   3.908   9.687   9.996
28582SOL    HW285771   3.978   9.621  10.128
28583SOL     OW85772   4.918  10.922   9.341
28583SOL    HW185773   4.924  10.829   9.378
28583SOL    HW285774   4.859  10.922   9.261
28584SOL     OW85775   4.546  10.312  10.682
28584SOL    HW185776   4.586  10.311  10.590
28584SOL    HW285777   4.556  10.404  10.722
28585SOL     OW85778   4.640  10.220   9.601
28585SOL    HW185779   4.703  10.258   9.533
28585SOL    HW285780   4.680  10.137   9.640
28586SOL     OW85781   5.228  10.917   9.354
28586SOL    HW185782   5.136  10.954   9.361
28586SOL    HW285783   5.266  10.937   9.264
28587SOL     OW85784   4.096  10.598  10.800
28587SOL    HW185785   4.083  10.691  10.766
28587SOL    HW285786   4.012  10.546  10.787
28588SOL     OW85787   5.338  10.602  10.599
28588SOL    HW185788   5.398  10.605  10.679
28588SOL    HW285789   5.263  10.666  10.612
28589SOL     OW85790   4.763  10.408  10.006
28589SOL    HW185791   4.693  10.361  10.060
28589SOL    HW285792   4.822  10.340   9.963
28590SOL     OW85793   4.738   9.546  10.281
28590SOL    HW185794   4.730   9.510  10.188
28590SOL    HW285795   4.736   9.470  10.346
28591SOL     OW85796   4.314  10.797   9.801
28591SOL    HW185797   4.356  10.739   9.731
28591SOL    HW285798   4.270  10.876   9.757
28592SOL     OW85799   5.433   9.695  10.691
28592SOL    HW185800   5.506   9.764  10.695
28592SOL    HW285801   5.461   9.620  10.632
28593SOL     OW85802   3.979  10.658   9.600
28593SOL    HW185803   3.883  10.659   9.573
28593SOL    HW285804   3.991  10.711   9.684
28594SOL     OW85805   3.829  10.323  11.036
28594SOL    HW185806   3.752  10.290  11.090
28594SOL    HW285807   3.914  10.293  11.078
28595SOL     OW85808   4.396   9.513  10.799
28595SOL    HW185809   4.486   9.497  10.759
28595SOL    HW285810   4.404   9.518  10.898
28596SOL     OW85811   3.799   9.655   9.343
28596SOL    HW185812   3.707   9.627   9.314
28596SOL    HW285813   3.830   9.732   9.287
28597SOL     OW85814   5.164  10.166  10.708
28597SOL    HW185815   5.107  10.218  10.645
28597SOL    HW285816   5.260  10.178  10.684
28598SOL     OW85817   3.796   9.476   9.628
28598SOL    HW185818   3.779   9.559   9.574
28598SOL    HW285819   3.886   9.439   9.606
28599SOL     OW85820   4.907  10.645   9.429
28599SOL    HW185821   4.808  10.634   9.431
28599SOL    HW285822   4.941  10.660   9.522
28600SOL     OW85823   4.337  10.152  10.741
28600SOL    HW185824   4.393  10.233  10.724
28600SOL    HW285825   4.396  10.072  10.744
28601SOL     OW85826   5.217  11.077  10.269
28601SOL    HW185827   5.250  11.141  10.200
28601SOL    HW285828   5.283  11.071  10.344
28602SOL     OW85829   4.440   9.875  11.018
28602SOL    HW185830   4.459   9.940  11.092
28602SOL    HW285831   4.500   9.795  11.027
28603SOL     OW85832   5.174  10.530  10.943
28603SOL    HW185833   5.165  10.520  11.042
28603SOL    HW285834   5.270  10.523  10.917
28604SOL     OW85835   4.114  11.051  10.870
28604SOL    HW185836   4.023  11.092  10.868
28604SOL    HW285837   4.107  10.957  10.902
28605SOL     OW85838   5.398  10.193  10.564
28605SOL    HW185839   5.371  10.104  10.527
28605SOL    HW285840   5.399  10.261  10.491
28606SOL     OW85841   4.949   9.635   9.759
28606SOL    HW185842   5.014   9.561   9.748
28606SOL    HW285843   4.969   9.685   9.843
28607SOL     OW85844   4.318  10.055   9.962
28607SOL    HW185845   4.368  10.140   9.943
28607SOL    HW285846   4.230  10.057   9.914
28608SOL     OW85847   5.501   9.652  10.952
28608SOL    HW185848   5.484   9.683  10.858
28608SOL    HW285849   5.417   9.615  10.990
28609SOL     OW85850   5.454  10.244  10.827
28609SOL    HW185851   5.492  10.335  10.842
28609SOL    HW285852   5.446  10.227  10.728
28610SOL     OW85853   4.583  10.684   9.326
28610SOL    HW185854   4.537  10.699   9.414
28610SOL    HW285855   4.627  10.769   9.296
28611SOL     OW85856   4.385  11.100  10.263
28611SOL    HW185857   4.339  11.188  10.250
28611SOL    HW285858   4.484  11.112  10.256
28612SOL     OW85859   4.583  10.266  10.171
28612SOL    HW185860   4.637  10.197  10.219
28612SOL    HW285861   4.551  10.335  10.237
28613SOL     OW85862   4.807  10.294   9.397
28613SOL    HW185863   4.784  10.347   9.315
28613SOL    HW285864   4.888  10.238   9.378
28614SOL     OW85865   5.585  10.879  10.161
28614SOL    HW185866   5.514  10.867  10.091
28614SOL    HW285867   5.586  10.800  10.221
28615SOL     OW85868   3.945  10.624  11.154
28615SOL    HW185869   3.880  10.551  11.133
28615SOL    HW285870   3.949  10.638  11.252
28616SOL     OW85871   3.803  10.550   9.963
28616SOL    HW185872   3.802  10.503  10.051
28616SOL    HW285873   3.885  10.522   9.912
28617SOL     OW85874   4.396  10.701  10.934
28617SOL    HW185875   4.318  10.651  10.972
28617SOL    HW285876   4.393  10.796  10.965
28618SOL     OW85877   5.548   9.502  10.537
28618SOL    HW185878   5.544   9.412  10.581
28618SOL    HW285879   5.551   9.491  10.438
28619SOL     OW85880   4.152   9.734   9.830
28619SOL    HW185881   4.182   9.662   9.768
28619SOL    HW285882   4.113   9.694   9.913
28620SOL     OW85883   5.429  10.797  10.414
28620SOL    HW185884   5.336  10.772  10.387
28620SOL    HW285885   5.455  10.747  10.496
28621SOL     OW85886   4.041   9.857  10.590
28621SOL    HW185887   4.079   9.798  10.662
28621SOL    HW285888   4.081   9.831  10.502
28622SOL     OW85889   4.536  10.896   9.997
28622SOL    HW185890   4.568  10.906   9.903
28622SOL    HW285891   4.457  10.834   9.999
28623SOL     OW85892   5.148   9.524  10.422
28623SOL    HW185893   5.200   9.459  10.477
28623SOL    HW285894   5.099   9.587  10.483
28624SOL     OW85895   4.725   9.344  10.464
28624SOL    HW185896   4.662   9.272  10.433
28624SOL    HW285897   4.818   9.308  10.464
28625SOL     OW85898   4.494  10.640   9.611
28625SOL    HW185899   4.448  10.553   9.628
28625SOL    HW285900   4.585  10.637   9.652
28626SOL     OW85901   4.342  10.877  10.594
28626SOL    HW185902   4.337  10.959  10.651
28626SOL    HW285903   4.431  10.874  10.549
28627SOL     OW85904   5.076   9.362   9.478
28627SOL    HW185905   5.111   9.321   9.394
28627SOL    HW285906   4.986   9.324   9.498
28628SOL     OW85907   5.024   9.763  10.001
28628SOL    HW185908   4.965   9.843  10.005
28628SOL    HW285909   5.039   9.728  10.094
28629SOL     OW85910   5.317   9.531  10.192
28629SOL    HW185911   5.233   9.530  10.246
28629SOL    HW285912   5.319   9.614  10.136
28630SOL     OW85913   3.763  10.387   9.610
28630SOL    HW185914   3.862  10.376   9.601
28630SOL    HW285915   3.723  10.301   9.642
28631SOL     OW85916   4.599  10.956   9.647
28631SOL    HW185917   4.522  10.921   9.593
28631SOL    HW285918   4.567  11.027   9.709
28632SOL     OW85919   3.954   9.938  11.285
28632SOL    HW185920   3.861   9.936  11.322
28632SOL    HW285921   3.955   9.899  11.193
28633SOL     OW85922   3.949   9.585  12.168
28633SOL    HW185923   3.984   9.568  12.260
28633SOL    HW285924   3.861   9.540  12.156
28634SOL     OW85925   3.743   9.678  11.819
28634SOL    HW185926   3.661   9.721  11.858
28634SOL    HW285927   3.715   9.605  11.756
28635SOL     OW85928   4.293  10.585  12.337
28635SOL    HW185929   4.200  10.578  12.300
28635SOL    HW285930   4.304  10.674  12.381
28636SOL     OW85931   5.279  10.821  11.875
28636SOL    HW185932   5.222  10.805  11.956
28636SOL    HW285933   5.220  10.831  11.795
28637SOL     OW85934   4.859  10.013  11.889
28637SOL    HW185935   4.916  10.091  11.864
28637SOL    HW285936   4.799  10.039  11.965
28638SOL     OW85937   5.479   9.917  11.403
28638SOL    HW185938   5.467   9.904  11.304
28638SOL    HW285939   5.449   9.836  11.452
28639SOL     OW85940   4.492  10.454  12.195
28639SOL    HW185941   4.414  10.471  12.255
28639SOL    HW285942   4.526  10.541  12.159
28640SOL     OW85943   4.409  10.322  11.837
28640SOL    HW185944   4.478  10.306  11.907
28640SOL    HW285945   4.336  10.379  11.875
28641SOL     OW85946   4.059  10.745  12.233
28641SOL    HW185947   3.981  10.714  12.180
28641SOL    HW285948   4.117  10.803  12.176
28642SOL     OW85949   5.184  10.815  12.511
28642SOL    HW185950   5.208  10.909  12.537
28642SOL    HW285951   5.168  10.761  12.593
28643SOL     OW85952   4.162   9.702  12.671
28643SOL    HW185953   4.244   9.646  12.680
28643SOL    HW285954   4.081   9.644  12.675
28644SOL     OW85955   5.327   9.757  11.909
28644SOL    HW185956   5.253   9.803  11.859
28644SOL    HW285957   5.378   9.825  11.962
28645SOL     OW85958   3.955  11.023  11.655
28645SOL    HW185959   3.989  11.100  11.709
28645SOL    HW285960   3.999  11.023  11.565
28646SOL     OW85961   3.954  10.744  11.710
28646SOL    HW185962   3.928  10.840  11.710
28646SOL    HW285963   3.883  10.690  11.755
28647SOL     OW85964   3.964  10.401  12.058
28647SOL    HW185965   3.978  10.317  12.110
28647SOL    HW285966   3.909  10.465  12.113
28648SOL     OW85967   4.344  11.096  12.611
28648SOL    HW185968   4.252  11.079  12.646
28648SOL    HW285969   4.372  11.188  12.637
28649SOL     OW85970   4.330  10.274  11.295
28649SOL    HW185971   4.337  10.358  11.241
28649SOL    HW285972   4.376  10.287  11.383
28650SOL     OW85973   5.318   9.424  12.652
28650SOL    HW185974   5.300   9.491  12.580
28650SOL    HW285975   5.315   9.470  12.741
28651SOL     OW85976   3.846   9.953  11.735
28651SOL    HW185977   3.801   9.865  11.752
28651SOL    HW285978   3.845  10.007  11.819
28652SOL     OW85979   5.566  11.077  11.531
28652SOL    HW185980   5.620  11.048  11.611
28652SOL    HW285981   5.596  11.167  11.502
28653SOL     OW85982   3.751  10.906  11.289
28653SOL    HW185983   3.732  10.810  11.310
28653SOL    HW285984   3.718  10.964  11.364
28654SOL     OW85985   5.413  10.232  11.784
28654SOL    HW185986   5.508  10.203  11.792
28654SOL    HW285987   5.405  10.297  11.709
28655SOL     OW85988   5.365  10.418  11.604
28655SOL    HW185989   5.451  10.420  11.552
28655SOL    HW285990   5.379  10.465  11.692
28656SOL     OW85991   3.837  10.047  12.769
28656SOL    HW185992   3.925  10.034  12.814
28656SOL    HW285993   3.824  10.144  12.747
28657SOL     OW85994   4.337  10.675  11.898
28657SOL    HW185995   4.288  10.588  11.907
28657SOL    HW285996   4.314  10.718  11.811
28658SOL     OW85997   5.017  10.538  12.595
28658SOL    HW185998   5.054  10.465  12.537
28658SOL    HW285999   5.069  10.543  12.680
28659SOL     OW86000   4.533   9.314  11.674
28659SOL    HW186001   4.573   9.405  11.665
28659SOL    HW286002   4.433   9.322  11.680
28660SOL     OW86003   3.921  10.286  12.436
28660SOL    HW186004   4.010  10.241  12.422
28660SOL    HW286005   3.848  10.221  12.417
28661SOL     OW86006   5.249  10.309  11.362
28661SOL    HW186007   5.186  10.233  11.375
28661SOL    HW286008   5.297  10.327  11.448
28662SOL     OW86009   5.190  10.727  12.125
28662SOL    HW186010   5.131  10.733  12.205
28662SOL    HW286011   5.175  10.639  12.079
28663SOL     OW86012   5.391  11.024  11.744
28663SOL    HW186013   5.350  11.001  11.656
28663SOL    HW286014   5.373  10.950  11.809
28664SOL     OW86015   4.322  10.039  11.442
28664SOL    HW186016   4.346  10.108  11.374
28664SOL    HW286017   4.244  10.072  11.496
28665SOL     OW86018   5.005   9.655  12.116
28665SOL    HW186019   4.919   9.605  12.103
28665SOL    HW286020   5.067   9.601  12.172
28666SOL     OW86021   5.300  10.972  11.479
28666SOL    HW186022   5.389  11.018  11.482
28666SOL    HW286023   5.279  10.948  11.384
28667SOL     OW86024   4.531   9.915  12.637
28667SOL    HW186025   4.484   9.912  12.726
28667SOL    HW286026   4.480   9.860  12.571
28668SOL     OW86027   4.697  10.200  12.744
28668SOL    HW186028   4.743  10.116  12.715
28668SOL    HW286029   4.641  10.234  12.669
28669SOL     OW86030   4.715   9.720  12.414
28669SOL    HW186031   4.638   9.754  12.468
28669SOL    HW286032   4.681   9.669  12.335
28670SOL     OW86033   4.765  10.011  11.601
28670SOL    HW186034   4.791  10.007  11.697
28670SOL    HW286035   4.680   9.960  11.587
28671SOL     OW86036   3.800  10.121  11.961
28671SOL    HW186037   3.899  10.109  11.970
28671SOL    HW286038   3.776  10.216  11.982
28672SOL     OW86039   3.854  11.131  12.743
28672SOL    HW186040   3.844  11.116  12.842
28672SOL    HW286041   3.768  11.167  12.707
28673SOL     OW86042   4.589   9.658  11.367
28673SOL    HW186043   4.648   9.721  11.318
28673SOL    HW286044   4.608   9.564  11.338
28674SOL     OW86045   5.086  10.454  11.717
28674SOL    HW186046   5.169  10.425  11.669
28674SOL    HW286047   5.037  10.521  11.661
28675SOL     OW86048   4.274   9.506  12.057
28675SOL    HW186049   4.269   9.501  12.157
28675SOL    HW286050   4.276   9.602  12.028
28676SOL     OW86051   4.732  10.766  11.649
28676SOL    HW186052   4.686  10.838  11.597
28676SOL    HW286053   4.728  10.786  11.747
28677SOL     OW86054   4.075  11.111  12.025
28677SOL    HW186055   4.125  11.025  12.031
28677SOL    HW286056   4.140  11.188  12.022
28678SOL     OW86057   5.519  10.376  12.045
28678SOL    HW186058   5.457  10.361  11.969
28678SOL    HW286059   5.467  10.387  12.130
28679SOL     OW86060   4.951  10.860  12.678
28679SOL    HW186061   4.957  10.783  12.742
28679SOL    HW286062   4.899  10.834  12.598
28680SOL     OW86063   4.045  10.253  11.414
28680SOL    HW186064   4.127  10.292  11.372
28680SOL    HW286065   4.018  10.171  11.365
28681SOL     OW86066   5.182  10.045  11.900
28681SOL    HW186067   5.177   9.980  11.975
28681SOL    HW286068   5.262  10.104  11.913
28682SOL     OW86069   4.835  11.086  11.409
28682SOL    HW186070   4.775  11.024  11.459
28682SOL    HW286071   4.866  11.042  11.324
28683SOL     OW86072   3.926   9.595  12.670
28683SOL    HW186073   3.846   9.655  12.657
28683SOL    HW286074   3.916   9.546  12.756
28684SOL     OW86075   5.356  10.687  11.253
28684SOL    HW186076   5.324  10.781  11.243
28684SOL    HW286077   5.280  10.624  11.241
28685SOL     OW86078   4.188  11.053  11.495
28685SOL    HW186079   4.221  11.092  11.581
28685SOL    HW286080   4.264  11.046  11.430
28686SOL     OW86081   5.124   9.417  11.598
28686SOL    HW186082   5.100   9.380  11.508
28686SOL    HW286083   5.223   9.433  11.602
28687SOL     OW86084   3.973  11.095  12.413
28687SOL    HW186085   4.030  11.030  12.463
28687SOL    HW286086   3.957  11.062  12.320
28688SOL     OW86087   4.664  11.008  12.076
28688SOL    HW186088   4.744  10.951  12.097
28688SOL    HW286089   4.615  10.968  11.999
28689SOL     OW86090   4.106  10.010  11.652
28689SOL    HW186091   4.151   9.920  11.649
28689SOL    HW286092   4.012   9.999  11.685
28690SOL     OW86093   4.338   9.432  11.289
28690SOL    HW186094   4.436   9.410  11.296
28690SOL    HW286095   4.307   9.415  11.196
28691SOL     OW86096   4.612  10.824  12.367
28691SOL    HW186097   4.589  10.799  12.273
28691SOL    HW286098   4.673  10.755  12.406
28692SOL     OW86099   5.075   9.900  12.605
28692SOL    HW186100   5.103   9.857  12.690
28692SOL    HW286101   5.100   9.996  12.606
28693SOL     OW86102   4.527  10.712  12.096
28693SOL    HW186103   4.617  10.726  12.054
28693SOL    HW286104   4.456  10.714  12.025
28694SOL     OW86105   4.646   9.813  12.071
28694SOL    HW186106   4.621   9.804  11.975
28694SOL    HW286107   4.694   9.731  12.102
28695SOL     OW86108   4.263   9.374  11.684
28695SOL    HW186109   4.182   9.375  11.742
28695SOL    HW286110   4.266   9.457  11.629
28696SOL     OW86111   5.158  10.498  11.213
28696SOL    HW186112   5.190  10.422  11.270
28696SOL    HW286113   5.066  10.525  11.243
28697SOL     OW86114   4.021   9.345  11.343
28697SOL    HW186115   4.070   9.429  11.322
28697SOL    HW286116   4.083   9.280  11.388
28698SOL     OW86117   4.659   9.546  11.652
28698SOL    HW186118   4.611   9.587  11.574
28698SOL    HW286119   4.758   9.544  11.633
28699SOL     OW86120   4.800   9.993  12.636
28699SOL    HW186121   4.720   9.932  12.639
28699SOL    HW286122   4.881   9.940  12.612
28700SOL     OW86123   4.951  10.880  11.965
28700SOL    HW186124   4.972  10.954  11.900
28700SOL    HW286125   5.019  10.880  12.038
28701SOL     OW86126   4.183  10.462  11.913
28701SOL    HW186127   4.112  10.435  11.978
28701SOL    HW286128   4.157  10.434  11.820
28702SOL     OW86129   4.995  11.107  11.763
28702SOL    HW186130   5.039  11.171  11.699
28702SOL    HW286131   4.945  11.159  11.833
28703SOL     OW86132   4.756   9.859  11.188
28703SOL    HW186133   4.715   9.941  11.149
28703SOL    HW286134   4.820   9.885  11.261
28704SOL     OW86135   3.802   9.866  12.558
28704SOL    HW186136   3.894   9.865  12.517
28704SOL    HW286137   3.796   9.940  12.625
28705SOL     OW86138   4.285   9.532  12.319
28705SOL    HW186139   4.323   9.448  12.356
28705SOL    HW286140   4.197   9.551  12.363
28706SOL     OW86141   4.590   9.764  11.814
28706SOL    HW186142   4.558   9.836  11.752
28706SOL    HW286143   4.614   9.683  11.761
28707SOL     OW86144   4.741   9.349  11.925
28707SOL    HW186145   4.669   9.354  11.856
28707SOL    HW286146   4.717   9.280  11.994
28708SOL     OW86147   5.153  10.483  12.039
28708SOL    HW186148   5.098  10.399  12.032
28708SOL    HW286149   5.179  10.512  11.947
28709SOL     OW86150   5.190   9.900  12.164
28709SOL    HW186151   5.160   9.805  12.171
28709SOL    HW286152   5.263   9.916  12.230
28710SOL     OW86153   5.581  10.143  11.549
28710SOL    HW186154   5.623  10.079  11.613
28710SOL    HW286155   5.543  10.092  11.471
28711SOL     OW86156   4.212  10.695  11.346
28711SOL    HW186157   4.125  10.680  11.393
28711SOL    HW286158   4.195  10.721  11.251
28712SOL     OW86159   5.388  10.590  11.829
28712SOL    HW186160   5.487  10.598  11.843
28712SOL    HW286161   5.343  10.674  11.860
28713SOL     OW86162   5.114   9.885  11.250
28713SOL    HW186163   5.060   9.864  11.331
28713SOL    HW286164   5.205   9.844  11.259
28714SOL     OW86165   4.251   9.566  11.500
28714SOL    HW186166   4.278   9.507  11.425
28714SOL    HW286167   4.251   9.661  11.469
28715SOL     OW86168   5.478  10.533  12.760
28715SOL    HW186169   5.569  10.494  12.747
28715SOL    HW286170   5.486  10.629  12.784
28716SOL     OW86171   4.788  10.657  12.512
28716SOL    HW186172   4.708  10.634  12.567
28716SOL    HW286173   4.871  10.631  12.561
28717SOL     OW86174   4.835  10.505  12.272
28717SOL    HW186175   4.795  10.549  12.353
28717SOL    HW286176   4.794  10.542  12.189
28718SOL     OW86177   5.362  10.409  12.251
28718SOL    HW186178   5.367  10.490  12.310
28718SOL    HW286179   5.276  10.411  12.200
28719SOL     OW86180   4.639   9.399  12.574
28719SOL    HW186181   4.664   9.379  12.479
28719SOL    HW286182   4.711   9.455  12.616
28720SOL     OW86183   4.429  10.360  11.540
28720SOL    HW186184   4.415  10.367  11.639
28720SOL    HW286185   4.513  10.309  11.522
28721SOL     OW86186   4.134  10.123  12.423
28721SOL    HW186187   4.220  10.135  12.473
28721SOL    HW286188   4.092  10.036  12.450
28722SOL     OW86189   4.998   9.696  12.434
28722SOL    HW186190   5.019   9.770  12.498
28722SOL    HW286191   4.909   9.713  12.391
28723SOL     OW86192   3.788  10.874  12.503
28723SOL    HW186193   3.742  10.956  12.469
28723SOL    HW286194   3.886  10.893  12.512
28724SOL     OW86195   4.091  10.410  11.673
28724SOL    HW186196   4.084  10.493  11.617
28724SOL    HW286197   4.095  10.330  11.613
28725SOL     OW86198   4.290   9.847  12.037
28725SOL    HW186199   4.302   9.913  11.963
28725SOL    HW286200   4.336   9.881  12.120
28726SOL     OW86201   4.976  10.658  11.560
28726SOL    HW186202   5.026  10.735  11.600
28726SOL    HW286203   4.881  10.660  11.592
28727SOL     OW86204   4.996  10.755  12.314
28727SOL    HW186205   5.043  10.768  12.401
28727SOL    HW286206   4.930  10.681  12.323
28728SOL     OW86207   5.306   9.949  11.644
28728SOL    HW186208   5.275  10.010  11.717
28728SOL    HW286209   5.356  10.001  11.575
28729SOL     OW86210   4.078  10.820  12.501
28729SOL    HW186211   4.057  10.776  12.414
28729SOL    HW286212   4.175  10.846  12.504
28730SOL     OW86213   4.126  10.061  12.770
28730SOL    HW186214   4.194  10.116  12.723
28730SOL    HW286215   4.166   9.973  12.797
28731SOL     OW86216   5.311  10.089  12.842
28731SOL    HW186217   5.219  10.127  12.837
28731SOL    HW286218   5.371  10.136  12.777
28732SOL     OW86219   4.297  10.180  12.201
28732SOL    HW186220   4.341  10.269  12.192
28732SOL    HW286221   4.234  10.180  12.278
28733SOL     OW86222   5.084  10.172  12.217
28733SOL    HW186223   5.009  10.172  12.151
28733SOL    HW286224   5.121  10.080  12.226
28734SOL     OW86225   4.933   9.835  11.447
28734SOL    HW186226   4.946   9.751  11.501
28734SOL    HW286227   4.904   9.909  11.507
28735SOL     OW86228   4.031   9.523  12.403
28735SOL    HW186229   4.008   9.560  12.493
28735SOL    HW286230   4.001   9.428  12.397
28736SOL     OW86231   3.761  10.620  12.454
28736SOL    HW186232   3.814  10.571  12.522
28736SOL    HW286233   3.783  10.718  12.459
28737SOL     OW86234   4.456   9.944  12.236
28737SOL    HW186235   4.515   9.918  12.160
28737SOL    HW286236   4.428  10.040  12.225
28738SOL     OW86237   4.031   9.373  11.790
28738SOL    HW186238   4.020   9.467  11.823
28738SOL    HW286239   4.026   9.310  11.867
28739SOL     OW86240   5.346   9.677  11.546
28739SOL    HW186241   5.348   9.601  11.610
28739SOL    HW286242   5.298   9.754  11.586
28740SOL     OW86243   4.747  10.076  12.138
28740SOL    HW186244   4.762  10.097  12.234
28740SOL    HW286245   4.717   9.981  12.129
28741SOL     OW86246   5.264   9.584  11.297
28741SOL    HW186247   5.203   9.509  11.320
28741SOL    HW286248   5.286   9.636  11.380
28742SOL     OW86249   5.027  10.148  11.214
28742SOL    HW186250   5.061  10.055  11.229
28742SOL    HW286251   5.045  10.175  11.119
28743SOL     OW86252   4.792  10.643  12.021
28743SOL    HW186253   4.799  10.559  11.966
28743SOL    HW286254   4.854  10.712  11.985
28744SOL     OW86255   4.043  10.120  12.121
28744SOL    HW186256   4.136  10.156  12.126
28744SOL    HW286257   4.037  10.035  12.173
28745SOL     OW86258   4.063   9.819  12.178
28745SOL    HW186259   4.011   9.736  12.161
28745SOL    HW286260   4.140   9.824  12.114
28746SOL     OW86261   4.884   9.517  12.649
28746SOL    HW186262   4.884   9.581  12.726
28746SOL    HW286263   4.912   9.565  12.566
28747SOL     OW86264   3.732  10.636  11.372
28747SOL    HW186265   3.639  10.657  11.341
28747SOL    HW286266   3.742  10.537  11.385
28748SOL     OW86267   3.812  11.111  12.099
28748SOL    HW186268   3.770  11.025  12.072
28748SOL    HW286269   3.906  11.114  12.065
28749SOL     OW86270   4.228  10.878  12.082
28749SOL    HW186271   4.294  10.952  12.091
28749SOL    HW286272   4.272  10.799  12.040
28750SOL     OW86273   4.726  10.106  12.410
28750SOL    HW186274   4.767  10.074  12.496
28750SOL    HW286275   4.630  10.079  12.407
28751SOL     OW86276   3.764   9.854  12.286
28751SOL    HW186277   3.849   9.821  12.245
28751SOL    HW286278   3.777   9.869  12.384
28752SOL     OW86279   4.539   9.882  11.497
28752SOL    HW186280   4.546   9.793  11.451
28752SOL    HW286281   4.445   9.916  11.489
28753SOL     OW86282   5.381   9.914  12.378
28753SOL    HW186283   5.343   9.845  12.440
28753SOL    HW286284   5.463   9.878  12.334
28754SOL     OW86285   3.976  10.874  12.916
28754SOL    HW186286   3.946  10.931  12.992
28754SOL    HW286287   3.969  10.777  12.942
28755SOL     OW86288   4.395   9.774  12.441
28755SOL    HW186289   4.361   9.685  12.411
28755SOL    HW286290   4.421   9.828  12.361
28756SOL     OW86291   4.654  10.988  12.637
28756SOL    HW186292   4.630  10.970  12.542
28756SOL    HW286293   4.684  11.082  12.647
28757SOL     OW86294   4.197   9.810  11.363
28757SOL    HW186295   4.258   9.890  11.367
28757SOL    HW286296   4.102   9.841  11.370
28758SOL     OW86297   3.883  10.447  12.638
28758SOL    HW186298   3.905  10.386  12.714
28758SOL    HW286299   3.893  10.398  12.552
28759SOL     OW86300   5.071  10.369  12.406
28759SOL    HW186301   5.095  10.306  12.332
28759SOL    HW286302   4.981  10.409  12.388
28760SOL     OW86303   5.026  10.165  11.481
28760SOL    HW186304   4.940  10.134  11.523
28760SOL    HW286305   5.022  10.151  11.382
28761SOL     OW86306   5.483  11.057  12.326
28761SOL    HW186307   5.544  11.087  12.253
28761SOL    HW286308   5.445  10.968  12.304
28762SOL     OW86309   4.976  11.041  12.300
28762SOL    HW186310   5.060  11.046  12.246
28762SOL    HW286311   4.953  10.945  12.318
28763SOL     OW86312   3.807  10.568  12.194
28763SOL    HW186313   3.802  10.567  12.294
28763SOL    HW286314   3.724  10.527  12.156
28764SOL     OW86315   5.450   9.445  11.695
28764SOL    HW186316   5.523   9.428  11.628
28764SOL    HW286317   5.419   9.358  11.733
28765SOL     OW86318   5.112  10.883  11.649
28765SOL    HW186319   5.179  10.895  11.575
28765SOL    HW286320   5.072  10.972  11.672
28766SOL     OW86321   5.004  10.237  11.844
28766SOL    HW186322   5.064  10.156  11.846
28766SOL    HW286323   5.044  10.306  11.784
28767SOL     OW86324   4.554  10.583  12.594
28767SOL    HW186325   4.549  10.616  12.689
28767SOL    HW286326   4.468  10.602  12.548
28768SOL     OW86327   4.396  10.926  11.326
28768SOL    HW186328   4.405  10.936  11.227
28768SOL    HW286329   4.356  10.837  11.347
28769SOL     OW86330   5.374  11.030  12.566
28769SOL    HW186331   5.427  11.040  12.482
28769SOL    HW286332   5.347  11.120  12.600
28770SOL     OW86333   5.565   9.485  12.135
28770SOL    HW186334   5.604   9.400  12.099
28770SOL    HW286335   5.467   9.487  12.116
28771SOL     OW86336   3.987   9.636  11.892
28771SOL    HW186337   3.908   9.687  11.858
28771SOL    HW286338   3.978   9.621  11.990
28772SOL     OW86339   4.918  10.922  11.203
28772SOL    HW186340   4.924  10.829  11.240
28772SOL    HW286341   4.859  10.922  11.123
28773SOL     OW86342   4.546  10.312  12.544
28773SOL    HW186343   4.586  10.311  12.452
28773SOL    HW286344   4.556  10.404  12.584
28774SOL     OW86345   4.640  10.220  11.463
28774SOL    HW186346   4.703  10.258  11.395
28774SOL    HW286347   4.680  10.137  11.502
28775SOL     OW86348   5.228  10.917  11.216
28775SOL    HW186349   5.136  10.954  11.223
28775SOL    HW286350   5.266  10.937  11.126
28776SOL     OW86351   4.096  10.598  12.662
28776SOL    HW186352   4.083  10.691  12.628
28776SOL    HW286353   4.012  10.546  12.649
28777SOL     OW86354   5.338  10.602  12.461
28777SOL    HW186355   5.398  10.605  12.541
28777SOL    HW286356   5.263  10.666  12.474
28778SOL     OW86357   4.763  10.408  11.868
28778SOL    HW186358   4.693  10.361  11.922
28778SOL    HW286359   4.822  10.340  11.825
28779SOL     OW86360   4.738   9.546  12.143
28779SOL    HW186361   4.730   9.510  12.050
28779SOL    HW286362   4.736   9.470  12.208
28780SOL     OW86363   4.314  10.797  11.663
28780SOL    HW186364   4.356  10.739  11.593
28780SOL    HW286365   4.270  10.876  11.619
28781SOL     OW86366   5.433   9.695  12.553
28781SOL    HW186367   5.506   9.764  12.557
28781SOL    HW286368   5.461   9.620  12.494
28782SOL     OW86369   3.979  10.658  11.462
28782SOL    HW186370   3.883  10.659  11.435
28782SOL    HW286371   3.991  10.711  11.546
28783SOL     OW86372   3.829  10.323  12.898
28783SOL    HW186373   3.752  10.290  12.952
28783SOL    HW286374   3.914  10.293  12.940
28784SOL     OW86375   4.396   9.513  12.661
28784SOL    HW186376   4.486   9.497  12.621
28784SOL    HW286377   4.404   9.518  12.760
28785SOL     OW86378   3.799   9.655  11.205
28785SOL    HW186379   3.707   9.627  11.176
28785SOL    HW286380   3.830   9.732  11.149
28786SOL     OW86381   5.164  10.166  12.570
28786SOL    HW186382   5.107  10.218  12.507
28786SOL    HW286383   5.260  10.178  12.546
28787SOL     OW86384   3.796   9.476  11.490
28787SOL    HW186385   3.779   9.559  11.436
28787SOL    HW286386   3.886   9.439  11.468
28788SOL     OW86387   4.907  10.645  11.291
28788SOL    HW186388   4.808  10.634  11.293
28788SOL    HW286389   4.941  10.660  11.384
28789SOL     OW86390   4.337  10.152  12.603
28789SOL    HW186391   4.393  10.233  12.586
28789SOL    HW286392   4.396  10.072  12.606
28790SOL     OW86393   5.217  11.077  12.131
28790SOL    HW186394   5.250  11.141  12.062
28790SOL    HW286395   5.283  11.071  12.206
28791SOL     OW86396   4.440   9.875  12.880
28791SOL    HW186397   4.459   9.940  12.954
28791SOL    HW286398   4.500   9.795  12.889
28792SOL     OW86399   4.114  11.051  12.732
28792SOL    HW186400   4.023  11.092  12.730
28792SOL    HW286401   4.107  10.957  12.764
28793SOL     OW86402   5.398  10.193  12.426
28793SOL    HW186403   5.371  10.104  12.389
28793SOL    HW286404   5.399  10.261  12.353
28794SOL     OW86405   4.949   9.635  11.621
28794SOL    HW186406   5.014   9.561  11.610
28794SOL    HW286407   4.969   9.685  11.705
28795SOL     OW86408   4.318  10.055  11.824
28795SOL    HW186409   4.368  10.140  11.805
28795SOL    HW286410   4.230  10.057  11.776
28796SOL     OW86411   5.454  10.244  12.689
28796SOL    HW186412   5.492  10.335  12.704
28796SOL    HW286413   5.446  10.227  12.590
28797SOL     OW86414   4.583  10.684  11.188
28797SOL    HW186415   4.537  10.699  11.276
28797SOL    HW286416   4.627  10.769  11.158
28798SOL     OW86417   4.385  11.100  12.125
28798SOL    HW186418   4.339  11.188  12.112
28798SOL    HW286419   4.484  11.112  12.118
28799SOL     OW86420   4.583  10.266  12.033
28799SOL    HW186421   4.637  10.197  12.081
28799SOL    HW286422   4.551  10.335  12.099
28800SOL     OW86423   4.807  10.294  11.259
28800SOL    HW186424   4.784  10.347  11.177
28800SOL    HW286425   4.888  10.238  11.240
28801SOL     OW86426   5.585  10.879  12.023
28801SOL    HW186427   5.514  10.867  11.953
28801SOL    HW286428   5.586  10.800  12.083
28802SOL     OW86429   3.803  10.550  11.825
28802SOL    HW186430   3.802  10.503  11.913
28802SOL    HW286431   3.885  10.522  11.774
28803SOL     OW86432   4.396  10.701  12.796
28803SOL    HW186433   4.318  10.651  12.834
28803SOL    HW286434   4.393  10.796  12.827
28804SOL     OW86435   5.548   9.502  12.399
28804SOL    HW186436   5.544   9.412  12.443
28804SOL    HW286437   5.551   9.491  12.300
28805SOL     OW86438   4.152   9.734  11.692
28805SOL    HW186439   4.182   9.662  11.630
28805SOL    HW286440   4.113   9.694  11.775
28806SOL     OW86441   5.429  10.797  12.276
28806SOL    HW186442   5.336  10.772  12.249
28806SOL    HW286443   5.455  10.747  12.358
28807SOL     OW86444   4.041   9.857  12.452
28807SOL    HW186445   4.079   9.798  12.524
28807SOL    HW286446   4.081   9.831  12.364
28808SOL     OW86447   4.536  10.896  11.859
28808SOL    HW186448   4.568  10.906  11.765
28808SOL    HW286449   4.457  10.834  11.861
28809SOL     OW86450   5.148   9.524  12.284
28809SOL    HW186451   5.200   9.459  12.339
28809SOL    HW286452   5.099   9.587  12.345
28810SOL     OW86453   4.725   9.344  12.326
28810SOL    HW186454   4.662   9.272  12.295
28810SOL    HW286455   4.818   9.308  12.326
28811SOL     OW86456   4.494  10.640  11.473
28811SOL    HW186457   4.448  10.553  11.490
28811SOL    HW286458   4.585  10.637  11.514
28812SOL     OW86459   4.342  10.877  12.456
28812SOL    HW186460   4.337  10.959  12.513
28812SOL    HW286461   4.431  10.874  12.411
28813SOL     OW86462   5.076   9.362  11.340
28813SOL    HW186463   5.111   9.321  11.256
28813SOL    HW286464   4.986   9.324  11.360
28814SOL     OW86465   5.024   9.763  11.863
28814SOL    HW186466   4.965   9.843  11.867
28814SOL    HW286467   5.039   9.728  11.956
28815SOL     OW86468   5.317   9.531  12.054
28815SOL    HW186469   5.233   9.530  12.108
28815SOL    HW286470   5.319   9.614  11.998
28816SOL     OW86471   3.763  10.387  11.472
28816SOL    HW186472   3.862  10.376  11.463
28816SOL    HW286473   3.723  10.301  11.504
28817SOL     OW86474   4.599  10.956  11.509
28817SOL    HW186475   4.522  10.921  11.455
28817SOL    HW286476   4.567  11.027  11.571
28818SOL     OW86477   3.954  11.800   0.113
28818SOL    HW186478   3.861  11.798   0.150
28818SOL    HW286479   3.955  11.761   0.021
28819SOL     OW86480   3.949  11.447   0.996
28819SOL    HW186481   3.984  11.430   1.088
28819SOL    HW286482   3.861  11.402   0.984
28820SOL     OW86483   3.743  11.540   0.647
28820SOL    HW186484   3.661  11.583   0.686
28820SOL    HW286485   3.715  11.467   0.584
28821SOL     OW86486   4.293  12.447   1.165
28821SOL    HW186487   4.200  12.440   1.128
28821SOL    HW286488   4.304  12.536   1.209
28822SOL     OW86489   5.279  12.683   0.703
28822SOL    HW186490   5.222  12.667   0.784
28822SOL    HW286491   5.220  12.693   0.623
28823SOL     OW86492   4.859  11.875   0.717
28823SOL    HW186493   4.916  11.953   0.692
28823SOL    HW286494   4.799  11.901   0.793
28824SOL     OW86495   5.479  11.779   0.231
28824SOL    HW186496   5.467  11.766   0.132
28824SOL    HW286497   5.449  11.698   0.280
28825SOL     OW86498   4.492  12.316   1.023
28825SOL    HW186499   4.414  12.333   1.083
28825SOL    HW286500   4.526  12.403   0.987
28826SOL     OW86501   4.574  11.970   1.823
28826SOL    HW186502   4.570  12.046   1.888
28826SOL    HW286503   4.596  12.006   1.732
28827SOL     OW86504   4.409  12.184   0.665
28827SOL    HW186505   4.478  12.168   0.735
28827SOL    HW286506   4.336  12.241   0.703
28828SOL     OW86507   4.410  12.333   1.803
28828SOL    HW186508   4.470  12.412   1.817
28828SOL    HW286509   4.324  12.364   1.762
28829SOL     OW86510   4.059  12.607   1.061
28829SOL    HW186511   3.981  12.576   1.008
28829SOL    HW286512   4.117  12.665   1.004
28830SOL     OW86513   5.184  12.677   1.339
28830SOL    HW186514   5.208  12.771   1.365
28830SOL    HW286515   5.168  12.623   1.421
28831SOL     OW86516   4.162  11.564   1.499
28831SOL    HW186517   4.244  11.508   1.508
28831SOL    HW286518   4.081  11.506   1.503
28832SOL     OW86519   5.327  11.619   0.737
28832SOL    HW186520   5.253  11.665   0.687
28832SOL    HW286521   5.378  11.687   0.790
28833SOL     OW86522   4.851  12.513   1.690
28833SOL    HW186523   4.898  12.513   1.778
28833SOL    HW286524   4.803  12.426   1.679
28834SOL     OW86525   3.954  12.606   0.538
28834SOL    HW186526   3.928  12.702   0.538
28834SOL    HW286527   3.883  12.552   0.583
28835SOL     OW86528   3.964  12.263   0.886
28835SOL    HW186529   3.978  12.179   0.938
28835SOL    HW286530   3.909  12.327   0.941
28836SOL     OW86531   4.330  12.136   0.123
28836SOL    HW186532   4.337  12.220   0.069
28836SOL    HW286533   4.376  12.149   0.211
28837SOL     OW86534   5.318  11.286   1.480
28837SOL    HW186535   5.300  11.353   1.408
28837SOL    HW286536   5.315  11.332   1.569
28838SOL     OW86537   3.846  11.815   0.563
28838SOL    HW186538   3.801  11.727   0.580
28838SOL    HW286539   3.845  11.869   0.647
28839SOL     OW86540   3.751  12.768   0.117
28839SOL    HW186541   3.732  12.672   0.138
28839SOL    HW286542   3.718  12.826   0.192
28840SOL     OW86543   5.413  12.094   0.612
28840SOL    HW186544   5.508  12.065   0.620
28840SOL    HW286545   5.405  12.159   0.537
28841SOL     OW86546   5.365  12.280   0.432
28841SOL    HW186547   5.451  12.282   0.380
28841SOL    HW286548   5.379  12.327   0.520
28842SOL     OW86549   3.837  11.909   1.597
28842SOL    HW186550   3.925  11.896   1.642
28842SOL    HW286551   3.824  12.006   1.575
28843SOL     OW86552   4.337  12.537   0.726
28843SOL    HW186553   4.288  12.450   0.735
28843SOL    HW286554   4.314  12.580   0.639
28844SOL     OW86555   5.017  12.400   1.423
28844SOL    HW186556   5.054  12.327   1.365
28844SOL    HW286557   5.069  12.405   1.508
28845SOL     OW86558   4.533  11.176   0.502
28845SOL    HW186559   4.573  11.267   0.493
28845SOL    HW286560   4.433  11.184   0.508
28846SOL     OW86561   3.921  12.148   1.264
28846SOL    HW186562   4.010  12.103   1.250
28846SOL    HW286563   3.848  12.083   1.245
28847SOL     OW86564   5.249  12.171   0.190
28847SOL    HW186565   5.186  12.095   0.203
28847SOL    HW286566   5.297  12.189   0.276
28848SOL     OW86567   4.041  11.423   1.801
28848SOL    HW186568   4.112  11.494   1.807
28848SOL    HW286569   3.953  11.462   1.829
28849SOL     OW86570   5.190  12.589   0.953
28849SOL    HW186571   5.131  12.595   1.033
28849SOL    HW286572   5.175  12.501   0.907
28850SOL     OW86573   4.322  11.901   0.270
28850SOL    HW186574   4.346  11.970   0.202
28850SOL    HW286575   4.244  11.934   0.324
28851SOL     OW86576   5.005  11.517   0.944
28851SOL    HW186577   4.919  11.467   0.931
28851SOL    HW286578   5.067  11.463   1.000
28852SOL     OW86579   5.300  12.834   0.307
28852SOL    HW186580   5.389  12.880   0.310
28852SOL    HW286581   5.279  12.810   0.212
28853SOL     OW86582   4.531  11.777   1.465
28853SOL    HW186583   4.484  11.774   1.554
28853SOL    HW286584   4.480  11.722   1.399
28854SOL     OW86585   5.118  11.641   1.674
28854SOL    HW186586   5.098  11.684   1.762
28854SOL    HW286587   5.196  11.579   1.683
28855SOL     OW86588   4.697  12.062   1.572
28855SOL    HW186589   4.743  11.978   1.543
28855SOL    HW286590   4.641  12.096   1.497
28856SOL     OW86591   4.715  11.582   1.242
28856SOL    HW186592   4.638  11.616   1.296
28856SOL    HW286593   4.681  11.531   1.163
28857SOL     OW86594   4.765  11.873   0.429
28857SOL    HW186595   4.791  11.869   0.525
28857SOL    HW286596   4.680  11.822   0.415
28858SOL     OW86597   3.800  11.983   0.789
28858SOL    HW186598   3.899  11.971   0.798
28858SOL    HW286599   3.776  12.078   0.810
28859SOL     OW86600   4.589  11.520   0.195
28859SOL    HW186601   4.648  11.583   0.146
28859SOL    HW286602   4.608  11.426   0.166
28860SOL     OW86603   5.443  11.757   1.831
28860SOL    HW186604   5.417  11.846   1.795
28860SOL    HW286605   5.441  11.689   1.758
28861SOL     OW86606   5.086  12.316   0.545
28861SOL    HW186607   5.169  12.287   0.497
28861SOL    HW286608   5.037  12.383   0.489
28862SOL     OW86609   4.274  11.368   0.885
28862SOL    HW186610   4.269  11.363   0.985
28862SOL    HW286611   4.276  11.464   0.856
28863SOL     OW86612   4.732  12.628   0.477
28863SOL    HW186613   4.686  12.700   0.425
28863SOL    HW286614   4.728  12.648   0.575
28864SOL     OW86615   5.519  12.238   0.873
28864SOL    HW186616   5.457  12.223   0.797
28864SOL    HW286617   5.467  12.249   0.958
28865SOL     OW86618   4.951  12.722   1.506
28865SOL    HW186619   4.957  12.645   1.570
28865SOL    HW286620   4.899  12.696   1.426
28866SOL     OW86621   4.045  12.115   0.242
28866SOL    HW186622   4.127  12.154   0.200
28866SOL    HW286623   4.018  12.033   0.193
28867SOL     OW86624   5.182  11.907   0.728
28867SOL    HW186625   5.177  11.842   0.803
28867SOL    HW286626   5.262  11.966   0.741
28868SOL     OW86627   4.185  12.438   1.727
28868SOL    HW186628   4.135  12.439   1.641
28868SOL    HW286629   4.122  12.420   1.803
28869SOL     OW86630   3.926  11.457   1.498
28869SOL    HW186631   3.846  11.517   1.485
28869SOL    HW286632   3.916  11.408   1.584
28870SOL     OW86633   5.356  12.549   0.081
28870SOL    HW186634   5.324  12.643   0.071
28870SOL    HW286635   5.280  12.486   0.069
28871SOL     OW86636   5.124  11.279   0.426
28871SOL    HW186637   5.100  11.242   0.336
28871SOL    HW286638   5.223  11.295   0.430
28872SOL     OW86639   4.106  11.872   0.480
28872SOL    HW186640   4.151  11.782   0.477
28872SOL    HW286641   4.012  11.861   0.513
28873SOL     OW86642   5.271  11.394   1.729
28873SOL    HW186643   5.266  11.431   1.821
28873SOL    HW286644   5.199  11.325   1.717
28874SOL     OW86645   4.338  11.294   0.117
28874SOL    HW186646   4.436  11.272   0.124
28874SOL    HW286647   4.307  11.277   0.024
28875SOL     OW86648   4.505  11.436   1.749
28875SOL    HW186649   4.572  11.375   1.792
28875SOL    HW286650   4.432  11.455   1.814
28876SOL     OW86651   5.075  11.762   1.433
28876SOL    HW186652   5.103  11.719   1.518
28876SOL    HW286653   5.100  11.858   1.434
28877SOL     OW86654   4.527  12.574   0.924
28877SOL    HW186655   4.617  12.588   0.882
28877SOL    HW286656   4.456  12.576   0.853
28878SOL     OW86657   4.646  11.675   0.899
28878SOL    HW186658   4.621  11.666   0.803
28878SOL    HW286659   4.694  11.593   0.930
28879SOL     OW86660   4.263  11.236   0.512
28879SOL    HW186661   4.182  11.237   0.570
28879SOL    HW286662   4.266  11.319   0.457
28880SOL     OW86663   5.158  12.360   0.041
28880SOL    HW186664   5.190  12.284   0.098
28880SOL    HW286665   5.066  12.387   0.071
28881SOL     OW86666   4.021  11.207   0.171
28881SOL    HW186667   4.070  11.291   0.150
28881SOL    HW286668   4.083  11.142   0.216
28882SOL     OW86669   4.659  11.408   0.480
28882SOL    HW186670   4.611  11.449   0.402
28882SOL    HW286671   4.758  11.406   0.461
28883SOL     OW86672   4.800  11.855   1.464
28883SOL    HW186673   4.720  11.794   1.467
28883SOL    HW286674   4.881  11.802   1.440
28884SOL     OW86675   4.951  12.742   0.793
28884SOL    HW186676   4.972  12.816   0.728
28884SOL    HW286677   5.019  12.742   0.866
28885SOL     OW86678   4.183  12.324   0.741
28885SOL    HW186679   4.112  12.297   0.806
28885SOL    HW286680   4.157  12.296   0.648
28886SOL     OW86681   4.756  11.721   0.016
28886SOL    HW186682   4.715  11.803  -0.023
28886SOL    HW286683   4.820  11.747   0.089
28887SOL     OW86684   3.802  11.728   1.386
28887SOL    HW186685   3.894  11.727   1.345
28887SOL    HW286686   3.796  11.802   1.453
28888SOL     OW86687   4.285  11.394   1.147
28888SOL    HW186688   4.323  11.310   1.184
28888SOL    HW286689   4.197  11.413   1.191
28889SOL     OW86690   4.590  11.626   0.642
28889SOL    HW186691   4.558  11.698   0.580
28889SOL    HW286692   4.614  11.545   0.589
28890SOL     OW86693   4.741  11.211   0.753
28890SOL    HW186694   4.669  11.216   0.684
28890SOL    HW286695   4.717  11.142   0.822
28891SOL     OW86696   5.153  12.345   0.867
28891SOL    HW186697   5.098  12.261   0.860
28891SOL    HW286698   5.179  12.374   0.775
28892SOL     OW86699   5.190  11.762   0.992
28892SOL    HW186700   5.160  11.667   0.999
28892SOL    HW286701   5.263  11.778   1.058
28893SOL     OW86702   5.581  12.005   0.377
28893SOL    HW186703   5.623  11.941   0.441
28893SOL    HW286704   5.543  11.954   0.299
28894SOL     OW86705   4.212  12.557   0.174
28894SOL    HW186706   4.125  12.542   0.221
28894SOL    HW286707   4.195  12.583   0.079
28895SOL     OW86708   5.388  12.452   0.657
28895SOL    HW186709   5.487  12.460   0.671
28895SOL    HW286710   5.343  12.536   0.688
28896SOL     OW86711   5.114  11.747   0.078
28896SOL    HW186712   5.060  11.726   0.159
28896SOL    HW286713   5.205  11.706   0.087
28897SOL     OW86714   4.251  11.428   0.328
28897SOL    HW186715   4.278  11.369   0.253
28897SOL    HW286716   4.251  11.523   0.297
28898SOL     OW86717   5.478  12.395   1.588
28898SOL    HW186718   5.569  12.356   1.575
28898SOL    HW286719   5.486  12.491   1.612
28899SOL     OW86720   4.788  12.519   1.340
28899SOL    HW186721   4.708  12.496   1.395
28899SOL    HW286722   4.871  12.493   1.389
28900SOL     OW86723   4.835  12.367   1.100
28900SOL    HW186724   4.795  12.411   1.181
28900SOL    HW286725   4.794  12.404   1.017
28901SOL     OW86726   5.362  12.271   1.079
28901SOL    HW186727   5.367  12.352   1.138
28901SOL    HW286728   5.276  12.273   1.028
28902SOL     OW86729   4.639  11.261   1.402
28902SOL    HW186730   4.664  11.241   1.307
28902SOL    HW286731   4.711  11.317   1.444
28903SOL     OW86732   4.704  12.288   1.719
28903SOL    HW186733   4.605  12.294   1.729
28903SOL    HW286734   4.727  12.208   1.663
28904SOL     OW86735   4.429  12.222   0.368
28904SOL    HW186736   4.415  12.229   0.467
28904SOL    HW286737   4.513  12.171   0.350
28905SOL     OW86738   4.134  11.985   1.251
28905SOL    HW186739   4.220  11.997   1.301
28905SOL    HW286740   4.092  11.898   1.278
28906SOL     OW86741   4.998  11.558   1.262
28906SOL    HW186742   5.019  11.632   1.326
28906SOL    HW286743   4.909  11.575   1.219
28907SOL     OW86744   3.788  12.736   1.331
28907SOL    HW186745   3.742  12.818   1.297
28907SOL    HW286746   3.886  12.755   1.340
28908SOL     OW86747   4.091  12.272   0.501
28908SOL    HW186748   4.084  12.355   0.445
28908SOL    HW286749   4.095  12.192   0.441
28909SOL     OW86750   4.290  11.709   0.865
28909SOL    HW186751   4.302  11.775   0.791
28909SOL    HW286752   4.336  11.743   0.948
28910SOL     OW86753   4.976  12.520   0.388
28910SOL    HW186754   5.026  12.597   0.428
28910SOL    HW286755   4.881  12.522   0.420
28911SOL     OW86756   4.996  12.617   1.142
28911SOL    HW186757   5.043  12.630   1.229
28911SOL    HW286758   4.930  12.543   1.151
28912SOL     OW86759   5.306  11.811   0.472
28912SOL    HW186760   5.275  11.872   0.545
28912SOL    HW286761   5.356  11.863   0.403
28913SOL     OW86762   4.078  12.682   1.329
28913SOL    HW186763   4.057  12.638   1.242
28913SOL    HW286764   4.175  12.708   1.332
28914SOL     OW86765   4.126  11.923   1.598
28914SOL    HW186766   4.194  11.978   1.551
28914SOL    HW286767   4.166  11.835   1.625
28915SOL     OW86768   5.311  11.951   1.670
28915SOL    HW186769   5.219  11.989   1.665
28915SOL    HW286770   5.371  11.998   1.605
28916SOL     OW86771   4.737  11.277   1.770
28916SOL    HW186772   4.743  11.362   1.718
28916SOL    HW286773   4.769  11.201   1.713
28917SOL     OW86774   4.228  11.222   1.740
28917SOL    HW186775   4.186  11.165   1.670
28917SOL    HW286776   4.162  11.291   1.772
28918SOL     OW86777   4.297  12.042   1.029
28918SOL    HW186778   4.341  12.131   1.020
28918SOL    HW286779   4.234  12.042   1.106
28919SOL     OW86780   5.084  12.034   1.045
28919SOL    HW186781   5.009  12.034   0.979
28919SOL    HW286782   5.121  11.942   1.054
28920SOL     OW86783   4.933  11.697   0.275
28920SOL    HW186784   4.946  11.613   0.329
28920SOL    HW286785   4.904  11.771   0.335
28921SOL     OW86786   4.031  11.385   1.231
28921SOL    HW186787   4.008  11.422   1.321
28921SOL    HW286788   4.001  11.290   1.225
28922SOL     OW86789   3.761  12.482   1.282
28922SOL    HW186790   3.814  12.433   1.350
28922SOL    HW286791   3.783  12.580   1.287
28923SOL     OW86792   4.456  11.806   1.064
28923SOL    HW186793   4.515  11.780   0.988
28923SOL    HW286794   4.428  11.902   1.053
28924SOL     OW86795   5.452  12.107   1.854
28924SOL    HW186796   5.406  12.100   1.765
28924SOL    HW286797   5.390  12.151   1.920
28925SOL     OW86798   4.031  11.235   0.618
28925SOL    HW186799   4.020  11.329   0.651
28925SOL    HW286800   4.026  11.172   0.695
28926SOL     OW86801   5.346  11.539   0.374
28926SOL    HW186802   5.348  11.463   0.438
28926SOL    HW286803   5.298  11.616   0.414
28927SOL     OW86804   4.747  11.938   0.966
28927SOL    HW186805   4.762  11.959   1.062
28927SOL    HW286806   4.717  11.843   0.957
28928SOL     OW86807   5.583  12.690   1.605
28928SOL    HW186808   5.597  12.717   1.510
28928SOL    HW286809   5.666  12.712   1.658
28929SOL     OW86810   4.074  12.070   1.804
28929SOL    HW186811   4.150  12.114   1.852
28929SOL    HW286812   4.109  12.023   1.722
28930SOL     OW86813   5.264  11.446   0.125
28930SOL    HW186814   5.203  11.371   0.148
28930SOL    HW286815   5.286  11.498   0.208
28931SOL     OW86816   5.027  12.010   0.042
28931SOL    HW186817   5.061  11.917   0.057
28931SOL    HW286818   5.045  12.037  -0.053
28932SOL     OW86819   4.792  12.505   0.849
28932SOL    HW186820   4.799  12.421   0.794
28932SOL    HW286821   4.854  12.574   0.813
28933SOL     OW86822   4.043  11.982   0.949
28933SOL    HW186823   4.136  12.018   0.954
28933SOL    HW286824   4.037  11.897   1.001
28934SOL     OW86825   4.063  11.681   1.006
28934SOL    HW186826   4.011  11.598   0.989
28934SOL    HW286827   4.140  11.686   0.942
28935SOL     OW86828   4.862  11.552   1.678
28935SOL    HW186829   4.817  11.615   1.742
28935SOL    HW286830   4.955  11.583   1.661
28936SOL     OW86831   4.884  11.379   1.477
28936SOL    HW186832   4.884  11.443   1.554
28936SOL    HW286833   4.912  11.427   1.394
28937SOL     OW86834   3.732  12.498   0.200
28937SOL    HW186835   3.639  12.519   0.169
28937SOL    HW286836   3.742  12.399   0.213
28938SOL     OW86837   4.228  12.740   0.910
28938SOL    HW186838   4.294  12.814   0.919
28938SOL    HW286839   4.272  12.661   0.868
28939SOL     OW86840   4.726  11.968   1.238
28939SOL    HW186841   4.767  11.936   1.324
28939SOL    HW286842   4.630  11.941   1.235
28940SOL     OW86843   3.764  11.716   1.114
28940SOL    HW186844   3.849  11.683   1.073
28940SOL    HW286845   3.777  11.731   1.212
28941SOL     OW86846   3.913  11.692   1.722
28941SOL    HW186847   3.972  11.652   1.652
28941SOL    HW286848   3.855  11.763   1.681
28942SOL     OW86849   5.093  12.122   1.660
28942SOL    HW186850   5.132  12.211   1.680
28942SOL    HW286851   5.103  12.102   1.563
28943SOL     OW86852   4.539  11.744   0.325
28943SOL    HW186853   4.546  11.655   0.279
28943SOL    HW286854   4.445  11.778   0.317
28944SOL     OW86855   5.381  11.776   1.206
28944SOL    HW186856   5.343  11.707   1.268
28944SOL    HW286857   5.463  11.740   1.162
28945SOL     OW86858   3.976  12.736   1.744
28945SOL    HW186859   3.946  12.793   1.820
28945SOL    HW286860   3.969  12.639   1.770
28946SOL     OW86861   4.395  11.636   1.269
28946SOL    HW186862   4.361  11.547   1.239
28946SOL    HW286863   4.421  11.690   1.189
28947SOL     OW86864   4.197  11.672   0.191
28947SOL    HW186865   4.258  11.752   0.195
28947SOL    HW286866   4.102  11.703   0.198
28948SOL     OW86867   3.883  12.309   1.466
28948SOL    HW186868   3.905  12.248   1.542
28948SOL    HW286869   3.893  12.260   1.380
28949SOL     OW86870   5.071  12.231   1.234
28949SOL    HW186871   5.095  12.168   1.160
28949SOL    HW286872   4.981  12.271   1.216
28950SOL     OW86873   5.026  12.027   0.309
28950SOL    HW186874   4.940  11.996   0.351
28950SOL    HW286875   5.022  12.013   0.210
28951SOL     OW86876   4.976  12.903   1.128
28951SOL    HW186877   5.060  12.908   1.074
28951SOL    HW286878   4.953  12.807   1.146
28952SOL     OW86879   3.807  12.430   1.022
28952SOL    HW186880   3.802  12.429   1.122
28952SOL    HW286881   3.724  12.389   0.984
28953SOL     OW86882   4.627  11.258   0.133
28953SOL    HW186883   4.678  11.259   0.047
28953SOL    HW286884   4.683  11.216   0.204
28954SOL     OW86885   5.450  11.307   0.523
28954SOL    HW186886   5.523  11.290   0.456
28954SOL    HW286887   5.419  11.220   0.561
28955SOL     OW86888   3.854  12.966   1.851
28955SOL    HW186889   3.813  12.892   1.904
28955SOL    HW286890   3.918  13.017   1.909
28956SOL     OW86891   5.004  12.099   0.672
28956SOL    HW186892   5.064  12.018   0.674
28956SOL    HW286893   5.044  12.168   0.612
28957SOL     OW86894   4.554  12.445   1.422
28957SOL    HW186895   4.549  12.478   1.517
28957SOL    HW286896   4.468  12.464   1.376
28958SOL     OW86897   4.396  12.788   0.154
28958SOL    HW186898   4.405  12.798   0.055
28958SOL    HW286899   4.356  12.699   0.175
28959SOL     OW86900   5.565  11.347   0.963
28959SOL    HW186901   5.604  11.262   0.927
28959SOL    HW286902   5.467  11.349   0.944
28960SOL     OW86903   3.987  11.498   0.720
28960SOL    HW186904   3.908  11.549   0.686
28960SOL    HW286905   3.978  11.483   0.818
28961SOL     OW86906   4.918  12.784   0.031
28961SOL    HW186907   4.924  12.691   0.068
28961SOL    HW286908   4.859  12.784  -0.049
28962SOL     OW86909   4.546  12.174   1.372
28962SOL    HW186910   4.586  12.173   1.280
28962SOL    HW286911   4.556  12.266   1.412
28963SOL     OW86912   4.640  12.082   0.291
28963SOL    HW186913   4.703  12.120   0.223
28963SOL    HW286914   4.680  11.999   0.330
28964SOL     OW86915   4.096  12.460   1.490
28964SOL    HW186916   4.083  12.553   1.456
28964SOL    HW286917   4.012  12.408   1.477
28965SOL     OW86918   5.338  12.464   1.289
28965SOL    HW186919   5.398  12.467   1.369
28965SOL    HW286920   5.263  12.528   1.302
28966SOL     OW86921   4.763  12.270   0.696
28966SOL    HW186922   4.693  12.223   0.750
28966SOL    HW286923   4.822  12.202   0.653
28967SOL     OW86924   4.738  11.408   0.971
28967SOL    HW186925   4.730  11.372   0.878
28967SOL    HW286926   4.736  11.332   1.036
28968SOL     OW86927   4.314  12.659   0.491
28968SOL    HW186928   4.356  12.601   0.421
28968SOL    HW286929   4.270  12.738   0.447
28969SOL     OW86930   5.433  11.557   1.381
28969SOL    HW186931   5.506  11.626   1.385
28969SOL    HW286932   5.461  11.482   1.322
28970SOL     OW86933   3.979  12.520   0.290
28970SOL    HW186934   3.883  12.521   0.263
28970SOL    HW286935   3.991  12.573   0.374
28971SOL     OW86936   3.829  12.185   1.726
28971SOL    HW186937   3.752  12.152   1.780
28971SOL    HW286938   3.914  12.155   1.768
28972SOL     OW86939   4.396  11.375   1.489
28972SOL    HW186940   4.486  11.359   1.449
28972SOL    HW286941   4.404  11.380   1.588
28973SOL     OW86942   5.164  12.028   1.398
28973SOL    HW186943   5.107  12.080   1.335
28973SOL    HW286944   5.260  12.040   1.374
28974SOL     OW86945   3.796  11.338   0.318
28974SOL    HW186946   3.779  11.421   0.264
28974SOL    HW286947   3.886  11.301   0.296
28975SOL     OW86948   4.907  12.507   0.119
28975SOL    HW186949   4.808  12.496   0.121
28975SOL    HW286950   4.941  12.522   0.212
28976SOL     OW86951   4.337  12.014   1.431
28976SOL    HW186952   4.393  12.095   1.414
28976SOL    HW286953   4.396  11.934   1.434
28977SOL     OW86954   4.440  11.737   1.708
28977SOL    HW186955   4.459  11.802   1.782
28977SOL    HW286956   4.500  11.657   1.717
28978SOL     OW86957   5.174  12.392   1.633
28978SOL    HW186958   5.165  12.382   1.732
28978SOL    HW286959   5.270  12.385   1.607
28979SOL     OW86960   5.398  12.055   1.254
28979SOL    HW186961   5.371  11.966   1.217
28979SOL    HW286962   5.399  12.123   1.181
28980SOL     OW86963   4.949  11.497   0.449
28980SOL    HW186964   5.014  11.423   0.438
28980SOL    HW286965   4.969  11.547   0.533
28981SOL     OW86966   4.318  11.917   0.652
28981SOL    HW186967   4.368  12.002   0.633
28981SOL    HW286968   4.230  11.919   0.604
28982SOL     OW86969   5.501  11.514   1.642
28982SOL    HW186970   5.484  11.545   1.548
28982SOL    HW286971   5.417  11.477   1.680
28983SOL     OW86972   5.454  12.106   1.517
28983SOL    HW186973   5.492  12.197   1.532
28983SOL    HW286974   5.446  12.089   1.418
28984SOL     OW86975   4.583  12.546   0.016
28984SOL    HW186976   4.537  12.561   0.104
28984SOL    HW286977   4.627  12.631  -0.014
28985SOL     OW86978   4.583  12.128   0.861
28985SOL    HW186979   4.637  12.059   0.909
28985SOL    HW286980   4.551  12.197   0.927
28986SOL     OW86981   4.807  12.156   0.087
28986SOL    HW186982   4.784  12.209   0.005
28986SOL    HW286983   4.888  12.100   0.068
28987SOL     OW86984   5.585  12.741   0.851
28987SOL    HW186985   5.514  12.729   0.781
28987SOL    HW286986   5.586  12.662   0.911
28988SOL     OW86987   3.945  12.486   1.844
28988SOL    HW186988   3.880  12.413   1.823
28988SOL    HW286989   3.949  12.500   1.942
28989SOL     OW86990   3.803  12.412   0.653
28989SOL    HW186991   3.802  12.365   0.741
28989SOL    HW286992   3.885  12.384   0.602
28990SOL     OW86993   4.396  12.563   1.624
28990SOL    HW186994   4.318  12.513   1.662
28990SOL    HW286995   4.393  12.658   1.655
28991SOL     OW86996   5.548  11.364   1.227
28991SOL    HW186997   5.544  11.274   1.271
28991SOL    HW286998   5.551  11.353   1.128
28992SOL     OW86999   4.152  11.596   0.520
28992SOL    HW187000   4.182  11.524   0.458
28992SOL    HW287001   4.113  11.556   0.603
28993SOL     OW87002   5.429  12.659   1.104
28993SOL    HW187003   5.336  12.634   1.077
28993SOL    HW287004   5.455  12.609   1.186
28994SOL     OW87005   4.041  11.719   1.280
28994SOL    HW187006   4.079  11.660   1.352
28994SOL    HW287007   4.081  11.693   1.192
28995SOL     OW87008   5.148  11.386   1.112
28995SOL    HW187009   5.200  11.321   1.167
28995SOL    HW287010   5.099  11.449   1.173
28996SOL     OW87011   4.725  11.206   1.154
28996SOL    HW187012   4.662  11.134   1.123
28996SOL    HW287013   4.818  11.170   1.154
28997SOL     OW87014   4.494  12.502   0.301
28997SOL    HW187015   4.448  12.415   0.318
28997SOL    HW287016   4.585  12.499   0.342
28998SOL     OW87017   4.342  12.739   1.284
28998SOL    HW187018   4.337  12.821   1.341
28998SOL    HW287019   4.431  12.736   1.239
28999SOL     OW87020   5.076  11.224   0.168
28999SOL    HW187021   5.111  11.183   0.084
28999SOL    HW287022   4.986  11.186   0.188
29000SOL     OW87023   5.024  11.625   0.691
29000SOL    HW187024   4.965  11.705   0.695
29000SOL    HW287025   5.039  11.590   0.784
29001SOL     OW87026   5.317  11.393   0.882
29001SOL    HW187027   5.233  11.392   0.936
29001SOL    HW287028   5.319  11.476   0.826
29002SOL     OW87029   3.763  12.249   0.300
29002SOL    HW187030   3.862  12.238   0.291
29002SOL    HW287031   3.723  12.163   0.332
29003SOL     OW87032   3.954  11.800   1.975
29003SOL    HW187033   3.861  11.798   2.012
29003SOL    HW287034   3.955  11.761   1.883
29004SOL     OW87035   3.949  11.447   2.858
29004SOL    HW187036   3.984  11.430   2.950
29004SOL    HW287037   3.861  11.402   2.846
29005SOL     OW87038   3.743  11.540   2.509
29005SOL    HW187039   3.661  11.583   2.548
29005SOL    HW287040   3.715  11.467   2.446
29006SOL     OW87041   4.293  12.447   3.027
29006SOL    HW187042   4.200  12.440   2.990
29006SOL    HW287043   4.304  12.536   3.071
29007SOL     OW87044   5.279  12.683   2.565
29007SOL    HW187045   5.222  12.667   2.646
29007SOL    HW287046   5.220  12.693   2.485
29008SOL     OW87047   4.859  11.875   2.579
29008SOL    HW187048   4.916  11.953   2.554
29008SOL    HW287049   4.799  11.901   2.655
29009SOL     OW87050   5.479  11.779   2.093
29009SOL    HW187051   5.467  11.766   1.994
29009SOL    HW287052   5.449  11.698   2.142
29010SOL     OW87053   4.492  12.316   2.885
29010SOL    HW187054   4.414  12.333   2.945
29010SOL    HW287055   4.526  12.403   2.849
29011SOL     OW87056   4.574  11.970   3.685
29011SOL    HW187057   4.570  12.046   3.750
29011SOL    HW287058   4.596  12.006   3.594
29012SOL     OW87059   4.409  12.184   2.527
29012SOL    HW187060   4.478  12.168   2.597
29012SOL    HW287061   4.336  12.241   2.565
29013SOL     OW87062   4.410  12.333   3.665
29013SOL    HW187063   4.470  12.412   3.679
29013SOL    HW287064   4.324  12.364   3.624
29014SOL     OW87065   4.059  12.607   2.923
29014SOL    HW187066   3.981  12.576   2.870
29014SOL    HW287067   4.117  12.665   2.866
29015SOL     OW87068   5.184  12.677   3.201
29015SOL    HW187069   5.208  12.771   3.227
29015SOL    HW287070   5.168  12.623   3.283
29016SOL     OW87071   4.162  11.564   3.361
29016SOL    HW187072   4.244  11.508   3.370
29016SOL    HW287073   4.081  11.506   3.365
29017SOL     OW87074   5.327  11.619   2.599
29017SOL    HW187075   5.253  11.665   2.549
29017SOL    HW287076   5.378  11.687   2.652
29018SOL     OW87077   4.851  12.513   3.552
29018SOL    HW187078   4.898  12.513   3.640
29018SOL    HW287079   4.803  12.426   3.541
29019SOL     OW87080   3.954  12.606   2.400
29019SOL    HW187081   3.928  12.702   2.400
29019SOL    HW287082   3.883  12.552   2.445
29020SOL     OW87083   3.964  12.263   2.748
29020SOL    HW187084   3.978  12.179   2.800
29020SOL    HW287085   3.909  12.327   2.803
29021SOL     OW87086   4.330  12.136   1.985
29021SOL    HW187087   4.337  12.220   1.931
29021SOL    HW287088   4.376  12.149   2.073
29022SOL     OW87089   5.318  11.286   3.342
29022SOL    HW187090   5.300  11.353   3.270
29022SOL    HW287091   5.315  11.332   3.431
29023SOL     OW87092   3.846  11.815   2.425
29023SOL    HW187093   3.801  11.727   2.442
29023SOL    HW287094   3.845  11.869   2.509
29024SOL     OW87095   3.751  12.768   1.979
29024SOL    HW187096   3.732  12.672   2.000
29024SOL    HW287097   3.718  12.826   2.054
29025SOL     OW87098   5.413  12.094   2.474
29025SOL    HW187099   5.508  12.065   2.482
29025SOL    HW287100   5.405  12.159   2.399
29026SOL     OW87101   5.365  12.280   2.294
29026SOL    HW187102   5.451  12.282   2.242
29026SOL    HW287103   5.379  12.327   2.382
29027SOL     OW87104   3.837  11.909   3.459
29027SOL    HW187105   3.925  11.896   3.504
29027SOL    HW287106   3.824  12.006   3.437
29028SOL     OW87107   4.337  12.537   2.588
29028SOL    HW187108   4.288  12.450   2.597
29028SOL    HW287109   4.314  12.580   2.501
29029SOL     OW87110   5.017  12.400   3.285
29029SOL    HW187111   5.054  12.327   3.227
29029SOL    HW287112   5.069  12.405   3.370
29030SOL     OW87113   4.533  11.176   2.364
29030SOL    HW187114   4.573  11.267   2.355
29030SOL    HW287115   4.433  11.184   2.370
29031SOL     OW87116   3.921  12.148   3.126
29031SOL    HW187117   4.010  12.103   3.112
29031SOL    HW287118   3.848  12.083   3.107
29032SOL     OW87119   5.249  12.171   2.052
29032SOL    HW187120   5.186  12.095   2.065
29032SOL    HW287121   5.297  12.189   2.138
29033SOL     OW87122   4.041  11.423   3.663
29033SOL    HW187123   4.112  11.494   3.669
29033SOL    HW287124   3.953  11.462   3.691
29034SOL     OW87125   5.190  12.589   2.815
29034SOL    HW187126   5.131  12.595   2.895
29034SOL    HW287127   5.175  12.501   2.769
29035SOL     OW87128   4.322  11.901   2.132
29035SOL    HW187129   4.346  11.970   2.064
29035SOL    HW287130   4.244  11.934   2.186
29036SOL     OW87131   5.005  11.517   2.806
29036SOL    HW187132   4.919  11.467   2.793
29036SOL    HW287133   5.067  11.463   2.862
29037SOL     OW87134   5.300  12.834   2.169
29037SOL    HW187135   5.389  12.880   2.172
29037SOL    HW287136   5.279  12.810   2.074
29038SOL     OW87137   4.531  11.777   3.327
29038SOL    HW187138   4.484  11.774   3.416
29038SOL    HW287139   4.480  11.722   3.261
29039SOL     OW87140   5.118  11.641   3.536
29039SOL    HW187141   5.098  11.684   3.624
29039SOL    HW287142   5.196  11.579   3.545
29040SOL     OW87143   4.697  12.062   3.434
29040SOL    HW187144   4.743  11.978   3.405
29040SOL    HW287145   4.641  12.096   3.359
29041SOL     OW87146   4.715  11.582   3.104
29041SOL    HW187147   4.638  11.616   3.158
29041SOL    HW287148   4.681  11.531   3.025
29042SOL     OW87149   4.765  11.873   2.291
29042SOL    HW187150   4.791  11.869   2.387
29042SOL    HW287151   4.680  11.822   2.277
29043SOL     OW87152   3.800  11.983   2.651
29043SOL    HW187153   3.899  11.971   2.660
29043SOL    HW287154   3.776  12.078   2.672
29044SOL     OW87155   4.589  11.520   2.057
29044SOL    HW187156   4.648  11.583   2.008
29044SOL    HW287157   4.608  11.426   2.028
29045SOL     OW87158   5.443  11.757   3.693
29045SOL    HW187159   5.417  11.846   3.657
29045SOL    HW287160   5.441  11.689   3.620
29046SOL     OW87161   5.086  12.316   2.407
29046SOL    HW187162   5.169  12.287   2.359
29046SOL    HW287163   5.037  12.383   2.351
29047SOL     OW87164   4.274  11.368   2.747
29047SOL    HW187165   4.269  11.363   2.847
29047SOL    HW287166   4.276  11.464   2.718
29048SOL     OW87167   4.732  12.628   2.339
29048SOL    HW187168   4.686  12.700   2.287
29048SOL    HW287169   4.728  12.648   2.437
29049SOL     OW87170   5.519  12.238   2.735
29049SOL    HW187171   5.457  12.223   2.659
29049SOL    HW287172   5.467  12.249   2.820
29050SOL     OW87173   4.951  12.722   3.368
29050SOL    HW187174   4.957  12.645   3.432
29050SOL    HW287175   4.899  12.696   3.288
29051SOL     OW87176   4.045  12.115   2.104
29051SOL    HW187177   4.127  12.154   2.062
29051SOL    HW287178   4.018  12.033   2.055
29052SOL     OW87179   5.182  11.907   2.590
29052SOL    HW187180   5.177  11.842   2.665
29052SOL    HW287181   5.262  11.966   2.603
29053SOL     OW87182   4.185  12.438   3.589
29053SOL    HW187183   4.135  12.439   3.503
29053SOL    HW287184   4.122  12.420   3.665
29054SOL     OW87185   3.926  11.457   3.360
29054SOL    HW187186   3.846  11.517   3.347
29054SOL    HW287187   3.916  11.408   3.446
29055SOL     OW87188   5.356  12.549   1.943
29055SOL    HW187189   5.324  12.643   1.933
29055SOL    HW287190   5.280  12.486   1.931
29056SOL     OW87191   5.124  11.279   2.288
29056SOL    HW187192   5.100  11.242   2.198
29056SOL    HW287193   5.223  11.295   2.292
29057SOL     OW87194   4.106  11.872   2.342
29057SOL    HW187195   4.151  11.782   2.339
29057SOL    HW287196   4.012  11.861   2.375
29058SOL     OW87197   5.271  11.394   3.591
29058SOL    HW187198   5.266  11.431   3.683
29058SOL    HW287199   5.199  11.325   3.579
29059SOL     OW87200   4.338  11.294   1.979
29059SOL    HW187201   4.436  11.272   1.986
29059SOL    HW287202   4.307  11.277   1.886
29060SOL     OW87203   4.505  11.436   3.611
29060SOL    HW187204   4.572  11.375   3.654
29060SOL    HW287205   4.432  11.455   3.676
29061SOL     OW87206   5.075  11.762   3.295
29061SOL    HW187207   5.103  11.719   3.380
29061SOL    HW287208   5.100  11.858   3.296
29062SOL     OW87209   4.527  12.574   2.786
29062SOL    HW187210   4.617  12.588   2.744
29062SOL    HW287211   4.456  12.576   2.715
29063SOL     OW87212   4.646  11.675   2.761
29063SOL    HW187213   4.621  11.666   2.665
29063SOL    HW287214   4.694  11.593   2.792
29064SOL     OW87215   4.263  11.236   2.374
29064SOL    HW187216   4.182  11.237   2.432
29064SOL    HW287217   4.266  11.319   2.319
29065SOL     OW87218   5.158  12.360   1.903
29065SOL    HW187219   5.190  12.284   1.960
29065SOL    HW287220   5.066  12.387   1.933
29066SOL     OW87221   4.021  11.207   2.033
29066SOL    HW187222   4.070  11.291   2.012
29066SOL    HW287223   4.083  11.142   2.078
29067SOL     OW87224   4.659  11.408   2.342
29067SOL    HW187225   4.611  11.449   2.264
29067SOL    HW287226   4.758  11.406   2.323
29068SOL     OW87227   4.800  11.855   3.326
29068SOL    HW187228   4.720  11.794   3.329
29068SOL    HW287229   4.881  11.802   3.302
29069SOL     OW87230   4.951  12.742   2.655
29069SOL    HW187231   4.972  12.816   2.590
29069SOL    HW287232   5.019  12.742   2.728
29070SOL     OW87233   4.183  12.324   2.603
29070SOL    HW187234   4.112  12.297   2.668
29070SOL    HW287235   4.157  12.296   2.510
29071SOL     OW87236   4.756  11.721   1.878
29071SOL    HW187237   4.715  11.803   1.839
29071SOL    HW287238   4.820  11.747   1.951
29072SOL     OW87239   3.802  11.728   3.248
29072SOL    HW187240   3.894  11.727   3.207
29072SOL    HW287241   3.796  11.802   3.315
29073SOL     OW87242   4.285  11.394   3.009
29073SOL    HW187243   4.323  11.310   3.046
29073SOL    HW287244   4.197  11.413   3.053
29074SOL     OW87245   4.590  11.626   2.504
29074SOL    HW187246   4.558  11.698   2.442
29074SOL    HW287247   4.614  11.545   2.451
29075SOL     OW87248   4.741  11.211   2.615
29075SOL    HW187249   4.669  11.216   2.546
29075SOL    HW287250   4.717  11.142   2.684
29076SOL     OW87251   5.153  12.345   2.729
29076SOL    HW187252   5.098  12.261   2.722
29076SOL    HW287253   5.179  12.374   2.637
29077SOL     OW87254   5.190  11.762   2.854
29077SOL    HW187255   5.160  11.667   2.861
29077SOL    HW287256   5.263  11.778   2.920
29078SOL     OW87257   5.581  12.005   2.239
29078SOL    HW187258   5.623  11.941   2.303
29078SOL    HW287259   5.543  11.954   2.161
29079SOL     OW87260   4.212  12.557   2.036
29079SOL    HW187261   4.125  12.542   2.083
29079SOL    HW287262   4.195  12.583   1.941
29080SOL     OW87263   5.388  12.452   2.519
29080SOL    HW187264   5.487  12.460   2.533
29080SOL    HW287265   5.343  12.536   2.550
29081SOL     OW87266   5.114  11.747   1.940
29081SOL    HW187267   5.060  11.726   2.021
29081SOL    HW287268   5.205  11.706   1.949
29082SOL     OW87269   4.251  11.428   2.190
29082SOL    HW187270   4.278  11.369   2.115
29082SOL    HW287271   4.251  11.523   2.159
29083SOL     OW87272   5.478  12.395   3.450
29083SOL    HW187273   5.569  12.356   3.437
29083SOL    HW287274   5.486  12.491   3.474
29084SOL     OW87275   4.788  12.519   3.202
29084SOL    HW187276   4.708  12.496   3.257
29084SOL    HW287277   4.871  12.493   3.251
29085SOL     OW87278   4.835  12.367   2.962
29085SOL    HW187279   4.795  12.411   3.043
29085SOL    HW287280   4.794  12.404   2.879
29086SOL     OW87281   5.362  12.271   2.941
29086SOL    HW187282   5.367  12.352   3.000
29086SOL    HW287283   5.276  12.273   2.890
29087SOL     OW87284   4.639  11.261   3.264
29087SOL    HW187285   4.664  11.241   3.169
29087SOL    HW287286   4.711  11.317   3.306
29088SOL     OW87287   4.704  12.288   3.581
29088SOL    HW187288   4.605  12.294   3.591
29088SOL    HW287289   4.727  12.208   3.525
29089SOL     OW87290   4.429  12.222   2.230
29089SOL    HW187291   4.415  12.229   2.329
29089SOL    HW287292   4.513  12.171   2.212
29090SOL     OW87293   4.134  11.985   3.113
29090SOL    HW187294   4.220  11.997   3.163
29090SOL    HW287295   4.092  11.898   3.140
29091SOL     OW87296   4.998  11.558   3.124
29091SOL    HW187297   5.019  11.632   3.188
29091SOL    HW287298   4.909  11.575   3.081
29092SOL     OW87299   3.788  12.736   3.193
29092SOL    HW187300   3.742  12.818   3.159
29092SOL    HW287301   3.886  12.755   3.202
29093SOL     OW87302   4.091  12.272   2.363
29093SOL    HW187303   4.084  12.355   2.307
29093SOL    HW287304   4.095  12.192   2.303
29094SOL     OW87305   4.290  11.709   2.727
29094SOL    HW187306   4.302  11.775   2.653
29094SOL    HW287307   4.336  11.743   2.810
29095SOL     OW87308   4.976  12.520   2.250
29095SOL    HW187309   5.026  12.597   2.290
29095SOL    HW287310   4.881  12.522   2.282
29096SOL     OW87311   4.996  12.617   3.004
29096SOL    HW187312   5.043  12.630   3.091
29096SOL    HW287313   4.930  12.543   3.013
29097SOL     OW87314   5.306  11.811   2.334
29097SOL    HW187315   5.275  11.872   2.407
29097SOL    HW287316   5.356  11.863   2.265
29098SOL     OW87317   4.078  12.682   3.191
29098SOL    HW187318   4.057  12.638   3.104
29098SOL    HW287319   4.175  12.708   3.194
29099SOL     OW87320   4.126  11.923   3.460
29099SOL    HW187321   4.194  11.978   3.413
29099SOL    HW287322   4.166  11.835   3.487
29100SOL     OW87323   5.311  11.951   3.532
29100SOL    HW187324   5.219  11.989   3.527
29100SOL    HW287325   5.371  11.998   3.467
29101SOL     OW87326   4.737  11.277   3.632
29101SOL    HW187327   4.743  11.362   3.580
29101SOL    HW287328   4.769  11.201   3.575
29102SOL     OW87329   4.228  11.222   3.602
29102SOL    HW187330   4.186  11.165   3.532
29102SOL    HW287331   4.162  11.291   3.634
29103SOL     OW87332   4.297  12.042   2.891
29103SOL    HW187333   4.341  12.131   2.882
29103SOL    HW287334   4.234  12.042   2.968
29104SOL     OW87335   5.084  12.034   2.907
29104SOL    HW187336   5.009  12.034   2.841
29104SOL    HW287337   5.121  11.942   2.916
29105SOL     OW87338   4.933  11.697   2.137
29105SOL    HW187339   4.946  11.613   2.191
29105SOL    HW287340   4.904  11.771   2.197
29106SOL     OW87341   4.031  11.385   3.093
29106SOL    HW187342   4.008  11.422   3.183
29106SOL    HW287343   4.001  11.290   3.087
29107SOL     OW87344   3.761  12.482   3.144
29107SOL    HW187345   3.814  12.433   3.212
29107SOL    HW287346   3.783  12.580   3.149
29108SOL     OW87347   4.456  11.806   2.926
29108SOL    HW187348   4.515  11.780   2.850
29108SOL    HW287349   4.428  11.902   2.915
29109SOL     OW87350   5.452  12.107   3.716
29109SOL    HW187351   5.406  12.100   3.627
29109SOL    HW287352   5.390  12.151   3.782
29110SOL     OW87353   4.031  11.235   2.480
29110SOL    HW187354   4.020  11.329   2.513
29110SOL    HW287355   4.026  11.172   2.557
29111SOL     OW87356   5.346  11.539   2.236
29111SOL    HW187357   5.348  11.463   2.300
29111SOL    HW287358   5.298  11.616   2.276
29112SOL     OW87359   4.747  11.938   2.828
29112SOL    HW187360   4.762  11.959   2.924
29112SOL    HW287361   4.717  11.843   2.819
29113SOL     OW87362   5.583  12.690   3.467
29113SOL    HW187363   5.597  12.717   3.372
29113SOL    HW287364   5.666  12.712   3.520
29114SOL     OW87365   4.074  12.070   3.666
29114SOL    HW187366   4.150  12.114   3.714
29114SOL    HW287367   4.109  12.023   3.584
29115SOL     OW87368   5.264  11.446   1.987
29115SOL    HW187369   5.203  11.371   2.010
29115SOL    HW287370   5.286  11.498   2.070
29116SOL     OW87371   5.027  12.010   1.904
29116SOL    HW187372   5.061  11.917   1.919
29116SOL    HW287373   5.045  12.037   1.809
29117SOL     OW87374   4.792  12.505   2.711
29117SOL    HW187375   4.799  12.421   2.656
29117SOL    HW287376   4.854  12.574   2.675
29118SOL     OW87377   4.043  11.982   2.811
29118SOL    HW187378   4.136  12.018   2.816
29118SOL    HW287379   4.037  11.897   2.863
29119SOL     OW87380   4.063  11.681   2.868
29119SOL    HW187381   4.011  11.598   2.851
29119SOL    HW287382   4.140  11.686   2.804
29120SOL     OW87383   4.862  11.552   3.540
29120SOL    HW187384   4.817  11.615   3.604
29120SOL    HW287385   4.955  11.583   3.523
29121SOL     OW87386   4.884  11.379   3.339
29121SOL    HW187387   4.884  11.443   3.416
29121SOL    HW287388   4.912  11.427   3.256
29122SOL     OW87389   3.732  12.498   2.062
29122SOL    HW187390   3.639  12.519   2.031
29122SOL    HW287391   3.742  12.399   2.075
29123SOL     OW87392   4.228  12.740   2.772
29123SOL    HW187393   4.294  12.814   2.781
29123SOL    HW287394   4.272  12.661   2.730
29124SOL     OW87395   4.726  11.968   3.100
29124SOL    HW187396   4.767  11.936   3.186
29124SOL    HW287397   4.630  11.941   3.097
29125SOL     OW87398   3.764  11.716   2.976
29125SOL    HW187399   3.849  11.683   2.935
29125SOL    HW287400   3.777  11.731   3.074
29126SOL     OW87401   3.913  11.692   3.584
29126SOL    HW187402   3.972  11.652   3.514
29126SOL    HW287403   3.855  11.763   3.543
29127SOL     OW87404   5.093  12.122   3.522
29127SOL    HW187405   5.132  12.211   3.542
29127SOL    HW287406   5.103  12.102   3.425
29128SOL     OW87407   4.539  11.744   2.187
29128SOL    HW187408   4.546  11.655   2.141
29128SOL    HW287409   4.445  11.778   2.179
29129SOL     OW87410   5.381  11.776   3.068
29129SOL    HW187411   5.343  11.707   3.130
29129SOL    HW287412   5.463  11.740   3.024
29130SOL     OW87413   3.976  12.736   3.606
29130SOL    HW187414   3.946  12.793   3.682
29130SOL    HW287415   3.969  12.639   3.632
29131SOL     OW87416   4.395  11.636   3.131
29131SOL    HW187417   4.361  11.547   3.101
29131SOL    HW287418   4.421  11.690   3.051
29132SOL     OW87419   4.197  11.672   2.053
29132SOL    HW187420   4.258  11.752   2.057
29132SOL    HW287421   4.102  11.703   2.060
29133SOL     OW87422   3.883  12.309   3.328
29133SOL    HW187423   3.905  12.248   3.404
29133SOL    HW287424   3.893  12.260   3.242
29134SOL     OW87425   5.071  12.231   3.096
29134SOL    HW187426   5.095  12.168   3.022
29134SOL    HW287427   4.981  12.271   3.078
29135SOL     OW87428   5.026  12.027   2.171
29135SOL    HW187429   4.940  11.996   2.213
29135SOL    HW287430   5.022  12.013   2.072
29136SOL     OW87431   4.976  12.903   2.990
29136SOL    HW187432   5.060  12.908   2.936
29136SOL    HW287433   4.953  12.807   3.008
29137SOL     OW87434   3.807  12.430   2.884
29137SOL    HW187435   3.802  12.429   2.984
29137SOL    HW287436   3.724  12.389   2.846
29138SOL     OW87437   5.450  11.307   2.385
29138SOL    HW187438   5.523  11.290   2.318
29138SOL    HW287439   5.419  11.220   2.423
29139SOL     OW87440   3.854  12.966   3.713
29139SOL    HW187441   3.813  12.892   3.766
29139SOL    HW287442   3.918  13.017   3.771
29140SOL     OW87443   5.004  12.099   2.534
29140SOL    HW187444   5.064  12.018   2.536
29140SOL    HW287445   5.044  12.168   2.474
29141SOL     OW87446   4.554  12.445   3.284
29141SOL    HW187447   4.549  12.478   3.379
29141SOL    HW287448   4.468  12.464   3.238
29142SOL     OW87449   4.396  12.788   2.016
29142SOL    HW187450   4.405  12.798   1.917
29142SOL    HW287451   4.356  12.699   2.037
29143SOL     OW87452   5.565  11.347   2.825
29143SOL    HW187453   5.604  11.262   2.789
29143SOL    HW287454   5.467  11.349   2.806
29144SOL     OW87455   3.987  11.498   2.582
29144SOL    HW187456   3.908  11.549   2.548
29144SOL    HW287457   3.978  11.483   2.680
29145SOL     OW87458   4.918  12.784   1.893
29145SOL    HW187459   4.924  12.691   1.930
29145SOL    HW287460   4.859  12.784   1.813
29146SOL     OW87461   4.546  12.174   3.234
29146SOL    HW187462   4.586  12.173   3.142
29146SOL    HW287463   4.556  12.266   3.274
29147SOL     OW87464   4.640  12.082   2.153
29147SOL    HW187465   4.703  12.120   2.085
29147SOL    HW287466   4.680  11.999   2.192
29148SOL     OW87467   4.096  12.460   3.352
29148SOL    HW187468   4.083  12.553   3.318
29148SOL    HW287469   4.012  12.408   3.339
29149SOL     OW87470   5.338  12.464   3.151
29149SOL    HW187471   5.398  12.467   3.231
29149SOL    HW287472   5.263  12.528   3.164
29150SOL     OW87473   4.763  12.270   2.558
29150SOL    HW187474   4.693  12.223   2.612
29150SOL    HW287475   4.822  12.202   2.515
29151SOL     OW87476   4.738  11.408   2.833
29151SOL    HW187477   4.730  11.372   2.740
29151SOL    HW287478   4.736  11.332   2.898
29152SOL     OW87479   4.314  12.659   2.353
29152SOL    HW187480   4.356  12.601   2.283
29152SOL    HW287481   4.270  12.738   2.309
29153SOL     OW87482   5.433  11.557   3.243
29153SOL    HW187483   5.506  11.626   3.247
29153SOL    HW287484   5.461  11.482   3.184
29154SOL     OW87485   3.979  12.520   2.152
29154SOL    HW187486   3.883  12.521   2.125
29154SOL    HW287487   3.991  12.573   2.236
29155SOL     OW87488   3.829  12.185   3.588
29155SOL    HW187489   3.752  12.152   3.642
29155SOL    HW287490   3.914  12.155   3.630
29156SOL     OW87491   4.396  11.375   3.351
29156SOL    HW187492   4.486  11.359   3.311
29156SOL    HW287493   4.404  11.380   3.450
29157SOL     OW87494   3.799  11.517   1.895
29157SOL    HW187495   3.707  11.489   1.866
29157SOL    HW287496   3.830  11.594   1.839
29158SOL     OW87497   5.164  12.028   3.260
29158SOL    HW187498   5.107  12.080   3.197
29158SOL    HW287499   5.260  12.040   3.236
29159SOL     OW87500   3.796  11.338   2.180
29159SOL    HW187501   3.779  11.421   2.126
29159SOL    HW287502   3.886  11.301   2.158
29160SOL     OW87503   4.907  12.507   1.981
29160SOL    HW187504   4.808  12.496   1.983
29160SOL    HW287505   4.941  12.522   2.074
29161SOL     OW87506   4.337  12.014   3.293
29161SOL    HW187507   4.393  12.095   3.276
29161SOL    HW287508   4.396  11.934   3.296
29162SOL     OW87509   4.440  11.737   3.570
29162SOL    HW187510   4.459  11.802   3.644
29162SOL    HW287511   4.500  11.657   3.579
29163SOL     OW87512   5.174  12.392   3.495
29163SOL    HW187513   5.165  12.382   3.594
29163SOL    HW287514   5.270  12.385   3.469
29164SOL     OW87515   5.398  12.055   3.116
29164SOL    HW187516   5.371  11.966   3.079
29164SOL    HW287517   5.399  12.123   3.043
29165SOL     OW87518   4.949  11.497   2.311
29165SOL    HW187519   5.014  11.423   2.300
29165SOL    HW287520   4.969  11.547   2.395
29166SOL     OW87521   4.318  11.917   2.514
29166SOL    HW187522   4.368  12.002   2.495
29166SOL    HW287523   4.230  11.919   2.466
29167SOL     OW87524   5.501  11.514   3.504
29167SOL    HW187525   5.484  11.545   3.410
29167SOL    HW287526   5.417  11.477   3.542
29168SOL     OW87527   5.454  12.106   3.379
29168SOL    HW187528   5.492  12.197   3.394
29168SOL    HW287529   5.446  12.089   3.280
29169SOL     OW87530   4.583  12.546   1.878
29169SOL    HW187531   4.537  12.561   1.966
29169SOL    HW287532   4.627  12.631   1.848
29170SOL     OW87533   4.583  12.128   2.723
29170SOL    HW187534   4.637  12.059   2.771
29170SOL    HW287535   4.551  12.197   2.789
29171SOL     OW87536   4.807  12.156   1.949
29171SOL    HW187537   4.784  12.209   1.867
29171SOL    HW287538   4.888  12.100   1.930
29172SOL     OW87539   5.585  12.741   2.713
29172SOL    HW187540   5.514  12.729   2.643
29172SOL    HW287541   5.586  12.662   2.773
29173SOL     OW87542   3.945  12.486   3.706
29173SOL    HW187543   3.880  12.413   3.685
29173SOL    HW287544   3.949  12.500   3.804
29174SOL     OW87545   3.803  12.412   2.515
29174SOL    HW187546   3.802  12.365   2.603
29174SOL    HW287547   3.885  12.384   2.464
29175SOL     OW87548   4.396  12.563   3.486
29175SOL    HW187549   4.318  12.513   3.524
29175SOL    HW287550   4.393  12.658   3.517
29176SOL     OW87551   5.548  11.364   3.089
29176SOL    HW187552   5.544  11.274   3.133
29176SOL    HW287553   5.551  11.353   2.990
29177SOL     OW87554   4.152  11.596   2.382
29177SOL    HW187555   4.182  11.524   2.320
29177SOL    HW287556   4.113  11.556   2.465
29178SOL     OW87557   5.429  12.659   2.966
29178SOL    HW187558   5.336  12.634   2.939
29178SOL    HW287559   5.455  12.609   3.048
29179SOL     OW87560   4.041  11.719   3.142
29179SOL    HW187561   4.079  11.660   3.214
29179SOL    HW287562   4.081  11.693   3.054
29180SOL     OW87563   5.148  11.386   2.974
29180SOL    HW187564   5.200  11.321   3.029
29180SOL    HW287565   5.099  11.449   3.035
29181SOL     OW87566   4.725  11.206   3.016
29181SOL    HW187567   4.662  11.134   2.985
29181SOL    HW287568   4.818  11.170   3.016
29182SOL     OW87569   4.494  12.502   2.163
29182SOL    HW187570   4.448  12.415   2.180
29182SOL    HW287571   4.585  12.499   2.204
29183SOL     OW87572   4.342  12.739   3.146
29183SOL    HW187573   4.337  12.821   3.203
29183SOL    HW287574   4.431  12.736   3.101
29184SOL     OW87575   5.076  11.224   2.030
29184SOL    HW187576   5.111  11.183   1.946
29184SOL    HW287577   4.986  11.186   2.050
29185SOL     OW87578   5.024  11.625   2.553
29185SOL    HW187579   4.965  11.705   2.557
29185SOL    HW287580   5.039  11.590   2.646
29186SOL     OW87581   5.317  11.393   2.744
29186SOL    HW187582   5.233  11.392   2.798
29186SOL    HW287583   5.319  11.476   2.688
29187SOL     OW87584   3.763  12.249   2.162
29187SOL    HW187585   3.862  12.238   2.153
29187SOL    HW287586   3.723  12.163   2.194
29188SOL     OW87587   3.954  11.800   3.837
29188SOL    HW187588   3.861  11.798   3.874
29188SOL    HW287589   3.955  11.761   3.745
29189SOL     OW87590   3.949  11.447   4.720
29189SOL    HW187591   3.984  11.430   4.812
29189SOL    HW287592   3.861  11.402   4.708
29190SOL     OW87593   3.743  11.540   4.371
29190SOL    HW187594   3.661  11.583   4.410
29190SOL    HW287595   3.715  11.467   4.308
29191SOL     OW87596   4.293  12.447   4.889
29191SOL    HW187597   4.200  12.440   4.852
29191SOL    HW287598   4.304  12.536   4.933
29192SOL     OW87599   5.279  12.683   4.427
29192SOL    HW187600   5.222  12.667   4.508
29192SOL    HW287601   5.220  12.693   4.347
29193SOL     OW87602   4.859  11.875   4.441
29193SOL    HW187603   4.916  11.953   4.416
29193SOL    HW287604   4.799  11.901   4.517
29194SOL     OW87605   5.479  11.779   3.955
29194SOL    HW187606   5.467  11.766   3.856
29194SOL    HW287607   5.449  11.698   4.004
29195SOL     OW87608   4.492  12.316   4.747
29195SOL    HW187609   4.414  12.333   4.807
29195SOL    HW287610   4.526  12.403   4.711
29196SOL     OW87611   4.574  11.970   5.547
29196SOL    HW187612   4.570  12.046   5.612
29196SOL    HW287613   4.596  12.006   5.456
29197SOL     OW87614   4.409  12.184   4.389
29197SOL    HW187615   4.478  12.168   4.459
29197SOL    HW287616   4.336  12.241   4.427
29198SOL     OW87617   4.410  12.333   5.527
29198SOL    HW187618   4.470  12.412   5.541
29198SOL    HW287619   4.324  12.364   5.486
29199SOL     OW87620   4.059  12.607   4.785
29199SOL    HW187621   3.981  12.576   4.732
29199SOL    HW287622   4.117  12.665   4.728
29200SOL     OW87623   5.184  12.677   5.063
29200SOL    HW187624   5.208  12.771   5.089
29200SOL    HW287625   5.168  12.623   5.145
29201SOL     OW87626   4.162  11.564   5.223
29201SOL    HW187627   4.244  11.508   5.232
29201SOL    HW287628   4.081  11.506   5.227
29202SOL     OW87629   5.327  11.619   4.461
29202SOL    HW187630   5.253  11.665   4.411
29202SOL    HW287631   5.378  11.687   4.514
29203SOL     OW87632   4.851  12.513   5.414
29203SOL    HW187633   4.898  12.513   5.502
29203SOL    HW287634   4.803  12.426   5.403
29204SOL     OW87635   3.954  12.606   4.262
29204SOL    HW187636   3.928  12.702   4.262
29204SOL    HW287637   3.883  12.552   4.307
29205SOL     OW87638   3.964  12.263   4.610
29205SOL    HW187639   3.978  12.179   4.662
29205SOL    HW287640   3.909  12.327   4.665
29206SOL     OW87641   4.330  12.136   3.847
29206SOL    HW187642   4.337  12.220   3.793
29206SOL    HW287643   4.376  12.149   3.935
29207SOL     OW87644   5.318  11.286   5.204
29207SOL    HW187645   5.300  11.353   5.132
29207SOL    HW287646   5.315  11.332   5.293
29208SOL     OW87647   3.846  11.815   4.287
29208SOL    HW187648   3.801  11.727   4.304
29208SOL    HW287649   3.845  11.869   4.371
29209SOL     OW87650   3.751  12.768   3.841
29209SOL    HW187651   3.732  12.672   3.862
29209SOL    HW287652   3.718  12.826   3.916
29210SOL     OW87653   5.413  12.094   4.336
29210SOL    HW187654   5.508  12.065   4.344
29210SOL    HW287655   5.405  12.159   4.261
29211SOL     OW87656   5.365  12.280   4.156
29211SOL    HW187657   5.451  12.282   4.104
29211SOL    HW287658   5.379  12.327   4.244
29212SOL     OW87659   3.837  11.909   5.321
29212SOL    HW187660   3.925  11.896   5.366
29212SOL    HW287661   3.824  12.006   5.299
29213SOL     OW87662   4.337  12.537   4.450
29213SOL    HW187663   4.288  12.450   4.459
29213SOL    HW287664   4.314  12.580   4.363
29214SOL     OW87665   5.017  12.400   5.147
29214SOL    HW187666   5.054  12.327   5.089
29214SOL    HW287667   5.069  12.405   5.232
29215SOL     OW87668   4.533  11.176   4.226
29215SOL    HW187669   4.573  11.267   4.217
29215SOL    HW287670   4.433  11.184   4.232
29216SOL     OW87671   3.921  12.148   4.988
29216SOL    HW187672   4.010  12.103   4.974
29216SOL    HW287673   3.848  12.083   4.969
29217SOL     OW87674   5.249  12.171   3.914
29217SOL    HW187675   5.186  12.095   3.927
29217SOL    HW287676   5.297  12.189   4.000
29218SOL     OW87677   4.041  11.423   5.525
29218SOL    HW187678   4.112  11.494   5.531
29218SOL    HW287679   3.953  11.462   5.553
29219SOL     OW87680   5.190  12.589   4.677
29219SOL    HW187681   5.131  12.595   4.757
29219SOL    HW287682   5.175  12.501   4.631
29220SOL     OW87683   4.322  11.901   3.994
29220SOL    HW187684   4.346  11.970   3.926
29220SOL    HW287685   4.244  11.934   4.048
29221SOL     OW87686   5.005  11.517   4.668
29221SOL    HW187687   4.919  11.467   4.655
29221SOL    HW287688   5.067  11.463   4.724
29222SOL     OW87689   5.300  12.834   4.031
29222SOL    HW187690   5.389  12.880   4.034
29222SOL    HW287691   5.279  12.810   3.936
29223SOL     OW87692   4.531  11.777   5.189
29223SOL    HW187693   4.484  11.774   5.278
29223SOL    HW287694   4.480  11.722   5.123
29224SOL     OW87695   5.118  11.641   5.398
29224SOL    HW187696   5.098  11.684   5.486
29224SOL    HW287697   5.196  11.579   5.407
29225SOL     OW87698   4.697  12.062   5.296
29225SOL    HW187699   4.743  11.978   5.267
29225SOL    HW287700   4.641  12.096   5.221
29226SOL     OW87701   4.715  11.582   4.966
29226SOL    HW187702   4.638  11.616   5.020
29226SOL    HW287703   4.681  11.531   4.887
29227SOL     OW87704   4.765  11.873   4.153
29227SOL    HW187705   4.791  11.869   4.249
29227SOL    HW287706   4.680  11.822   4.139
29228SOL     OW87707   3.800  11.983   4.513
29228SOL    HW187708   3.899  11.971   4.522
29228SOL    HW287709   3.776  12.078   4.534
29229SOL     OW87710   4.589  11.520   3.919
29229SOL    HW187711   4.648  11.583   3.870
29229SOL    HW287712   4.608  11.426   3.890
29230SOL     OW87713   5.443  11.757   5.555
29230SOL    HW187714   5.417  11.846   5.519
29230SOL    HW287715   5.441  11.689   5.482
29231SOL     OW87716   5.086  12.316   4.269
29231SOL    HW187717   5.169  12.287   4.221
29231SOL    HW287718   5.037  12.383   4.213
29232SOL     OW87719   4.274  11.368   4.609
29232SOL    HW187720   4.269  11.363   4.709
29232SOL    HW287721   4.276  11.464   4.580
29233SOL     OW87722   4.732  12.628   4.201
29233SOL    HW187723   4.686  12.700   4.149
29233SOL    HW287724   4.728  12.648   4.299
29234SOL     OW87725   5.519  12.238   4.597
29234SOL    HW187726   5.457  12.223   4.521
29234SOL    HW287727   5.467  12.249   4.682
29235SOL     OW87728   4.951  12.722   5.230
29235SOL    HW187729   4.957  12.645   5.294
29235SOL    HW287730   4.899  12.696   5.150
29236SOL     OW87731   4.045  12.115   3.966
29236SOL    HW187732   4.127  12.154   3.924
29236SOL    HW287733   4.018  12.033   3.917
29237SOL     OW87734   5.182  11.907   4.452
29237SOL    HW187735   5.177  11.842   4.527
29237SOL    HW287736   5.262  11.966   4.465
29238SOL     OW87737   4.185  12.438   5.451
29238SOL    HW187738   4.135  12.439   5.365
29238SOL    HW287739   4.122  12.420   5.527
29239SOL     OW87740   3.926  11.457   5.222
29239SOL    HW187741   3.846  11.517   5.209
29239SOL    HW287742   3.916  11.408   5.308
29240SOL     OW87743   5.356  12.549   3.805
29240SOL    HW187744   5.324  12.643   3.795
29240SOL    HW287745   5.280  12.486   3.793
29241SOL     OW87746   5.124  11.279   4.150
29241SOL    HW187747   5.100  11.242   4.060
29241SOL    HW287748   5.223  11.295   4.154
29242SOL     OW87749   4.106  11.872   4.204
29242SOL    HW187750   4.151  11.782   4.201
29242SOL    HW287751   4.012  11.861   4.237
29243SOL     OW87752   5.271  11.394   5.453
29243SOL    HW187753   5.266  11.431   5.545
29243SOL    HW287754   5.199  11.325   5.441
29244SOL     OW87755   4.338  11.294   3.841
29244SOL    HW187756   4.436  11.272   3.848
29244SOL    HW287757   4.307  11.277   3.748
29245SOL     OW87758   4.505  11.436   5.473
29245SOL    HW187759   4.572  11.375   5.516
29245SOL    HW287760   4.432  11.455   5.538
29246SOL     OW87761   5.075  11.762   5.157
29246SOL    HW187762   5.103  11.719   5.242
29246SOL    HW287763   5.100  11.858   5.158
29247SOL     OW87764   4.527  12.574   4.648
29247SOL    HW187765   4.617  12.588   4.606
29247SOL    HW287766   4.456  12.576   4.577
29248SOL     OW87767   4.646  11.675   4.623
29248SOL    HW187768   4.621  11.666   4.527
29248SOL    HW287769   4.694  11.593   4.654
29249SOL     OW87770   4.263  11.236   4.236
29249SOL    HW187771   4.182  11.237   4.294
29249SOL    HW287772   4.266  11.319   4.181
29250SOL     OW87773   5.158  12.360   3.765
29250SOL    HW187774   5.190  12.284   3.822
29250SOL    HW287775   5.066  12.387   3.795
29251SOL     OW87776   4.021  11.207   3.895
29251SOL    HW187777   4.070  11.291   3.874
29251SOL    HW287778   4.083  11.142   3.940
29252SOL     OW87779   4.659  11.408   4.204
29252SOL    HW187780   4.611  11.449   4.126
29252SOL    HW287781   4.758  11.406   4.185
29253SOL     OW87782   4.800  11.855   5.188
29253SOL    HW187783   4.720  11.794   5.191
29253SOL    HW287784   4.881  11.802   5.164
29254SOL     OW87785   4.951  12.742   4.517
29254SOL    HW187786   4.972  12.816   4.452
29254SOL    HW287787   5.019  12.742   4.590
29255SOL     OW87788   4.183  12.324   4.465
29255SOL    HW187789   4.112  12.297   4.530
29255SOL    HW287790   4.157  12.296   4.372
29256SOL     OW87791   4.756  11.721   3.740
29256SOL    HW187792   4.715  11.803   3.701
29256SOL    HW287793   4.820  11.747   3.813
29257SOL     OW87794   3.802  11.728   5.110
29257SOL    HW187795   3.894  11.727   5.069
29257SOL    HW287796   3.796  11.802   5.177
29258SOL     OW87797   4.285  11.394   4.871
29258SOL    HW187798   4.323  11.310   4.908
29258SOL    HW287799   4.197  11.413   4.915
29259SOL     OW87800   4.590  11.626   4.366
29259SOL    HW187801   4.558  11.698   4.304
29259SOL    HW287802   4.614  11.545   4.313
29260SOL     OW87803   4.741  11.211   4.477
29260SOL    HW187804   4.669  11.216   4.408
29260SOL    HW287805   4.717  11.142   4.546
29261SOL     OW87806   5.153  12.345   4.591
29261SOL    HW187807   5.098  12.261   4.584
29261SOL    HW287808   5.179  12.374   4.499
29262SOL     OW87809   5.190  11.762   4.716
29262SOL    HW187810   5.160  11.667   4.723
29262SOL    HW287811   5.263  11.778   4.782
29263SOL     OW87812   5.581  12.005   4.101
29263SOL    HW187813   5.623  11.941   4.165
29263SOL    HW287814   5.543  11.954   4.023
29264SOL     OW87815   4.212  12.557   3.898
29264SOL    HW187816   4.125  12.542   3.945
29264SOL    HW287817   4.195  12.583   3.803
29265SOL     OW87818   5.388  12.452   4.381
29265SOL    HW187819   5.487  12.460   4.395
29265SOL    HW287820   5.343  12.536   4.412
29266SOL     OW87821   5.114  11.747   3.802
29266SOL    HW187822   5.060  11.726   3.883
29266SOL    HW287823   5.205  11.706   3.811
29267SOL     OW87824   4.251  11.428   4.052
29267SOL    HW187825   4.278  11.369   3.977
29267SOL    HW287826   4.251  11.523   4.021
29268SOL     OW87827   5.478  12.395   5.312
29268SOL    HW187828   5.569  12.356   5.299
29268SOL    HW287829   5.486  12.491   5.336
29269SOL     OW87830   4.788  12.519   5.064
29269SOL    HW187831   4.708  12.496   5.119
29269SOL    HW287832   4.871  12.493   5.113
29270SOL     OW87833   4.835  12.367   4.824
29270SOL    HW187834   4.795  12.411   4.905
29270SOL    HW287835   4.794  12.404   4.741
29271SOL     OW87836   5.362  12.271   4.803
29271SOL    HW187837   5.367  12.352   4.862
29271SOL    HW287838   5.276  12.273   4.752
29272SOL     OW87839   4.639  11.261   5.126
29272SOL    HW187840   4.664  11.241   5.031
29272SOL    HW287841   4.711  11.317   5.168
29273SOL     OW87842   4.704  12.288   5.443
29273SOL    HW187843   4.605  12.294   5.453
29273SOL    HW287844   4.727  12.208   5.387
29274SOL     OW87845   4.429  12.222   4.092
29274SOL    HW187846   4.415  12.229   4.191
29274SOL    HW287847   4.513  12.171   4.074
29275SOL     OW87848   4.134  11.985   4.975
29275SOL    HW187849   4.220  11.997   5.025
29275SOL    HW287850   4.092  11.898   5.002
29276SOL     OW87851   4.998  11.558   4.986
29276SOL    HW187852   5.019  11.632   5.050
29276SOL    HW287853   4.909  11.575   4.943
29277SOL     OW87854   3.788  12.736   5.055
29277SOL    HW187855   3.742  12.818   5.021
29277SOL    HW287856   3.886  12.755   5.064
29278SOL     OW87857   4.091  12.272   4.225
29278SOL    HW187858   4.084  12.355   4.169
29278SOL    HW287859   4.095  12.192   4.165
29279SOL     OW87860   4.290  11.709   4.589
29279SOL    HW187861   4.302  11.775   4.515
29279SOL    HW287862   4.336  11.743   4.672
29280SOL     OW87863   4.976  12.520   4.112
29280SOL    HW187864   5.026  12.597   4.152
29280SOL    HW287865   4.881  12.522   4.144
29281SOL     OW87866   4.996  12.617   4.866
29281SOL    HW187867   5.043  12.630   4.953
29281SOL    HW287868   4.930  12.543   4.875
29282SOL     OW87869   5.306  11.811   4.196
29282SOL    HW187870   5.275  11.872   4.269
29282SOL    HW287871   5.356  11.863   4.127
29283SOL     OW87872   4.078  12.682   5.053
29283SOL    HW187873   4.057  12.638   4.966
29283SOL    HW287874   4.175  12.708   5.056
29284SOL     OW87875   4.126  11.923   5.322
29284SOL    HW187876   4.194  11.978   5.275
29284SOL    HW287877   4.166  11.835   5.349
29285SOL     OW87878   5.311  11.951   5.394
29285SOL    HW187879   5.219  11.989   5.389
29285SOL    HW287880   5.371  11.998   5.329
29286SOL     OW87881   4.737  11.277   5.494
29286SOL    HW187882   4.743  11.362   5.442
29286SOL    HW287883   4.769  11.201   5.437
29287SOL     OW87884   4.228  11.222   5.464
29287SOL    HW187885   4.186  11.165   5.394
29287SOL    HW287886   4.162  11.291   5.496
29288SOL     OW87887   4.297  12.042   4.753
29288SOL    HW187888   4.341  12.131   4.744
29288SOL    HW287889   4.234  12.042   4.830
29289SOL     OW87890   5.084  12.034   4.769
29289SOL    HW187891   5.009  12.034   4.703
29289SOL    HW287892   5.121  11.942   4.778
29290SOL     OW87893   4.933  11.697   3.999
29290SOL    HW187894   4.946  11.613   4.053
29290SOL    HW287895   4.904  11.771   4.059
29291SOL     OW87896   4.031  11.385   4.955
29291SOL    HW187897   4.008  11.422   5.045
29291SOL    HW287898   4.001  11.290   4.949
29292SOL     OW87899   3.761  12.482   5.006
29292SOL    HW187900   3.814  12.433   5.074
29292SOL    HW287901   3.783  12.580   5.011
29293SOL     OW87902   4.456  11.806   4.788
29293SOL    HW187903   4.515  11.780   4.712
29293SOL    HW287904   4.428  11.902   4.777
29294SOL     OW87905   5.452  12.107   5.578
29294SOL    HW187906   5.406  12.100   5.489
29294SOL    HW287907   5.390  12.151   5.644
29295SOL     OW87908   4.031  11.235   4.342
29295SOL    HW187909   4.020  11.329   4.375
29295SOL    HW287910   4.026  11.172   4.419
29296SOL     OW87911   5.346  11.539   4.098
29296SOL    HW187912   5.348  11.463   4.162
29296SOL    HW287913   5.298  11.616   4.138
29297SOL     OW87914   4.747  11.938   4.690
29297SOL    HW187915   4.762  11.959   4.786
29297SOL    HW287916   4.717  11.843   4.681
29298SOL     OW87917   5.583  12.690   5.329
29298SOL    HW187918   5.597  12.717   5.234
29298SOL    HW287919   5.666  12.712   5.382
29299SOL     OW87920   4.074  12.070   5.528
29299SOL    HW187921   4.150  12.114   5.576
29299SOL    HW287922   4.109  12.023   5.446
29300SOL     OW87923   5.264  11.446   3.849
29300SOL    HW187924   5.203  11.371   3.872
29300SOL    HW287925   5.286  11.498   3.932
29301SOL     OW87926   5.027  12.010   3.766
29301SOL    HW187927   5.061  11.917   3.781
29301SOL    HW287928   5.045  12.037   3.671
29302SOL     OW87929   4.792  12.505   4.573
29302SOL    HW187930   4.799  12.421   4.518
29302SOL    HW287931   4.854  12.574   4.537
29303SOL     OW87932   4.043  11.982   4.673
29303SOL    HW187933   4.136  12.018   4.678
29303SOL    HW287934   4.037  11.897   4.725
29304SOL     OW87935   4.063  11.681   4.730
29304SOL    HW187936   4.011  11.598   4.713
29304SOL    HW287937   4.140  11.686   4.666
29305SOL     OW87938   4.862  11.552   5.402
29305SOL    HW187939   4.817  11.615   5.466
29305SOL    HW287940   4.955  11.583   5.385
29306SOL     OW87941   4.884  11.379   5.201
29306SOL    HW187942   4.884  11.443   5.278
29306SOL    HW287943   4.912  11.427   5.118
29307SOL     OW87944   3.732  12.498   3.924
29307SOL    HW187945   3.639  12.519   3.893
29307SOL    HW287946   3.742  12.399   3.937
29308SOL     OW87947   4.228  12.740   4.634
29308SOL    HW187948   4.294  12.814   4.643
29308SOL    HW287949   4.272  12.661   4.592
29309SOL     OW87950   4.726  11.968   4.962
29309SOL    HW187951   4.767  11.936   5.048
29309SOL    HW287952   4.630  11.941   4.959
29310SOL     OW87953   3.764  11.716   4.838
29310SOL    HW187954   3.849  11.683   4.797
29310SOL    HW287955   3.777  11.731   4.936
29311SOL     OW87956   3.913  11.692   5.446
29311SOL    HW187957   3.972  11.652   5.376
29311SOL    HW287958   3.855  11.763   5.405
29312SOL     OW87959   5.093  12.122   5.384
29312SOL    HW187960   5.132  12.211   5.404
29312SOL    HW287961   5.103  12.102   5.287
29313SOL     OW87962   4.539  11.744   4.049
29313SOL    HW187963   4.546  11.655   4.003
29313SOL    HW287964   4.445  11.778   4.041
29314SOL     OW87965   5.381  11.776   4.930
29314SOL    HW187966   5.343  11.707   4.992
29314SOL    HW287967   5.463  11.740   4.886
29315SOL     OW87968   3.976  12.736   5.468
29315SOL    HW187969   3.946  12.793   5.544
29315SOL    HW287970   3.969  12.639   5.494
29316SOL     OW87971   4.395  11.636   4.993
29316SOL    HW187972   4.361  11.547   4.963
29316SOL    HW287973   4.421  11.690   4.913
29317SOL     OW87974   4.197  11.672   3.915
29317SOL    HW187975   4.258  11.752   3.919
29317SOL    HW287976   4.102  11.703   3.922
29318SOL     OW87977   3.883  12.309   5.190
29318SOL    HW187978   3.905  12.248   5.266
29318SOL    HW287979   3.893  12.260   5.104
29319SOL     OW87980   5.071  12.231   4.958
29319SOL    HW187981   5.095  12.168   4.884
29319SOL    HW287982   4.981  12.271   4.940
29320SOL     OW87983   5.026  12.027   4.033
29320SOL    HW187984   4.940  11.996   4.075
29320SOL    HW287985   5.022  12.013   3.934
29321SOL     OW87986   4.976  12.903   4.852
29321SOL    HW187987   5.060  12.908   4.798
29321SOL    HW287988   4.953  12.807   4.870
29322SOL     OW87989   3.807  12.430   4.746
29322SOL    HW187990   3.802  12.429   4.846
29322SOL    HW287991   3.724  12.389   4.708
29323SOL     OW87992   5.450  11.307   4.247
29323SOL    HW187993   5.523  11.290   4.180
29323SOL    HW287994   5.419  11.220   4.285
29324SOL     OW87995   3.854  12.966   5.575
29324SOL    HW187996   3.813  12.892   5.628
29324SOL    HW287997   3.918  13.017   5.633
29325SOL     OW87998   5.004  12.099   4.396
29325SOL    HW187999   5.064  12.018   4.398
29325SOL    HW288000   5.044  12.168   4.336
29326SOL     OW88001   4.554  12.445   5.146
29326SOL    HW188002   4.549  12.478   5.241
29326SOL    HW288003   4.468  12.464   5.100
29327SOL     OW88004   4.396  12.788   3.878
29327SOL    HW188005   4.405  12.798   3.779
29327SOL    HW288006   4.356  12.699   3.899
29328SOL     OW88007   5.565  11.347   4.687
29328SOL    HW188008   5.604  11.262   4.651
29328SOL    HW288009   5.467  11.349   4.668
29329SOL     OW88010   3.987  11.498   4.444
29329SOL    HW188011   3.908  11.549   4.410
29329SOL    HW288012   3.978  11.483   4.542
29330SOL     OW88013   4.918  12.784   3.755
29330SOL    HW188014   4.924  12.691   3.792
29330SOL    HW288015   4.859  12.784   3.675
29331SOL     OW88016   4.546  12.174   5.096
29331SOL    HW188017   4.586  12.173   5.004
29331SOL    HW288018   4.556  12.266   5.136
29332SOL     OW88019   4.640  12.082   4.015
29332SOL    HW188020   4.703  12.120   3.947
29332SOL    HW288021   4.680  11.999   4.054
29333SOL     OW88022   4.096  12.460   5.214
29333SOL    HW188023   4.083  12.553   5.180
29333SOL    HW288024   4.012  12.408   5.201
29334SOL     OW88025   5.338  12.464   5.013
29334SOL    HW188026   5.398  12.467   5.093
29334SOL    HW288027   5.263  12.528   5.026
29335SOL     OW88028   4.763  12.270   4.420
29335SOL    HW188029   4.693  12.223   4.474
29335SOL    HW288030   4.822  12.202   4.377
29336SOL     OW88031   4.738  11.408   4.695
29336SOL    HW188032   4.730  11.372   4.602
29336SOL    HW288033   4.736  11.332   4.760
29337SOL     OW88034   4.314  12.659   4.215
29337SOL    HW188035   4.356  12.601   4.145
29337SOL    HW288036   4.270  12.738   4.171
29338SOL     OW88037   5.433  11.557   5.105
29338SOL    HW188038   5.506  11.626   5.109
29338SOL    HW288039   5.461  11.482   5.046
29339SOL     OW88040   3.979  12.520   4.014
29339SOL    HW188041   3.883  12.521   3.987
29339SOL    HW288042   3.991  12.573   4.098
29340SOL     OW88043   3.829  12.185   5.450
29340SOL    HW188044   3.752  12.152   5.504
29340SOL    HW288045   3.914  12.155   5.492
29341SOL     OW88046   4.396  11.375   5.213
29341SOL    HW188047   4.486  11.359   5.173
29341SOL    HW288048   4.404  11.380   5.312
29342SOL     OW88049   3.799  11.517   3.757
29342SOL    HW188050   3.707  11.489   3.728
29342SOL    HW288051   3.830  11.594   3.701
29343SOL     OW88052   5.164  12.028   5.122
29343SOL    HW188053   5.107  12.080   5.059
29343SOL    HW288054   5.260  12.040   5.098
29344SOL     OW88055   3.796  11.338   4.042
29344SOL    HW188056   3.779  11.421   3.988
29344SOL    HW288057   3.886  11.301   4.020
29345SOL     OW88058   4.907  12.507   3.843
29345SOL    HW188059   4.808  12.496   3.845
29345SOL    HW288060   4.941  12.522   3.936
29346SOL     OW88061   4.337  12.014   5.155
29346SOL    HW188062   4.393  12.095   5.138
29346SOL    HW288063   4.396  11.934   5.158
29347SOL     OW88064   4.440  11.737   5.432
29347SOL    HW188065   4.459  11.802   5.506
29347SOL    HW288066   4.500  11.657   5.441
29348SOL     OW88067   5.174  12.392   5.357
29348SOL    HW188068   5.165  12.382   5.456
29348SOL    HW288069   5.270  12.385   5.331
29349SOL     OW88070   5.398  12.055   4.978
29349SOL    HW188071   5.371  11.966   4.941
29349SOL    HW288072   5.399  12.123   4.905
29350SOL     OW88073   4.949  11.497   4.173
29350SOL    HW188074   5.014  11.423   4.162
29350SOL    HW288075   4.969  11.547   4.257
29351SOL     OW88076   4.318  11.917   4.376
29351SOL    HW188077   4.368  12.002   4.357
29351SOL    HW288078   4.230  11.919   4.328
29352SOL     OW88079   5.501  11.514   5.366
29352SOL    HW188080   5.484  11.545   5.272
29352SOL    HW288081   5.417  11.477   5.404
29353SOL     OW88082   5.454  12.106   5.241
29353SOL    HW188083   5.492  12.197   5.256
29353SOL    HW288084   5.446  12.089   5.142
29354SOL     OW88085   4.583  12.546   3.740
29354SOL    HW188086   4.537  12.561   3.828
29354SOL    HW288087   4.627  12.631   3.710
29355SOL     OW88088   4.583  12.128   4.585
29355SOL    HW188089   4.637  12.059   4.633
29355SOL    HW288090   4.551  12.197   4.651
29356SOL     OW88091   4.807  12.156   3.811
29356SOL    HW188092   4.784  12.209   3.729
29356SOL    HW288093   4.888  12.100   3.792
29357SOL     OW88094   5.585  12.741   4.575
29357SOL    HW188095   5.514  12.729   4.505
29357SOL    HW288096   5.586  12.662   4.635
29358SOL     OW88097   3.945  12.486   5.568
29358SOL    HW188098   3.880  12.413   5.547
29358SOL    HW288099   3.949  12.500   5.666
29359SOL     OW88100   3.803  12.412   4.377
29359SOL    HW188101   3.802  12.365   4.465
29359SOL    HW288102   3.885  12.384   4.326
29360SOL     OW88103   4.396  12.563   5.348
29360SOL    HW188104   4.318  12.513   5.386
29360SOL    HW288105   4.393  12.658   5.379
29361SOL     OW88106   5.548  11.364   4.951
29361SOL    HW188107   5.544  11.274   4.995
29361SOL    HW288108   5.551  11.353   4.852
29362SOL     OW88109   4.152  11.596   4.244
29362SOL    HW188110   4.182  11.524   4.182
29362SOL    HW288111   4.113  11.556   4.327
29363SOL     OW88112   5.429  12.659   4.828
29363SOL    HW188113   5.336  12.634   4.801
29363SOL    HW288114   5.455  12.609   4.910
29364SOL     OW88115   4.041  11.719   5.004
29364SOL    HW188116   4.079  11.660   5.076
29364SOL    HW288117   4.081  11.693   4.916
29365SOL     OW88118   5.148  11.386   4.836
29365SOL    HW188119   5.200  11.321   4.891
29365SOL    HW288120   5.099  11.449   4.897
29366SOL     OW88121   4.725  11.206   4.878
29366SOL    HW188122   4.662  11.134   4.847
29366SOL    HW288123   4.818  11.170   4.878
29367SOL     OW88124   4.494  12.502   4.025
29367SOL    HW188125   4.448  12.415   4.042
29367SOL    HW288126   4.585  12.499   4.066
29368SOL     OW88127   4.342  12.739   5.008
29368SOL    HW188128   4.337  12.821   5.065
29368SOL    HW288129   4.431  12.736   4.963
29369SOL     OW88130   5.076  11.224   3.892
29369SOL    HW188131   5.111  11.183   3.808
29369SOL    HW288132   4.986  11.186   3.912
29370SOL     OW88133   5.024  11.625   4.415
29370SOL    HW188134   4.965  11.705   4.419
29370SOL    HW288135   5.039  11.590   4.508
29371SOL     OW88136   5.317  11.393   4.606
29371SOL    HW188137   5.233  11.392   4.660
29371SOL    HW288138   5.319  11.476   4.550
29372SOL     OW88139   3.763  12.249   4.024
29372SOL    HW188140   3.862  12.238   4.015
29372SOL    HW288141   3.723  12.163   4.056
29373SOL     OW88142   3.954  11.800   5.699
29373SOL    HW188143   3.861  11.798   5.736
29373SOL    HW288144   3.955  11.761   5.607
29374SOL     OW88145   3.949  11.447   6.582
29374SOL    HW188146   3.984  11.430   6.674
29374SOL    HW288147   3.861  11.402   6.570
29375SOL     OW88148   3.743  11.540   6.233
29375SOL    HW188149   3.661  11.583   6.272
29375SOL    HW288150   3.715  11.467   6.170
29376SOL     OW88151   4.293  12.447   6.751
29376SOL    HW188152   4.200  12.440   6.714
29376SOL    HW288153   4.304  12.536   6.795
29377SOL     OW88154   5.279  12.683   6.289
29377SOL    HW188155   5.222  12.667   6.370
29377SOL    HW288156   5.220  12.693   6.209
29378SOL     OW88157   4.859  11.875   6.303
29378SOL    HW188158   4.916  11.953   6.278
29378SOL    HW288159   4.799  11.901   6.379
29379SOL     OW88160   5.479  11.779   5.817
29379SOL    HW188161   5.467  11.766   5.718
29379SOL    HW288162   5.449  11.698   5.866
29380SOL     OW88163   4.492  12.316   6.609
29380SOL    HW188164   4.414  12.333   6.669
29380SOL    HW288165   4.526  12.403   6.573
29381SOL     OW88166   4.574  11.970   7.409
29381SOL    HW188167   4.570  12.046   7.474
29381SOL    HW288168   4.596  12.006   7.318
29382SOL     OW88169   4.409  12.184   6.251
29382SOL    HW188170   4.478  12.168   6.321
29382SOL    HW288171   4.336  12.241   6.289
29383SOL     OW88172   4.410  12.333   7.389
29383SOL    HW188173   4.470  12.412   7.403
29383SOL    HW288174   4.324  12.364   7.348
29384SOL     OW88175   4.059  12.607   6.647
29384SOL    HW188176   3.981  12.576   6.594
29384SOL    HW288177   4.117  12.665   6.590
29385SOL     OW88178   5.184  12.677   6.925
29385SOL    HW188179   5.208  12.771   6.951
29385SOL    HW288180   5.168  12.623   7.007
29386SOL     OW88181   4.162  11.564   7.085
29386SOL    HW188182   4.244  11.508   7.094
29386SOL    HW288183   4.081  11.506   7.089
29387SOL     OW88184   5.327  11.619   6.323
29387SOL    HW188185   5.253  11.665   6.273
29387SOL    HW288186   5.378  11.687   6.376
29388SOL     OW88187   4.851  12.513   7.276
29388SOL    HW188188   4.898  12.513   7.364
29388SOL    HW288189   4.803  12.426   7.265
29389SOL     OW88190   3.954  12.606   6.124
29389SOL    HW188191   3.928  12.702   6.124
29389SOL    HW288192   3.883  12.552   6.169
29390SOL     OW88193   3.964  12.263   6.472
29390SOL    HW188194   3.978  12.179   6.524
29390SOL    HW288195   3.909  12.327   6.527
29391SOL     OW88196   4.330  12.136   5.709
29391SOL    HW188197   4.337  12.220   5.655
29391SOL    HW288198   4.376  12.149   5.797
29392SOL     OW88199   5.318  11.286   7.066
29392SOL    HW188200   5.300  11.353   6.994
29392SOL    HW288201   5.315  11.332   7.155
29393SOL     OW88202   3.846  11.815   6.149
29393SOL    HW188203   3.801  11.727   6.166
29393SOL    HW288204   3.845  11.869   6.233
29394SOL     OW88205   3.751  12.768   5.703
29394SOL    HW188206   3.732  12.672   5.724
29394SOL    HW288207   3.718  12.826   5.778
29395SOL     OW88208   5.413  12.094   6.198
29395SOL    HW188209   5.508  12.065   6.206
29395SOL    HW288210   5.405  12.159   6.123
29396SOL     OW88211   5.365  12.280   6.018
29396SOL    HW188212   5.451  12.282   5.966
29396SOL    HW288213   5.379  12.327   6.106
29397SOL     OW88214   3.837  11.909   7.183
29397SOL    HW188215   3.925  11.896   7.228
29397SOL    HW288216   3.824  12.006   7.161
29398SOL     OW88217   4.337  12.537   6.312
29398SOL    HW188218   4.288  12.450   6.321
29398SOL    HW288219   4.314  12.580   6.225
29399SOL     OW88220   5.017  12.400   7.009
29399SOL    HW188221   5.054  12.327   6.951
29399SOL    HW288222   5.069  12.405   7.094
29400SOL     OW88223   4.533  11.176   6.088
29400SOL    HW188224   4.573  11.267   6.079
29400SOL    HW288225   4.433  11.184   6.094
29401SOL     OW88226   3.921  12.148   6.850
29401SOL    HW188227   4.010  12.103   6.836
29401SOL    HW288228   3.848  12.083   6.831
29402SOL     OW88229   5.249  12.171   5.776
29402SOL    HW188230   5.186  12.095   5.789
29402SOL    HW288231   5.297  12.189   5.862
29403SOL     OW88232   4.041  11.423   7.387
29403SOL    HW188233   4.112  11.494   7.393
29403SOL    HW288234   3.953  11.462   7.415
29404SOL     OW88235   5.190  12.589   6.539
29404SOL    HW188236   5.131  12.595   6.619
29404SOL    HW288237   5.175  12.501   6.493
29405SOL     OW88238   4.322  11.901   5.856
29405SOL    HW188239   4.346  11.970   5.788
29405SOL    HW288240   4.244  11.934   5.910
29406SOL     OW88241   5.005  11.517   6.530
29406SOL    HW188242   4.919  11.467   6.517
29406SOL    HW288243   5.067  11.463   6.586
29407SOL     OW88244   5.300  12.834   5.893
29407SOL    HW188245   5.389  12.880   5.896
29407SOL    HW288246   5.279  12.810   5.798
29408SOL     OW88247   4.531  11.777   7.051
29408SOL    HW188248   4.484  11.774   7.140
29408SOL    HW288249   4.480  11.722   6.985
29409SOL     OW88250   5.118  11.641   7.260
29409SOL    HW188251   5.098  11.684   7.348
29409SOL    HW288252   5.196  11.579   7.269
29410SOL     OW88253   4.697  12.062   7.158
29410SOL    HW188254   4.743  11.978   7.129
29410SOL    HW288255   4.641  12.096   7.083
29411SOL     OW88256   4.715  11.582   6.828
29411SOL    HW188257   4.638  11.616   6.882
29411SOL    HW288258   4.681  11.531   6.749
29412SOL     OW88259   4.765  11.873   6.015
29412SOL    HW188260   4.791  11.869   6.111
29412SOL    HW288261   4.680  11.822   6.001
29413SOL     OW88262   3.800  11.983   6.375
29413SOL    HW188263   3.899  11.971   6.384
29413SOL    HW288264   3.776  12.078   6.396
29414SOL     OW88265   4.589  11.520   5.781
29414SOL    HW188266   4.648  11.583   5.732
29414SOL    HW288267   4.608  11.426   5.752
29415SOL     OW88268   5.443  11.757   7.417
29415SOL    HW188269   5.417  11.846   7.381
29415SOL    HW288270   5.441  11.689   7.344
29416SOL     OW88271   5.086  12.316   6.131
29416SOL    HW188272   5.169  12.287   6.083
29416SOL    HW288273   5.037  12.383   6.075
29417SOL     OW88274   4.274  11.368   6.471
29417SOL    HW188275   4.269  11.363   6.571
29417SOL    HW288276   4.276  11.464   6.442
29418SOL     OW88277   4.732  12.628   6.063
29418SOL    HW188278   4.686  12.700   6.011
29418SOL    HW288279   4.728  12.648   6.161
29419SOL     OW88280   5.519  12.238   6.459
29419SOL    HW188281   5.457  12.223   6.383
29419SOL    HW288282   5.467  12.249   6.544
29420SOL     OW88283   4.951  12.722   7.092
29420SOL    HW188284   4.957  12.645   7.156
29420SOL    HW288285   4.899  12.696   7.012
29421SOL     OW88286   4.045  12.115   5.828
29421SOL    HW188287   4.127  12.154   5.786
29421SOL    HW288288   4.018  12.033   5.779
29422SOL     OW88289   5.182  11.907   6.314
29422SOL    HW188290   5.177  11.842   6.389
29422SOL    HW288291   5.262  11.966   6.327
29423SOL     OW88292   4.185  12.438   7.313
29423SOL    HW188293   4.135  12.439   7.227
29423SOL    HW288294   4.122  12.420   7.389
29424SOL     OW88295   3.926  11.457   7.084
29424SOL    HW188296   3.846  11.517   7.071
29424SOL    HW288297   3.916  11.408   7.170
29425SOL     OW88298   5.356  12.549   5.667
29425SOL    HW188299   5.324  12.643   5.657
29425SOL    HW288300   5.280  12.486   5.655
29426SOL     OW88301   5.124  11.279   6.012
29426SOL    HW188302   5.100  11.242   5.922
29426SOL    HW288303   5.223  11.295   6.016
29427SOL     OW88304   4.106  11.872   6.066
29427SOL    HW188305   4.151  11.782   6.063
29427SOL    HW288306   4.012  11.861   6.099
29428SOL     OW88307   5.271  11.394   7.315
29428SOL    HW188308   5.266  11.431   7.407
29428SOL    HW288309   5.199  11.325   7.303
29429SOL     OW88310   4.338  11.294   5.703
29429SOL    HW188311   4.436  11.272   5.710
29429SOL    HW288312   4.307  11.277   5.610
29430SOL     OW88313   4.505  11.436   7.335
29430SOL    HW188314   4.572  11.375   7.378
29430SOL    HW288315   4.432  11.455   7.400
29431SOL     OW88316   5.075  11.762   7.019
29431SOL    HW188317   5.103  11.719   7.104
29431SOL    HW288318   5.100  11.858   7.020
29432SOL     OW88319   4.527  12.574   6.510
29432SOL    HW188320   4.617  12.588   6.468
29432SOL    HW288321   4.456  12.576   6.439
29433SOL     OW88322   4.646  11.675   6.485
29433SOL    HW188323   4.621  11.666   6.389
29433SOL    HW288324   4.694  11.593   6.516
29434SOL     OW88325   4.263  11.236   6.098
29434SOL    HW188326   4.182  11.237   6.156
29434SOL    HW288327   4.266  11.319   6.043
29435SOL     OW88328   5.158  12.360   5.627
29435SOL    HW188329   5.190  12.284   5.684
29435SOL    HW288330   5.066  12.387   5.657
29436SOL     OW88331   4.021  11.207   5.757
29436SOL    HW188332   4.070  11.291   5.736
29436SOL    HW288333   4.083  11.142   5.802
29437SOL     OW88334   4.659  11.408   6.066
29437SOL    HW188335   4.611  11.449   5.988
29437SOL    HW288336   4.758  11.406   6.047
29438SOL     OW88337   4.800  11.855   7.050
29438SOL    HW188338   4.720  11.794   7.053
29438SOL    HW288339   4.881  11.802   7.026
29439SOL     OW88340   4.951  12.742   6.379
29439SOL    HW188341   4.972  12.816   6.314
29439SOL    HW288342   5.019  12.742   6.452
29440SOL     OW88343   4.183  12.324   6.327
29440SOL    HW188344   4.112  12.297   6.392
29440SOL    HW288345   4.157  12.296   6.234
29441SOL     OW88346   4.756  11.721   5.602
29441SOL    HW188347   4.715  11.803   5.563
29441SOL    HW288348   4.820  11.747   5.675
29442SOL     OW88349   3.802  11.728   6.972
29442SOL    HW188350   3.894  11.727   6.931
29442SOL    HW288351   3.796  11.802   7.039
29443SOL     OW88352   4.285  11.394   6.733
29443SOL    HW188353   4.323  11.310   6.770
29443SOL    HW288354   4.197  11.413   6.777
29444SOL     OW88355   4.590  11.626   6.228
29444SOL    HW188356   4.558  11.698   6.166
29444SOL    HW288357   4.614  11.545   6.175
29445SOL     OW88358   4.741  11.211   6.339
29445SOL    HW188359   4.669  11.216   6.270
29445SOL    HW288360   4.717  11.142   6.408
29446SOL     OW88361   5.153  12.345   6.453
29446SOL    HW188362   5.098  12.261   6.446
29446SOL    HW288363   5.179  12.374   6.361
29447SOL     OW88364   5.190  11.762   6.578
29447SOL    HW188365   5.160  11.667   6.585
29447SOL    HW288366   5.263  11.778   6.644
29448SOL     OW88367   5.581  12.005   5.963
29448SOL    HW188368   5.623  11.941   6.027
29448SOL    HW288369   5.543  11.954   5.885
29449SOL     OW88370   4.212  12.557   5.760
29449SOL    HW188371   4.125  12.542   5.807
29449SOL    HW288372   4.195  12.583   5.665
29450SOL     OW88373   5.388  12.452   6.243
29450SOL    HW188374   5.487  12.460   6.257
29450SOL    HW288375   5.343  12.536   6.274
29451SOL     OW88376   5.114  11.747   5.664
29451SOL    HW188377   5.060  11.726   5.745
29451SOL    HW288378   5.205  11.706   5.673
29452SOL     OW88379   4.251  11.428   5.914
29452SOL    HW188380   4.278  11.369   5.839
29452SOL    HW288381   4.251  11.523   5.883
29453SOL     OW88382   5.478  12.395   7.174
29453SOL    HW188383   5.569  12.356   7.161
29453SOL    HW288384   5.486  12.491   7.198
29454SOL     OW88385   4.788  12.519   6.926
29454SOL    HW188386   4.708  12.496   6.981
29454SOL    HW288387   4.871  12.493   6.975
29455SOL     OW88388   4.835  12.367   6.686
29455SOL    HW188389   4.795  12.411   6.767
29455SOL    HW288390   4.794  12.404   6.603
29456SOL     OW88391   5.362  12.271   6.665
29456SOL    HW188392   5.367  12.352   6.724
29456SOL    HW288393   5.276  12.273   6.614
29457SOL     OW88394   4.639  11.261   6.988
29457SOL    HW188395   4.664  11.241   6.893
29457SOL    HW288396   4.711  11.317   7.030
29458SOL     OW88397   4.704  12.288   7.305
29458SOL    HW188398   4.605  12.294   7.315
29458SOL    HW288399   4.727  12.208   7.249
29459SOL     OW88400   4.429  12.222   5.954
29459SOL    HW188401   4.415  12.229   6.053
29459SOL    HW288402   4.513  12.171   5.936
29460SOL     OW88403   4.134  11.985   6.837
29460SOL    HW188404   4.220  11.997   6.887
29460SOL    HW288405   4.092  11.898   6.864
29461SOL     OW88406   4.998  11.558   6.848
29461SOL    HW188407   5.019  11.632   6.912
29461SOL    HW288408   4.909  11.575   6.805
29462SOL     OW88409   3.788  12.736   6.917
29462SOL    HW188410   3.742  12.818   6.883
29462SOL    HW288411   3.886  12.755   6.926
29463SOL     OW88412   4.091  12.272   6.087
29463SOL    HW188413   4.084  12.355   6.031
29463SOL    HW288414   4.095  12.192   6.027
29464SOL     OW88415   4.290  11.709   6.451
29464SOL    HW188416   4.302  11.775   6.377
29464SOL    HW288417   4.336  11.743   6.534
29465SOL     OW88418   4.976  12.520   5.974
29465SOL    HW188419   5.026  12.597   6.014
29465SOL    HW288420   4.881  12.522   6.006
29466SOL     OW88421   4.996  12.617   6.728
29466SOL    HW188422   5.043  12.630   6.815
29466SOL    HW288423   4.930  12.543   6.737
29467SOL     OW88424   5.306  11.811   6.058
29467SOL    HW188425   5.275  11.872   6.131
29467SOL    HW288426   5.356  11.863   5.989
29468SOL     OW88427   4.078  12.682   6.915
29468SOL    HW188428   4.057  12.638   6.828
29468SOL    HW288429   4.175  12.708   6.918
29469SOL     OW88430   4.126  11.923   7.184
29469SOL    HW188431   4.194  11.978   7.137
29469SOL    HW288432   4.166  11.835   7.211
29470SOL     OW88433   5.311  11.951   7.256
29470SOL    HW188434   5.219  11.989   7.251
29470SOL    HW288435   5.371  11.998   7.191
29471SOL     OW88436   4.737  11.277   7.356
29471SOL    HW188437   4.743  11.362   7.304
29471SOL    HW288438   4.769  11.201   7.299
29472SOL     OW88439   4.228  11.222   7.326
29472SOL    HW188440   4.186  11.165   7.256
29472SOL    HW288441   4.162  11.291   7.358
29473SOL     OW88442   4.297  12.042   6.615
29473SOL    HW188443   4.341  12.131   6.606
29473SOL    HW288444   4.234  12.042   6.692
29474SOL     OW88445   5.084  12.034   6.631
29474SOL    HW188446   5.009  12.034   6.565
29474SOL    HW288447   5.121  11.942   6.640
29475SOL     OW88448   4.933  11.697   5.861
29475SOL    HW188449   4.946  11.613   5.915
29475SOL    HW288450   4.904  11.771   5.921
29476SOL     OW88451   4.031  11.385   6.817
29476SOL    HW188452   4.008  11.422   6.907
29476SOL    HW288453   4.001  11.290   6.811
29477SOL     OW88454   3.761  12.482   6.868
29477SOL    HW188455   3.814  12.433   6.936
29477SOL    HW288456   3.783  12.580   6.873
29478SOL     OW88457   4.456  11.806   6.650
29478SOL    HW188458   4.515  11.780   6.574
29478SOL    HW288459   4.428  11.902   6.639
29479SOL     OW88460   5.452  12.107   7.440
29479SOL    HW188461   5.406  12.100   7.351
29479SOL    HW288462   5.390  12.151   7.506
29480SOL     OW88463   4.031  11.235   6.204
29480SOL    HW188464   4.020  11.329   6.237
29480SOL    HW288465   4.026  11.172   6.281
29481SOL     OW88466   5.346  11.539   5.960
29481SOL    HW188467   5.348  11.463   6.024
29481SOL    HW288468   5.298  11.616   6.000
29482SOL     OW88469   4.747  11.938   6.552
29482SOL    HW188470   4.762  11.959   6.648
29482SOL    HW288471   4.717  11.843   6.543
29483SOL     OW88472   5.583  12.690   7.191
29483SOL    HW188473   5.597  12.717   7.096
29483SOL    HW288474   5.666  12.712   7.244
29484SOL     OW88475   4.074  12.070   7.390
29484SOL    HW188476   4.150  12.114   7.438
29484SOL    HW288477   4.109  12.023   7.308
29485SOL     OW88478   5.264  11.446   5.711
29485SOL    HW188479   5.203  11.371   5.734
29485SOL    HW288480   5.286  11.498   5.794
29486SOL     OW88481   5.027  12.010   5.628
29486SOL    HW188482   5.061  11.917   5.643
29486SOL    HW288483   5.045  12.037   5.533
29487SOL     OW88484   4.792  12.505   6.435
29487SOL    HW188485   4.799  12.421   6.380
29487SOL    HW288486   4.854  12.574   6.399
29488SOL     OW88487   4.043  11.982   6.535
29488SOL    HW188488   4.136  12.018   6.540
29488SOL    HW288489   4.037  11.897   6.587
29489SOL     OW88490   4.063  11.681   6.592
29489SOL    HW188491   4.011  11.598   6.575
29489SOL    HW288492   4.140  11.686   6.528
29490SOL     OW88493   4.862  11.552   7.264
29490SOL    HW188494   4.817  11.615   7.328
29490SOL    HW288495   4.955  11.583   7.247
29491SOL     OW88496   4.884  11.379   7.063
29491SOL    HW188497   4.884  11.443   7.140
29491SOL    HW288498   4.912  11.427   6.980
29492SOL     OW88499   3.732  12.498   5.786
29492SOL    HW188500   3.639  12.519   5.755
29492SOL    HW288501   3.742  12.399   5.799
29493SOL     OW88502   4.228  12.740   6.496
29493SOL    HW188503   4.294  12.814   6.505
29493SOL    HW288504   4.272  12.661   6.454
29494SOL     OW88505   4.726  11.968   6.824
29494SOL    HW188506   4.767  11.936   6.910
29494SOL    HW288507   4.630  11.941   6.821
29495SOL     OW88508   3.764  11.716   6.700
29495SOL    HW188509   3.849  11.683   6.659
29495SOL    HW288510   3.777  11.731   6.798
29496SOL     OW88511   3.913  11.692   7.308
29496SOL    HW188512   3.972  11.652   7.238
29496SOL    HW288513   3.855  11.763   7.267
29497SOL     OW88514   5.093  12.122   7.246
29497SOL    HW188515   5.132  12.211   7.266
29497SOL    HW288516   5.103  12.102   7.149
29498SOL     OW88517   4.539  11.744   5.911
29498SOL    HW188518   4.546  11.655   5.865
29498SOL    HW288519   4.445  11.778   5.903
29499SOL     OW88520   5.381  11.776   6.792
29499SOL    HW188521   5.343  11.707   6.854
29499SOL    HW288522   5.463  11.740   6.748
29500SOL     OW88523   3.976  12.736   7.330
29500SOL    HW188524   3.946  12.793   7.406
29500SOL    HW288525   3.969  12.639   7.356
29501SOL     OW88526   4.395  11.636   6.855
29501SOL    HW188527   4.361  11.547   6.825
29501SOL    HW288528   4.421  11.690   6.775
29502SOL     OW88529   4.197  11.672   5.777
29502SOL    HW188530   4.258  11.752   5.781
29502SOL    HW288531   4.102  11.703   5.784
29503SOL     OW88532   3.883  12.309   7.052
29503SOL    HW188533   3.905  12.248   7.128
29503SOL    HW288534   3.893  12.260   6.966
29504SOL     OW88535   5.071  12.231   6.820
29504SOL    HW188536   5.095  12.168   6.746
29504SOL    HW288537   4.981  12.271   6.802
29505SOL     OW88538   5.026  12.027   5.895
29505SOL    HW188539   4.940  11.996   5.937
29505SOL    HW288540   5.022  12.013   5.796
29506SOL     OW88541   4.976  12.903   6.714
29506SOL    HW188542   5.060  12.908   6.660
29506SOL    HW288543   4.953  12.807   6.732
29507SOL     OW88544   3.807  12.430   6.608
29507SOL    HW188545   3.802  12.429   6.708
29507SOL    HW288546   3.724  12.389   6.570
29508SOL     OW88547   5.450  11.307   6.109
29508SOL    HW188548   5.523  11.290   6.042
29508SOL    HW288549   5.419  11.220   6.147
29509SOL     OW88550   3.854  12.966   7.437
29509SOL    HW188551   3.813  12.892   7.490
29509SOL    HW288552   3.918  13.017   7.495
29510SOL     OW88553   5.004  12.099   6.258
29510SOL    HW188554   5.064  12.018   6.260
29510SOL    HW288555   5.044  12.168   6.198
29511SOL     OW88556   4.554  12.445   7.008
29511SOL    HW188557   4.549  12.478   7.103
29511SOL    HW288558   4.468  12.464   6.962
29512SOL     OW88559   4.396  12.788   5.740
29512SOL    HW188560   4.405  12.798   5.641
29512SOL    HW288561   4.356  12.699   5.761
29513SOL     OW88562   5.565  11.347   6.549
29513SOL    HW188563   5.604  11.262   6.513
29513SOL    HW288564   5.467  11.349   6.530
29514SOL     OW88565   3.987  11.498   6.306
29514SOL    HW188566   3.908  11.549   6.272
29514SOL    HW288567   3.978  11.483   6.404
29515SOL     OW88568   4.918  12.784   5.617
29515SOL    HW188569   4.924  12.691   5.654
29515SOL    HW288570   4.859  12.784   5.537
29516SOL     OW88571   4.546  12.174   6.958
29516SOL    HW188572   4.586  12.173   6.866
29516SOL    HW288573   4.556  12.266   6.998
29517SOL     OW88574   4.640  12.082   5.877
29517SOL    HW188575   4.703  12.120   5.809
29517SOL    HW288576   4.680  11.999   5.916
29518SOL     OW88577   4.096  12.460   7.076
29518SOL    HW188578   4.083  12.553   7.042
29518SOL    HW288579   4.012  12.408   7.063
29519SOL     OW88580   5.338  12.464   6.875
29519SOL    HW188581   5.398  12.467   6.955
29519SOL    HW288582   5.263  12.528   6.888
29520SOL     OW88583   4.763  12.270   6.282
29520SOL    HW188584   4.693  12.223   6.336
29520SOL    HW288585   4.822  12.202   6.239
29521SOL     OW88586   4.738  11.408   6.557
29521SOL    HW188587   4.730  11.372   6.464
29521SOL    HW288588   4.736  11.332   6.622
29522SOL     OW88589   4.314  12.659   6.077
29522SOL    HW188590   4.356  12.601   6.007
29522SOL    HW288591   4.270  12.738   6.033
29523SOL     OW88592   5.433  11.557   6.967
29523SOL    HW188593   5.506  11.626   6.971
29523SOL    HW288594   5.461  11.482   6.908
29524SOL     OW88595   3.979  12.520   5.876
29524SOL    HW188596   3.883  12.521   5.849
29524SOL    HW288597   3.991  12.573   5.960
29525SOL     OW88598   3.829  12.185   7.312
29525SOL    HW188599   3.752  12.152   7.366
29525SOL    HW288600   3.914  12.155   7.354
29526SOL     OW88601   4.396  11.375   7.075
29526SOL    HW188602   4.486  11.359   7.035
29526SOL    HW288603   4.404  11.380   7.174
29527SOL     OW88604   3.799  11.517   5.619
29527SOL    HW188605   3.707  11.489   5.590
29527SOL    HW288606   3.830  11.594   5.563
29528SOL     OW88607   5.164  12.028   6.984
29528SOL    HW188608   5.107  12.080   6.921
29528SOL    HW288609   5.260  12.040   6.960
29529SOL     OW88610   3.796  11.338   5.904
29529SOL    HW188611   3.779  11.421   5.850
29529SOL    HW288612   3.886  11.301   5.882
29530SOL     OW88613   4.907  12.507   5.705
29530SOL    HW188614   4.808  12.496   5.707
29530SOL    HW288615   4.941  12.522   5.798
29531SOL     OW88616   4.337  12.014   7.017
29531SOL    HW188617   4.393  12.095   7.000
29531SOL    HW288618   4.396  11.934   7.020
29532SOL     OW88619   4.440  11.737   7.294
29532SOL    HW188620   4.459  11.802   7.368
29532SOL    HW288621   4.500  11.657   7.303
29533SOL     OW88622   5.174  12.392   7.219
29533SOL    HW188623   5.165  12.382   7.318
29533SOL    HW288624   5.270  12.385   7.193
29534SOL     OW88625   5.398  12.055   6.840
29534SOL    HW188626   5.371  11.966   6.803
29534SOL    HW288627   5.399  12.123   6.767
29535SOL     OW88628   4.949  11.497   6.035
29535SOL    HW188629   5.014  11.423   6.024
29535SOL    HW288630   4.969  11.547   6.119
29536SOL     OW88631   4.318  11.917   6.238
29536SOL    HW188632   4.368  12.002   6.219
29536SOL    HW288633   4.230  11.919   6.190
29537SOL     OW88634   5.501  11.514   7.228
29537SOL    HW188635   5.484  11.545   7.134
29537SOL    HW288636   5.417  11.477   7.266
29538SOL     OW88637   5.454  12.106   7.103
29538SOL    HW188638   5.492  12.197   7.118
29538SOL    HW288639   5.446  12.089   7.004
29539SOL     OW88640   4.583  12.546   5.602
29539SOL    HW188641   4.537  12.561   5.690
29539SOL    HW288642   4.627  12.631   5.572
29540SOL     OW88643   4.583  12.128   6.447
29540SOL    HW188644   4.637  12.059   6.495
29540SOL    HW288645   4.551  12.197   6.513
29541SOL     OW88646   4.807  12.156   5.673
29541SOL    HW188647   4.784  12.209   5.591
29541SOL    HW288648   4.888  12.100   5.654
29542SOL     OW88649   5.585  12.741   6.437
29542SOL    HW188650   5.514  12.729   6.367
29542SOL    HW288651   5.586  12.662   6.497
29543SOL     OW88652   3.945  12.486   7.430
29543SOL    HW188653   3.880  12.413   7.409
29543SOL    HW288654   3.949  12.500   7.528
29544SOL     OW88655   3.803  12.412   6.239
29544SOL    HW188656   3.802  12.365   6.327
29544SOL    HW288657   3.885  12.384   6.188
29545SOL     OW88658   4.396  12.563   7.210
29545SOL    HW188659   4.318  12.513   7.248
29545SOL    HW288660   4.393  12.658   7.241
29546SOL     OW88661   5.548  11.364   6.813
29546SOL    HW188662   5.544  11.274   6.857
29546SOL    HW288663   5.551  11.353   6.714
29547SOL     OW88664   4.152  11.596   6.106
29547SOL    HW188665   4.182  11.524   6.044
29547SOL    HW288666   4.113  11.556   6.189
29548SOL     OW88667   5.429  12.659   6.690
29548SOL    HW188668   5.336  12.634   6.663
29548SOL    HW288669   5.455  12.609   6.772
29549SOL     OW88670   4.041  11.719   6.866
29549SOL    HW188671   4.079  11.660   6.938
29549SOL    HW288672   4.081  11.693   6.778
29550SOL     OW88673   5.148  11.386   6.698
29550SOL    HW188674   5.200  11.321   6.753
29550SOL    HW288675   5.099  11.449   6.759
29551SOL     OW88676   4.725  11.206   6.740
29551SOL    HW188677   4.662  11.134   6.709
29551SOL    HW288678   4.818  11.170   6.740
29552SOL     OW88679   4.494  12.502   5.887
29552SOL    HW188680   4.448  12.415   5.904
29552SOL    HW288681   4.585  12.499   5.928
29553SOL     OW88682   4.342  12.739   6.870
29553SOL    HW188683   4.337  12.821   6.927
29553SOL    HW288684   4.431  12.736   6.825
29554SOL     OW88685   5.076  11.224   5.754
29554SOL    HW188686   5.111  11.183   5.670
29554SOL    HW288687   4.986  11.186   5.774
29555SOL     OW88688   5.024  11.625   6.277
29555SOL    HW188689   4.965  11.705   6.281
29555SOL    HW288690   5.039  11.590   6.370
29556SOL     OW88691   5.317  11.393   6.468
29556SOL    HW188692   5.233  11.392   6.522
29556SOL    HW288693   5.319  11.476   6.412
29557SOL     OW88694   3.763  12.249   5.886
29557SOL    HW188695   3.862  12.238   5.877
29557SOL    HW288696   3.723  12.163   5.918
29558SOL     OW88697   3.954  11.800   7.561
29558SOL    HW188698   3.861  11.798   7.598
29558SOL    HW288699   3.955  11.761   7.469
29559SOL     OW88700   3.949  11.447   8.444
29559SOL    HW188701   3.984  11.430   8.536
29559SOL    HW288702   3.861  11.402   8.432
29560SOL     OW88703   3.743  11.540   8.095
29560SOL    HW188704   3.661  11.583   8.134
29560SOL    HW288705   3.715  11.467   8.032
29561SOL     OW88706   4.293  12.447   8.613
29561SOL    HW188707   4.200  12.440   8.576
29561SOL    HW288708   4.304  12.536   8.657
29562SOL     OW88709   5.279  12.683   8.151
29562SOL    HW188710   5.222  12.667   8.232
29562SOL    HW288711   5.220  12.693   8.071
29563SOL     OW88712   4.859  11.875   8.165
29563SOL    HW188713   4.916  11.953   8.140
29563SOL    HW288714   4.799  11.901   8.241
29564SOL     OW88715   5.479  11.779   7.679
29564SOL    HW188716   5.467  11.766   7.580
29564SOL    HW288717   5.449  11.698   7.728
29565SOL     OW88718   4.492  12.316   8.471
29565SOL    HW188719   4.414  12.333   8.531
29565SOL    HW288720   4.526  12.403   8.435
29566SOL     OW88721   4.574  11.970   9.271
29566SOL    HW188722   4.570  12.046   9.336
29566SOL    HW288723   4.596  12.006   9.180
29567SOL     OW88724   4.409  12.184   8.113
29567SOL    HW188725   4.478  12.168   8.183
29567SOL    HW288726   4.336  12.241   8.151
29568SOL     OW88727   4.410  12.333   9.251
29568SOL    HW188728   4.470  12.412   9.265
29568SOL    HW288729   4.324  12.364   9.210
29569SOL     OW88730   4.059  12.607   8.509
29569SOL    HW188731   3.981  12.576   8.456
29569SOL    HW288732   4.117  12.665   8.452
29570SOL     OW88733   5.184  12.677   8.787
29570SOL    HW188734   5.208  12.771   8.813
29570SOL    HW288735   5.168  12.623   8.869
29571SOL     OW88736   4.162  11.564   8.947
29571SOL    HW188737   4.244  11.508   8.956
29571SOL    HW288738   4.081  11.506   8.951
29572SOL     OW88739   5.327  11.619   8.185
29572SOL    HW188740   5.253  11.665   8.135
29572SOL    HW288741   5.378  11.687   8.238
29573SOL     OW88742   4.851  12.513   9.138
29573SOL    HW188743   4.898  12.513   9.226
29573SOL    HW288744   4.803  12.426   9.127
29574SOL     OW88745   3.954  12.606   7.986
29574SOL    HW188746   3.928  12.702   7.986
29574SOL    HW288747   3.883  12.552   8.031
29575SOL     OW88748   3.964  12.263   8.334
29575SOL    HW188749   3.978  12.179   8.386
29575SOL    HW288750   3.909  12.327   8.389
29576SOL     OW88751   4.330  12.136   7.571
29576SOL    HW188752   4.337  12.220   7.517
29576SOL    HW288753   4.376  12.149   7.659
29577SOL     OW88754   5.318  11.286   8.928
29577SOL    HW188755   5.300  11.353   8.856
29577SOL    HW288756   5.315  11.332   9.017
29578SOL     OW88757   3.846  11.815   8.011
29578SOL    HW188758   3.801  11.727   8.028
29578SOL    HW288759   3.845  11.869   8.095
29579SOL     OW88760   3.751  12.768   7.565
29579SOL    HW188761   3.732  12.672   7.586
29579SOL    HW288762   3.718  12.826   7.640
29580SOL     OW88763   5.413  12.094   8.060
29580SOL    HW188764   5.508  12.065   8.068
29580SOL    HW288765   5.405  12.159   7.985
29581SOL     OW88766   5.365  12.280   7.880
29581SOL    HW188767   5.451  12.282   7.828
29581SOL    HW288768   5.379  12.327   7.968
29582SOL     OW88769   3.837  11.909   9.045
29582SOL    HW188770   3.925  11.896   9.090
29582SOL    HW288771   3.824  12.006   9.023
29583SOL     OW88772   4.337  12.537   8.174
29583SOL    HW188773   4.288  12.450   8.183
29583SOL    HW288774   4.314  12.580   8.087
29584SOL     OW88775   5.017  12.400   8.871
29584SOL    HW188776   5.054  12.327   8.813
29584SOL    HW288777   5.069  12.405   8.956
29585SOL     OW88778   4.533  11.176   7.950
29585SOL    HW188779   4.573  11.267   7.941
29585SOL    HW288780   4.433  11.184   7.956
29586SOL     OW88781   3.921  12.148   8.712
29586SOL    HW188782   4.010  12.103   8.698
29586SOL    HW288783   3.848  12.083   8.693
29587SOL     OW88784   5.249  12.171   7.638
29587SOL    HW188785   5.186  12.095   7.651
29587SOL    HW288786   5.297  12.189   7.724
29588SOL     OW88787   4.041  11.423   9.249
29588SOL    HW188788   4.112  11.494   9.255
29588SOL    HW288789   3.953  11.462   9.277
29589SOL     OW88790   5.190  12.589   8.401
29589SOL    HW188791   5.131  12.595   8.481
29589SOL    HW288792   5.175  12.501   8.355
29590SOL     OW88793   4.322  11.901   7.718
29590SOL    HW188794   4.346  11.970   7.650
29590SOL    HW288795   4.244  11.934   7.772
29591SOL     OW88796   5.005  11.517   8.392
29591SOL    HW188797   4.919  11.467   8.379
29591SOL    HW288798   5.067  11.463   8.448
29592SOL     OW88799   5.300  12.834   7.755
29592SOL    HW188800   5.389  12.880   7.758
29592SOL    HW288801   5.279  12.810   7.660
29593SOL     OW88802   4.531  11.777   8.913
29593SOL    HW188803   4.484  11.774   9.002
29593SOL    HW288804   4.480  11.722   8.847
29594SOL     OW88805   5.118  11.641   9.122
29594SOL    HW188806   5.098  11.684   9.210
29594SOL    HW288807   5.196  11.579   9.131
29595SOL     OW88808   4.697  12.062   9.020
29595SOL    HW188809   4.743  11.978   8.991
29595SOL    HW288810   4.641  12.096   8.945
29596SOL     OW88811   4.715  11.582   8.690
29596SOL    HW188812   4.638  11.616   8.744
29596SOL    HW288813   4.681  11.531   8.611
29597SOL     OW88814   4.765  11.873   7.877
29597SOL    HW188815   4.791  11.869   7.973
29597SOL    HW288816   4.680  11.822   7.863
29598SOL     OW88817   3.800  11.983   8.237
29598SOL    HW188818   3.899  11.971   8.246
29598SOL    HW288819   3.776  12.078   8.258
29599SOL     OW88820   4.589  11.520   7.643
29599SOL    HW188821   4.648  11.583   7.594
29599SOL    HW288822   4.608  11.426   7.614
29600SOL     OW88823   5.443  11.757   9.279
29600SOL    HW188824   5.417  11.846   9.243
29600SOL    HW288825   5.441  11.689   9.206
29601SOL     OW88826   5.086  12.316   7.993
29601SOL    HW188827   5.169  12.287   7.945
29601SOL    HW288828   5.037  12.383   7.937
29602SOL     OW88829   4.274  11.368   8.333
29602SOL    HW188830   4.269  11.363   8.433
29602SOL    HW288831   4.276  11.464   8.304
29603SOL     OW88832   4.732  12.628   7.925
29603SOL    HW188833   4.686  12.700   7.873
29603SOL    HW288834   4.728  12.648   8.023
29604SOL     OW88835   5.519  12.238   8.321
29604SOL    HW188836   5.457  12.223   8.245
29604SOL    HW288837   5.467  12.249   8.406
29605SOL     OW88838   4.951  12.722   8.954
29605SOL    HW188839   4.957  12.645   9.018
29605SOL    HW288840   4.899  12.696   8.874
29606SOL     OW88841   4.045  12.115   7.690
29606SOL    HW188842   4.127  12.154   7.648
29606SOL    HW288843   4.018  12.033   7.641
29607SOL     OW88844   5.182  11.907   8.176
29607SOL    HW188845   5.177  11.842   8.251
29607SOL    HW288846   5.262  11.966   8.189
29608SOL     OW88847   4.185  12.438   9.175
29608SOL    HW188848   4.135  12.439   9.089
29608SOL    HW288849   4.122  12.420   9.251
29609SOL     OW88850   3.926  11.457   8.946
29609SOL    HW188851   3.846  11.517   8.933
29609SOL    HW288852   3.916  11.408   9.032
29610SOL     OW88853   5.356  12.549   7.529
29610SOL    HW188854   5.324  12.643   7.519
29610SOL    HW288855   5.280  12.486   7.517
29611SOL     OW88856   5.124  11.279   7.874
29611SOL    HW188857   5.100  11.242   7.784
29611SOL    HW288858   5.223  11.295   7.878
29612SOL     OW88859   4.106  11.872   7.928
29612SOL    HW188860   4.151  11.782   7.925
29612SOL    HW288861   4.012  11.861   7.961
29613SOL     OW88862   5.271  11.394   9.177
29613SOL    HW188863   5.266  11.431   9.269
29613SOL    HW288864   5.199  11.325   9.165
29614SOL     OW88865   4.338  11.294   7.565
29614SOL    HW188866   4.436  11.272   7.572
29614SOL    HW288867   4.307  11.277   7.472
29615SOL     OW88868   4.505  11.436   9.197
29615SOL    HW188869   4.572  11.375   9.240
29615SOL    HW288870   4.432  11.455   9.262
29616SOL     OW88871   5.075  11.762   8.881
29616SOL    HW188872   5.103  11.719   8.966
29616SOL    HW288873   5.100  11.858   8.882
29617SOL     OW88874   4.527  12.574   8.372
29617SOL    HW188875   4.617  12.588   8.330
29617SOL    HW288876   4.456  12.576   8.301
29618SOL     OW88877   4.646  11.675   8.347
29618SOL    HW188878   4.621  11.666   8.251
29618SOL    HW288879   4.694  11.593   8.378
29619SOL     OW88880   4.263  11.236   7.960
29619SOL    HW188881   4.182  11.237   8.018
29619SOL    HW288882   4.266  11.319   7.905
29620SOL     OW88883   5.158  12.360   7.489
29620SOL    HW188884   5.190  12.284   7.546
29620SOL    HW288885   5.066  12.387   7.519
29621SOL     OW88886   4.021  11.207   7.619
29621SOL    HW188887   4.070  11.291   7.598
29621SOL    HW288888   4.083  11.142   7.664
29622SOL     OW88889   4.659  11.408   7.928
29622SOL    HW188890   4.611  11.449   7.850
29622SOL    HW288891   4.758  11.406   7.909
29623SOL     OW88892   4.800  11.855   8.912
29623SOL    HW188893   4.720  11.794   8.915
29623SOL    HW288894   4.881  11.802   8.888
29624SOL     OW88895   4.951  12.742   8.241
29624SOL    HW188896   4.972  12.816   8.176
29624SOL    HW288897   5.019  12.742   8.314
29625SOL     OW88898   4.183  12.324   8.189
29625SOL    HW188899   4.112  12.297   8.254
29625SOL    HW288900   4.157  12.296   8.096
29626SOL     OW88901   4.756  11.721   7.464
29626SOL    HW188902   4.715  11.803   7.425
29626SOL    HW288903   4.820  11.747   7.537
29627SOL     OW88904   3.802  11.728   8.834
29627SOL    HW188905   3.894  11.727   8.793
29627SOL    HW288906   3.796  11.802   8.901
29628SOL     OW88907   4.285  11.394   8.595
29628SOL    HW188908   4.323  11.310   8.632
29628SOL    HW288909   4.197  11.413   8.639
29629SOL     OW88910   4.590  11.626   8.090
29629SOL    HW188911   4.558  11.698   8.028
29629SOL    HW288912   4.614  11.545   8.037
29630SOL     OW88913   4.741  11.211   8.201
29630SOL    HW188914   4.669  11.216   8.132
29630SOL    HW288915   4.717  11.142   8.270
29631SOL     OW88916   5.153  12.345   8.315
29631SOL    HW188917   5.098  12.261   8.308
29631SOL    HW288918   5.179  12.374   8.223
29632SOL     OW88919   5.190  11.762   8.440
29632SOL    HW188920   5.160  11.667   8.447
29632SOL    HW288921   5.263  11.778   8.506
29633SOL     OW88922   5.581  12.005   7.825
29633SOL    HW188923   5.623  11.941   7.889
29633SOL    HW288924   5.543  11.954   7.747
29634SOL     OW88925   4.212  12.557   7.622
29634SOL    HW188926   4.125  12.542   7.669
29634SOL    HW288927   4.195  12.583   7.527
29635SOL     OW88928   5.388  12.452   8.105
29635SOL    HW188929   5.487  12.460   8.119
29635SOL    HW288930   5.343  12.536   8.136
29636SOL     OW88931   5.114  11.747   7.526
29636SOL    HW188932   5.060  11.726   7.607
29636SOL    HW288933   5.205  11.706   7.535
29637SOL     OW88934   4.251  11.428   7.776
29637SOL    HW188935   4.278  11.369   7.701
29637SOL    HW288936   4.251  11.523   7.745
29638SOL     OW88937   5.478  12.395   9.036
29638SOL    HW188938   5.569  12.356   9.023
29638SOL    HW288939   5.486  12.491   9.060
29639SOL     OW88940   4.788  12.519   8.788
29639SOL    HW188941   4.708  12.496   8.843
29639SOL    HW288942   4.871  12.493   8.837
29640SOL     OW88943   4.835  12.367   8.548
29640SOL    HW188944   4.795  12.411   8.629
29640SOL    HW288945   4.794  12.404   8.465
29641SOL     OW88946   5.362  12.271   8.527
29641SOL    HW188947   5.367  12.352   8.586
29641SOL    HW288948   5.276  12.273   8.476
29642SOL     OW88949   4.639  11.261   8.850
29642SOL    HW188950   4.664  11.241   8.755
29642SOL    HW288951   4.711  11.317   8.892
29643SOL     OW88952   4.704  12.288   9.167
29643SOL    HW188953   4.605  12.294   9.177
29643SOL    HW288954   4.727  12.208   9.111
29644SOL     OW88955   4.429  12.222   7.816
29644SOL    HW188956   4.415  12.229   7.915
29644SOL    HW288957   4.513  12.171   7.798
29645SOL     OW88958   4.134  11.985   8.699
29645SOL    HW188959   4.220  11.997   8.749
29645SOL    HW288960   4.092  11.898   8.726
29646SOL     OW88961   4.998  11.558   8.710
29646SOL    HW188962   5.019  11.632   8.774
29646SOL    HW288963   4.909  11.575   8.667
29647SOL     OW88964   3.788  12.736   8.779
29647SOL    HW188965   3.742  12.818   8.745
29647SOL    HW288966   3.886  12.755   8.788
29648SOL     OW88967   4.091  12.272   7.949
29648SOL    HW188968   4.084  12.355   7.893
29648SOL    HW288969   4.095  12.192   7.889
29649SOL     OW88970   4.290  11.709   8.313
29649SOL    HW188971   4.302  11.775   8.239
29649SOL    HW288972   4.336  11.743   8.396
29650SOL     OW88973   4.976  12.520   7.836
29650SOL    HW188974   5.026  12.597   7.876
29650SOL    HW288975   4.881  12.522   7.868
29651SOL     OW88976   4.996  12.617   8.590
29651SOL    HW188977   5.043  12.630   8.677
29651SOL    HW288978   4.930  12.543   8.599
29652SOL     OW88979   5.306  11.811   7.920
29652SOL    HW188980   5.275  11.872   7.993
29652SOL    HW288981   5.356  11.863   7.851
29653SOL     OW88982   4.078  12.682   8.777
29653SOL    HW188983   4.057  12.638   8.690
29653SOL    HW288984   4.175  12.708   8.780
29654SOL     OW88985   4.126  11.923   9.046
29654SOL    HW188986   4.194  11.978   8.999
29654SOL    HW288987   4.166  11.835   9.073
29655SOL     OW88988   5.311  11.951   9.118
29655SOL    HW188989   5.219  11.989   9.113
29655SOL    HW288990   5.371  11.998   9.053
29656SOL     OW88991   4.737  11.277   9.218
29656SOL    HW188992   4.743  11.362   9.166
29656SOL    HW288993   4.769  11.201   9.161
29657SOL     OW88994   4.228  11.222   9.188
29657SOL    HW188995   4.186  11.165   9.118
29657SOL    HW288996   4.162  11.291   9.220
29658SOL     OW88997   4.297  12.042   8.477
29658SOL    HW188998   4.341  12.131   8.468
29658SOL    HW288999   4.234  12.042   8.554
29659SOL     OW89000   5.084  12.034   8.493
29659SOL    HW189001   5.009  12.034   8.427
29659SOL    HW289002   5.121  11.942   8.502
29660SOL     OW89003   4.933  11.697   7.723
29660SOL    HW189004   4.946  11.613   7.777
29660SOL    HW289005   4.904  11.771   7.783
29661SOL     OW89006   4.031  11.385   8.679
29661SOL    HW189007   4.008  11.422   8.769
29661SOL    HW289008   4.001  11.290   8.673
29662SOL     OW89009   3.761  12.482   8.730
29662SOL    HW189010   3.814  12.433   8.798
29662SOL    HW289011   3.783  12.580   8.735
29663SOL     OW89012   4.456  11.806   8.512
29663SOL    HW189013   4.515  11.780   8.436
29663SOL    HW289014   4.428  11.902   8.501
29664SOL     OW89015   5.452  12.107   9.302
29664SOL    HW189016   5.406  12.100   9.213
29664SOL    HW289017   5.390  12.151   9.368
29665SOL     OW89018   4.031  11.235   8.066
29665SOL    HW189019   4.020  11.329   8.099
29665SOL    HW289020   4.026  11.172   8.143
29666SOL     OW89021   5.346  11.539   7.822
29666SOL    HW189022   5.348  11.463   7.886
29666SOL    HW289023   5.298  11.616   7.862
29667SOL     OW89024   4.747  11.938   8.414
29667SOL    HW189025   4.762  11.959   8.510
29667SOL    HW289026   4.717  11.843   8.405
29668SOL     OW89027   5.583  12.690   9.053
29668SOL    HW189028   5.597  12.717   8.958
29668SOL    HW289029   5.666  12.712   9.106
29669SOL     OW89030   4.074  12.070   9.252
29669SOL    HW189031   4.150  12.114   9.300
29669SOL    HW289032   4.109  12.023   9.170
29670SOL     OW89033   5.264  11.446   7.573
29670SOL    HW189034   5.203  11.371   7.596
29670SOL    HW289035   5.286  11.498   7.656
29671SOL     OW89036   5.027  12.010   7.490
29671SOL    HW189037   5.061  11.917   7.505
29671SOL    HW289038   5.045  12.037   7.395
29672SOL     OW89039   4.792  12.505   8.297
29672SOL    HW189040   4.799  12.421   8.242
29672SOL    HW289041   4.854  12.574   8.261
29673SOL     OW89042   4.043  11.982   8.397
29673SOL    HW189043   4.136  12.018   8.402
29673SOL    HW289044   4.037  11.897   8.449
29674SOL     OW89045   4.063  11.681   8.454
29674SOL    HW189046   4.011  11.598   8.437
29674SOL    HW289047   4.140  11.686   8.390
29675SOL     OW89048   4.862  11.552   9.126
29675SOL    HW189049   4.817  11.615   9.190
29675SOL    HW289050   4.955  11.583   9.109
29676SOL     OW89051   4.884  11.379   8.925
29676SOL    HW189052   4.884  11.443   9.002
29676SOL    HW289053   4.912  11.427   8.842
29677SOL     OW89054   3.732  12.498   7.648
29677SOL    HW189055   3.639  12.519   7.617
29677SOL    HW289056   3.742  12.399   7.661
29678SOL     OW89057   4.228  12.740   8.358
29678SOL    HW189058   4.294  12.814   8.367
29678SOL    HW289059   4.272  12.661   8.316
29679SOL     OW89060   4.726  11.968   8.686
29679SOL    HW189061   4.767  11.936   8.772
29679SOL    HW289062   4.630  11.941   8.683
29680SOL     OW89063   3.764  11.716   8.562
29680SOL    HW189064   3.849  11.683   8.521
29680SOL    HW289065   3.777  11.731   8.660
29681SOL     OW89066   3.913  11.692   9.170
29681SOL    HW189067   3.972  11.652   9.100
29681SOL    HW289068   3.855  11.763   9.129
29682SOL     OW89069   5.093  12.122   9.108
29682SOL    HW189070   5.132  12.211   9.128
29682SOL    HW289071   5.103  12.102   9.011
29683SOL     OW89072   4.539  11.744   7.773
29683SOL    HW189073   4.546  11.655   7.727
29683SOL    HW289074   4.445  11.778   7.765
29684SOL     OW89075   5.381  11.776   8.654
29684SOL    HW189076   5.343  11.707   8.716
29684SOL    HW289077   5.463  11.740   8.610
29685SOL     OW89078   3.976  12.736   9.192
29685SOL    HW189079   3.946  12.793   9.268
29685SOL    HW289080   3.969  12.639   9.218
29686SOL     OW89081   4.395  11.636   8.717
29686SOL    HW189082   4.361  11.547   8.687
29686SOL    HW289083   4.421  11.690   8.637
29687SOL     OW89084   4.197  11.672   7.639
29687SOL    HW189085   4.258  11.752   7.643
29687SOL    HW289086   4.102  11.703   7.646
29688SOL     OW89087   3.883  12.309   8.914
29688SOL    HW189088   3.905  12.248   8.990
29688SOL    HW289089   3.893  12.260   8.828
29689SOL     OW89090   5.071  12.231   8.682
29689SOL    HW189091   5.095  12.168   8.608
29689SOL    HW289092   4.981  12.271   8.664
29690SOL     OW89093   5.026  12.027   7.757
29690SOL    HW189094   4.940  11.996   7.799
29690SOL    HW289095   5.022  12.013   7.658
29691SOL     OW89096   4.976  12.903   8.576
29691SOL    HW189097   5.060  12.908   8.522
29691SOL    HW289098   4.953  12.807   8.594
29692SOL     OW89099   3.807  12.430   8.470
29692SOL    HW189100   3.802  12.429   8.570
29692SOL    HW289101   3.724  12.389   8.432
29693SOL     OW89102   5.450  11.307   7.971
29693SOL    HW189103   5.523  11.290   7.904
29693SOL    HW289104   5.419  11.220   8.009
29694SOL     OW89105   3.854  12.966   9.299
29694SOL    HW189106   3.813  12.892   9.352
29694SOL    HW289107   3.918  13.017   9.357
29695SOL     OW89108   5.004  12.099   8.120
29695SOL    HW189109   5.064  12.018   8.122
29695SOL    HW289110   5.044  12.168   8.060
29696SOL     OW89111   4.554  12.445   8.870
29696SOL    HW189112   4.549  12.478   8.965
29696SOL    HW289113   4.468  12.464   8.824
29697SOL     OW89114   4.396  12.788   7.602
29697SOL    HW189115   4.405  12.798   7.503
29697SOL    HW289116   4.356  12.699   7.623
29698SOL     OW89117   5.565  11.347   8.411
29698SOL    HW189118   5.604  11.262   8.375
29698SOL    HW289119   5.467  11.349   8.392
29699SOL     OW89120   3.987  11.498   8.168
29699SOL    HW189121   3.908  11.549   8.134
29699SOL    HW289122   3.978  11.483   8.266
29700SOL     OW89123   4.918  12.784   7.479
29700SOL    HW189124   4.924  12.691   7.516
29700SOL    HW289125   4.859  12.784   7.399
29701SOL     OW89126   4.546  12.174   8.820
29701SOL    HW189127   4.586  12.173   8.728
29701SOL    HW289128   4.556  12.266   8.860
29702SOL     OW89129   4.640  12.082   7.739
29702SOL    HW189130   4.703  12.120   7.671
29702SOL    HW289131   4.680  11.999   7.778
29703SOL     OW89132   4.096  12.460   8.938
29703SOL    HW189133   4.083  12.553   8.904
29703SOL    HW289134   4.012  12.408   8.925
29704SOL     OW89135   5.338  12.464   8.737
29704SOL    HW189136   5.398  12.467   8.817
29704SOL    HW289137   5.263  12.528   8.750
29705SOL     OW89138   4.763  12.270   8.144
29705SOL    HW189139   4.693  12.223   8.198
29705SOL    HW289140   4.822  12.202   8.101
29706SOL     OW89141   4.738  11.408   8.419
29706SOL    HW189142   4.730  11.372   8.326
29706SOL    HW289143   4.736  11.332   8.484
29707SOL     OW89144   4.314  12.659   7.939
29707SOL    HW189145   4.356  12.601   7.869
29707SOL    HW289146   4.270  12.738   7.895
29708SOL     OW89147   5.433  11.557   8.829
29708SOL    HW189148   5.506  11.626   8.833
29708SOL    HW289149   5.461  11.482   8.770
29709SOL     OW89150   3.979  12.520   7.738
29709SOL    HW189151   3.883  12.521   7.711
29709SOL    HW289152   3.991  12.573   7.822
29710SOL     OW89153   3.829  12.185   9.174
29710SOL    HW189154   3.752  12.152   9.228
29710SOL    HW289155   3.914  12.155   9.216
29711SOL     OW89156   4.396  11.375   8.937
29711SOL    HW189157   4.486  11.359   8.897
29711SOL    HW289158   4.404  11.380   9.036
29712SOL     OW89159   3.799  11.517   7.481
29712SOL    HW189160   3.707  11.489   7.452
29712SOL    HW289161   3.830  11.594   7.425
29713SOL     OW89162   5.164  12.028   8.846
29713SOL    HW189163   5.107  12.080   8.783
29713SOL    HW289164   5.260  12.040   8.822
29714SOL     OW89165   3.796  11.338   7.766
29714SOL    HW189166   3.779  11.421   7.712
29714SOL    HW289167   3.886  11.301   7.744
29715SOL     OW89168   4.907  12.507   7.567
29715SOL    HW189169   4.808  12.496   7.569
29715SOL    HW289170   4.941  12.522   7.660
29716SOL     OW89171   4.337  12.014   8.879
29716SOL    HW189172   4.393  12.095   8.862
29716SOL    HW289173   4.396  11.934   8.882
29717SOL     OW89174   4.440  11.737   9.156
29717SOL    HW189175   4.459  11.802   9.230
29717SOL    HW289176   4.500  11.657   9.165
29718SOL     OW89177   5.174  12.392   9.081
29718SOL    HW189178   5.165  12.382   9.180
29718SOL    HW289179   5.270  12.385   9.055
29719SOL     OW89180   5.398  12.055   8.702
29719SOL    HW189181   5.371  11.966   8.665
29719SOL    HW289182   5.399  12.123   8.629
29720SOL     OW89183   4.949  11.497   7.897
29720SOL    HW189184   5.014  11.423   7.886
29720SOL    HW289185   4.969  11.547   7.981
29721SOL     OW89186   4.318  11.917   8.100
29721SOL    HW189187   4.368  12.002   8.081
29721SOL    HW289188   4.230  11.919   8.052
29722SOL     OW89189   5.501  11.514   9.090
29722SOL    HW189190   5.484  11.545   8.996
29722SOL    HW289191   5.417  11.477   9.128
29723SOL     OW89192   5.454  12.106   8.965
29723SOL    HW189193   5.492  12.197   8.980
29723SOL    HW289194   5.446  12.089   8.866
29724SOL     OW89195   4.583  12.546   7.464
29724SOL    HW189196   4.537  12.561   7.552
29724SOL    HW289197   4.627  12.631   7.434
29725SOL     OW89198   4.583  12.128   8.309
29725SOL    HW189199   4.637  12.059   8.357
29725SOL    HW289200   4.551  12.197   8.375
29726SOL     OW89201   4.807  12.156   7.535
29726SOL    HW189202   4.784  12.209   7.453
29726SOL    HW289203   4.888  12.100   7.516
29727SOL     OW89204   5.585  12.741   8.299
29727SOL    HW189205   5.514  12.729   8.229
29727SOL    HW289206   5.586  12.662   8.359
29728SOL     OW89207   3.945  12.486   9.292
29728SOL    HW189208   3.880  12.413   9.271
29728SOL    HW289209   3.949  12.500   9.390
29729SOL     OW89210   3.803  12.412   8.101
29729SOL    HW189211   3.802  12.365   8.189
29729SOL    HW289212   3.885  12.384   8.050
29730SOL     OW89213   4.396  12.563   9.072
29730SOL    HW189214   4.318  12.513   9.110
29730SOL    HW289215   4.393  12.658   9.103
29731SOL     OW89216   5.548  11.364   8.675
29731SOL    HW189217   5.544  11.274   8.719
29731SOL    HW289218   5.551  11.353   8.576
29732SOL     OW89219   4.152  11.596   7.968
29732SOL    HW189220   4.182  11.524   7.906
29732SOL    HW289221   4.113  11.556   8.051
29733SOL     OW89222   5.429  12.659   8.552
29733SOL    HW189223   5.336  12.634   8.525
29733SOL    HW289224   5.455  12.609   8.634
29734SOL     OW89225   4.041  11.719   8.728
29734SOL    HW189226   4.079  11.660   8.800
29734SOL    HW289227   4.081  11.693   8.640
29735SOL     OW89228   5.148  11.386   8.560
29735SOL    HW189229   5.200  11.321   8.615
29735SOL    HW289230   5.099  11.449   8.621
29736SOL     OW89231   4.725  11.206   8.602
29736SOL    HW189232   4.662  11.134   8.571
29736SOL    HW289233   4.818  11.170   8.602
29737SOL     OW89234   4.494  12.502   7.749
29737SOL    HW189235   4.448  12.415   7.766
29737SOL    HW289236   4.585  12.499   7.790
29738SOL     OW89237   4.342  12.739   8.732
29738SOL    HW189238   4.337  12.821   8.789
29738SOL    HW289239   4.431  12.736   8.687
29739SOL     OW89240   5.076  11.224   7.616
29739SOL    HW189241   5.111  11.183   7.532
29739SOL    HW289242   4.986  11.186   7.636
29740SOL     OW89243   5.024  11.625   8.139
29740SOL    HW189244   4.965  11.705   8.143
29740SOL    HW289245   5.039  11.590   8.232
29741SOL     OW89246   5.317  11.393   8.330
29741SOL    HW189247   5.233  11.392   8.384
29741SOL    HW289248   5.319  11.476   8.274
29742SOL     OW89249   3.763  12.249   7.748
29742SOL    HW189250   3.862  12.238   7.739
29742SOL    HW289251   3.723  12.163   7.780
29743SOL     OW89252   3.954  11.800   9.423
29743SOL    HW189253   3.861  11.798   9.460
29743SOL    HW289254   3.955  11.761   9.331
29744SOL     OW89255   3.949  11.447  10.306
29744SOL    HW189256   3.984  11.430  10.398
29744SOL    HW289257   3.861  11.402  10.294
29745SOL     OW89258   3.743  11.540   9.957
29745SOL    HW189259   3.661  11.583   9.996
29745SOL    HW289260   3.715  11.467   9.894
29746SOL     OW89261   4.293  12.447  10.475
29746SOL    HW189262   4.200  12.440  10.438
29746SOL    HW289263   4.304  12.536  10.519
29747SOL     OW89264   5.279  12.683  10.013
29747SOL    HW189265   5.222  12.667  10.094
29747SOL    HW289266   5.220  12.693   9.933
29748SOL     OW89267   4.859  11.875  10.027
29748SOL    HW189268   4.916  11.953  10.002
29748SOL    HW289269   4.799  11.901  10.103
29749SOL     OW89270   5.479  11.779   9.541
29749SOL    HW189271   5.467  11.766   9.442
29749SOL    HW289272   5.449  11.698   9.590
29750SOL     OW89273   4.492  12.316  10.333
29750SOL    HW189274   4.414  12.333  10.393
29750SOL    HW289275   4.526  12.403  10.297
29751SOL     OW89276   4.574  11.970  11.133
29751SOL    HW189277   4.570  12.046  11.198
29751SOL    HW289278   4.596  12.006  11.042
29752SOL     OW89279   4.409  12.184   9.975
29752SOL    HW189280   4.478  12.168  10.045
29752SOL    HW289281   4.336  12.241  10.013
29753SOL     OW89282   4.410  12.333  11.113
29753SOL    HW189283   4.470  12.412  11.127
29753SOL    HW289284   4.324  12.364  11.072
29754SOL     OW89285   4.059  12.607  10.371
29754SOL    HW189286   3.981  12.576  10.318
29754SOL    HW289287   4.117  12.665  10.314
29755SOL     OW89288   5.184  12.677  10.649
29755SOL    HW189289   5.208  12.771  10.675
29755SOL    HW289290   5.168  12.623  10.731
29756SOL     OW89291   4.162  11.564  10.809
29756SOL    HW189292   4.244  11.508  10.818
29756SOL    HW289293   4.081  11.506  10.813
29757SOL     OW89294   5.327  11.619  10.047
29757SOL    HW189295   5.253  11.665   9.997
29757SOL    HW289296   5.378  11.687  10.100
29758SOL     OW89297   4.851  12.513  11.000
29758SOL    HW189298   4.898  12.513  11.088
29758SOL    HW289299   4.803  12.426  10.989
29759SOL     OW89300   3.954  12.606   9.848
29759SOL    HW189301   3.928  12.702   9.848
29759SOL    HW289302   3.883  12.552   9.893
29760SOL     OW89303   3.964  12.263  10.196
29760SOL    HW189304   3.978  12.179  10.248
29760SOL    HW289305   3.909  12.327  10.251
29761SOL     OW89306   4.330  12.136   9.433
29761SOL    HW189307   4.337  12.220   9.379
29761SOL    HW289308   4.376  12.149   9.521
29762SOL     OW89309   5.318  11.286  10.790
29762SOL    HW189310   5.300  11.353  10.718
29762SOL    HW289311   5.315  11.332  10.879
29763SOL     OW89312   3.846  11.815   9.873
29763SOL    HW189313   3.801  11.727   9.890
29763SOL    HW289314   3.845  11.869   9.957
29764SOL     OW89315   3.751  12.768   9.427
29764SOL    HW189316   3.732  12.672   9.448
29764SOL    HW289317   3.718  12.826   9.502
29765SOL     OW89318   5.413  12.094   9.922
29765SOL    HW189319   5.508  12.065   9.930
29765SOL    HW289320   5.405  12.159   9.847
29766SOL     OW89321   5.365  12.280   9.742
29766SOL    HW189322   5.451  12.282   9.690
29766SOL    HW289323   5.379  12.327   9.830
29767SOL     OW89324   3.837  11.909  10.907
29767SOL    HW189325   3.925  11.896  10.952
29767SOL    HW289326   3.824  12.006  10.885
29768SOL     OW89327   4.337  12.537  10.036
29768SOL    HW189328   4.288  12.450  10.045
29768SOL    HW289329   4.314  12.580   9.949
29769SOL     OW89330   5.017  12.400  10.733
29769SOL    HW189331   5.054  12.327  10.675
29769SOL    HW289332   5.069  12.405  10.818
29770SOL     OW89333   4.533  11.176   9.812
29770SOL    HW189334   4.573  11.267   9.803
29770SOL    HW289335   4.433  11.184   9.818
29771SOL     OW89336   3.921  12.148  10.574
29771SOL    HW189337   4.010  12.103  10.560
29771SOL    HW289338   3.848  12.083  10.555
29772SOL     OW89339   5.249  12.171   9.500
29772SOL    HW189340   5.186  12.095   9.513
29772SOL    HW289341   5.297  12.189   9.586
29773SOL     OW89342   4.041  11.423  11.111
29773SOL    HW189343   4.112  11.494  11.117
29773SOL    HW289344   3.953  11.462  11.139
29774SOL     OW89345   5.190  12.589  10.263
29774SOL    HW189346   5.131  12.595  10.343
29774SOL    HW289347   5.175  12.501  10.217
29775SOL     OW89348   4.322  11.901   9.580
29775SOL    HW189349   4.346  11.970   9.512
29775SOL    HW289350   4.244  11.934   9.634
29776SOL     OW89351   5.005  11.517  10.254
29776SOL    HW189352   4.919  11.467  10.241
29776SOL    HW289353   5.067  11.463  10.310
29777SOL     OW89354   5.300  12.834   9.617
29777SOL    HW189355   5.389  12.880   9.620
29777SOL    HW289356   5.279  12.810   9.522
29778SOL     OW89357   4.531  11.777  10.775
29778SOL    HW189358   4.484  11.774  10.864
29778SOL    HW289359   4.480  11.722  10.709
29779SOL     OW89360   5.118  11.641  10.984
29779SOL    HW189361   5.098  11.684  11.072
29779SOL    HW289362   5.196  11.579  10.993
29780SOL     OW89363   4.697  12.062  10.882
29780SOL    HW189364   4.743  11.978  10.853
29780SOL    HW289365   4.641  12.096  10.807
29781SOL     OW89366   4.715  11.582  10.552
29781SOL    HW189367   4.638  11.616  10.606
29781SOL    HW289368   4.681  11.531  10.473
29782SOL     OW89369   4.765  11.873   9.739
29782SOL    HW189370   4.791  11.869   9.835
29782SOL    HW289371   4.680  11.822   9.725
29783SOL     OW89372   3.800  11.983  10.099
29783SOL    HW189373   3.899  11.971  10.108
29783SOL    HW289374   3.776  12.078  10.120
29784SOL     OW89375   4.589  11.520   9.505
29784SOL    HW189376   4.648  11.583   9.456
29784SOL    HW289377   4.608  11.426   9.476
29785SOL     OW89378   5.443  11.757  11.141
29785SOL    HW189379   5.417  11.846  11.105
29785SOL    HW289380   5.441  11.689  11.068
29786SOL     OW89381   5.086  12.316   9.855
29786SOL    HW189382   5.169  12.287   9.807
29786SOL    HW289383   5.037  12.383   9.799
29787SOL     OW89384   4.274  11.368  10.195
29787SOL    HW189385   4.269  11.363  10.295
29787SOL    HW289386   4.276  11.464  10.166
29788SOL     OW89387   4.732  12.628   9.787
29788SOL    HW189388   4.686  12.700   9.735
29788SOL    HW289389   4.728  12.648   9.885
29789SOL     OW89390   5.519  12.238  10.183
29789SOL    HW189391   5.457  12.223  10.107
29789SOL    HW289392   5.467  12.249  10.268
29790SOL     OW89393   4.951  12.722  10.816
29790SOL    HW189394   4.957  12.645  10.880
29790SOL    HW289395   4.899  12.696  10.736
29791SOL     OW89396   4.045  12.115   9.552
29791SOL    HW189397   4.127  12.154   9.510
29791SOL    HW289398   4.018  12.033   9.503
29792SOL     OW89399   5.182  11.907  10.038
29792SOL    HW189400   5.177  11.842  10.113
29792SOL    HW289401   5.262  11.966  10.051
29793SOL     OW89402   4.185  12.438  11.037
29793SOL    HW189403   4.135  12.439  10.951
29793SOL    HW289404   4.122  12.420  11.113
29794SOL     OW89405   3.926  11.457  10.808
29794SOL    HW189406   3.846  11.517  10.795
29794SOL    HW289407   3.916  11.408  10.894
29795SOL     OW89408   5.356  12.549   9.391
29795SOL    HW189409   5.324  12.643   9.381
29795SOL    HW289410   5.280  12.486   9.379
29796SOL     OW89411   5.124  11.279   9.736
29796SOL    HW189412   5.100  11.242   9.646
29796SOL    HW289413   5.223  11.295   9.740
29797SOL     OW89414   4.106  11.872   9.790
29797SOL    HW189415   4.151  11.782   9.787
29797SOL    HW289416   4.012  11.861   9.823
29798SOL     OW89417   5.271  11.394  11.039
29798SOL    HW189418   5.266  11.431  11.131
29798SOL    HW289419   5.199  11.325  11.027
29799SOL     OW89420   4.338  11.294   9.427
29799SOL    HW189421   4.436  11.272   9.434
29799SOL    HW289422   4.307  11.277   9.334
29800SOL     OW89423   4.505  11.436  11.059
29800SOL    HW189424   4.572  11.375  11.102
29800SOL    HW289425   4.432  11.455  11.124
29801SOL     OW89426   5.075  11.762  10.743
29801SOL    HW189427   5.103  11.719  10.828
29801SOL    HW289428   5.100  11.858  10.744
29802SOL     OW89429   4.527  12.574  10.234
29802SOL    HW189430   4.617  12.588  10.192
29802SOL    HW289431   4.456  12.576  10.163
29803SOL     OW89432   4.646  11.675  10.209
29803SOL    HW189433   4.621  11.666  10.113
29803SOL    HW289434   4.694  11.593  10.240
29804SOL     OW89435   4.263  11.236   9.822
29804SOL    HW189436   4.182  11.237   9.880
29804SOL    HW289437   4.266  11.319   9.767
29805SOL     OW89438   5.158  12.360   9.351
29805SOL    HW189439   5.190  12.284   9.408
29805SOL    HW289440   5.066  12.387   9.381
29806SOL     OW89441   4.021  11.207   9.481
29806SOL    HW189442   4.070  11.291   9.460
29806SOL    HW289443   4.083  11.142   9.526
29807SOL     OW89444   4.659  11.408   9.790
29807SOL    HW189445   4.611  11.449   9.712
29807SOL    HW289446   4.758  11.406   9.771
29808SOL     OW89447   4.800  11.855  10.774
29808SOL    HW189448   4.720  11.794  10.777
29808SOL    HW289449   4.881  11.802  10.750
29809SOL     OW89450   4.951  12.742  10.103
29809SOL    HW189451   4.972  12.816  10.038
29809SOL    HW289452   5.019  12.742  10.176
29810SOL     OW89453   4.183  12.324  10.051
29810SOL    HW189454   4.112  12.297  10.116
29810SOL    HW289455   4.157  12.296   9.958
29811SOL     OW89456   4.756  11.721   9.326
29811SOL    HW189457   4.715  11.803   9.287
29811SOL    HW289458   4.820  11.747   9.399
29812SOL     OW89459   3.802  11.728  10.696
29812SOL    HW189460   3.894  11.727  10.655
29812SOL    HW289461   3.796  11.802  10.763
29813SOL     OW89462   4.285  11.394  10.457
29813SOL    HW189463   4.323  11.310  10.494
29813SOL    HW289464   4.197  11.413  10.501
29814SOL     OW89465   4.590  11.626   9.952
29814SOL    HW189466   4.558  11.698   9.890
29814SOL    HW289467   4.614  11.545   9.899
29815SOL     OW89468   4.741  11.211  10.063
29815SOL    HW189469   4.669  11.216   9.994
29815SOL    HW289470   4.717  11.142  10.132
29816SOL     OW89471   5.153  12.345  10.177
29816SOL    HW189472   5.098  12.261  10.170
29816SOL    HW289473   5.179  12.374  10.085
29817SOL     OW89474   5.190  11.762  10.302
29817SOL    HW189475   5.160  11.667  10.309
29817SOL    HW289476   5.263  11.778  10.368
29818SOL     OW89477   5.581  12.005   9.687
29818SOL    HW189478   5.623  11.941   9.751
29818SOL    HW289479   5.543  11.954   9.609
29819SOL     OW89480   4.212  12.557   9.484
29819SOL    HW189481   4.125  12.542   9.531
29819SOL    HW289482   4.195  12.583   9.389
29820SOL     OW89483   5.388  12.452   9.967
29820SOL    HW189484   5.487  12.460   9.981
29820SOL    HW289485   5.343  12.536   9.998
29821SOL     OW89486   5.114  11.747   9.388
29821SOL    HW189487   5.060  11.726   9.469
29821SOL    HW289488   5.205  11.706   9.397
29822SOL     OW89489   4.251  11.428   9.638
29822SOL    HW189490   4.278  11.369   9.563
29822SOL    HW289491   4.251  11.523   9.607
29823SOL     OW89492   5.478  12.395  10.898
29823SOL    HW189493   5.569  12.356  10.885
29823SOL    HW289494   5.486  12.491  10.922
29824SOL     OW89495   4.788  12.519  10.650
29824SOL    HW189496   4.708  12.496  10.705
29824SOL    HW289497   4.871  12.493  10.699
29825SOL     OW89498   4.835  12.367  10.410
29825SOL    HW189499   4.795  12.411  10.491
29825SOL    HW289500   4.794  12.404  10.327
29826SOL     OW89501   5.362  12.271  10.389
29826SOL    HW189502   5.367  12.352  10.448
29826SOL    HW289503   5.276  12.273  10.338
29827SOL     OW89504   4.639  11.261  10.712
29827SOL    HW189505   4.664  11.241  10.617
29827SOL    HW289506   4.711  11.317  10.754
29828SOL     OW89507   4.704  12.288  11.029
29828SOL    HW189508   4.605  12.294  11.039
29828SOL    HW289509   4.727  12.208  10.973
29829SOL     OW89510   4.429  12.222   9.678
29829SOL    HW189511   4.415  12.229   9.777
29829SOL    HW289512   4.513  12.171   9.660
29830SOL     OW89513   4.134  11.985  10.561
29830SOL    HW189514   4.220  11.997  10.611
29830SOL    HW289515   4.092  11.898  10.588
29831SOL     OW89516   4.998  11.558  10.572
29831SOL    HW189517   5.019  11.632  10.636
29831SOL    HW289518   4.909  11.575  10.529
29832SOL     OW89519   3.788  12.736  10.641
29832SOL    HW189520   3.742  12.818  10.607
29832SOL    HW289521   3.886  12.755  10.650
29833SOL     OW89522   4.091  12.272   9.811
29833SOL    HW189523   4.084  12.355   9.755
29833SOL    HW289524   4.095  12.192   9.751
29834SOL     OW89525   4.290  11.709  10.175
29834SOL    HW189526   4.302  11.775  10.101
29834SOL    HW289527   4.336  11.743  10.258
29835SOL     OW89528   4.976  12.520   9.698
29835SOL    HW189529   5.026  12.597   9.738
29835SOL    HW289530   4.881  12.522   9.730
29836SOL     OW89531   4.996  12.617  10.452
29836SOL    HW189532   5.043  12.630  10.539
29836SOL    HW289533   4.930  12.543  10.461
29837SOL     OW89534   5.306  11.811   9.782
29837SOL    HW189535   5.275  11.872   9.855
29837SOL    HW289536   5.356  11.863   9.713
29838SOL     OW89537   4.078  12.682  10.639
29838SOL    HW189538   4.057  12.638  10.552
29838SOL    HW289539   4.175  12.708  10.642
29839SOL     OW89540   4.126  11.923  10.908
29839SOL    HW189541   4.194  11.978  10.861
29839SOL    HW289542   4.166  11.835  10.935
29840SOL     OW89543   5.311  11.951  10.980
29840SOL    HW189544   5.219  11.989  10.975
29840SOL    HW289545   5.371  11.998  10.915
29841SOL     OW89546   4.737  11.277  11.080
29841SOL    HW189547   4.743  11.362  11.028
29841SOL    HW289548   4.769  11.201  11.023
29842SOL     OW89549   4.228  11.222  11.050
29842SOL    HW189550   4.186  11.165  10.980
29842SOL    HW289551   4.162  11.291  11.082
29843SOL     OW89552   4.297  12.042  10.339
29843SOL    HW189553   4.341  12.131  10.330
29843SOL    HW289554   4.234  12.042  10.416
29844SOL     OW89555   5.084  12.034  10.355
29844SOL    HW189556   5.009  12.034  10.289
29844SOL    HW289557   5.121  11.942  10.364
29845SOL     OW89558   4.933  11.697   9.585
29845SOL    HW189559   4.946  11.613   9.639
29845SOL    HW289560   4.904  11.771   9.645
29846SOL     OW89561   4.031  11.385  10.541
29846SOL    HW189562   4.008  11.422  10.631
29846SOL    HW289563   4.001  11.290  10.535
29847SOL     OW89564   3.761  12.482  10.592
29847SOL    HW189565   3.814  12.433  10.660
29847SOL    HW289566   3.783  12.580  10.597
29848SOL     OW89567   4.456  11.806  10.374
29848SOL    HW189568   4.515  11.780  10.298
29848SOL    HW289569   4.428  11.902  10.363
29849SOL     OW89570   5.452  12.107  11.164
29849SOL    HW189571   5.406  12.100  11.075
29849SOL    HW289572   5.390  12.151  11.230
29850SOL     OW89573   4.031  11.235   9.928
29850SOL    HW189574   4.020  11.329   9.961
29850SOL    HW289575   4.026  11.172  10.005
29851SOL     OW89576   5.346  11.539   9.684
29851SOL    HW189577   5.348  11.463   9.748
29851SOL    HW289578   5.298  11.616   9.724
29852SOL     OW89579   4.747  11.938  10.276
29852SOL    HW189580   4.762  11.959  10.372
29852SOL    HW289581   4.717  11.843  10.267
29853SOL     OW89582   5.583  12.690  10.915
29853SOL    HW189583   5.597  12.717  10.820
29853SOL    HW289584   5.666  12.712  10.968
29854SOL     OW89585   4.074  12.070  11.114
29854SOL    HW189586   4.150  12.114  11.162
29854SOL    HW289587   4.109  12.023  11.032
29855SOL     OW89588   5.264  11.446   9.435
29855SOL    HW189589   5.203  11.371   9.458
29855SOL    HW289590   5.286  11.498   9.518
29856SOL     OW89591   5.027  12.010   9.352
29856SOL    HW189592   5.061  11.917   9.367
29856SOL    HW289593   5.045  12.037   9.257
29857SOL     OW89594   4.792  12.505  10.159
29857SOL    HW189595   4.799  12.421  10.104
29857SOL    HW289596   4.854  12.574  10.123
29858SOL     OW89597   4.043  11.982  10.259
29858SOL    HW189598   4.136  12.018  10.264
29858SOL    HW289599   4.037  11.897  10.311
29859SOL     OW89600   4.063  11.681  10.316
29859SOL    HW189601   4.011  11.598  10.299
29859SOL    HW289602   4.140  11.686  10.252
29860SOL     OW89603   4.862  11.552  10.988
29860SOL    HW189604   4.817  11.615  11.052
29860SOL    HW289605   4.955  11.583  10.971
29861SOL     OW89606   4.884  11.379  10.787
29861SOL    HW189607   4.884  11.443  10.864
29861SOL    HW289608   4.912  11.427  10.704
29862SOL     OW89609   3.732  12.498   9.510
29862SOL    HW189610   3.639  12.519   9.479
29862SOL    HW289611   3.742  12.399   9.523
29863SOL     OW89612   4.228  12.740  10.220
29863SOL    HW189613   4.294  12.814  10.229
29863SOL    HW289614   4.272  12.661  10.178
29864SOL     OW89615   4.726  11.968  10.548
29864SOL    HW189616   4.767  11.936  10.634
29864SOL    HW289617   4.630  11.941  10.545
29865SOL     OW89618   3.764  11.716  10.424
29865SOL    HW189619   3.849  11.683  10.383
29865SOL    HW289620   3.777  11.731  10.522
29866SOL     OW89621   3.913  11.692  11.032
29866SOL    HW189622   3.972  11.652  10.962
29866SOL    HW289623   3.855  11.763  10.991
29867SOL     OW89624   5.093  12.122  10.970
29867SOL    HW189625   5.132  12.211  10.990
29867SOL    HW289626   5.103  12.102  10.873
29868SOL     OW89627   4.539  11.744   9.635
29868SOL    HW189628   4.546  11.655   9.589
29868SOL    HW289629   4.445  11.778   9.627
29869SOL     OW89630   5.381  11.776  10.516
29869SOL    HW189631   5.343  11.707  10.578
29869SOL    HW289632   5.463  11.740  10.472
29870SOL     OW89633   3.976  12.736  11.054
29870SOL    HW189634   3.946  12.793  11.130
29870SOL    HW289635   3.969  12.639  11.080
29871SOL     OW89636   4.395  11.636  10.579
29871SOL    HW189637   4.361  11.547  10.549
29871SOL    HW289638   4.421  11.690  10.499
29872SOL     OW89639   4.197  11.672   9.501
29872SOL    HW189640   4.258  11.752   9.505
29872SOL    HW289641   4.102  11.703   9.508
29873SOL     OW89642   3.883  12.309  10.776
29873SOL    HW189643   3.905  12.248  10.852
29873SOL    HW289644   3.893  12.260  10.690
29874SOL     OW89645   5.071  12.231  10.544
29874SOL    HW189646   5.095  12.168  10.470
29874SOL    HW289647   4.981  12.271  10.526
29875SOL     OW89648   5.026  12.027   9.619
29875SOL    HW189649   4.940  11.996   9.661
29875SOL    HW289650   5.022  12.013   9.520
29876SOL     OW89651   4.976  12.903  10.438
29876SOL    HW189652   5.060  12.908  10.384
29876SOL    HW289653   4.953  12.807  10.456
29877SOL     OW89654   3.807  12.430  10.332
29877SOL    HW189655   3.802  12.429  10.432
29877SOL    HW289656   3.724  12.389  10.294
29878SOL     OW89657   5.450  11.307   9.833
29878SOL    HW189658   5.523  11.290   9.766
29878SOL    HW289659   5.419  11.220   9.871
29879SOL     OW89660   3.854  12.966  11.161
29879SOL    HW189661   3.813  12.892  11.214
29879SOL    HW289662   3.918  13.017  11.219
29880SOL     OW89663   5.004  12.099   9.982
29880SOL    HW189664   5.064  12.018   9.984
29880SOL    HW289665   5.044  12.168   9.922
29881SOL     OW89666   4.554  12.445  10.732
29881SOL    HW189667   4.549  12.478  10.827
29881SOL    HW289668   4.468  12.464  10.686
29882SOL     OW89669   4.396  12.788   9.464
29882SOL    HW189670   4.405  12.798   9.365
29882SOL    HW289671   4.356  12.699   9.485
29883SOL     OW89672   5.565  11.347  10.273
29883SOL    HW189673   5.604  11.262  10.237
29883SOL    HW289674   5.467  11.349  10.254
29884SOL     OW89675   3.987  11.498  10.030
29884SOL    HW189676   3.908  11.549   9.996
29884SOL    HW289677   3.978  11.483  10.128
29885SOL     OW89678   4.918  12.784   9.341
29885SOL    HW189679   4.924  12.691   9.378
29885SOL    HW289680   4.859  12.784   9.261
29886SOL     OW89681   4.546  12.174  10.682
29886SOL    HW189682   4.586  12.173  10.590
29886SOL    HW289683   4.556  12.266  10.722
29887SOL     OW89684   4.640  12.082   9.601
29887SOL    HW189685   4.703  12.120   9.533
29887SOL    HW289686   4.680  11.999   9.640
29888SOL     OW89687   4.096  12.460  10.800
29888SOL    HW189688   4.083  12.553  10.766
29888SOL    HW289689   4.012  12.408  10.787
29889SOL     OW89690   5.338  12.464  10.599
29889SOL    HW189691   5.398  12.467  10.679
29889SOL    HW289692   5.263  12.528  10.612
29890SOL     OW89693   4.763  12.270  10.006
29890SOL    HW189694   4.693  12.223  10.060
29890SOL    HW289695   4.822  12.202   9.963
29891SOL     OW89696   4.738  11.408  10.281
29891SOL    HW189697   4.730  11.372  10.188
29891SOL    HW289698   4.736  11.332  10.346
29892SOL     OW89699   4.314  12.659   9.801
29892SOL    HW189700   4.356  12.601   9.731
29892SOL    HW289701   4.270  12.738   9.757
29893SOL     OW89702   5.433  11.557  10.691
29893SOL    HW189703   5.506  11.626  10.695
29893SOL    HW289704   5.461  11.482  10.632
29894SOL     OW89705   3.979  12.520   9.600
29894SOL    HW189706   3.883  12.521   9.573
29894SOL    HW289707   3.991  12.573   9.684
29895SOL     OW89708   3.829  12.185  11.036
29895SOL    HW189709   3.752  12.152  11.090
29895SOL    HW289710   3.914  12.155  11.078
29896SOL     OW89711   4.396  11.375  10.799
29896SOL    HW189712   4.486  11.359  10.759
29896SOL    HW289713   4.404  11.380  10.898
29897SOL     OW89714   3.799  11.517   9.343
29897SOL    HW189715   3.707  11.489   9.314
29897SOL    HW289716   3.830  11.594   9.287
29898SOL     OW89717   5.164  12.028  10.708
29898SOL    HW189718   5.107  12.080  10.645
29898SOL    HW289719   5.260  12.040  10.684
29899SOL     OW89720   3.796  11.338   9.628
29899SOL    HW189721   3.779  11.421   9.574
29899SOL    HW289722   3.886  11.301   9.606
29900SOL     OW89723   4.907  12.507   9.429
29900SOL    HW189724   4.808  12.496   9.431
29900SOL    HW289725   4.941  12.522   9.522
29901SOL     OW89726   4.337  12.014  10.741
29901SOL    HW189727   4.393  12.095  10.724
29901SOL    HW289728   4.396  11.934  10.744
29902SOL     OW89729   4.440  11.737  11.018
29902SOL    HW189730   4.459  11.802  11.092
29902SOL    HW289731   4.500  11.657  11.027
29903SOL     OW89732   5.174  12.392  10.943
29903SOL    HW189733   5.165  12.382  11.042
29903SOL    HW289734   5.270  12.385  10.917
29904SOL     OW89735   5.398  12.055  10.564
29904SOL    HW189736   5.371  11.966  10.527
29904SOL    HW289737   5.399  12.123  10.491
29905SOL     OW89738   4.949  11.497   9.759
29905SOL    HW189739   5.014  11.423   9.748
29905SOL    HW289740   4.969  11.547   9.843
29906SOL     OW89741   4.318  11.917   9.962
29906SOL    HW189742   4.368  12.002   9.943
29906SOL    HW289743   4.230  11.919   9.914
29907SOL     OW89744   5.501  11.514  10.952
29907SOL    HW189745   5.484  11.545  10.858
29907SOL    HW289746   5.417  11.477  10.990
29908SOL     OW89747   5.454  12.106  10.827
29908SOL    HW189748   5.492  12.197  10.842
29908SOL    HW289749   5.446  12.089  10.728
29909SOL     OW89750   4.583  12.546   9.326
29909SOL    HW189751   4.537  12.561   9.414
29909SOL    HW289752   4.627  12.631   9.296
29910SOL     OW89753   4.583  12.128  10.171
29910SOL    HW189754   4.637  12.059  10.219
29910SOL    HW289755   4.551  12.197  10.237
29911SOL     OW89756   4.807  12.156   9.397
29911SOL    HW189757   4.784  12.209   9.315
29911SOL    HW289758   4.888  12.100   9.378
29912SOL     OW89759   5.585  12.741  10.161
29912SOL    HW189760   5.514  12.729  10.091
29912SOL    HW289761   5.586  12.662  10.221
29913SOL     OW89762   3.945  12.486  11.154
29913SOL    HW189763   3.880  12.413  11.133
29913SOL    HW289764   3.949  12.500  11.252
29914SOL     OW89765   3.803  12.412   9.963
29914SOL    HW189766   3.802  12.365  10.051
29914SOL    HW289767   3.885  12.384   9.912
29915SOL     OW89768   4.396  12.563  10.934
29915SOL    HW189769   4.318  12.513  10.972
29915SOL    HW289770   4.393  12.658  10.965
29916SOL     OW89771   5.548  11.364  10.537
29916SOL    HW189772   5.544  11.274  10.581
29916SOL    HW289773   5.551  11.353  10.438
29917SOL     OW89774   4.152  11.596   9.830
29917SOL    HW189775   4.182  11.524   9.768
29917SOL    HW289776   4.113  11.556   9.913
29918SOL     OW89777   5.429  12.659  10.414
29918SOL    HW189778   5.336  12.634  10.387
29918SOL    HW289779   5.455  12.609  10.496
29919SOL     OW89780   4.041  11.719  10.590
29919SOL    HW189781   4.079  11.660  10.662
29919SOL    HW289782   4.081  11.693  10.502
29920SOL     OW89783   5.148  11.386  10.422
29920SOL    HW189784   5.200  11.321  10.477
29920SOL    HW289785   5.099  11.449  10.483
29921SOL     OW89786   4.725  11.206  10.464
29921SOL    HW189787   4.662  11.134  10.433
29921SOL    HW289788   4.818  11.170  10.464
29922SOL     OW89789   4.494  12.502   9.611
29922SOL    HW189790   4.448  12.415   9.628
29922SOL    HW289791   4.585  12.499   9.652
29923SOL     OW89792   4.342  12.739  10.594
29923SOL    HW189793   4.337  12.821  10.651
29923SOL    HW289794   4.431  12.736  10.549
29924SOL     OW89795   5.076  11.224   9.478
29924SOL    HW189796   5.111  11.183   9.394
29924SOL    HW289797   4.986  11.186   9.498
29925SOL     OW89798   5.024  11.625  10.001
29925SOL    HW189799   4.965  11.705  10.005
29925SOL    HW289800   5.039  11.590  10.094
29926SOL     OW89801   5.317  11.393  10.192
29926SOL    HW189802   5.233  11.392  10.246
29926SOL    HW289803   5.319  11.476  10.136
29927SOL     OW89804   3.763  12.249   9.610
29927SOL    HW189805   3.862  12.238   9.601
29927SOL    HW289806   3.723  12.163   9.642
29928SOL     OW89807   3.954  11.800  11.285
29928SOL    HW189808   3.861  11.798  11.322
29928SOL    HW289809   3.955  11.761  11.193
29929SOL     OW89810   3.949  11.447  12.168
29929SOL    HW189811   3.984  11.430  12.260
29929SOL    HW289812   3.861  11.402  12.156
29930SOL     OW89813   3.743  11.540  11.819
29930SOL    HW189814   3.661  11.583  11.858
29930SOL    HW289815   3.715  11.467  11.756
29931SOL     OW89816   4.293  12.447  12.337
29931SOL    HW189817   4.200  12.440  12.300
29931SOL    HW289818   4.304  12.536  12.381
29932SOL     OW89819   5.279  12.683  11.875
29932SOL    HW189820   5.222  12.667  11.956
29932SOL    HW289821   5.220  12.693  11.795
29933SOL     OW89822   4.859  11.875  11.889
29933SOL    HW189823   4.916  11.953  11.864
29933SOL    HW289824   4.799  11.901  11.965
29934SOL     OW89825   5.479  11.779  11.403
29934SOL    HW189826   5.467  11.766  11.304
29934SOL    HW289827   5.449  11.698  11.452
29935SOL     OW89828   4.492  12.316  12.195
29935SOL    HW189829   4.414  12.333  12.255
29935SOL    HW289830   4.526  12.403  12.159
29936SOL     OW89831   4.409  12.184  11.837
29936SOL    HW189832   4.478  12.168  11.907
29936SOL    HW289833   4.336  12.241  11.875
29937SOL     OW89834   4.059  12.607  12.233
29937SOL    HW189835   3.981  12.576  12.180
29937SOL    HW289836   4.117  12.665  12.176
29938SOL     OW89837   5.184  12.677  12.511
29938SOL    HW189838   5.208  12.771  12.537
29938SOL    HW289839   5.168  12.623  12.593
29939SOL     OW89840   4.162  11.564  12.671
29939SOL    HW189841   4.244  11.508  12.680
29939SOL    HW289842   4.081  11.506  12.675
29940SOL     OW89843   5.327  11.619  11.909
29940SOL    HW189844   5.253  11.665  11.859
29940SOL    HW289845   5.378  11.687  11.962
29941SOL     OW89846   3.954  12.606  11.710
29941SOL    HW189847   3.928  12.702  11.710
29941SOL    HW289848   3.883  12.552  11.755
29942SOL     OW89849   3.964  12.263  12.058
29942SOL    HW189850   3.978  12.179  12.110
29942SOL    HW289851   3.909  12.327  12.113
29943SOL     OW89852   4.330  12.136  11.295
29943SOL    HW189853   4.337  12.220  11.241
29943SOL    HW289854   4.376  12.149  11.383
29944SOL     OW89855   5.318  11.286  12.652
29944SOL    HW189856   5.300  11.353  12.580
29944SOL    HW289857   5.315  11.332  12.741
29945SOL     OW89858   3.846  11.815  11.735
29945SOL    HW189859   3.801  11.727  11.752
29945SOL    HW289860   3.845  11.869  11.819
29946SOL     OW89861   3.751  12.768  11.289
29946SOL    HW189862   3.732  12.672  11.310
29946SOL    HW289863   3.718  12.826  11.364
29947SOL     OW89864   5.413  12.094  11.784
29947SOL    HW189865   5.508  12.065  11.792
29947SOL    HW289866   5.405  12.159  11.709
29948SOL     OW89867   5.365  12.280  11.604
29948SOL    HW189868   5.451  12.282  11.552
29948SOL    HW289869   5.379  12.327  11.692
29949SOL     OW89870   3.837  11.909  12.769
29949SOL    HW189871   3.925  11.896  12.814
29949SOL    HW289872   3.824  12.006  12.747
29950SOL     OW89873   4.337  12.537  11.898
29950SOL    HW189874   4.288  12.450  11.907
29950SOL    HW289875   4.314  12.580  11.811
29951SOL     OW89876   5.017  12.400  12.595
29951SOL    HW189877   5.054  12.327  12.537
29951SOL    HW289878   5.069  12.405  12.680
29952SOL     OW89879   4.533  11.176  11.674
29952SOL    HW189880   4.573  11.267  11.665
29952SOL    HW289881   4.433  11.184  11.680
29953SOL     OW89882   3.921  12.148  12.436
29953SOL    HW189883   4.010  12.103  12.422
29953SOL    HW289884   3.848  12.083  12.417
29954SOL     OW89885   5.249  12.171  11.362
29954SOL    HW189886   5.186  12.095  11.375
29954SOL    HW289887   5.297  12.189  11.448
29955SOL     OW89888   5.190  12.589  12.125
29955SOL    HW189889   5.131  12.595  12.205
29955SOL    HW289890   5.175  12.501  12.079
29956SOL     OW89891   4.322  11.901  11.442
29956SOL    HW189892   4.346  11.970  11.374
29956SOL    HW289893   4.244  11.934  11.496
29957SOL     OW89894   5.005  11.517  12.116
29957SOL    HW189895   4.919  11.467  12.103
29957SOL    HW289896   5.067  11.463  12.172
29958SOL     OW89897   5.300  12.834  11.479
29958SOL    HW189898   5.389  12.880  11.482
29958SOL    HW289899   5.279  12.810  11.384
29959SOL     OW89900   4.531  11.777  12.637
29959SOL    HW189901   4.484  11.774  12.726
29959SOL    HW289902   4.480  11.722  12.571
29960SOL     OW89903   4.697  12.062  12.744
29960SOL    HW189904   4.743  11.978  12.715
29960SOL    HW289905   4.641  12.096  12.669
29961SOL     OW89906   4.715  11.582  12.414
29961SOL    HW189907   4.638  11.616  12.468
29961SOL    HW289908   4.681  11.531  12.335
29962SOL     OW89909   4.765  11.873  11.601
29962SOL    HW189910   4.791  11.869  11.697
29962SOL    HW289911   4.680  11.822  11.587
29963SOL     OW89912   3.800  11.983  11.961
29963SOL    HW189913   3.899  11.971  11.970
29963SOL    HW289914   3.776  12.078  11.982
29964SOL     OW89915   4.589  11.520  11.367
29964SOL    HW189916   4.648  11.583  11.318
29964SOL    HW289917   4.608  11.426  11.338
29965SOL     OW89918   5.086  12.316  11.717
29965SOL    HW189919   5.169  12.287  11.669
29965SOL    HW289920   5.037  12.383  11.661
29966SOL     OW89921   4.274  11.368  12.057
29966SOL    HW189922   4.269  11.363  12.157
29966SOL    HW289923   4.276  11.464  12.028
29967SOL     OW89924   4.732  12.628  11.649
29967SOL    HW189925   4.686  12.700  11.597
29967SOL    HW289926   4.728  12.648  11.747
29968SOL     OW89927   5.519  12.238  12.045
29968SOL    HW189928   5.457  12.223  11.969
29968SOL    HW289929   5.467  12.249  12.130
29969SOL     OW89930   4.951  12.722  12.678
29969SOL    HW189931   4.957  12.645  12.742
29969SOL    HW289932   4.899  12.696  12.598
29970SOL     OW89933   4.045  12.115  11.414
29970SOL    HW189934   4.127  12.154  11.372
29970SOL    HW289935   4.018  12.033  11.365
29971SOL     OW89936   5.182  11.907  11.900
29971SOL    HW189937   5.177  11.842  11.975
29971SOL    HW289938   5.262  11.966  11.913
29972SOL     OW89939   3.926  11.457  12.670
29972SOL    HW189940   3.846  11.517  12.657
29972SOL    HW289941   3.916  11.408  12.756
29973SOL     OW89942   5.356  12.549  11.253
29973SOL    HW189943   5.324  12.643  11.243
29973SOL    HW289944   5.280  12.486  11.241
29974SOL     OW89945   5.124  11.279  11.598
29974SOL    HW189946   5.100  11.242  11.508
29974SOL    HW289947   5.223  11.295  11.602
29975SOL     OW89948   4.106  11.872  11.652
29975SOL    HW189949   4.151  11.782  11.649
29975SOL    HW289950   4.012  11.861  11.685
29976SOL     OW89951   4.338  11.294  11.289
29976SOL    HW189952   4.436  11.272  11.296
29976SOL    HW289953   4.307  11.277  11.196
29977SOL     OW89954   5.075  11.762  12.605
29977SOL    HW189955   5.103  11.719  12.690
29977SOL    HW289956   5.100  11.858  12.606
29978SOL     OW89957   4.527  12.574  12.096
29978SOL    HW189958   4.617  12.588  12.054
29978SOL    HW289959   4.456  12.576  12.025
29979SOL     OW89960   4.646  11.675  12.071
29979SOL    HW189961   4.621  11.666  11.975
29979SOL    HW289962   4.694  11.593  12.102
29980SOL     OW89963   4.263  11.236  11.684
29980SOL    HW189964   4.182  11.237  11.742
29980SOL    HW289965   4.266  11.319  11.629
29981SOL     OW89966   5.158  12.360  11.213
29981SOL    HW189967   5.190  12.284  11.270
29981SOL    HW289968   5.066  12.387  11.243
29982SOL     OW89969   4.021  11.207  11.343
29982SOL    HW189970   4.070  11.291  11.322
29982SOL    HW289971   4.083  11.142  11.388
29983SOL     OW89972   4.659  11.408  11.652
29983SOL    HW189973   4.611  11.449  11.574
29983SOL    HW289974   4.758  11.406  11.633
29984SOL     OW89975   4.800  11.855  12.636
29984SOL    HW189976   4.720  11.794  12.639
29984SOL    HW289977   4.881  11.802  12.612
29985SOL     OW89978   4.951  12.742  11.965
29985SOL    HW189979   4.972  12.816  11.900
29985SOL    HW289980   5.019  12.742  12.038
29986SOL     OW89981   4.183  12.324  11.913
29986SOL    HW189982   4.112  12.297  11.978
29986SOL    HW289983   4.157  12.296  11.820
29987SOL     OW89984   4.756  11.721  11.188
29987SOL    HW189985   4.715  11.803  11.149
29987SOL    HW289986   4.820  11.747  11.261
29988SOL     OW89987   3.802  11.728  12.558
29988SOL    HW189988   3.894  11.727  12.517
29988SOL    HW289989   3.796  11.802  12.625
29989SOL     OW89990   4.285  11.394  12.319
29989SOL    HW189991   4.323  11.310  12.356
29989SOL    HW289992   4.197  11.413  12.363
29990SOL     OW89993   4.590  11.626  11.814
29990SOL    HW189994   4.558  11.698  11.752
29990SOL    HW289995   4.614  11.545  11.761
29991SOL     OW89996   4.741  11.211  11.925
29991SOL    HW189997   4.669  11.216  11.856
29991SOL    HW289998   4.717  11.142  11.994
29992SOL     OW89999   5.153  12.345  12.039
29992SOL    HW190000   5.098  12.261  12.032
29992SOL    HW290001   5.179  12.374  11.947
29993SOL     OW90002   5.190  11.762  12.164
29993SOL    HW190003   5.160  11.667  12.171
29993SOL    HW290004   5.263  11.778  12.230
29994SOL     OW90005   5.581  12.005  11.549
29994SOL    HW190006   5.623  11.941  11.613
29994SOL    HW290007   5.543  11.954  11.471
29995SOL     OW90008   4.212  12.557  11.346
29995SOL    HW190009   4.125  12.542  11.393
29995SOL    HW290010   4.195  12.583  11.251
29996SOL     OW90011   5.388  12.452  11.829
29996SOL    HW190012   5.487  12.460  11.843
29996SOL    HW290013   5.343  12.536  11.860
29997SOL     OW90014   5.114  11.747  11.250
29997SOL    HW190015   5.060  11.726  11.331
29997SOL    HW290016   5.205  11.706  11.259
29998SOL     OW90017   4.251  11.428  11.500
29998SOL    HW190018   4.278  11.369  11.425
29998SOL    HW290019   4.251  11.523  11.469
29999SOL     OW90020   5.478  12.395  12.760
29999SOL    HW190021   5.569  12.356  12.747
29999SOL    HW290022   5.486  12.491  12.784
30000SOL     OW90023   4.788  12.519  12.512
30000SOL    HW190024   4.708  12.496  12.567
30000SOL    HW290025   4.871  12.493  12.561
30001SOL     OW90026   4.835  12.367  12.272
30001SOL    HW190027   4.795  12.411  12.353
30001SOL    HW290028   4.794  12.404  12.189
30002SOL     OW90029   5.362  12.271  12.251
30002SOL    HW190030   5.367  12.352  12.310
30002SOL    HW290031   5.276  12.273  12.200
30003SOL     OW90032   4.639  11.261  12.574
30003SOL    HW190033   4.664  11.241  12.479
30003SOL    HW290034   4.711  11.317  12.616
30004SOL     OW90035   4.429  12.222  11.540
30004SOL    HW190036   4.415  12.229  11.639
30004SOL    HW290037   4.513  12.171  11.522
30005SOL     OW90038   4.134  11.985  12.423
30005SOL    HW190039   4.220  11.997  12.473
30005SOL    HW290040   4.092  11.898  12.450
30006SOL     OW90041   4.998  11.558  12.434
30006SOL    HW190042   5.019  11.632  12.498
30006SOL    HW290043   4.909  11.575  12.391
30007SOL     OW90044   3.788  12.736  12.503
30007SOL    HW190045   3.742  12.818  12.469
30007SOL    HW290046   3.886  12.755  12.512
30008SOL     OW90047   4.091  12.272  11.673
30008SOL    HW190048   4.084  12.355  11.617
30008SOL    HW290049   4.095  12.192  11.613
30009SOL     OW90050   4.290  11.709  12.037
30009SOL    HW190051   4.302  11.775  11.963
30009SOL    HW290052   4.336  11.743  12.120
30010SOL     OW90053   4.976  12.520  11.560
30010SOL    HW190054   5.026  12.597  11.600
30010SOL    HW290055   4.881  12.522  11.592
30011SOL     OW90056   4.996  12.617  12.314
30011SOL    HW190057   5.043  12.630  12.401
30011SOL    HW290058   4.930  12.543  12.323
30012SOL     OW90059   5.306  11.811  11.644
30012SOL    HW190060   5.275  11.872  11.717
30012SOL    HW290061   5.356  11.863  11.575
30013SOL     OW90062   4.078  12.682  12.501
30013SOL    HW190063   4.057  12.638  12.414
30013SOL    HW290064   4.175  12.708  12.504
30014SOL     OW90065   4.126  11.923  12.770
30014SOL    HW190066   4.194  11.978  12.723
30014SOL    HW290067   4.166  11.835  12.797
30015SOL     OW90068   5.311  11.951  12.842
30015SOL    HW190069   5.219  11.989  12.837
30015SOL    HW290070   5.371  11.998  12.777
30016SOL     OW90071   4.297  12.042  12.201
30016SOL    HW190072   4.341  12.131  12.192
30016SOL    HW290073   4.234  12.042  12.278
30017SOL     OW90074   5.084  12.034  12.217
30017SOL    HW190075   5.009  12.034  12.151
30017SOL    HW290076   5.121  11.942  12.226
30018SOL     OW90077   4.933  11.697  11.447
30018SOL    HW190078   4.946  11.613  11.501
30018SOL    HW290079   4.904  11.771  11.507
30019SOL     OW90080   4.031  11.385  12.403
30019SOL    HW190081   4.008  11.422  12.493
30019SOL    HW290082   4.001  11.290  12.397
30020SOL     OW90083   3.761  12.482  12.454
30020SOL    HW190084   3.814  12.433  12.522
30020SOL    HW290085   3.783  12.580  12.459
30021SOL     OW90086   4.456  11.806  12.236
30021SOL    HW190087   4.515  11.780  12.160
30021SOL    HW290088   4.428  11.902  12.225
30022SOL     OW90089   4.031  11.235  11.790
30022SOL    HW190090   4.020  11.329  11.823
30022SOL    HW290091   4.026  11.172  11.867
30023SOL     OW90092   5.346  11.539  11.546
30023SOL    HW190093   5.348  11.463  11.610
30023SOL    HW290094   5.298  11.616  11.586
30024SOL     OW90095   4.747  11.938  12.138
30024SOL    HW190096   4.762  11.959  12.234
30024SOL    HW290097   4.717  11.843  12.129
30025SOL     OW90098   5.264  11.446  11.297
30025SOL    HW190099   5.203  11.371  11.320
30025SOL    HW290100   5.286  11.498  11.380
30026SOL     OW90101   5.027  12.010  11.214
30026SOL    HW190102   5.061  11.917  11.229
30026SOL    HW290103   5.045  12.037  11.119
30027SOL     OW90104   4.792  12.505  12.021
30027SOL    HW190105   4.799  12.421  11.966
30027SOL    HW290106   4.854  12.574  11.985
30028SOL     OW90107   4.043  11.982  12.121
30028SOL    HW190108   4.136  12.018  12.126
30028SOL    HW290109   4.037  11.897  12.173
30029SOL     OW90110   4.063  11.681  12.178
30029SOL    HW190111   4.011  11.598  12.161
30029SOL    HW290112   4.140  11.686  12.114
30030SOL     OW90113   4.884  11.379  12.649
30030SOL    HW190114   4.884  11.443  12.726
30030SOL    HW290115   4.912  11.427  12.566
30031SOL     OW90116   3.732  12.498  11.372
30031SOL    HW190117   3.639  12.519  11.341
30031SOL    HW290118   3.742  12.399  11.385
30032SOL     OW90119   4.228  12.740  12.082
30032SOL    HW190120   4.294  12.814  12.091
30032SOL    HW290121   4.272  12.661  12.040
30033SOL     OW90122   4.726  11.968  12.410
30033SOL    HW190123   4.767  11.936  12.496
30033SOL    HW290124   4.630  11.941  12.407
30034SOL     OW90125   3.764  11.716  12.286
30034SOL    HW190126   3.849  11.683  12.245
30034SOL    HW290127   3.777  11.731  12.384
30035SOL     OW90128   4.539  11.744  11.497
30035SOL    HW190129   4.546  11.655  11.451
30035SOL    HW290130   4.445  11.778  11.489
30036SOL     OW90131   5.381  11.776  12.378
30036SOL    HW190132   5.343  11.707  12.440
30036SOL    HW290133   5.463  11.740  12.334
30037SOL     OW90134   4.395  11.636  12.441
30037SOL    HW190135   4.361  11.547  12.411
30037SOL    HW290136   4.421  11.690  12.361
30038SOL     OW90137   4.197  11.672  11.363
30038SOL    HW190138   4.258  11.752  11.367
30038SOL    HW290139   4.102  11.703  11.370
30039SOL     OW90140   3.883  12.309  12.638
30039SOL    HW190141   3.905  12.248  12.714
30039SOL    HW290142   3.893  12.260  12.552
30040SOL     OW90143   5.071  12.231  12.406
30040SOL    HW190144   5.095  12.168  12.332
30040SOL    HW290145   4.981  12.271  12.388
30041SOL     OW90146   5.026  12.027  11.481
30041SOL    HW190147   4.940  11.996  11.523
30041SOL    HW290148   5.022  12.013  11.382
30042SOL     OW90149   4.976  12.903  12.300
30042SOL    HW190150   5.060  12.908  12.246
30042SOL    HW290151   4.953  12.807  12.318
30043SOL     OW90152   3.807  12.430  12.194
30043SOL    HW190153   3.802  12.429  12.294
30043SOL    HW290154   3.724  12.389  12.156
30044SOL     OW90155   5.450  11.307  11.695
30044SOL    HW190156   5.523  11.290  11.628
30044SOL    HW290157   5.419  11.220  11.733
30045SOL     OW90158   5.004  12.099  11.844
30045SOL    HW190159   5.064  12.018  11.846
30045SOL    HW290160   5.044  12.168  11.784
30046SOL     OW90161   4.554  12.445  12.594
30046SOL    HW190162   4.549  12.478  12.689
30046SOL    HW290163   4.468  12.464  12.548
30047SOL     OW90164   4.396  12.788  11.326
30047SOL    HW190165   4.405  12.798  11.227
30047SOL    HW290166   4.356  12.699  11.347
30048SOL     OW90167   5.565  11.347  12.135
30048SOL    HW190168   5.604  11.262  12.099
30048SOL    HW290169   5.467  11.349  12.116
30049SOL     OW90170   3.987  11.498  11.892
30049SOL    HW190171   3.908  11.549  11.858
30049SOL    HW290172   3.978  11.483  11.990
30050SOL     OW90173   4.918  12.784  11.203
30050SOL    HW190174   4.924  12.691  11.240
30050SOL    HW290175   4.859  12.784  11.123
30051SOL     OW90176   4.546  12.174  12.544
30051SOL    HW190177   4.586  12.173  12.452
30051SOL    HW290178   4.556  12.266  12.584
30052SOL     OW90179   4.640  12.082  11.463
30052SOL    HW190180   4.703  12.120  11.395
30052SOL    HW290181   4.680  11.999  11.502
30053SOL     OW90182   4.096  12.460  12.662
30053SOL    HW190183   4.083  12.553  12.628
30053SOL    HW290184   4.012  12.408  12.649
30054SOL     OW90185   5.338  12.464  12.461
30054SOL    HW190186   5.398  12.467  12.541
30054SOL    HW290187   5.263  12.528  12.474
30055SOL     OW90188   4.763  12.270  11.868
30055SOL    HW190189   4.693  12.223  11.922
30055SOL    HW290190   4.822  12.202  11.825
30056SOL     OW90191   4.738  11.408  12.143
30056SOL    HW190192   4.730  11.372  12.050
30056SOL    HW290193   4.736  11.332  12.208
30057SOL     OW90194   4.314  12.659  11.663
30057SOL    HW190195   4.356  12.601  11.593
30057SOL    HW290196   4.270  12.738  11.619
30058SOL     OW90197   5.433  11.557  12.553
30058SOL    HW190198   5.506  11.626  12.557
30058SOL    HW290199   5.461  11.482  12.494
30059SOL     OW90200   3.979  12.520  11.462
30059SOL    HW190201   3.883  12.521  11.435
30059SOL    HW290202   3.991  12.573  11.546
30060SOL     OW90203   3.829  12.185  12.898
30060SOL    HW190204   3.752  12.152  12.952
30060SOL    HW290205   3.914  12.155  12.940
30061SOL     OW90206   4.396  11.375  12.661
30061SOL    HW190207   4.486  11.359  12.621
30061SOL    HW290208   4.404  11.380  12.760
30062SOL     OW90209   3.799  11.517  11.205
30062SOL    HW190210   3.707  11.489  11.176
30062SOL    HW290211   3.830  11.594  11.149
30063SOL     OW90212   5.164  12.028  12.570
30063SOL    HW190213   5.107  12.080  12.507
30063SOL    HW290214   5.260  12.040  12.546
30064SOL     OW90215   3.796  11.338  11.490
30064SOL    HW190216   3.779  11.421  11.436
30064SOL    HW290217   3.886  11.301  11.468
30065SOL     OW90218   4.907  12.507  11.291
30065SOL    HW190219   4.808  12.496  11.293
30065SOL    HW290220   4.941  12.522  11.384
30066SOL     OW90221   4.337  12.014  12.603
30066SOL    HW190222   4.393  12.095  12.586
30066SOL    HW290223   4.396  11.934  12.606
30067SOL     OW90224   4.440  11.737  12.880
30067SOL    HW190225   4.459  11.802  12.954
30067SOL    HW290226   4.500  11.657  12.889
30068SOL     OW90227   4.114  12.913  12.732
30068SOL    HW190228   4.023  12.954  12.730
30068SOL    HW290229   4.107  12.819  12.764
30069SOL     OW90230   5.398  12.055  12.426
30069SOL    HW190231   5.371  11.966  12.389
30069SOL    HW290232   5.399  12.123  12.353
30070SOL     OW90233   4.949  11.497  11.621
30070SOL    HW190234   5.014  11.423  11.610
30070SOL    HW290235   4.969  11.547  11.705
30071SOL     OW90236   4.318  11.917  11.824
30071SOL    HW190237   4.368  12.002  11.805
30071SOL    HW290238   4.230  11.919  11.776
30072SOL     OW90239   5.501  11.514  12.814
30072SOL    HW190240   5.484  11.545  12.720
30072SOL    HW290241   5.417  11.477  12.852
30073SOL     OW90242   5.454  12.106  12.689
30073SOL    HW190243   5.492  12.197  12.704
30073SOL    HW290244   5.446  12.089  12.590
30074SOL     OW90245   4.583  12.546  11.188
30074SOL    HW190246   4.537  12.561  11.276
30074SOL    HW290247   4.627  12.631  11.158
30075SOL     OW90248   4.583  12.128  12.033
30075SOL    HW190249   4.637  12.059  12.081
30075SOL    HW290250   4.551  12.197  12.099
30076SOL     OW90251   4.807  12.156  11.259
30076SOL    HW190252   4.784  12.209  11.177
30076SOL    HW290253   4.888  12.100  11.240
30077SOL     OW90254   5.585  12.741  12.023
30077SOL    HW190255   5.514  12.729  11.953
30077SOL    HW290256   5.586  12.662  12.083
30078SOL     OW90257   3.803  12.412  11.825
30078SOL    HW190258   3.802  12.365  11.913
30078SOL    HW290259   3.885  12.384  11.774
30079SOL     OW90260   4.396  12.563  12.796
30079SOL    HW190261   4.318  12.513  12.834
30079SOL    HW290262   4.393  12.658  12.827
30080SOL     OW90263   5.548  11.364  12.399
30080SOL    HW190264   5.544  11.274  12.443
30080SOL    HW290265   5.551  11.353  12.300
30081SOL     OW90266   4.152  11.596  11.692
30081SOL    HW190267   4.182  11.524  11.630
30081SOL    HW290268   4.113  11.556  11.775
30082SOL     OW90269   5.429  12.659  12.276
30082SOL    HW190270   5.336  12.634  12.249
30082SOL    HW290271   5.455  12.609  12.358
30083SOL     OW90272   4.041  11.719  12.452
30083SOL    HW190273   4.079  11.660  12.524
30083SOL    HW290274   4.081  11.693  12.364
30084SOL     OW90275   5.148  11.386  12.284
30084SOL    HW190276   5.200  11.321  12.339
30084SOL    HW290277   5.099  11.449  12.345
30085SOL     OW90278   4.725  11.206  12.326
30085SOL    HW190279   4.662  11.134  12.295
30085SOL    HW290280   4.818  11.170  12.326
30086SOL     OW90281   4.494  12.502  11.473
30086SOL    HW190282   4.448  12.415  11.490
30086SOL    HW290283   4.585  12.499  11.514
30087SOL     OW90284   4.342  12.739  12.456
30087SOL    HW190285   4.337  12.821  12.513
30087SOL    HW290286   4.431  12.736  12.411
30088SOL     OW90287   5.076  11.224  11.340
30088SOL    HW190288   5.111  11.183  11.256
30088SOL    HW290289   4.986  11.186  11.360
30089SOL     OW90290   5.024  11.625  11.863
30089SOL    HW190291   4.965  11.705  11.867
30089SOL    HW290292   5.039  11.590  11.956
30090SOL     OW90293   5.317  11.393  12.054
30090SOL    HW190294   5.233  11.392  12.108
30090SOL    HW290295   5.319  11.476  11.998
30091SOL     OW90296   3.763  12.249  11.472
30091SOL    HW190297   3.862  12.238  11.463
30091SOL    HW290298   3.723  12.163  11.504
30092SOL     OW90299   5.816   0.628   0.113
30092SOL    HW190300   5.723   0.626   0.150
30092SOL    HW290301   5.817   0.589   0.021
30093SOL     OW90302   5.811   0.275   0.996
30093SOL    HW190303   5.846   0.258   1.088
30093SOL    HW290304   5.723   0.230   0.984
30094SOL     OW90305   5.605   0.368   0.647
30094SOL    HW190306   5.523   0.411   0.686
30094SOL    HW290307   5.577   0.295   0.584
30095SOL     OW90308   6.155   1.275   1.165
30095SOL    HW190309   6.062   1.268   1.128
30095SOL    HW290310   6.166   1.364   1.209
30096SOL     OW90311   7.141   1.511   0.703
30096SOL    HW190312   7.084   1.495   0.784
30096SOL    HW290313   7.082   1.521   0.623
30097SOL     OW90314   6.721   0.703   0.717
30097SOL    HW190315   6.778   0.781   0.692
30097SOL    HW290316   6.661   0.729   0.793
30098SOL     OW90317   7.341   0.607   0.231
30098SOL    HW190318   7.329   0.594   0.132
30098SOL    HW290319   7.311   0.526   0.280
30099SOL     OW90320   6.354   1.144   1.023
30099SOL    HW190321   6.276   1.161   1.083
30099SOL    HW290322   6.388   1.231   0.987
30100SOL     OW90323   6.436   0.798   1.823
30100SOL    HW190324   6.432   0.874   1.888
30100SOL    HW290325   6.458   0.834   1.732
30101SOL     OW90326   6.271   1.012   0.665
30101SOL    HW190327   6.340   0.996   0.735
30101SOL    HW290328   6.198   1.069   0.703
30102SOL     OW90329   6.272   1.161   1.803
30102SOL    HW190330   6.332   1.240   1.817
30102SOL    HW290331   6.186   1.192   1.762
30103SOL     OW90332   5.921   1.435   1.061
30103SOL    HW190333   5.843   1.404   1.008
30103SOL    HW290334   5.979   1.493   1.004
30104SOL     OW90335   7.046   1.505   1.339
30104SOL    HW190336   7.070   1.599   1.365
30104SOL    HW290337   7.030   1.451   1.421
30105SOL     OW90338   6.024   0.392   1.499
30105SOL    HW190339   6.106   0.336   1.508
30105SOL    HW290340   5.943   0.334   1.503
30106SOL     OW90341   7.189   0.447   0.737
30106SOL    HW190342   7.115   0.493   0.687
30106SOL    HW290343   7.240   0.515   0.790
30107SOL     OW90344   5.817   1.713   0.483
30107SOL    HW190345   5.851   1.790   0.537
30107SOL    HW290346   5.861   1.713   0.393
30108SOL     OW90347   6.713   1.341   1.690
30108SOL    HW190348   6.760   1.341   1.778
30108SOL    HW290349   6.665   1.254   1.679
30109SOL     OW90350   5.816   1.434   0.538
30109SOL    HW190351   5.790   1.530   0.538
30109SOL    HW290352   5.745   1.380   0.583
30110SOL     OW90353   5.826   1.091   0.886
30110SOL    HW190354   5.840   1.007   0.938
30110SOL    HW290355   5.771   1.155   0.941
30111SOL     OW90356   6.206   1.786   1.439
30111SOL    HW190357   6.114   1.769   1.474
30111SOL    HW290358   6.234   1.878   1.465
30112SOL     OW90359   6.192   0.964   0.123
30112SOL    HW190360   6.199   1.048   0.069
30112SOL    HW290361   6.238   0.977   0.211
30113SOL     OW90362   7.180   0.114   1.480
30113SOL    HW190363   7.162   0.181   1.408
30113SOL    HW290364   7.177   0.160   1.569
30114SOL     OW90365   5.708   0.643   0.563
30114SOL    HW190366   5.663   0.555   0.580
30114SOL    HW290367   5.707   0.697   0.647
30115SOL     OW90368   7.428   1.767   0.359
30115SOL    HW190369   7.482   1.738   0.439
30115SOL    HW290370   7.458   1.857   0.330
30116SOL     OW90371   5.613   1.596   0.117
30116SOL    HW190372   5.594   1.500   0.138
30116SOL    HW290373   5.580   1.654   0.192
30117SOL     OW90374   7.275   0.922   0.612
30117SOL    HW190375   7.370   0.893   0.620
30117SOL    HW290376   7.267   0.987   0.537
30118SOL     OW90377   7.227   1.108   0.432
30118SOL    HW190378   7.313   1.110   0.380
30118SOL    HW290379   7.241   1.155   0.520
30119SOL     OW90380   5.699   0.737   1.597
30119SOL    HW190381   5.787   0.724   1.642
30119SOL    HW290382   5.686   0.834   1.575
30120SOL     OW90383   6.199   1.365   0.726
30120SOL    HW190384   6.150   1.278   0.735
30120SOL    HW290385   6.176   1.408   0.639
30121SOL     OW90386   6.879   1.228   1.423
30121SOL    HW190387   6.916   1.155   1.365
30121SOL    HW290388   6.931   1.233   1.508
30122SOL     OW90389   6.395   0.004   0.502
30122SOL    HW190390   6.435   0.095   0.493
30122SOL    HW290391   6.295   0.012   0.508
30123SOL     OW90392   5.783   0.976   1.264
30123SOL    HW190393   5.872   0.931   1.250
30123SOL    HW290394   5.710   0.911   1.245
30124SOL     OW90395   7.111   0.999   0.190
30124SOL    HW190396   7.048   0.923   0.203
30124SOL    HW290397   7.159   1.017   0.276
30125SOL     OW90398   6.773   1.792   1.616
30125SOL    HW190399   6.797   1.852   1.540
30125SOL    HW290400   6.780   1.697   1.586
30126SOL     OW90401   5.903   0.251   1.801
30126SOL    HW190402   5.974   0.322   1.807
30126SOL    HW290403   5.815   0.290   1.829
30127SOL     OW90404   7.052   1.417   0.953
30127SOL    HW190405   6.993   1.423   1.033
30127SOL    HW290406   7.037   1.329   0.907
30128SOL     OW90407   7.253   1.714   0.572
30128SOL    HW190408   7.212   1.691   0.484
30128SOL    HW290409   7.235   1.640   0.637
30129SOL     OW90410   6.184   0.729   0.270
30129SOL    HW190411   6.208   0.798   0.202
30129SOL    HW290412   6.106   0.762   0.324
30130SOL     OW90413   6.867   0.345   0.944
30130SOL    HW190414   6.781   0.295   0.931
30130SOL    HW290415   6.929   0.291   1.000
30131SOL     OW90416   7.162   1.662   0.307
30131SOL    HW190417   7.251   1.708   0.310
30131SOL    HW290418   7.141   1.638   0.212
30132SOL     OW90419   6.393   0.605   1.465
30132SOL    HW190420   6.346   0.602   1.554
30132SOL    HW290421   6.342   0.550   1.399
30133SOL     OW90422   6.980   0.469   1.674
30133SOL    HW190423   6.960   0.512   1.762
30133SOL    HW290424   7.058   0.407   1.683
30134SOL     OW90425   6.559   0.890   1.572
30134SOL    HW190426   6.605   0.806   1.543
30134SOL    HW290427   6.503   0.924   1.497
30135SOL     OW90428   6.577   0.410   1.242
30135SOL    HW190429   6.500   0.444   1.296
30135SOL    HW290430   6.543   0.359   1.163
30136SOL     OW90431   6.627   0.701   0.429
30136SOL    HW190432   6.653   0.697   0.525
30136SOL    HW290433   6.542   0.650   0.415
30137SOL     OW90434   5.662   0.811   0.789
30137SOL    HW190435   5.761   0.799   0.798
30137SOL    HW290436   5.638   0.906   0.810
30138SOL     OW90437   5.716   1.821   1.571
30138SOL    HW190438   5.706   1.806   1.670
30138SOL    HW290439   5.630   1.857   1.535
30139SOL     OW90440   6.451   0.348   0.195
30139SOL    HW190441   6.510   0.411   0.146
30139SOL    HW290442   6.470   0.254   0.166
30140SOL     OW90443   7.305   0.585   1.831
30140SOL    HW190444   7.279   0.674   1.795
30140SOL    HW290445   7.303   0.517   1.758
30141SOL     OW90446   6.948   1.144   0.545
30141SOL    HW190447   7.031   1.115   0.497
30141SOL    HW290448   6.899   1.211   0.489
30142SOL     OW90449   6.136   0.196   0.885
30142SOL    HW190450   6.131   0.191   0.985
30142SOL    HW290451   6.138   0.292   0.856
30143SOL     OW90452   6.594   1.456   0.477
30143SOL    HW190453   6.548   1.528   0.425
30143SOL    HW290454   6.590   1.476   0.575
30144SOL     OW90455   5.937   1.801   0.853
30144SOL    HW190456   5.987   1.715   0.859
30144SOL    HW290457   6.002   1.878   0.850
30145SOL     OW90458   7.381   1.066   0.873
30145SOL    HW190459   7.319   1.051   0.797
30145SOL    HW290460   7.329   1.077   0.958
30146SOL     OW90461   6.813   1.550   1.506
30146SOL    HW190462   6.819   1.473   1.570
30146SOL    HW290463   6.761   1.524   1.426
30147SOL     OW90464   5.907   0.943   0.242
30147SOL    HW190465   5.989   0.982   0.200
30147SOL    HW290466   5.880   0.861   0.193
30148SOL     OW90467   7.044   0.735   0.728
30148SOL    HW190468   7.039   0.670   0.803
30148SOL    HW290469   7.124   0.794   0.741
30149SOL     OW90470   6.047   1.266   1.727
30149SOL    HW190471   5.997   1.267   1.641
30149SOL    HW290472   5.984   1.248   1.803
30150SOL     OW90473   6.697   1.776   0.237
30150SOL    HW190474   6.637   1.714   0.287
30150SOL    HW290475   6.728   1.732   0.152
30151SOL     OW90476   5.788   0.285   1.498
30151SOL    HW190477   5.708   0.345   1.485
30151SOL    HW290478   5.778   0.236   1.584
30152SOL     OW90479   7.218   1.377   0.081
30152SOL    HW190480   7.186   1.471   0.071
30152SOL    HW290481   7.142   1.314   0.069
30153SOL     OW90482   6.050   1.743   0.323
30153SOL    HW190483   6.083   1.782   0.409
30153SOL    HW290484   6.126   1.736   0.258
30154SOL     OW90485   6.986   0.107   0.426
30154SOL    HW190486   6.962   0.070   0.336
30154SOL    HW290487   7.085   0.123   0.430
30155SOL     OW90488   5.835   1.785   1.241
30155SOL    HW190489   5.892   1.720   1.291
30155SOL    HW290490   5.819   1.752   1.148
30156SOL     OW90491   6.526   1.698   0.904
30156SOL    HW190492   6.606   1.641   0.925
30156SOL    HW290493   6.477   1.658   0.827
30157SOL     OW90494   5.968   0.700   0.480
30157SOL    HW190495   6.013   0.610   0.477
30157SOL    HW290496   5.874   0.689   0.513
30158SOL     OW90497   7.133   0.222   1.729
30158SOL    HW190498   7.128   0.259   1.821
30158SOL    HW290499   7.061   0.153   1.717
30159SOL     OW90500   6.200   0.122   0.117
30159SOL    HW190501   6.298   0.100   0.124
30159SOL    HW290502   6.169   0.105   0.024
30160SOL     OW90503   6.367   0.264   1.749
30160SOL    HW190504   6.434   0.203   1.792
30160SOL    HW290505   6.294   0.283   1.814
30161SOL     OW90506   6.474   1.514   1.195
30161SOL    HW190507   6.451   1.489   1.101
30161SOL    HW290508   6.535   1.445   1.234
30162SOL     OW90509   6.937   0.590   1.433
30162SOL    HW190510   6.965   0.547   1.518
30162SOL    HW290511   6.962   0.686   1.434
30163SOL     OW90512   6.389   1.402   0.924
30163SOL    HW190513   6.479   1.416   0.882
30163SOL    HW290514   6.318   1.404   0.853
30164SOL     OW90515   6.508   0.503   0.899
30164SOL    HW190516   6.483   0.494   0.803
30164SOL    HW290517   6.556   0.421   0.930
30165SOL     OW90518   6.125   0.064   0.512
30165SOL    HW190519   6.044   0.065   0.570
30165SOL    HW290520   6.128   0.147   0.457
30166SOL     OW90521   7.020   1.188   0.041
30166SOL    HW190522   7.052   1.112   0.098
30166SOL    HW290523   6.928   1.215   0.071
30167SOL     OW90524   5.883   0.035   0.171
30167SOL    HW190525   5.932   0.119   0.150
30167SOL    HW290526   5.945  -0.030   0.216
30168SOL     OW90527   6.521   0.236   0.480
30168SOL    HW190528   6.473   0.277   0.402
30168SOL    HW290529   6.620   0.234   0.461
30169SOL     OW90530   6.662   0.683   1.464
30169SOL    HW190531   6.582   0.622   1.467
30169SOL    HW290532   6.743   0.630   1.440
30170SOL     OW90533   6.813   1.570   0.793
30170SOL    HW190534   6.834   1.644   0.728
30170SOL    HW290535   6.881   1.570   0.866
30171SOL     OW90536   6.045   1.152   0.741
30171SOL    HW190537   5.974   1.125   0.806
30171SOL    HW290538   6.019   1.124   0.648
30172SOL     OW90539   6.857   1.797   0.591
30172SOL    HW190540   6.901   1.861   0.527
30172SOL    HW290541   6.807   1.849   0.661
30173SOL     OW90542   6.618   0.549   0.016
30173SOL    HW190543   6.577   0.631  -0.023
30173SOL    HW290544   6.682   0.575   0.089
30174SOL     OW90545   5.664   0.556   1.386
30174SOL    HW190546   5.756   0.555   1.345
30174SOL    HW290547   5.658   0.630   1.453
30175SOL     OW90548   6.147   0.222   1.147
30175SOL    HW190549   6.185   0.138   1.184
30175SOL    HW290550   6.059   0.241   1.191
30176SOL     OW90551   6.452   0.454   0.642
30176SOL    HW190552   6.420   0.526   0.580
30176SOL    HW290553   6.476   0.373   0.589
30177SOL     OW90554   6.603   0.039   0.753
30177SOL    HW190555   6.531   0.044   0.684
30177SOL    HW290556   6.579  -0.030   0.822
30178SOL     OW90557   7.015   1.173   0.867
30178SOL    HW190558   6.960   1.089   0.860
30178SOL    HW290559   7.041   1.202   0.775
30179SOL     OW90560   7.052   0.590   0.992
30179SOL    HW190561   7.022   0.495   0.999
30179SOL    HW290562   7.125   0.606   1.058
30180SOL     OW90563   7.443   0.833   0.377
30180SOL    HW190564   7.485   0.769   0.441
30180SOL    HW290565   7.405   0.782   0.299
30181SOL     OW90566   6.074   1.385   0.174
30181SOL    HW190567   5.987   1.370   0.221
30181SOL    HW290568   6.057   1.411   0.079
30182SOL     OW90569   7.250   1.280   0.657
30182SOL    HW190570   7.349   1.288   0.671
30182SOL    HW290571   7.205   1.364   0.688
30183SOL     OW90572   6.976   0.575   0.078
30183SOL    HW190573   6.922   0.554   0.159
30183SOL    HW290574   7.067   0.534   0.087
30184SOL     OW90575   6.113   0.256   0.328
30184SOL    HW190576   6.140   0.197   0.253
30184SOL    HW290577   6.113   0.351   0.297
30185SOL     OW90578   7.340   1.223   1.588
30185SOL    HW190579   7.431   1.184   1.575
30185SOL    HW290580   7.348   1.319   1.612
30186SOL     OW90581   6.650   1.347   1.340
30186SOL    HW190582   6.570   1.324   1.395
30186SOL    HW290583   6.733   1.321   1.389
30187SOL     OW90584   7.178   1.629   1.625
30187SOL    HW190585   7.205   1.663   1.535
30187SOL    HW290586   7.257   1.591   1.671
30188SOL     OW90587   6.697   1.195   1.100
30188SOL    HW190588   6.657   1.239   1.181
30188SOL    HW290589   6.656   1.232   1.017
30189SOL     OW90590   7.224   1.099   1.079
30189SOL    HW190591   7.229   1.180   1.138
30189SOL    HW290592   7.138   1.101   1.028
30190SOL     OW90593   6.501   0.089   1.402
30190SOL    HW190594   6.526   0.069   1.307
30190SOL    HW290595   6.573   0.145   1.444
30191SOL     OW90596   6.566   1.116   1.719
30191SOL    HW190597   6.467   1.122   1.729
30191SOL    HW290598   6.589   1.036   1.663
30192SOL     OW90599   6.291   1.050   0.368
30192SOL    HW190600   6.277   1.057   0.467
30192SOL    HW290601   6.375   0.999   0.350
30193SOL     OW90602   5.996   0.813   1.251
30193SOL    HW190603   6.082   0.825   1.301
30193SOL    HW290604   5.954   0.726   1.278
30194SOL     OW90605   6.860   0.386   1.262
30194SOL    HW190606   6.881   0.460   1.326
30194SOL    HW290607   6.771   0.403   1.219
30195SOL     OW90608   5.650   1.564   1.331
30195SOL    HW190609   5.604   1.646   1.297
30195SOL    HW290610   5.748   1.583   1.340
30196SOL     OW90611   5.953   1.100   0.501
30196SOL    HW190612   5.946   1.183   0.445
30196SOL    HW290613   5.957   1.020   0.441
30197SOL     OW90614   6.152   0.537   0.865
30197SOL    HW190615   6.164   0.603   0.791
30197SOL    HW290616   6.198   0.571   0.948
30198SOL     OW90617   6.838   1.348   0.388
30198SOL    HW190618   6.888   1.425   0.428
30198SOL    HW290619   6.743   1.350   0.420
30199SOL     OW90620   6.858   1.445   1.142
30199SOL    HW190621   6.905   1.458   1.229
30199SOL    HW290622   6.792   1.371   1.151
30200SOL     OW90623   7.168   0.639   0.472
30200SOL    HW190624   7.137   0.700   0.545
30200SOL    HW290625   7.218   0.691   0.403
30201SOL     OW90626   5.940   1.510   1.329
30201SOL    HW190627   5.919   1.466   1.242
30201SOL    HW290628   6.037   1.536   1.332
30202SOL     OW90629   5.988   0.751   1.598
30202SOL    HW190630   6.056   0.806   1.551
30202SOL    HW290631   6.028   0.663   1.625
30203SOL     OW90632   7.173   0.779   1.670
30203SOL    HW190633   7.081   0.817   1.665
30203SOL    HW290634   7.233   0.826   1.605
30204SOL     OW90635   6.599   0.105   1.770
30204SOL    HW190636   6.605   0.190   1.718
30204SOL    HW290637   6.631   0.029   1.713
30205SOL     OW90638   6.090   0.050   1.740
30205SOL    HW190639   6.048  -0.007   1.670
30205SOL    HW290640   6.024   0.119   1.772
30206SOL     OW90641   6.159   0.870   1.029
30206SOL    HW190642   6.203   0.959   1.020
30206SOL    HW290643   6.096   0.870   1.106
30207SOL     OW90644   6.946   0.862   1.045
30207SOL    HW190645   6.871   0.862   0.979
30207SOL    HW290646   6.983   0.770   1.054
30208SOL     OW90647   6.795   0.525   0.275
30208SOL    HW190648   6.808   0.441   0.329
30208SOL    HW290649   6.766   0.599   0.335
30209SOL     OW90650   5.893   0.213   1.231
30209SOL    HW190651   5.870   0.250   1.321
30209SOL    HW290652   5.863   0.118   1.225
30210SOL     OW90653   5.623   1.310   1.282
30210SOL    HW190654   5.676   1.261   1.350
30210SOL    HW290655   5.645   1.408   1.287
30211SOL     OW90656   6.318   0.634   1.064
30211SOL    HW190657   6.377   0.608   0.988
30211SOL    HW290658   6.290   0.730   1.053
30212SOL     OW90659   7.314   0.935   1.854
30212SOL    HW190660   7.268   0.928   1.765
30212SOL    HW290661   7.252   0.979   1.920
30213SOL     OW90662   5.893   0.063   0.618
30213SOL    HW190663   5.882   0.157   0.651
30213SOL    HW290664   5.888   0.000   0.695
30214SOL     OW90665   7.208   0.367   0.374
30214SOL    HW190666   7.210   0.291   0.438
30214SOL    HW290667   7.160   0.444   0.414
30215SOL     OW90668   6.609   0.766   0.966
30215SOL    HW190669   6.624   0.787   1.062
30215SOL    HW290670   6.579   0.671   0.957
30216SOL     OW90671   6.566   1.573   1.700
30216SOL    HW190672   6.546   1.617   1.612
30216SOL    HW290673   6.605   1.482   1.684
30217SOL     OW90674   7.445   1.518   1.605
30217SOL    HW190675   7.459   1.545   1.510
30217SOL    HW290676   7.528   1.540   1.658
30218SOL     OW90677   5.936   0.898   1.804
30218SOL    HW190678   6.012   0.942   1.852
30218SOL    HW290679   5.971   0.851   1.722
30219SOL     OW90680   7.126   0.274   0.125
30219SOL    HW190681   7.065   0.199   0.148
30219SOL    HW290682   7.148   0.326   0.208
30220SOL     OW90683   6.889   0.838   0.042
30220SOL    HW190684   6.923   0.745   0.057
30220SOL    HW290685   6.907   0.865  -0.053
30221SOL     OW90686   6.654   1.333   0.849
30221SOL    HW190687   6.661   1.249   0.794
30221SOL    HW290688   6.716   1.402   0.813
30222SOL     OW90689   5.905   0.810   0.949
30222SOL    HW190690   5.998   0.846   0.954
30222SOL    HW290691   5.899   0.725   1.001
30223SOL     OW90692   5.925   0.509   1.006
30223SOL    HW190693   5.873   0.426   0.989
30223SOL    HW290694   6.002   0.514   0.942
30224SOL     OW90695   6.724   0.380   1.678
30224SOL    HW190696   6.679   0.443   1.742
30224SOL    HW290697   6.817   0.411   1.661
30225SOL     OW90698   6.746   0.207   1.477
30225SOL    HW190699   6.746   0.271   1.554
30225SOL    HW290700   6.774   0.255   1.394
30226SOL     OW90701   5.594   1.326   0.200
30226SOL    HW190702   5.501   1.347   0.169
30226SOL    HW290703   5.604   1.227   0.213
30227SOL     OW90704   5.674   1.801   0.927
30227SOL    HW190705   5.632   1.715   0.900
30227SOL    HW290706   5.768   1.804   0.893
30228SOL     OW90707   6.090   1.568   0.910
30228SOL    HW190708   6.156   1.642   0.919
30228SOL    HW290709   6.134   1.489   0.868
30229SOL     OW90710   6.588   0.796   1.238
30229SOL    HW190711   6.629   0.764   1.324
30229SOL    HW290712   6.492   0.769   1.235
30230SOL     OW90713   5.626   0.544   1.114
30230SOL    HW190714   5.711   0.511   1.073
30230SOL    HW290715   5.639   0.559   1.212
30231SOL     OW90716   5.775   0.520   1.722
30231SOL    HW190717   5.834   0.480   1.652
30231SOL    HW290718   5.717   0.591   1.681
30232SOL     OW90719   6.955   0.950   1.660
30232SOL    HW190720   6.994   1.039   1.680
30232SOL    HW290721   6.965   0.930   1.563
30233SOL     OW90722   6.401   0.572   0.325
30233SOL    HW190723   6.408   0.483   0.279
30233SOL    HW290724   6.307   0.606   0.317
30234SOL     OW90725   7.243   0.604   1.206
30234SOL    HW190726   7.205   0.535   1.268
30234SOL    HW290727   7.325   0.568   1.162
30235SOL     OW90728   5.838   1.564   1.744
30235SOL    HW190729   5.808   1.621   1.820
30235SOL    HW290730   5.831   1.467   1.770
30236SOL     OW90731   6.257   0.464   1.269
30236SOL    HW190732   6.223   0.375   1.239
30236SOL    HW290733   6.283   0.518   1.189
30237SOL     OW90734   6.516   1.678   1.465
30237SOL    HW190735   6.492   1.660   1.370
30237SOL    HW290736   6.546   1.772   1.475
30238SOL     OW90737   6.059   0.500   0.191
30238SOL    HW190738   6.120   0.580   0.195
30238SOL    HW290739   5.964   0.531   0.198
30239SOL     OW90740   5.745   1.137   1.466
30239SOL    HW190741   5.767   1.076   1.542
30239SOL    HW290742   5.755   1.088   1.380
30240SOL     OW90743   6.933   1.059   1.234
30240SOL    HW190744   6.957   0.996   1.160
30240SOL    HW290745   6.843   1.099   1.216
30241SOL     OW90746   6.888   0.855   0.309
30241SOL    HW190747   6.802   0.824   0.351
30241SOL    HW290748   6.884   0.841   0.210
30242SOL     OW90749   7.345   1.747   1.154
30242SOL    HW190750   7.406   1.777   1.081
30242SOL    HW290751   7.307   1.658   1.132
30243SOL     OW90752   6.838   1.731   1.128
30243SOL    HW190753   6.922   1.736   1.074
30243SOL    HW290754   6.815   1.635   1.146
30244SOL     OW90755   5.669   1.258   1.022
30244SOL    HW190756   5.664   1.257   1.122
30244SOL    HW290757   5.586   1.217   0.984
30245SOL     OW90758   6.274   1.662   1.716
30245SOL    HW190759   6.218   1.743   1.725
30245SOL    HW290760   6.326   1.666   1.630
30246SOL     OW90761   6.489   0.086   0.133
30246SOL    HW190762   6.540   0.087   0.047
30246SOL    HW290763   6.545   0.044   0.204
30247SOL     OW90764   7.312   0.135   0.523
30247SOL    HW190765   7.385   0.118   0.456
30247SOL    HW290766   7.281   0.048   0.561
30248SOL     OW90767   6.974   1.573   0.477
30248SOL    HW190768   7.041   1.585   0.403
30248SOL    HW290769   6.934   1.662   0.500
30249SOL     OW90770   5.716   1.794   1.851
30249SOL    HW190771   5.675   1.720   1.904
30249SOL    HW290772   5.780   1.845   1.909
30250SOL     OW90773   6.866   0.927   0.672
30250SOL    HW190774   6.926   0.846   0.674
30250SOL    HW290775   6.906   0.996   0.612
30251SOL     OW90776   6.416   1.273   1.422
30251SOL    HW190777   6.411   1.306   1.517
30251SOL    HW290778   6.330   1.292   1.376
30252SOL     OW90779   6.258   1.616   0.154
30252SOL    HW190780   6.267   1.626   0.055
30252SOL    HW290781   6.218   1.527   0.175
30253SOL     OW90782   7.236   1.720   1.394
30253SOL    HW190783   7.289   1.730   1.310
30253SOL    HW290784   7.209   1.810   1.428
30254SOL     OW90785   7.427   0.175   0.963
30254SOL    HW190786   7.466   0.090   0.927
30254SOL    HW290787   7.329   0.177   0.944
30255SOL     OW90788   5.849   0.326   0.720
30255SOL    HW190789   5.770   0.377   0.686
30255SOL    HW290790   5.840   0.311   0.818
30256SOL     OW90791   6.780   1.612   0.031
30256SOL    HW190792   6.786   1.519   0.068
30256SOL    HW290793   6.721   1.612  -0.049
30257SOL     OW90794   6.408   1.002   1.372
30257SOL    HW190795   6.448   1.001   1.280
30257SOL    HW290796   6.418   1.094   1.412
30258SOL     OW90797   6.502   0.910   0.291
30258SOL    HW190798   6.565   0.948   0.223
30258SOL    HW290799   6.542   0.827   0.330
30259SOL     OW90800   7.090   1.607   0.044
30259SOL    HW190801   6.998   1.644   0.051
30259SOL    HW290802   7.128   1.627  -0.046
30260SOL     OW90803   5.958   1.288   1.490
30260SOL    HW190804   5.945   1.381   1.456
30260SOL    HW290805   5.874   1.236   1.477
30261SOL     OW90806   7.200   1.292   1.289
30261SOL    HW190807   7.260   1.295   1.369
30261SOL    HW290808   7.125   1.356   1.302
30262SOL     OW90809   6.625   1.098   0.696
30262SOL    HW190810   6.555   1.051   0.750
30262SOL    HW290811   6.684   1.030   0.653
30263SOL     OW90812   6.600   0.236   0.971
30263SOL    HW190813   6.592   0.200   0.878
30263SOL    HW290814   6.598   0.160   1.036
30264SOL     OW90815   6.176   1.487   0.491
30264SOL    HW190816   6.218   1.429   0.421
30264SOL    HW290817   6.132   1.566   0.447
30265SOL     OW90818   7.295   0.385   1.381
30265SOL    HW190819   7.368   0.454   1.385
30265SOL    HW290820   7.323   0.310   1.322
30266SOL     OW90821   5.841   1.348   0.290
30266SOL    HW190822   5.745   1.349   0.263
30266SOL    HW290823   5.853   1.401   0.374
30267SOL     OW90824   5.691   1.013   1.726
30267SOL    HW190825   5.614   0.980   1.780
30267SOL    HW290826   5.776   0.983   1.768
30268SOL     OW90827   6.258   0.203   1.489
30268SOL    HW190828   6.348   0.187   1.449
30268SOL    HW290829   6.266   0.208   1.588
30269SOL     OW90830   7.026   0.856   1.398
30269SOL    HW190831   6.969   0.908   1.335
30269SOL    HW290832   7.122   0.868   1.374
30270SOL     OW90833   5.658   0.166   0.318
30270SOL    HW190834   5.641   0.249   0.264
30270SOL    HW290835   5.748   0.129   0.296
30271SOL     OW90836   6.769   1.335   0.119
30271SOL    HW190837   6.670   1.324   0.121
30271SOL    HW290838   6.803   1.350   0.212
30272SOL     OW90839   6.199   0.842   1.431
30272SOL    HW190840   6.255   0.923   1.414
30272SOL    HW290841   6.258   0.762   1.434
30273SOL     OW90842   7.079   1.767   0.959
30273SOL    HW190843   7.112   1.831   0.890
30273SOL    HW290844   7.145   1.761   1.034
30274SOL     OW90845   6.302   0.565   1.708
30274SOL    HW190846   6.321   0.630   1.782
30274SOL    HW290847   6.362   0.485   1.717
30275SOL     OW90848   7.036   1.220   1.633
30275SOL    HW190849   7.027   1.210   1.732
30275SOL    HW290850   7.132   1.213   1.607
30276SOL     OW90851   5.976   1.741   1.560
30276SOL    HW190852   5.885   1.782   1.558
30276SOL    HW290853   5.969   1.647   1.592
30277SOL     OW90854   7.260   0.883   1.254
30277SOL    HW190855   7.233   0.794   1.217
30277SOL    HW290856   7.261   0.951   1.181
30278SOL     OW90857   6.811   0.325   0.449
30278SOL    HW190858   6.876   0.251   0.438
30278SOL    HW290859   6.831   0.375   0.533
30279SOL     OW90860   6.180   0.745   0.652
30279SOL    HW190861   6.230   0.830   0.633
30279SOL    HW290862   6.092   0.747   0.604
30280SOL     OW90863   7.363   0.342   1.642
30280SOL    HW190864   7.346   0.373   1.548
30280SOL    HW290865   7.279   0.305   1.680
30281SOL     OW90866   7.316   0.934   1.517
30281SOL    HW190867   7.354   1.025   1.532
30281SOL    HW290868   7.308   0.917   1.418
30282SOL     OW90869   6.445   1.374   0.016
30282SOL    HW190870   6.399   1.389   0.104
30282SOL    HW290871   6.489   1.459  -0.014
30283SOL     OW90872   6.247   1.790   0.953
30283SOL    HW190873   6.201   1.878   0.940
30283SOL    HW290874   6.346   1.802   0.946
30284SOL     OW90875   6.445   0.956   0.861
30284SOL    HW190876   6.499   0.887   0.909
30284SOL    HW290877   6.413   1.025   0.927
30285SOL     OW90878   6.669   0.984   0.087
30285SOL    HW190879   6.646   1.037   0.005
30285SOL    HW290880   6.750   0.928   0.068
30286SOL     OW90881   7.447   1.569   0.851
30286SOL    HW190882   7.376   1.557   0.781
30286SOL    HW290883   7.448   1.490   0.911
30287SOL     OW90884   5.807   1.314   1.844
30287SOL    HW190885   5.742   1.241   1.823
30287SOL    HW290886   5.811   1.328   1.942
30288SOL     OW90887   5.665   1.240   0.653
30288SOL    HW190888   5.664   1.193   0.741
30288SOL    HW290889   5.747   1.212   0.602
30289SOL     OW90890   6.258   1.391   1.624
30289SOL    HW190891   6.180   1.341   1.662
30289SOL    HW290892   6.255   1.486   1.655
30290SOL     OW90893   7.410   0.192   1.227
30290SOL    HW190894   7.406   0.102   1.271
30290SOL    HW290895   7.413   0.181   1.128
30291SOL     OW90896   6.014   0.424   0.520
30291SOL    HW190897   6.044   0.352   0.458
30291SOL    HW290898   5.975   0.384   0.603
30292SOL     OW90899   7.291   1.487   1.104
30292SOL    HW190900   7.198   1.462   1.077
30292SOL    HW290901   7.317   1.437   1.186
30293SOL     OW90902   5.903   0.547   1.280
30293SOL    HW190903   5.941   0.488   1.352
30293SOL    HW290904   5.943   0.521   1.192
30294SOL     OW90905   6.398   1.586   0.687
30294SOL    HW190906   6.430   1.596   0.593
30294SOL    HW290907   6.319   1.524   0.689
30295SOL     OW90908   7.010   0.214   1.112
30295SOL    HW190909   7.062   0.149   1.167
30295SOL    HW290910   6.961   0.277   1.173
30296SOL     OW90911   6.587   0.034   1.154
30296SOL    HW190912   6.524  -0.038   1.123
30296SOL    HW290913   6.680  -0.002   1.154
30297SOL     OW90914   6.356   1.330   0.301
30297SOL    HW190915   6.310   1.243   0.318
30297SOL    HW290916   6.447   1.327   0.342
30298SOL     OW90917   6.204   1.567   1.284
30298SOL    HW190918   6.199   1.649   1.341
30298SOL    HW290919   6.293   1.564   1.239
30299SOL     OW90920   6.938   0.052   0.168
30299SOL    HW190921   6.973   0.011   0.084
30299SOL    HW290922   6.848   0.014   0.188
30300SOL     OW90923   6.886   0.453   0.691
30300SOL    HW190924   6.827   0.533   0.695
30300SOL    HW290925   6.901   0.418   0.784
30301SOL     OW90926   7.179   0.221   0.882
30301SOL    HW190927   7.095   0.220   0.936
30301SOL    HW290928   7.181   0.304   0.826
30302SOL     OW90929   5.625   1.077   0.300
30302SOL    HW190930   5.724   1.066   0.291
30302SOL    HW290931   5.585   0.991   0.332
30303SOL     OW90932   6.461   1.646   0.337
30303SOL    HW190933   6.384   1.611   0.283
30303SOL    HW290934   6.429   1.717   0.399
30304SOL     OW90935   5.816   0.628   1.975
30304SOL    HW190936   5.723   0.626   2.012
30304SOL    HW290937   5.817   0.589   1.883
30305SOL     OW90938   5.811   0.275   2.858
30305SOL    HW190939   5.846   0.258   2.950
30305SOL    HW290940   5.723   0.230   2.846
30306SOL     OW90941   5.605   0.368   2.509
30306SOL    HW190942   5.523   0.411   2.548
30306SOL    HW290943   5.577   0.295   2.446
30307SOL     OW90944   6.155   1.275   3.027
30307SOL    HW190945   6.062   1.268   2.990
30307SOL    HW290946   6.166   1.364   3.071
30308SOL     OW90947   7.141   1.511   2.565
30308SOL    HW190948   7.084   1.495   2.646
30308SOL    HW290949   7.082   1.521   2.485
30309SOL     OW90950   6.721   0.703   2.579
30309SOL    HW190951   6.778   0.781   2.554
30309SOL    HW290952   6.661   0.729   2.655
30310SOL     OW90953   7.341   0.607   2.093
30310SOL    HW190954   7.329   0.594   1.994
30310SOL    HW290955   7.311   0.526   2.142
30311SOL     OW90956   6.354   1.144   2.885
30311SOL    HW190957   6.276   1.161   2.945
30311SOL    HW290958   6.388   1.231   2.849
30312SOL     OW90959   6.436   0.798   3.685
30312SOL    HW190960   6.432   0.874   3.750
30312SOL    HW290961   6.458   0.834   3.594
30313SOL     OW90962   6.271   1.012   2.527
30313SOL    HW190963   6.340   0.996   2.597
30313SOL    HW290964   6.198   1.069   2.565
30314SOL     OW90965   6.272   1.161   3.665
30314SOL    HW190966   6.332   1.240   3.679
30314SOL    HW290967   6.186   1.192   3.624
30315SOL     OW90968   5.921   1.435   2.923
30315SOL    HW190969   5.843   1.404   2.870
30315SOL    HW290970   5.979   1.493   2.866
30316SOL     OW90971   7.046   1.505   3.201
30316SOL    HW190972   7.070   1.599   3.227
30316SOL    HW290973   7.030   1.451   3.283
30317SOL     OW90974   6.024   0.392   3.361
30317SOL    HW190975   6.106   0.336   3.370
30317SOL    HW290976   5.943   0.334   3.365
30318SOL     OW90977   7.189   0.447   2.599
30318SOL    HW190978   7.115   0.493   2.549
30318SOL    HW290979   7.240   0.515   2.652
30319SOL     OW90980   5.817   1.713   2.345
30319SOL    HW190981   5.851   1.790   2.399
30319SOL    HW290982   5.861   1.713   2.255
30320SOL     OW90983   6.713   1.341   3.552
30320SOL    HW190984   6.760   1.341   3.640
30320SOL    HW290985   6.665   1.254   3.541
30321SOL     OW90986   5.816   1.434   2.400
30321SOL    HW190987   5.790   1.530   2.400
30321SOL    HW290988   5.745   1.380   2.445
30322SOL     OW90989   5.826   1.091   2.748
30322SOL    HW190990   5.840   1.007   2.800
30322SOL    HW290991   5.771   1.155   2.803
30323SOL     OW90992   6.206   1.786   3.301
30323SOL    HW190993   6.114   1.769   3.336
30323SOL    HW290994   6.234   1.878   3.327
30324SOL     OW90995   6.192   0.964   1.985
30324SOL    HW190996   6.199   1.048   1.931
30324SOL    HW290997   6.238   0.977   2.073
30325SOL     OW90998   7.180   0.114   3.342
30325SOL    HW190999   7.162   0.181   3.270
30325SOL    HW291000   7.177   0.160   3.431
30326SOL     OW91001   5.708   0.643   2.425
30326SOL    HW191002   5.663   0.555   2.442
30326SOL    HW291003   5.707   0.697   2.509
30327SOL     OW91004   7.428   1.767   2.221
30327SOL    HW191005   7.482   1.738   2.301
30327SOL    HW291006   7.458   1.857   2.192
30328SOL     OW91007   5.613   1.596   1.979
30328SOL    HW191008   5.594   1.500   2.000
30328SOL    HW291009   5.580   1.654   2.054
30329SOL     OW91010   7.275   0.922   2.474
30329SOL    HW191011   7.370   0.893   2.482
30329SOL    HW291012   7.267   0.987   2.399
30330SOL     OW91013   7.227   1.108   2.294
30330SOL    HW191014   7.313   1.110   2.242
30330SOL    HW291015   7.241   1.155   2.382
30331SOL     OW91016   5.699   0.737   3.459
30331SOL    HW191017   5.787   0.724   3.504
30331SOL    HW291018   5.686   0.834   3.437
30332SOL     OW91019   6.199   1.365   2.588
30332SOL    HW191020   6.150   1.278   2.597
30332SOL    HW291021   6.176   1.408   2.501
30333SOL     OW91022   6.879   1.228   3.285
30333SOL    HW191023   6.916   1.155   3.227
30333SOL    HW291024   6.931   1.233   3.370
30334SOL     OW91025   6.395   0.004   2.364
30334SOL    HW191026   6.435   0.095   2.355
30334SOL    HW291027   6.295   0.012   2.370
30335SOL     OW91028   5.783   0.976   3.126
30335SOL    HW191029   5.872   0.931   3.112
30335SOL    HW291030   5.710   0.911   3.107
30336SOL     OW91031   7.111   0.999   2.052
30336SOL    HW191032   7.048   0.923   2.065
30336SOL    HW291033   7.159   1.017   2.138
30337SOL     OW91034   6.773   1.792   3.478
30337SOL    HW191035   6.797   1.852   3.402
30337SOL    HW291036   6.780   1.697   3.448
30338SOL     OW91037   5.903   0.251   3.663
30338SOL    HW191038   5.974   0.322   3.669
30338SOL    HW291039   5.815   0.290   3.691
30339SOL     OW91040   7.052   1.417   2.815
30339SOL    HW191041   6.993   1.423   2.895
30339SOL    HW291042   7.037   1.329   2.769
30340SOL     OW91043   7.253   1.714   2.434
30340SOL    HW191044   7.212   1.691   2.346
30340SOL    HW291045   7.235   1.640   2.499
30341SOL     OW91046   6.184   0.729   2.132
30341SOL    HW191047   6.208   0.798   2.064
30341SOL    HW291048   6.106   0.762   2.186
30342SOL     OW91049   6.867   0.345   2.806
30342SOL    HW191050   6.781   0.295   2.793
30342SOL    HW291051   6.929   0.291   2.862
30343SOL     OW91052   7.162   1.662   2.169
30343SOL    HW191053   7.251   1.708   2.172
30343SOL    HW291054   7.141   1.638   2.074
30344SOL     OW91055   6.393   0.605   3.327
30344SOL    HW191056   6.346   0.602   3.416
30344SOL    HW291057   6.342   0.550   3.261
30345SOL     OW91058   6.980   0.469   3.536
30345SOL    HW191059   6.960   0.512   3.624
30345SOL    HW291060   7.058   0.407   3.545
30346SOL     OW91061   6.559   0.890   3.434
30346SOL    HW191062   6.605   0.806   3.405
30346SOL    HW291063   6.503   0.924   3.359
30347SOL     OW91064   6.577   0.410   3.104
30347SOL    HW191065   6.500   0.444   3.158
30347SOL    HW291066   6.543   0.359   3.025
30348SOL     OW91067   6.627   0.701   2.291
30348SOL    HW191068   6.653   0.697   2.387
30348SOL    HW291069   6.542   0.650   2.277
30349SOL     OW91070   5.662   0.811   2.651
30349SOL    HW191071   5.761   0.799   2.660
30349SOL    HW291072   5.638   0.906   2.672
30350SOL     OW91073   5.716   1.821   3.433
30350SOL    HW191074   5.706   1.806   3.532
30350SOL    HW291075   5.630   1.857   3.397
30351SOL     OW91076   6.451   0.348   2.057
30351SOL    HW191077   6.510   0.411   2.008
30351SOL    HW291078   6.470   0.254   2.028
30352SOL     OW91079   7.305   0.585   3.693
30352SOL    HW191080   7.279   0.674   3.657
30352SOL    HW291081   7.303   0.517   3.620
30353SOL     OW91082   6.948   1.144   2.407
30353SOL    HW191083   7.031   1.115   2.359
30353SOL    HW291084   6.899   1.211   2.351
30354SOL     OW91085   6.136   0.196   2.747
30354SOL    HW191086   6.131   0.191   2.847
30354SOL    HW291087   6.138   0.292   2.718
30355SOL     OW91088   6.594   1.456   2.339
30355SOL    HW191089   6.548   1.528   2.287
30355SOL    HW291090   6.590   1.476   2.437
30356SOL     OW91091   5.937   1.801   2.715
30356SOL    HW191092   5.987   1.715   2.721
30356SOL    HW291093   6.002   1.878   2.712
30357SOL     OW91094   7.381   1.066   2.735
30357SOL    HW191095   7.319   1.051   2.659
30357SOL    HW291096   7.329   1.077   2.820
30358SOL     OW91097   6.813   1.550   3.368
30358SOL    HW191098   6.819   1.473   3.432
30358SOL    HW291099   6.761   1.524   3.288
30359SOL     OW91100   5.907   0.943   2.104
30359SOL    HW191101   5.989   0.982   2.062
30359SOL    HW291102   5.880   0.861   2.055
30360SOL     OW91103   7.044   0.735   2.590
30360SOL    HW191104   7.039   0.670   2.665
30360SOL    HW291105   7.124   0.794   2.603
30361SOL     OW91106   6.047   1.266   3.589
30361SOL    HW191107   5.997   1.267   3.503
30361SOL    HW291108   5.984   1.248   3.665
30362SOL     OW91109   6.697   1.776   2.099
30362SOL    HW191110   6.637   1.714   2.149
30362SOL    HW291111   6.728   1.732   2.014
30363SOL     OW91112   5.788   0.285   3.360
30363SOL    HW191113   5.708   0.345   3.347
30363SOL    HW291114   5.778   0.236   3.446
30364SOL     OW91115   7.218   1.377   1.943
30364SOL    HW191116   7.186   1.471   1.933
30364SOL    HW291117   7.142   1.314   1.931
30365SOL     OW91118   6.050   1.743   2.185
30365SOL    HW191119   6.083   1.782   2.271
30365SOL    HW291120   6.126   1.736   2.120
30366SOL     OW91121   6.986   0.107   2.288
30366SOL    HW191122   6.962   0.070   2.198
30366SOL    HW291123   7.085   0.123   2.292
30367SOL     OW91124   5.835   1.785   3.103
30367SOL    HW191125   5.892   1.720   3.153
30367SOL    HW291126   5.819   1.752   3.010
30368SOL     OW91127   6.526   1.698   2.766
30368SOL    HW191128   6.606   1.641   2.787
30368SOL    HW291129   6.477   1.658   2.689
30369SOL     OW91130   5.968   0.700   2.342
30369SOL    HW191131   6.013   0.610   2.339
30369SOL    HW291132   5.874   0.689   2.375
30370SOL     OW91133   7.133   0.222   3.591
30370SOL    HW191134   7.128   0.259   3.683
30370SOL    HW291135   7.061   0.153   3.579
30371SOL     OW91136   6.200   0.122   1.979
30371SOL    HW191137   6.298   0.100   1.986
30371SOL    HW291138   6.169   0.105   1.886
30372SOL     OW91139   6.367   0.264   3.611
30372SOL    HW191140   6.434   0.203   3.654
30372SOL    HW291141   6.294   0.283   3.676
30373SOL     OW91142   6.474   1.514   3.057
30373SOL    HW191143   6.451   1.489   2.963
30373SOL    HW291144   6.535   1.445   3.096
30374SOL     OW91145   6.937   0.590   3.295
30374SOL    HW191146   6.965   0.547   3.380
30374SOL    HW291147   6.962   0.686   3.296
30375SOL     OW91148   6.389   1.402   2.786
30375SOL    HW191149   6.479   1.416   2.744
30375SOL    HW291150   6.318   1.404   2.715
30376SOL     OW91151   6.508   0.503   2.761
30376SOL    HW191152   6.483   0.494   2.665
30376SOL    HW291153   6.556   0.421   2.792
30377SOL     OW91154   6.125   0.064   2.374
30377SOL    HW191155   6.044   0.065   2.432
30377SOL    HW291156   6.128   0.147   2.319
30378SOL     OW91157   7.020   1.188   1.903
30378SOL    HW191158   7.052   1.112   1.960
30378SOL    HW291159   6.928   1.215   1.933
30379SOL     OW91160   5.883   0.035   2.033
30379SOL    HW191161   5.932   0.119   2.012
30379SOL    HW291162   5.945  -0.030   2.078
30380SOL     OW91163   6.521   0.236   2.342
30380SOL    HW191164   6.473   0.277   2.264
30380SOL    HW291165   6.620   0.234   2.323
30381SOL     OW91166   6.662   0.683   3.326
30381SOL    HW191167   6.582   0.622   3.329
30381SOL    HW291168   6.743   0.630   3.302
30382SOL     OW91169   6.813   1.570   2.655
30382SOL    HW191170   6.834   1.644   2.590
30382SOL    HW291171   6.881   1.570   2.728
30383SOL     OW91172   6.045   1.152   2.603
30383SOL    HW191173   5.974   1.125   2.668
30383SOL    HW291174   6.019   1.124   2.510
30384SOL     OW91175   6.857   1.797   2.453
30384SOL    HW191176   6.901   1.861   2.389
30384SOL    HW291177   6.807   1.849   2.523
30385SOL     OW91178   6.618   0.549   1.878
30385SOL    HW191179   6.577   0.631   1.839
30385SOL    HW291180   6.682   0.575   1.951
30386SOL     OW91181   5.664   0.556   3.248
30386SOL    HW191182   5.756   0.555   3.207
30386SOL    HW291183   5.658   0.630   3.315
30387SOL     OW91184   6.147   0.222   3.009
30387SOL    HW191185   6.185   0.138   3.046
30387SOL    HW291186   6.059   0.241   3.053
30388SOL     OW91187   6.452   0.454   2.504
30388SOL    HW191188   6.420   0.526   2.442
30388SOL    HW291189   6.476   0.373   2.451
30389SOL     OW91190   6.603   0.039   2.615
30389SOL    HW191191   6.531   0.044   2.546
30389SOL    HW291192   6.579  -0.030   2.684
30390SOL     OW91193   7.015   1.173   2.729
30390SOL    HW191194   6.960   1.089   2.722
30390SOL    HW291195   7.041   1.202   2.637
30391SOL     OW91196   7.052   0.590   2.854
30391SOL    HW191197   7.022   0.495   2.861
30391SOL    HW291198   7.125   0.606   2.920
30392SOL     OW91199   7.443   0.833   2.239
30392SOL    HW191200   7.485   0.769   2.303
30392SOL    HW291201   7.405   0.782   2.161
30393SOL     OW91202   6.074   1.385   2.036
30393SOL    HW191203   5.987   1.370   2.083
30393SOL    HW291204   6.057   1.411   1.941
30394SOL     OW91205   7.250   1.280   2.519
30394SOL    HW191206   7.349   1.288   2.533
30394SOL    HW291207   7.205   1.364   2.550
30395SOL     OW91208   6.976   0.575   1.940
30395SOL    HW191209   6.922   0.554   2.021
30395SOL    HW291210   7.067   0.534   1.949
30396SOL     OW91211   6.113   0.256   2.190
30396SOL    HW191212   6.140   0.197   2.115
30396SOL    HW291213   6.113   0.351   2.159
30397SOL     OW91214   7.340   1.223   3.450
30397SOL    HW191215   7.431   1.184   3.437
30397SOL    HW291216   7.348   1.319   3.474
30398SOL     OW91217   6.650   1.347   3.202
30398SOL    HW191218   6.570   1.324   3.257
30398SOL    HW291219   6.733   1.321   3.251
30399SOL     OW91220   7.178   1.629   3.487
30399SOL    HW191221   7.205   1.663   3.397
30399SOL    HW291222   7.257   1.591   3.533
30400SOL     OW91223   6.697   1.195   2.962
30400SOL    HW191224   6.657   1.239   3.043
30400SOL    HW291225   6.656   1.232   2.879
30401SOL     OW91226   7.224   1.099   2.941
30401SOL    HW191227   7.229   1.180   3.000
30401SOL    HW291228   7.138   1.101   2.890
30402SOL     OW91229   6.501   0.089   3.264
30402SOL    HW191230   6.526   0.069   3.169
30402SOL    HW291231   6.573   0.145   3.306
30403SOL     OW91232   6.566   1.116   3.581
30403SOL    HW191233   6.467   1.122   3.591
30403SOL    HW291234   6.589   1.036   3.525
30404SOL     OW91235   6.291   1.050   2.230
30404SOL    HW191236   6.277   1.057   2.329
30404SOL    HW291237   6.375   0.999   2.212
30405SOL     OW91238   5.996   0.813   3.113
30405SOL    HW191239   6.082   0.825   3.163
30405SOL    HW291240   5.954   0.726   3.140
30406SOL     OW91241   6.860   0.386   3.124
30406SOL    HW191242   6.881   0.460   3.188
30406SOL    HW291243   6.771   0.403   3.081
30407SOL     OW91244   5.650   1.564   3.193
30407SOL    HW191245   5.604   1.646   3.159
30407SOL    HW291246   5.748   1.583   3.202
30408SOL     OW91247   5.953   1.100   2.363
30408SOL    HW191248   5.946   1.183   2.307
30408SOL    HW291249   5.957   1.020   2.303
30409SOL     OW91250   6.152   0.537   2.727
30409SOL    HW191251   6.164   0.603   2.653
30409SOL    HW291252   6.198   0.571   2.810
30410SOL     OW91253   6.838   1.348   2.250
30410SOL    HW191254   6.888   1.425   2.290
30410SOL    HW291255   6.743   1.350   2.282
30411SOL     OW91256   6.858   1.445   3.004
30411SOL    HW191257   6.905   1.458   3.091
30411SOL    HW291258   6.792   1.371   3.013
30412SOL     OW91259   7.168   0.639   2.334
30412SOL    HW191260   7.137   0.700   2.407
30412SOL    HW291261   7.218   0.691   2.265
30413SOL     OW91262   5.940   1.510   3.191
30413SOL    HW191263   5.919   1.466   3.104
30413SOL    HW291264   6.037   1.536   3.194
30414SOL     OW91265   5.988   0.751   3.460
30414SOL    HW191266   6.056   0.806   3.413
30414SOL    HW291267   6.028   0.663   3.487
30415SOL     OW91268   7.173   0.779   3.532
30415SOL    HW191269   7.081   0.817   3.527
30415SOL    HW291270   7.233   0.826   3.467
30416SOL     OW91271   6.599   0.105   3.632
30416SOL    HW191272   6.605   0.190   3.580
30416SOL    HW291273   6.631   0.029   3.575
30417SOL     OW91274   6.090   0.050   3.602
30417SOL    HW191275   6.048  -0.007   3.532
30417SOL    HW291276   6.024   0.119   3.634
30418SOL     OW91277   6.159   0.870   2.891
30418SOL    HW191278   6.203   0.959   2.882
30418SOL    HW291279   6.096   0.870   2.968
30419SOL     OW91280   6.946   0.862   2.907
30419SOL    HW191281   6.871   0.862   2.841
30419SOL    HW291282   6.983   0.770   2.916
30420SOL     OW91283   6.795   0.525   2.137
30420SOL    HW191284   6.808   0.441   2.191
30420SOL    HW291285   6.766   0.599   2.197
30421SOL     OW91286   5.893   0.213   3.093
30421SOL    HW191287   5.870   0.250   3.183
30421SOL    HW291288   5.863   0.118   3.087
30422SOL     OW91289   5.623   1.310   3.144
30422SOL    HW191290   5.676   1.261   3.212
30422SOL    HW291291   5.645   1.408   3.149
30423SOL     OW91292   6.318   0.634   2.926
30423SOL    HW191293   6.377   0.608   2.850
30423SOL    HW291294   6.290   0.730   2.915
30424SOL     OW91295   7.314   0.935   3.716
30424SOL    HW191296   7.268   0.928   3.627
30424SOL    HW291297   7.252   0.979   3.782
30425SOL     OW91298   5.893   0.063   2.480
30425SOL    HW191299   5.882   0.157   2.513
30425SOL    HW291300   5.888   0.000   2.557
30426SOL     OW91301   7.208   0.367   2.236
30426SOL    HW191302   7.210   0.291   2.300
30426SOL    HW291303   7.160   0.444   2.276
30427SOL     OW91304   6.609   0.766   2.828
30427SOL    HW191305   6.624   0.787   2.924
30427SOL    HW291306   6.579   0.671   2.819
30428SOL     OW91307   6.566   1.573   3.562
30428SOL    HW191308   6.546   1.617   3.474
30428SOL    HW291309   6.605   1.482   3.546
30429SOL     OW91310   7.445   1.518   3.467
30429SOL    HW191311   7.459   1.545   3.372
30429SOL    HW291312   7.528   1.540   3.520
30430SOL     OW91313   5.936   0.898   3.666
30430SOL    HW191314   6.012   0.942   3.714
30430SOL    HW291315   5.971   0.851   3.584
30431SOL     OW91316   7.126   0.274   1.987
30431SOL    HW191317   7.065   0.199   2.010
30431SOL    HW291318   7.148   0.326   2.070
30432SOL     OW91319   6.889   0.838   1.904
30432SOL    HW191320   6.923   0.745   1.919
30432SOL    HW291321   6.907   0.865   1.809
30433SOL     OW91322   6.654   1.333   2.711
30433SOL    HW191323   6.661   1.249   2.656
30433SOL    HW291324   6.716   1.402   2.675
30434SOL     OW91325   5.905   0.810   2.811
30434SOL    HW191326   5.998   0.846   2.816
30434SOL    HW291327   5.899   0.725   2.863
30435SOL     OW91328   5.925   0.509   2.868
30435SOL    HW191329   5.873   0.426   2.851
30435SOL    HW291330   6.002   0.514   2.804
30436SOL     OW91331   6.724   0.380   3.540
30436SOL    HW191332   6.679   0.443   3.604
30436SOL    HW291333   6.817   0.411   3.523
30437SOL     OW91334   6.746   0.207   3.339
30437SOL    HW191335   6.746   0.271   3.416
30437SOL    HW291336   6.774   0.255   3.256
30438SOL     OW91337   5.594   1.326   2.062
30438SOL    HW191338   5.501   1.347   2.031
30438SOL    HW291339   5.604   1.227   2.075
30439SOL     OW91340   5.674   1.801   2.789
30439SOL    HW191341   5.632   1.715   2.762
30439SOL    HW291342   5.768   1.804   2.755
30440SOL     OW91343   6.090   1.568   2.772
30440SOL    HW191344   6.156   1.642   2.781
30440SOL    HW291345   6.134   1.489   2.730
30441SOL     OW91346   6.588   0.796   3.100
30441SOL    HW191347   6.629   0.764   3.186
30441SOL    HW291348   6.492   0.769   3.097
30442SOL     OW91349   5.626   0.544   2.976
30442SOL    HW191350   5.711   0.511   2.935
30442SOL    HW291351   5.639   0.559   3.074
30443SOL     OW91352   5.775   0.520   3.584
30443SOL    HW191353   5.834   0.480   3.514
30443SOL    HW291354   5.717   0.591   3.543
30444SOL     OW91355   6.955   0.950   3.522
30444SOL    HW191356   6.994   1.039   3.542
30444SOL    HW291357   6.965   0.930   3.425
30445SOL     OW91358   6.401   0.572   2.187
30445SOL    HW191359   6.408   0.483   2.141
30445SOL    HW291360   6.307   0.606   2.179
30446SOL     OW91361   7.243   0.604   3.068
30446SOL    HW191362   7.205   0.535   3.130
30446SOL    HW291363   7.325   0.568   3.024
30447SOL     OW91364   5.838   1.564   3.606
30447SOL    HW191365   5.808   1.621   3.682
30447SOL    HW291366   5.831   1.467   3.632
30448SOL     OW91367   6.257   0.464   3.131
30448SOL    HW191368   6.223   0.375   3.101
30448SOL    HW291369   6.283   0.518   3.051
30449SOL     OW91370   6.516   1.678   3.327
30449SOL    HW191371   6.492   1.660   3.232
30449SOL    HW291372   6.546   1.772   3.337
30450SOL     OW91373   6.059   0.500   2.053
30450SOL    HW191374   6.120   0.580   2.057
30450SOL    HW291375   5.964   0.531   2.060
30451SOL     OW91376   5.745   1.137   3.328
30451SOL    HW191377   5.767   1.076   3.404
30451SOL    HW291378   5.755   1.088   3.242
30452SOL     OW91379   6.933   1.059   3.096
30452SOL    HW191380   6.957   0.996   3.022
30452SOL    HW291381   6.843   1.099   3.078
30453SOL     OW91382   6.888   0.855   2.171
30453SOL    HW191383   6.802   0.824   2.213
30453SOL    HW291384   6.884   0.841   2.072
30454SOL     OW91385   7.345   1.747   3.016
30454SOL    HW191386   7.406   1.777   2.943
30454SOL    HW291387   7.307   1.658   2.994
30455SOL     OW91388   6.838   1.731   2.990
30455SOL    HW191389   6.922   1.736   2.936
30455SOL    HW291390   6.815   1.635   3.008
30456SOL     OW91391   5.669   1.258   2.884
30456SOL    HW191392   5.664   1.257   2.984
30456SOL    HW291393   5.586   1.217   2.846
30457SOL     OW91394   6.274   1.662   3.578
30457SOL    HW191395   6.218   1.743   3.587
30457SOL    HW291396   6.326   1.666   3.492
30458SOL     OW91397   7.312   0.135   2.385
30458SOL    HW191398   7.385   0.118   2.318
30458SOL    HW291399   7.281   0.048   2.423
30459SOL     OW91400   6.974   1.573   2.339
30459SOL    HW191401   7.041   1.585   2.265
30459SOL    HW291402   6.934   1.662   2.362
30460SOL     OW91403   5.716   1.794   3.713
30460SOL    HW191404   5.675   1.720   3.766
30460SOL    HW291405   5.780   1.845   3.771
30461SOL     OW91406   6.866   0.927   2.534
30461SOL    HW191407   6.926   0.846   2.536
30461SOL    HW291408   6.906   0.996   2.474
30462SOL     OW91409   6.416   1.273   3.284
30462SOL    HW191410   6.411   1.306   3.379
30462SOL    HW291411   6.330   1.292   3.238
30463SOL     OW91412   6.258   1.616   2.016
30463SOL    HW191413   6.267   1.626   1.917
30463SOL    HW291414   6.218   1.527   2.037
30464SOL     OW91415   7.236   1.720   3.256
30464SOL    HW191416   7.289   1.730   3.172
30464SOL    HW291417   7.209   1.810   3.290
30465SOL     OW91418   7.427   0.175   2.825
30465SOL    HW191419   7.466   0.090   2.789
30465SOL    HW291420   7.329   0.177   2.806
30466SOL     OW91421   5.849   0.326   2.582
30466SOL    HW191422   5.770   0.377   2.548
30466SOL    HW291423   5.840   0.311   2.680
30467SOL     OW91424   6.780   1.612   1.893
30467SOL    HW191425   6.786   1.519   1.930
30467SOL    HW291426   6.721   1.612   1.813
30468SOL     OW91427   6.408   1.002   3.234
30468SOL    HW191428   6.448   1.001   3.142
30468SOL    HW291429   6.418   1.094   3.274
30469SOL     OW91430   6.502   0.910   2.153
30469SOL    HW191431   6.565   0.948   2.085
30469SOL    HW291432   6.542   0.827   2.192
30470SOL     OW91433   7.090   1.607   1.906
30470SOL    HW191434   6.998   1.644   1.913
30470SOL    HW291435   7.128   1.627   1.816
30471SOL     OW91436   5.958   1.288   3.352
30471SOL    HW191437   5.945   1.381   3.318
30471SOL    HW291438   5.874   1.236   3.339
30472SOL     OW91439   7.200   1.292   3.151
30472SOL    HW191440   7.260   1.295   3.231
30472SOL    HW291441   7.125   1.356   3.164
30473SOL     OW91442   6.625   1.098   2.558
30473SOL    HW191443   6.555   1.051   2.612
30473SOL    HW291444   6.684   1.030   2.515
30474SOL     OW91445   6.600   0.236   2.833
30474SOL    HW191446   6.592   0.200   2.740
30474SOL    HW291447   6.598   0.160   2.898
30475SOL     OW91448   6.176   1.487   2.353
30475SOL    HW191449   6.218   1.429   2.283
30475SOL    HW291450   6.132   1.566   2.309
30476SOL     OW91451   7.295   0.385   3.243
30476SOL    HW191452   7.368   0.454   3.247
30476SOL    HW291453   7.323   0.310   3.184
30477SOL     OW91454   5.841   1.348   2.152
30477SOL    HW191455   5.745   1.349   2.125
30477SOL    HW291456   5.853   1.401   2.236
30478SOL     OW91457   5.691   1.013   3.588
30478SOL    HW191458   5.614   0.980   3.642
30478SOL    HW291459   5.776   0.983   3.630
30479SOL     OW91460   6.258   0.203   3.351
30479SOL    HW191461   6.348   0.187   3.311
30479SOL    HW291462   6.266   0.208   3.450
30480SOL     OW91463   5.661   0.345   1.895
30480SOL    HW191464   5.569   0.317   1.866
30480SOL    HW291465   5.692   0.422   1.839
30481SOL     OW91466   7.026   0.856   3.260
30481SOL    HW191467   6.969   0.908   3.197
30481SOL    HW291468   7.122   0.868   3.236
30482SOL     OW91469   5.658   0.166   2.180
30482SOL    HW191470   5.641   0.249   2.126
30482SOL    HW291471   5.748   0.129   2.158
30483SOL     OW91472   6.769   1.335   1.981
30483SOL    HW191473   6.670   1.324   1.983
30483SOL    HW291474   6.803   1.350   2.074
30484SOL     OW91475   6.199   0.842   3.293
30484SOL    HW191476   6.255   0.923   3.276
30484SOL    HW291477   6.258   0.762   3.296
30485SOL     OW91478   7.079   1.767   2.821
30485SOL    HW191479   7.112   1.831   2.752
30485SOL    HW291480   7.145   1.761   2.896
30486SOL     OW91481   6.302   0.565   3.570
30486SOL    HW191482   6.321   0.630   3.644
30486SOL    HW291483   6.362   0.485   3.579
30487SOL     OW91484   7.036   1.220   3.495
30487SOL    HW191485   7.027   1.210   3.594
30487SOL    HW291486   7.132   1.213   3.469
30488SOL     OW91487   5.976   1.741   3.422
30488SOL    HW191488   5.885   1.782   3.420
30488SOL    HW291489   5.969   1.647   3.454
30489SOL     OW91490   7.260   0.883   3.116
30489SOL    HW191491   7.233   0.794   3.079
30489SOL    HW291492   7.261   0.951   3.043
30490SOL     OW91493   6.811   0.325   2.311
30490SOL    HW191494   6.876   0.251   2.300
30490SOL    HW291495   6.831   0.375   2.395
30491SOL     OW91496   6.180   0.745   2.514
30491SOL    HW191497   6.230   0.830   2.495
30491SOL    HW291498   6.092   0.747   2.466
30492SOL     OW91499   7.363   0.342   3.504
30492SOL    HW191500   7.346   0.373   3.410
30492SOL    HW291501   7.279   0.305   3.542
30493SOL     OW91502   7.316   0.934   3.379
30493SOL    HW191503   7.354   1.025   3.394
30493SOL    HW291504   7.308   0.917   3.280
30494SOL     OW91505   6.445   1.374   1.878
30494SOL    HW191506   6.399   1.389   1.966
30494SOL    HW291507   6.489   1.459   1.848
30495SOL     OW91508   6.247   1.790   2.815
30495SOL    HW191509   6.201   1.878   2.802
30495SOL    HW291510   6.346   1.802   2.808
30496SOL     OW91511   6.445   0.956   2.723
30496SOL    HW191512   6.499   0.887   2.771
30496SOL    HW291513   6.413   1.025   2.789
30497SOL     OW91514   6.669   0.984   1.949
30497SOL    HW191515   6.646   1.037   1.867
30497SOL    HW291516   6.750   0.928   1.930
30498SOL     OW91517   7.447   1.569   2.713
30498SOL    HW191518   7.376   1.557   2.643
30498SOL    HW291519   7.448   1.490   2.773
30499SOL     OW91520   5.807   1.314   3.706
30499SOL    HW191521   5.742   1.241   3.685
30499SOL    HW291522   5.811   1.328   3.804
30500SOL     OW91523   5.665   1.240   2.515
30500SOL    HW191524   5.664   1.193   2.603
30500SOL    HW291525   5.747   1.212   2.464
30501SOL     OW91526   6.258   1.391   3.486
30501SOL    HW191527   6.180   1.341   3.524
30501SOL    HW291528   6.255   1.486   3.517
30502SOL     OW91529   7.410   0.192   3.089
30502SOL    HW191530   7.406   0.102   3.133
30502SOL    HW291531   7.413   0.181   2.990
30503SOL     OW91532   6.014   0.424   2.382
30503SOL    HW191533   6.044   0.352   2.320
30503SOL    HW291534   5.975   0.384   2.465
30504SOL     OW91535   7.291   1.487   2.966
30504SOL    HW191536   7.198   1.462   2.939
30504SOL    HW291537   7.317   1.437   3.048
30505SOL     OW91538   5.903   0.547   3.142
30505SOL    HW191539   5.941   0.488   3.214
30505SOL    HW291540   5.943   0.521   3.054
30506SOL     OW91541   6.398   1.586   2.549
30506SOL    HW191542   6.430   1.596   2.455
30506SOL    HW291543   6.319   1.524   2.551
30507SOL     OW91544   7.010   0.214   2.974
30507SOL    HW191545   7.062   0.149   3.029
30507SOL    HW291546   6.961   0.277   3.035
30508SOL     OW91547   6.587   0.034   3.016
30508SOL    HW191548   6.524  -0.038   2.985
30508SOL    HW291549   6.680  -0.002   3.016
30509SOL     OW91550   6.356   1.330   2.163
30509SOL    HW191551   6.310   1.243   2.180
30509SOL    HW291552   6.447   1.327   2.204
30510SOL     OW91553   6.204   1.567   3.146
30510SOL    HW191554   6.199   1.649   3.203
30510SOL    HW291555   6.293   1.564   3.101
30511SOL     OW91556   6.938   0.052   2.030
30511SOL    HW191557   6.973   0.011   1.946
30511SOL    HW291558   6.848   0.014   2.050
30512SOL     OW91559   6.886   0.453   2.553
30512SOL    HW191560   6.827   0.533   2.557
30512SOL    HW291561   6.901   0.418   2.646
30513SOL     OW91562   7.179   0.221   2.744
30513SOL    HW191563   7.095   0.220   2.798
30513SOL    HW291564   7.181   0.304   2.688
30514SOL     OW91565   5.625   1.077   2.162
30514SOL    HW191566   5.724   1.066   2.153
30514SOL    HW291567   5.585   0.991   2.194
30515SOL     OW91568   6.461   1.646   2.199
30515SOL    HW191569   6.384   1.611   2.145
30515SOL    HW291570   6.429   1.717   2.261
30516SOL     OW91571   5.816   0.628   3.837
30516SOL    HW191572   5.723   0.626   3.874
30516SOL    HW291573   5.817   0.589   3.745
30517SOL     OW91574   5.811   0.275   4.720
30517SOL    HW191575   5.846   0.258   4.812
30517SOL    HW291576   5.723   0.230   4.708
30518SOL     OW91577   5.605   0.368   4.371
30518SOL    HW191578   5.523   0.411   4.410
30518SOL    HW291579   5.577   0.295   4.308
30519SOL     OW91580   6.155   1.275   4.889
30519SOL    HW191581   6.062   1.268   4.852
30519SOL    HW291582   6.166   1.364   4.933
30520SOL     OW91583   7.141   1.511   4.427
30520SOL    HW191584   7.084   1.495   4.508
30520SOL    HW291585   7.082   1.521   4.347
30521SOL     OW91586   6.721   0.703   4.441
30521SOL    HW191587   6.778   0.781   4.416
30521SOL    HW291588   6.661   0.729   4.517
30522SOL     OW91589   7.341   0.607   3.955
30522SOL    HW191590   7.329   0.594   3.856
30522SOL    HW291591   7.311   0.526   4.004
30523SOL     OW91592   6.354   1.144   4.747
30523SOL    HW191593   6.276   1.161   4.807
30523SOL    HW291594   6.388   1.231   4.711
30524SOL     OW91595   6.436   0.798   5.547
30524SOL    HW191596   6.432   0.874   5.612
30524SOL    HW291597   6.458   0.834   5.456
30525SOL     OW91598   6.271   1.012   4.389
30525SOL    HW191599   6.340   0.996   4.459
30525SOL    HW291600   6.198   1.069   4.427
30526SOL     OW91601   6.272   1.161   5.527
30526SOL    HW191602   6.332   1.240   5.541
30526SOL    HW291603   6.186   1.192   5.486
30527SOL     OW91604   5.921   1.435   4.785
30527SOL    HW191605   5.843   1.404   4.732
30527SOL    HW291606   5.979   1.493   4.728
30528SOL     OW91607   7.046   1.505   5.063
30528SOL    HW191608   7.070   1.599   5.089
30528SOL    HW291609   7.030   1.451   5.145
30529SOL     OW91610   6.024   0.392   5.223
30529SOL    HW191611   6.106   0.336   5.232
30529SOL    HW291612   5.943   0.334   5.227
30530SOL     OW91613   7.189   0.447   4.461
30530SOL    HW191614   7.115   0.493   4.411
30530SOL    HW291615   7.240   0.515   4.514
30531SOL     OW91616   5.817   1.713   4.207
30531SOL    HW191617   5.851   1.790   4.261
30531SOL    HW291618   5.861   1.713   4.117
30532SOL     OW91619   6.713   1.341   5.414
30532SOL    HW191620   6.760   1.341   5.502
30532SOL    HW291621   6.665   1.254   5.403
30533SOL     OW91622   5.816   1.434   4.262
30533SOL    HW191623   5.790   1.530   4.262
30533SOL    HW291624   5.745   1.380   4.307
30534SOL     OW91625   5.826   1.091   4.610
30534SOL    HW191626   5.840   1.007   4.662
30534SOL    HW291627   5.771   1.155   4.665
30535SOL     OW91628   6.206   1.786   5.163
30535SOL    HW191629   6.114   1.769   5.198
30535SOL    HW291630   6.234   1.878   5.189
30536SOL     OW91631   6.192   0.964   3.847
30536SOL    HW191632   6.199   1.048   3.793
30536SOL    HW291633   6.238   0.977   3.935
30537SOL     OW91634   7.180   0.114   5.204
30537SOL    HW191635   7.162   0.181   5.132
30537SOL    HW291636   7.177   0.160   5.293
30538SOL     OW91637   5.708   0.643   4.287
30538SOL    HW191638   5.663   0.555   4.304
30538SOL    HW291639   5.707   0.697   4.371
30539SOL     OW91640   7.428   1.767   4.083
30539SOL    HW191641   7.482   1.738   4.163
30539SOL    HW291642   7.458   1.857   4.054
30540SOL     OW91643   5.613   1.596   3.841
30540SOL    HW191644   5.594   1.500   3.862
30540SOL    HW291645   5.580   1.654   3.916
30541SOL     OW91646   7.275   0.922   4.336
30541SOL    HW191647   7.370   0.893   4.344
30541SOL    HW291648   7.267   0.987   4.261
30542SOL     OW91649   7.227   1.108   4.156
30542SOL    HW191650   7.313   1.110   4.104
30542SOL    HW291651   7.241   1.155   4.244
30543SOL     OW91652   5.699   0.737   5.321
30543SOL    HW191653   5.787   0.724   5.366
30543SOL    HW291654   5.686   0.834   5.299
30544SOL     OW91655   6.199   1.365   4.450
30544SOL    HW191656   6.150   1.278   4.459
30544SOL    HW291657   6.176   1.408   4.363
30545SOL     OW91658   6.879   1.228   5.147
30545SOL    HW191659   6.916   1.155   5.089
30545SOL    HW291660   6.931   1.233   5.232
30546SOL     OW91661   6.395   0.004   4.226
30546SOL    HW191662   6.435   0.095   4.217
30546SOL    HW291663   6.295   0.012   4.232
30547SOL     OW91664   5.783   0.976   4.988
30547SOL    HW191665   5.872   0.931   4.974
30547SOL    HW291666   5.710   0.911   4.969
30548SOL     OW91667   7.111   0.999   3.914
30548SOL    HW191668   7.048   0.923   3.927
30548SOL    HW291669   7.159   1.017   4.000
30549SOL     OW91670   6.773   1.792   5.340
30549SOL    HW191671   6.797   1.852   5.264
30549SOL    HW291672   6.780   1.697   5.310
30550SOL     OW91673   5.903   0.251   5.525
30550SOL    HW191674   5.974   0.322   5.531
30550SOL    HW291675   5.815   0.290   5.553
30551SOL     OW91676   7.052   1.417   4.677
30551SOL    HW191677   6.993   1.423   4.757
30551SOL    HW291678   7.037   1.329   4.631
30552SOL     OW91679   7.253   1.714   4.296
30552SOL    HW191680   7.212   1.691   4.208
30552SOL    HW291681   7.235   1.640   4.361
30553SOL     OW91682   6.184   0.729   3.994
30553SOL    HW191683   6.208   0.798   3.926
30553SOL    HW291684   6.106   0.762   4.048
30554SOL     OW91685   6.867   0.345   4.668
30554SOL    HW191686   6.781   0.295   4.655
30554SOL    HW291687   6.929   0.291   4.724
30555SOL     OW91688   7.162   1.662   4.031
30555SOL    HW191689   7.251   1.708   4.034
30555SOL    HW291690   7.141   1.638   3.936
30556SOL     OW91691   6.393   0.605   5.189
30556SOL    HW191692   6.346   0.602   5.278
30556SOL    HW291693   6.342   0.550   5.123
30557SOL     OW91694   6.980   0.469   5.398
30557SOL    HW191695   6.960   0.512   5.486
30557SOL    HW291696   7.058   0.407   5.407
30558SOL     OW91697   6.559   0.890   5.296
30558SOL    HW191698   6.605   0.806   5.267
30558SOL    HW291699   6.503   0.924   5.221
30559SOL     OW91700   6.577   0.410   4.966
30559SOL    HW191701   6.500   0.444   5.020
30559SOL    HW291702   6.543   0.359   4.887
30560SOL     OW91703   6.627   0.701   4.153
30560SOL    HW191704   6.653   0.697   4.249
30560SOL    HW291705   6.542   0.650   4.139
30561SOL     OW91706   5.662   0.811   4.513
30561SOL    HW191707   5.761   0.799   4.522
30561SOL    HW291708   5.638   0.906   4.534
30562SOL     OW91709   5.716   1.821   5.295
30562SOL    HW191710   5.706   1.806   5.394
30562SOL    HW291711   5.630   1.857   5.259
30563SOL     OW91712   6.451   0.348   3.919
30563SOL    HW191713   6.510   0.411   3.870
30563SOL    HW291714   6.470   0.254   3.890
30564SOL     OW91715   7.305   0.585   5.555
30564SOL    HW191716   7.279   0.674   5.519
30564SOL    HW291717   7.303   0.517   5.482
30565SOL     OW91718   6.948   1.144   4.269
30565SOL    HW191719   7.031   1.115   4.221
30565SOL    HW291720   6.899   1.211   4.213
30566SOL     OW91721   6.136   0.196   4.609
30566SOL    HW191722   6.131   0.191   4.709
30566SOL    HW291723   6.138   0.292   4.580
30567SOL     OW91724   6.594   1.456   4.201
30567SOL    HW191725   6.548   1.528   4.149
30567SOL    HW291726   6.590   1.476   4.299
30568SOL     OW91727   5.937   1.801   4.577
30568SOL    HW191728   5.987   1.715   4.583
30568SOL    HW291729   6.002   1.878   4.574
30569SOL     OW91730   7.381   1.066   4.597
30569SOL    HW191731   7.319   1.051   4.521
30569SOL    HW291732   7.329   1.077   4.682
30570SOL     OW91733   6.813   1.550   5.230
30570SOL    HW191734   6.819   1.473   5.294
30570SOL    HW291735   6.761   1.524   5.150
30571SOL     OW91736   5.907   0.943   3.966
30571SOL    HW191737   5.989   0.982   3.924
30571SOL    HW291738   5.880   0.861   3.917
30572SOL     OW91739   7.044   0.735   4.452
30572SOL    HW191740   7.039   0.670   4.527
30572SOL    HW291741   7.124   0.794   4.465
30573SOL     OW91742   6.047   1.266   5.451
30573SOL    HW191743   5.997   1.267   5.365
30573SOL    HW291744   5.984   1.248   5.527
30574SOL     OW91745   6.697   1.776   3.961
30574SOL    HW191746   6.637   1.714   4.011
30574SOL    HW291747   6.728   1.732   3.876
30575SOL     OW91748   5.788   0.285   5.222
30575SOL    HW191749   5.708   0.345   5.209
30575SOL    HW291750   5.778   0.236   5.308
30576SOL     OW91751   7.218   1.377   3.805
30576SOL    HW191752   7.186   1.471   3.795
30576SOL    HW291753   7.142   1.314   3.793
30577SOL     OW91754   6.050   1.743   4.047
30577SOL    HW191755   6.083   1.782   4.133
30577SOL    HW291756   6.126   1.736   3.982
30578SOL     OW91757   6.986   0.107   4.150
30578SOL    HW191758   6.962   0.070   4.060
30578SOL    HW291759   7.085   0.123   4.154
30579SOL     OW91760   5.835   1.785   4.965
30579SOL    HW191761   5.892   1.720   5.015
30579SOL    HW291762   5.819   1.752   4.872
30580SOL     OW91763   6.526   1.698   4.628
30580SOL    HW191764   6.606   1.641   4.649
30580SOL    HW291765   6.477   1.658   4.551
30581SOL     OW91766   5.968   0.700   4.204
30581SOL    HW191767   6.013   0.610   4.201
30581SOL    HW291768   5.874   0.689   4.237
30582SOL     OW91769   7.133   0.222   5.453
30582SOL    HW191770   7.128   0.259   5.545
30582SOL    HW291771   7.061   0.153   5.441
30583SOL     OW91772   6.200   0.122   3.841
30583SOL    HW191773   6.298   0.100   3.848
30583SOL    HW291774   6.169   0.105   3.748
30584SOL     OW91775   6.367   0.264   5.473
30584SOL    HW191776   6.434   0.203   5.516
30584SOL    HW291777   6.294   0.283   5.538
30585SOL     OW91778   6.474   1.514   4.919
30585SOL    HW191779   6.451   1.489   4.825
30585SOL    HW291780   6.535   1.445   4.958
30586SOL     OW91781   6.937   0.590   5.157
30586SOL    HW191782   6.965   0.547   5.242
30586SOL    HW291783   6.962   0.686   5.158
30587SOL     OW91784   6.389   1.402   4.648
30587SOL    HW191785   6.479   1.416   4.606
30587SOL    HW291786   6.318   1.404   4.577
30588SOL     OW91787   6.508   0.503   4.623
30588SOL    HW191788   6.483   0.494   4.527
30588SOL    HW291789   6.556   0.421   4.654
30589SOL     OW91790   6.125   0.064   4.236
30589SOL    HW191791   6.044   0.065   4.294
30589SOL    HW291792   6.128   0.147   4.181
30590SOL     OW91793   7.020   1.188   3.765
30590SOL    HW191794   7.052   1.112   3.822
30590SOL    HW291795   6.928   1.215   3.795
30591SOL     OW91796   5.883   0.035   3.895
30591SOL    HW191797   5.932   0.119   3.874
30591SOL    HW291798   5.945  -0.030   3.940
30592SOL     OW91799   6.521   0.236   4.204
30592SOL    HW191800   6.473   0.277   4.126
30592SOL    HW291801   6.620   0.234   4.185
30593SOL     OW91802   6.662   0.683   5.188
30593SOL    HW191803   6.582   0.622   5.191
30593SOL    HW291804   6.743   0.630   5.164
30594SOL     OW91805   6.813   1.570   4.517
30594SOL    HW191806   6.834   1.644   4.452
30594SOL    HW291807   6.881   1.570   4.590
30595SOL     OW91808   6.045   1.152   4.465
30595SOL    HW191809   5.974   1.125   4.530
30595SOL    HW291810   6.019   1.124   4.372
30596SOL     OW91811   6.857   1.797   4.315
30596SOL    HW191812   6.901   1.861   4.251
30596SOL    HW291813   6.807   1.849   4.385
30597SOL     OW91814   6.618   0.549   3.740
30597SOL    HW191815   6.577   0.631   3.701
30597SOL    HW291816   6.682   0.575   3.813
30598SOL     OW91817   5.664   0.556   5.110
30598SOL    HW191818   5.756   0.555   5.069
30598SOL    HW291819   5.658   0.630   5.177
30599SOL     OW91820   6.147   0.222   4.871
30599SOL    HW191821   6.185   0.138   4.908
30599SOL    HW291822   6.059   0.241   4.915
30600SOL     OW91823   6.452   0.454   4.366
30600SOL    HW191824   6.420   0.526   4.304
30600SOL    HW291825   6.476   0.373   4.313
30601SOL     OW91826   6.603   0.039   4.477
30601SOL    HW191827   6.531   0.044   4.408
30601SOL    HW291828   6.579  -0.030   4.546
30602SOL     OW91829   7.015   1.173   4.591
30602SOL    HW191830   6.960   1.089   4.584
30602SOL    HW291831   7.041   1.202   4.499
30603SOL     OW91832   7.052   0.590   4.716
30603SOL    HW191833   7.022   0.495   4.723
30603SOL    HW291834   7.125   0.606   4.782
30604SOL     OW91835   7.443   0.833   4.101
30604SOL    HW191836   7.485   0.769   4.165
30604SOL    HW291837   7.405   0.782   4.023
30605SOL     OW91838   6.074   1.385   3.898
30605SOL    HW191839   5.987   1.370   3.945
30605SOL    HW291840   6.057   1.411   3.803
30606SOL     OW91841   7.250   1.280   4.381
30606SOL    HW191842   7.349   1.288   4.395
30606SOL    HW291843   7.205   1.364   4.412
30607SOL     OW91844   6.976   0.575   3.802
30607SOL    HW191845   6.922   0.554   3.883
30607SOL    HW291846   7.067   0.534   3.811
30608SOL     OW91847   6.113   0.256   4.052
30608SOL    HW191848   6.140   0.197   3.977
30608SOL    HW291849   6.113   0.351   4.021
30609SOL     OW91850   7.340   1.223   5.312
30609SOL    HW191851   7.431   1.184   5.299
30609SOL    HW291852   7.348   1.319   5.336
30610SOL     OW91853   6.650   1.347   5.064
30610SOL    HW191854   6.570   1.324   5.119
30610SOL    HW291855   6.733   1.321   5.113
30611SOL     OW91856   7.178   1.629   5.349
30611SOL    HW191857   7.205   1.663   5.259
30611SOL    HW291858   7.257   1.591   5.395
30612SOL     OW91859   6.697   1.195   4.824
30612SOL    HW191860   6.657   1.239   4.905
30612SOL    HW291861   6.656   1.232   4.741
30613SOL     OW91862   7.224   1.099   4.803
30613SOL    HW191863   7.229   1.180   4.862
30613SOL    HW291864   7.138   1.101   4.752
30614SOL     OW91865   6.501   0.089   5.126
30614SOL    HW191866   6.526   0.069   5.031
30614SOL    HW291867   6.573   0.145   5.168
30615SOL     OW91868   6.566   1.116   5.443
30615SOL    HW191869   6.467   1.122   5.453
30615SOL    HW291870   6.589   1.036   5.387
30616SOL     OW91871   6.291   1.050   4.092
30616SOL    HW191872   6.277   1.057   4.191
30616SOL    HW291873   6.375   0.999   4.074
30617SOL     OW91874   5.996   0.813   4.975
30617SOL    HW191875   6.082   0.825   5.025
30617SOL    HW291876   5.954   0.726   5.002
30618SOL     OW91877   6.860   0.386   4.986
30618SOL    HW191878   6.881   0.460   5.050
30618SOL    HW291879   6.771   0.403   4.943
30619SOL     OW91880   5.650   1.564   5.055
30619SOL    HW191881   5.604   1.646   5.021
30619SOL    HW291882   5.748   1.583   5.064
30620SOL     OW91883   5.953   1.100   4.225
30620SOL    HW191884   5.946   1.183   4.169
30620SOL    HW291885   5.957   1.020   4.165
30621SOL     OW91886   6.152   0.537   4.589
30621SOL    HW191887   6.164   0.603   4.515
30621SOL    HW291888   6.198   0.571   4.672
30622SOL     OW91889   6.838   1.348   4.112
30622SOL    HW191890   6.888   1.425   4.152
30622SOL    HW291891   6.743   1.350   4.144
30623SOL     OW91892   6.858   1.445   4.866
30623SOL    HW191893   6.905   1.458   4.953
30623SOL    HW291894   6.792   1.371   4.875
30624SOL     OW91895   7.168   0.639   4.196
30624SOL    HW191896   7.137   0.700   4.269
30624SOL    HW291897   7.218   0.691   4.127
30625SOL     OW91898   5.940   1.510   5.053
30625SOL    HW191899   5.919   1.466   4.966
30625SOL    HW291900   6.037   1.536   5.056
30626SOL     OW91901   5.988   0.751   5.322
30626SOL    HW191902   6.056   0.806   5.275
30626SOL    HW291903   6.028   0.663   5.349
30627SOL     OW91904   7.173   0.779   5.394
30627SOL    HW191905   7.081   0.817   5.389
30627SOL    HW291906   7.233   0.826   5.329
30628SOL     OW91907   6.599   0.105   5.494
30628SOL    HW191908   6.605   0.190   5.442
30628SOL    HW291909   6.631   0.029   5.437
30629SOL     OW91910   6.090   0.050   5.464
30629SOL    HW191911   6.048  -0.007   5.394
30629SOL    HW291912   6.024   0.119   5.496
30630SOL     OW91913   6.159   0.870   4.753
30630SOL    HW191914   6.203   0.959   4.744
30630SOL    HW291915   6.096   0.870   4.830
30631SOL     OW91916   6.946   0.862   4.769
30631SOL    HW191917   6.871   0.862   4.703
30631SOL    HW291918   6.983   0.770   4.778
30632SOL     OW91919   6.795   0.525   3.999
30632SOL    HW191920   6.808   0.441   4.053
30632SOL    HW291921   6.766   0.599   4.059
30633SOL     OW91922   5.893   0.213   4.955
30633SOL    HW191923   5.870   0.250   5.045
30633SOL    HW291924   5.863   0.118   4.949
30634SOL     OW91925   5.623   1.310   5.006
30634SOL    HW191926   5.676   1.261   5.074
30634SOL    HW291927   5.645   1.408   5.011
30635SOL     OW91928   6.318   0.634   4.788
30635SOL    HW191929   6.377   0.608   4.712
30635SOL    HW291930   6.290   0.730   4.777
30636SOL     OW91931   7.314   0.935   5.578
30636SOL    HW191932   7.268   0.928   5.489
30636SOL    HW291933   7.252   0.979   5.644
30637SOL     OW91934   5.893   0.063   4.342
30637SOL    HW191935   5.882   0.157   4.375
30637SOL    HW291936   5.888   0.000   4.419
30638SOL     OW91937   7.208   0.367   4.098
30638SOL    HW191938   7.210   0.291   4.162
30638SOL    HW291939   7.160   0.444   4.138
30639SOL     OW91940   6.609   0.766   4.690
30639SOL    HW191941   6.624   0.787   4.786
30639SOL    HW291942   6.579   0.671   4.681
30640SOL     OW91943   6.566   1.573   5.424
30640SOL    HW191944   6.546   1.617   5.336
30640SOL    HW291945   6.605   1.482   5.408
30641SOL     OW91946   7.445   1.518   5.329
30641SOL    HW191947   7.459   1.545   5.234
30641SOL    HW291948   7.528   1.540   5.382
30642SOL     OW91949   5.936   0.898   5.528
30642SOL    HW191950   6.012   0.942   5.576
30642SOL    HW291951   5.971   0.851   5.446
30643SOL     OW91952   7.126   0.274   3.849
30643SOL    HW191953   7.065   0.199   3.872
30643SOL    HW291954   7.148   0.326   3.932
30644SOL     OW91955   6.889   0.838   3.766
30644SOL    HW191956   6.923   0.745   3.781
30644SOL    HW291957   6.907   0.865   3.671
30645SOL     OW91958   6.654   1.333   4.573
30645SOL    HW191959   6.661   1.249   4.518
30645SOL    HW291960   6.716   1.402   4.537
30646SOL     OW91961   5.905   0.810   4.673
30646SOL    HW191962   5.998   0.846   4.678
30646SOL    HW291963   5.899   0.725   4.725
30647SOL     OW91964   5.925   0.509   4.730
30647SOL    HW191965   5.873   0.426   4.713
30647SOL    HW291966   6.002   0.514   4.666
30648SOL     OW91967   6.724   0.380   5.402
30648SOL    HW191968   6.679   0.443   5.466
30648SOL    HW291969   6.817   0.411   5.385
30649SOL     OW91970   6.746   0.207   5.201
30649SOL    HW191971   6.746   0.271   5.278
30649SOL    HW291972   6.774   0.255   5.118
30650SOL     OW91973   5.594   1.326   3.924
30650SOL    HW191974   5.501   1.347   3.893
30650SOL    HW291975   5.604   1.227   3.937
30651SOL     OW91976   5.674   1.801   4.651
30651SOL    HW191977   5.632   1.715   4.624
30651SOL    HW291978   5.768   1.804   4.617
30652SOL     OW91979   6.090   1.568   4.634
30652SOL    HW191980   6.156   1.642   4.643
30652SOL    HW291981   6.134   1.489   4.592
30653SOL     OW91982   6.588   0.796   4.962
30653SOL    HW191983   6.629   0.764   5.048
30653SOL    HW291984   6.492   0.769   4.959
30654SOL     OW91985   5.626   0.544   4.838
30654SOL    HW191986   5.711   0.511   4.797
30654SOL    HW291987   5.639   0.559   4.936
30655SOL     OW91988   5.775   0.520   5.446
30655SOL    HW191989   5.834   0.480   5.376
30655SOL    HW291990   5.717   0.591   5.405
30656SOL     OW91991   6.955   0.950   5.384
30656SOL    HW191992   6.994   1.039   5.404
30656SOL    HW291993   6.965   0.930   5.287
30657SOL     OW91994   6.401   0.572   4.049
30657SOL    HW191995   6.408   0.483   4.003
30657SOL    HW291996   6.307   0.606   4.041
30658SOL     OW91997   7.243   0.604   4.930
30658SOL    HW191998   7.205   0.535   4.992
30658SOL    HW291999   7.325   0.568   4.886
30659SOL     OW92000   5.838   1.564   5.468
30659SOL    HW192001   5.808   1.621   5.544
30659SOL    HW292002   5.831   1.467   5.494
30660SOL     OW92003   6.257   0.464   4.993
30660SOL    HW192004   6.223   0.375   4.963
30660SOL    HW292005   6.283   0.518   4.913
30661SOL     OW92006   6.516   1.678   5.189
30661SOL    HW192007   6.492   1.660   5.094
30661SOL    HW292008   6.546   1.772   5.199
30662SOL     OW92009   6.059   0.500   3.915
30662SOL    HW192010   6.120   0.580   3.919
30662SOL    HW292011   5.964   0.531   3.922
30663SOL     OW92012   5.745   1.137   5.190
30663SOL    HW192013   5.767   1.076   5.266
30663SOL    HW292014   5.755   1.088   5.104
30664SOL     OW92015   6.933   1.059   4.958
30664SOL    HW192016   6.957   0.996   4.884
30664SOL    HW292017   6.843   1.099   4.940
30665SOL     OW92018   6.888   0.855   4.033
30665SOL    HW192019   6.802   0.824   4.075
30665SOL    HW292020   6.884   0.841   3.934
30666SOL     OW92021   7.345   1.747   4.878
30666SOL    HW192022   7.406   1.777   4.805
30666SOL    HW292023   7.307   1.658   4.856
30667SOL     OW92024   6.838   1.731   4.852
30667SOL    HW192025   6.922   1.736   4.798
30667SOL    HW292026   6.815   1.635   4.870
30668SOL     OW92027   5.669   1.258   4.746
30668SOL    HW192028   5.664   1.257   4.846
30668SOL    HW292029   5.586   1.217   4.708
30669SOL     OW92030   6.274   1.662   5.440
30669SOL    HW192031   6.218   1.743   5.449
30669SOL    HW292032   6.326   1.666   5.354
30670SOL     OW92033   7.312   0.135   4.247
30670SOL    HW192034   7.385   0.118   4.180
30670SOL    HW292035   7.281   0.048   4.285
30671SOL     OW92036   6.974   1.573   4.201
30671SOL    HW192037   7.041   1.585   4.127
30671SOL    HW292038   6.934   1.662   4.224
30672SOL     OW92039   5.716   1.794   5.575
30672SOL    HW192040   5.675   1.720   5.628
30672SOL    HW292041   5.780   1.845   5.633
30673SOL     OW92042   6.866   0.927   4.396
30673SOL    HW192043   6.926   0.846   4.398
30673SOL    HW292044   6.906   0.996   4.336
30674SOL     OW92045   6.416   1.273   5.146
30674SOL    HW192046   6.411   1.306   5.241
30674SOL    HW292047   6.330   1.292   5.100
30675SOL     OW92048   6.258   1.616   3.878
30675SOL    HW192049   6.267   1.626   3.779
30675SOL    HW292050   6.218   1.527   3.899
30676SOL     OW92051   7.236   1.720   5.118
30676SOL    HW192052   7.289   1.730   5.034
30676SOL    HW292053   7.209   1.810   5.152
30677SOL     OW92054   7.427   0.175   4.687
30677SOL    HW192055   7.466   0.090   4.651
30677SOL    HW292056   7.329   0.177   4.668
30678SOL     OW92057   5.849   0.326   4.444
30678SOL    HW192058   5.770   0.377   4.410
30678SOL    HW292059   5.840   0.311   4.542
30679SOL     OW92060   6.780   1.612   3.755
30679SOL    HW192061   6.786   1.519   3.792
30679SOL    HW292062   6.721   1.612   3.675
30680SOL     OW92063   6.408   1.002   5.096
30680SOL    HW192064   6.448   1.001   5.004
30680SOL    HW292065   6.418   1.094   5.136
30681SOL     OW92066   6.502   0.910   4.015
30681SOL    HW192067   6.565   0.948   3.947
30681SOL    HW292068   6.542   0.827   4.054
30682SOL     OW92069   7.090   1.607   3.768
30682SOL    HW192070   6.998   1.644   3.775
30682SOL    HW292071   7.128   1.627   3.678
30683SOL     OW92072   5.958   1.288   5.214
30683SOL    HW192073   5.945   1.381   5.180
30683SOL    HW292074   5.874   1.236   5.201
30684SOL     OW92075   7.200   1.292   5.013
30684SOL    HW192076   7.260   1.295   5.093
30684SOL    HW292077   7.125   1.356   5.026
30685SOL     OW92078   6.625   1.098   4.420
30685SOL    HW192079   6.555   1.051   4.474
30685SOL    HW292080   6.684   1.030   4.377
30686SOL     OW92081   6.600   0.236   4.695
30686SOL    HW192082   6.592   0.200   4.602
30686SOL    HW292083   6.598   0.160   4.760
30687SOL     OW92084   6.176   1.487   4.215
30687SOL    HW192085   6.218   1.429   4.145
30687SOL    HW292086   6.132   1.566   4.171
30688SOL     OW92087   7.295   0.385   5.105
30688SOL    HW192088   7.368   0.454   5.109
30688SOL    HW292089   7.323   0.310   5.046
30689SOL     OW92090   5.841   1.348   4.014
30689SOL    HW192091   5.745   1.349   3.987
30689SOL    HW292092   5.853   1.401   4.098
30690SOL     OW92093   5.691   1.013   5.450
30690SOL    HW192094   5.614   0.980   5.504
30690SOL    HW292095   5.776   0.983   5.492
30691SOL     OW92096   6.258   0.203   5.213
30691SOL    HW192097   6.348   0.187   5.173
30691SOL    HW292098   6.266   0.208   5.312
30692SOL     OW92099   5.661   0.345   3.757
30692SOL    HW192100   5.569   0.317   3.728
30692SOL    HW292101   5.692   0.422   3.701
30693SOL     OW92102   7.026   0.856   5.122
30693SOL    HW192103   6.969   0.908   5.059
30693SOL    HW292104   7.122   0.868   5.098
30694SOL     OW92105   5.658   0.166   4.042
30694SOL    HW192106   5.641   0.249   3.988
30694SOL    HW292107   5.748   0.129   4.020
30695SOL     OW92108   6.769   1.335   3.843
30695SOL    HW192109   6.670   1.324   3.845
30695SOL    HW292110   6.803   1.350   3.936
30696SOL     OW92111   6.199   0.842   5.155
30696SOL    HW192112   6.255   0.923   5.138
30696SOL    HW292113   6.258   0.762   5.158
30697SOL     OW92114   7.079   1.767   4.683
30697SOL    HW192115   7.112   1.831   4.614
30697SOL    HW292116   7.145   1.761   4.758
30698SOL     OW92117   6.302   0.565   5.432
30698SOL    HW192118   6.321   0.630   5.506
30698SOL    HW292119   6.362   0.485   5.441
30699SOL     OW92120   7.036   1.220   5.357
30699SOL    HW192121   7.027   1.210   5.456
30699SOL    HW292122   7.132   1.213   5.331
30700SOL     OW92123   5.976   1.741   5.284
30700SOL    HW192124   5.885   1.782   5.282
30700SOL    HW292125   5.969   1.647   5.316
30701SOL     OW92126   7.260   0.883   4.978
30701SOL    HW192127   7.233   0.794   4.941
30701SOL    HW292128   7.261   0.951   4.905
30702SOL     OW92129   6.811   0.325   4.173
30702SOL    HW192130   6.876   0.251   4.162
30702SOL    HW292131   6.831   0.375   4.257
30703SOL     OW92132   6.180   0.745   4.376
30703SOL    HW192133   6.230   0.830   4.357
30703SOL    HW292134   6.092   0.747   4.328
30704SOL     OW92135   7.363   0.342   5.366
30704SOL    HW192136   7.346   0.373   5.272
30704SOL    HW292137   7.279   0.305   5.404
30705SOL     OW92138   7.316   0.934   5.241
30705SOL    HW192139   7.354   1.025   5.256
30705SOL    HW292140   7.308   0.917   5.142
30706SOL     OW92141   6.445   1.374   3.740
30706SOL    HW192142   6.399   1.389   3.828
30706SOL    HW292143   6.489   1.459   3.710
30707SOL     OW92144   6.247   1.790   4.677
30707SOL    HW192145   6.201   1.878   4.664
30707SOL    HW292146   6.346   1.802   4.670
30708SOL     OW92147   6.445   0.956   4.585
30708SOL    HW192148   6.499   0.887   4.633
30708SOL    HW292149   6.413   1.025   4.651
30709SOL     OW92150   6.669   0.984   3.811
30709SOL    HW192151   6.646   1.037   3.729
30709SOL    HW292152   6.750   0.928   3.792
30710SOL     OW92153   7.447   1.569   4.575
30710SOL    HW192154   7.376   1.557   4.505
30710SOL    HW292155   7.448   1.490   4.635
30711SOL     OW92156   5.807   1.314   5.568
30711SOL    HW192157   5.742   1.241   5.547
30711SOL    HW292158   5.811   1.328   5.666
30712SOL     OW92159   5.665   1.240   4.377
30712SOL    HW192160   5.664   1.193   4.465
30712SOL    HW292161   5.747   1.212   4.326
30713SOL     OW92162   6.258   1.391   5.348
30713SOL    HW192163   6.180   1.341   5.386
30713SOL    HW292164   6.255   1.486   5.379
30714SOL     OW92165   7.410   0.192   4.951
30714SOL    HW192166   7.406   0.102   4.995
30714SOL    HW292167   7.413   0.181   4.852
30715SOL     OW92168   6.014   0.424   4.244
30715SOL    HW192169   6.044   0.352   4.182
30715SOL    HW292170   5.975   0.384   4.327
30716SOL     OW92171   7.291   1.487   4.828
30716SOL    HW192172   7.198   1.462   4.801
30716SOL    HW292173   7.317   1.437   4.910
30717SOL     OW92174   5.903   0.547   5.004
30717SOL    HW192175   5.941   0.488   5.076
30717SOL    HW292176   5.943   0.521   4.916
30718SOL     OW92177   6.398   1.586   4.411
30718SOL    HW192178   6.430   1.596   4.317
30718SOL    HW292179   6.319   1.524   4.413
30719SOL     OW92180   7.010   0.214   4.836
30719SOL    HW192181   7.062   0.149   4.891
30719SOL    HW292182   6.961   0.277   4.897
30720SOL     OW92183   6.587   0.034   4.878
30720SOL    HW192184   6.524  -0.038   4.847
30720SOL    HW292185   6.680  -0.002   4.878
30721SOL     OW92186   6.356   1.330   4.025
30721SOL    HW192187   6.310   1.243   4.042
30721SOL    HW292188   6.447   1.327   4.066
30722SOL     OW92189   6.204   1.567   5.008
30722SOL    HW192190   6.199   1.649   5.065
30722SOL    HW292191   6.293   1.564   4.963
30723SOL     OW92192   6.938   0.052   3.892
30723SOL    HW192193   6.973   0.011   3.808
30723SOL    HW292194   6.848   0.014   3.912
30724SOL     OW92195   6.886   0.453   4.415
30724SOL    HW192196   6.827   0.533   4.419
30724SOL    HW292197   6.901   0.418   4.508
30725SOL     OW92198   7.179   0.221   4.606
30725SOL    HW192199   7.095   0.220   4.660
30725SOL    HW292200   7.181   0.304   4.550
30726SOL     OW92201   5.625   1.077   4.024
30726SOL    HW192202   5.724   1.066   4.015
30726SOL    HW292203   5.585   0.991   4.056
30727SOL     OW92204   6.461   1.646   4.061
30727SOL    HW192205   6.384   1.611   4.007
30727SOL    HW292206   6.429   1.717   4.123
30728SOL     OW92207   5.816   0.628   5.699
30728SOL    HW192208   5.723   0.626   5.736
30728SOL    HW292209   5.817   0.589   5.607
30729SOL     OW92210   5.811   0.275   6.582
30729SOL    HW192211   5.846   0.258   6.674
30729SOL    HW292212   5.723   0.230   6.570
30730SOL     OW92213   5.605   0.368   6.233
30730SOL    HW192214   5.523   0.411   6.272
30730SOL    HW292215   5.577   0.295   6.170
30731SOL     OW92216   6.155   1.275   6.751
30731SOL    HW192217   6.062   1.268   6.714
30731SOL    HW292218   6.166   1.364   6.795
30732SOL     OW92219   7.141   1.511   6.289
30732SOL    HW192220   7.084   1.495   6.370
30732SOL    HW292221   7.082   1.521   6.209
30733SOL     OW92222   6.721   0.703   6.303
30733SOL    HW192223   6.778   0.781   6.278
30733SOL    HW292224   6.661   0.729   6.379
30734SOL     OW92225   7.341   0.607   5.817
30734SOL    HW192226   7.329   0.594   5.718
30734SOL    HW292227   7.311   0.526   5.866
30735SOL     OW92228   6.354   1.144   6.609
30735SOL    HW192229   6.276   1.161   6.669
30735SOL    HW292230   6.388   1.231   6.573
30736SOL     OW92231   6.436   0.798   7.409
30736SOL    HW192232   6.432   0.874   7.474
30736SOL    HW292233   6.458   0.834   7.318
30737SOL     OW92234   6.271   1.012   6.251
30737SOL    HW192235   6.340   0.996   6.321
30737SOL    HW292236   6.198   1.069   6.289
30738SOL     OW92237   6.272   1.161   7.389
30738SOL    HW192238   6.332   1.240   7.403
30738SOL    HW292239   6.186   1.192   7.348
30739SOL     OW92240   5.921   1.435   6.647
30739SOL    HW192241   5.843   1.404   6.594
30739SOL    HW292242   5.979   1.493   6.590
30740SOL     OW92243   7.046   1.505   6.925
30740SOL    HW192244   7.070   1.599   6.951
30740SOL    HW292245   7.030   1.451   7.007
30741SOL     OW92246   6.024   0.392   7.085
30741SOL    HW192247   6.106   0.336   7.094
30741SOL    HW292248   5.943   0.334   7.089
30742SOL     OW92249   7.189   0.447   6.323
30742SOL    HW192250   7.115   0.493   6.273
30742SOL    HW292251   7.240   0.515   6.376
30743SOL     OW92252   5.817   1.713   6.069
30743SOL    HW192253   5.851   1.790   6.123
30743SOL    HW292254   5.861   1.713   5.979
30744SOL     OW92255   6.713   1.341   7.276
30744SOL    HW192256   6.760   1.341   7.364
30744SOL    HW292257   6.665   1.254   7.265
30745SOL     OW92258   5.816   1.434   6.124
30745SOL    HW192259   5.790   1.530   6.124
30745SOL    HW292260   5.745   1.380   6.169
30746SOL     OW92261   5.826   1.091   6.472
30746SOL    HW192262   5.840   1.007   6.524
30746SOL    HW292263   5.771   1.155   6.527
30747SOL     OW92264   6.206   1.786   7.025
30747SOL    HW192265   6.114   1.769   7.060
30747SOL    HW292266   6.234   1.878   7.051
30748SOL     OW92267   6.192   0.964   5.709
30748SOL    HW192268   6.199   1.048   5.655
30748SOL    HW292269   6.238   0.977   5.797
30749SOL     OW92270   7.180   0.114   7.066
30749SOL    HW192271   7.162   0.181   6.994
30749SOL    HW292272   7.177   0.160   7.155
30750SOL     OW92273   5.708   0.643   6.149
30750SOL    HW192274   5.663   0.555   6.166
30750SOL    HW292275   5.707   0.697   6.233
30751SOL     OW92276   7.428   1.767   5.945
30751SOL    HW192277   7.482   1.738   6.025
30751SOL    HW292278   7.458   1.857   5.916
30752SOL     OW92279   5.613   1.596   5.703
30752SOL    HW192280   5.594   1.500   5.724
30752SOL    HW292281   5.580   1.654   5.778
30753SOL     OW92282   7.275   0.922   6.198
30753SOL    HW192283   7.370   0.893   6.206
30753SOL    HW292284   7.267   0.987   6.123
30754SOL     OW92285   7.227   1.108   6.018
30754SOL    HW192286   7.313   1.110   5.966
30754SOL    HW292287   7.241   1.155   6.106
30755SOL     OW92288   5.699   0.737   7.183
30755SOL    HW192289   5.787   0.724   7.228
30755SOL    HW292290   5.686   0.834   7.161
30756SOL     OW92291   6.199   1.365   6.312
30756SOL    HW192292   6.150   1.278   6.321
30756SOL    HW292293   6.176   1.408   6.225
30757SOL     OW92294   6.879   1.228   7.009
30757SOL    HW192295   6.916   1.155   6.951
30757SOL    HW292296   6.931   1.233   7.094
30758SOL     OW92297   6.395   0.004   6.088
30758SOL    HW192298   6.435   0.095   6.079
30758SOL    HW292299   6.295   0.012   6.094
30759SOL     OW92300   5.783   0.976   6.850
30759SOL    HW192301   5.872   0.931   6.836
30759SOL    HW292302   5.710   0.911   6.831
30760SOL     OW92303   7.111   0.999   5.776
30760SOL    HW192304   7.048   0.923   5.789
30760SOL    HW292305   7.159   1.017   5.862
30761SOL     OW92306   6.773   1.792   7.202
30761SOL    HW192307   6.797   1.852   7.126
30761SOL    HW292308   6.780   1.697   7.172
30762SOL     OW92309   5.903   0.251   7.387
30762SOL    HW192310   5.974   0.322   7.393
30762SOL    HW292311   5.815   0.290   7.415
30763SOL     OW92312   7.052   1.417   6.539
30763SOL    HW192313   6.993   1.423   6.619
30763SOL    HW292314   7.037   1.329   6.493
30764SOL     OW92315   7.253   1.714   6.158
30764SOL    HW192316   7.212   1.691   6.070
30764SOL    HW292317   7.235   1.640   6.223
30765SOL     OW92318   6.184   0.729   5.856
30765SOL    HW192319   6.208   0.798   5.788
30765SOL    HW292320   6.106   0.762   5.910
30766SOL     OW92321   6.867   0.345   6.530
30766SOL    HW192322   6.781   0.295   6.517
30766SOL    HW292323   6.929   0.291   6.586
30767SOL     OW92324   7.162   1.662   5.893
30767SOL    HW192325   7.251   1.708   5.896
30767SOL    HW292326   7.141   1.638   5.798
30768SOL     OW92327   6.393   0.605   7.051
30768SOL    HW192328   6.346   0.602   7.140
30768SOL    HW292329   6.342   0.550   6.985
30769SOL     OW92330   6.980   0.469   7.260
30769SOL    HW192331   6.960   0.512   7.348
30769SOL    HW292332   7.058   0.407   7.269
30770SOL     OW92333   6.559   0.890   7.158
30770SOL    HW192334   6.605   0.806   7.129
30770SOL    HW292335   6.503   0.924   7.083
30771SOL     OW92336   6.577   0.410   6.828
30771SOL    HW192337   6.500   0.444   6.882
30771SOL    HW292338   6.543   0.359   6.749
30772SOL     OW92339   6.627   0.701   6.015
30772SOL    HW192340   6.653   0.697   6.111
30772SOL    HW292341   6.542   0.650   6.001
30773SOL     OW92342   5.662   0.811   6.375
30773SOL    HW192343   5.761   0.799   6.384
30773SOL    HW292344   5.638   0.906   6.396
30774SOL     OW92345   5.716   1.821   7.157
30774SOL    HW192346   5.706   1.806   7.256
30774SOL    HW292347   5.630   1.857   7.121
30775SOL     OW92348   6.451   0.348   5.781
30775SOL    HW192349   6.510   0.411   5.732
30775SOL    HW292350   6.470   0.254   5.752
30776SOL     OW92351   7.305   0.585   7.417
30776SOL    HW192352   7.279   0.674   7.381
30776SOL    HW292353   7.303   0.517   7.344
30777SOL     OW92354   6.948   1.144   6.131
30777SOL    HW192355   7.031   1.115   6.083
30777SOL    HW292356   6.899   1.211   6.075
30778SOL     OW92357   6.136   0.196   6.471
30778SOL    HW192358   6.131   0.191   6.571
30778SOL    HW292359   6.138   0.292   6.442
30779SOL     OW92360   6.594   1.456   6.063
30779SOL    HW192361   6.548   1.528   6.011
30779SOL    HW292362   6.590   1.476   6.161
30780SOL     OW92363   5.937   1.801   6.439
30780SOL    HW192364   5.987   1.715   6.445
30780SOL    HW292365   6.002   1.878   6.436
30781SOL     OW92366   7.381   1.066   6.459
30781SOL    HW192367   7.319   1.051   6.383
30781SOL    HW292368   7.329   1.077   6.544
30782SOL     OW92369   6.813   1.550   7.092
30782SOL    HW192370   6.819   1.473   7.156
30782SOL    HW292371   6.761   1.524   7.012
30783SOL     OW92372   5.907   0.943   5.828
30783SOL    HW192373   5.989   0.982   5.786
30783SOL    HW292374   5.880   0.861   5.779
30784SOL     OW92375   7.044   0.735   6.314
30784SOL    HW192376   7.039   0.670   6.389
30784SOL    HW292377   7.124   0.794   6.327
30785SOL     OW92378   6.047   1.266   7.313
30785SOL    HW192379   5.997   1.267   7.227
30785SOL    HW292380   5.984   1.248   7.389
30786SOL     OW92381   6.697   1.776   5.823
30786SOL    HW192382   6.637   1.714   5.873
30786SOL    HW292383   6.728   1.732   5.738
30787SOL     OW92384   5.788   0.285   7.084
30787SOL    HW192385   5.708   0.345   7.071
30787SOL    HW292386   5.778   0.236   7.170
30788SOL     OW92387   7.218   1.377   5.667
30788SOL    HW192388   7.186   1.471   5.657
30788SOL    HW292389   7.142   1.314   5.655
30789SOL     OW92390   6.050   1.743   5.909
30789SOL    HW192391   6.083   1.782   5.995
30789SOL    HW292392   6.126   1.736   5.844
30790SOL     OW92393   6.986   0.107   6.012
30790SOL    HW192394   6.962   0.070   5.922
30790SOL    HW292395   7.085   0.123   6.016
30791SOL     OW92396   5.835   1.785   6.827
30791SOL    HW192397   5.892   1.720   6.877
30791SOL    HW292398   5.819   1.752   6.734
30792SOL     OW92399   6.526   1.698   6.490
30792SOL    HW192400   6.606   1.641   6.511
30792SOL    HW292401   6.477   1.658   6.413
30793SOL     OW92402   5.968   0.700   6.066
30793SOL    HW192403   6.013   0.610   6.063
30793SOL    HW292404   5.874   0.689   6.099
30794SOL     OW92405   7.133   0.222   7.315
30794SOL    HW192406   7.128   0.259   7.407
30794SOL    HW292407   7.061   0.153   7.303
30795SOL     OW92408   6.200   0.122   5.703
30795SOL    HW192409   6.298   0.100   5.710
30795SOL    HW292410   6.169   0.105   5.610
30796SOL     OW92411   6.367   0.264   7.335
30796SOL    HW192412   6.434   0.203   7.378
30796SOL    HW292413   6.294   0.283   7.400
30797SOL     OW92414   6.474   1.514   6.781
30797SOL    HW192415   6.451   1.489   6.687
30797SOL    HW292416   6.535   1.445   6.820
30798SOL     OW92417   6.937   0.590   7.019
30798SOL    HW192418   6.965   0.547   7.104
30798SOL    HW292419   6.962   0.686   7.020
30799SOL     OW92420   6.389   1.402   6.510
30799SOL    HW192421   6.479   1.416   6.468
30799SOL    HW292422   6.318   1.404   6.439
30800SOL     OW92423   6.508   0.503   6.485
30800SOL    HW192424   6.483   0.494   6.389
30800SOL    HW292425   6.556   0.421   6.516
30801SOL     OW92426   6.125   0.064   6.098
30801SOL    HW192427   6.044   0.065   6.156
30801SOL    HW292428   6.128   0.147   6.043
30802SOL     OW92429   7.020   1.188   5.627
30802SOL    HW192430   7.052   1.112   5.684
30802SOL    HW292431   6.928   1.215   5.657
30803SOL     OW92432   5.883   0.035   5.757
30803SOL    HW192433   5.932   0.119   5.736
30803SOL    HW292434   5.945  -0.030   5.802
30804SOL     OW92435   6.521   0.236   6.066
30804SOL    HW192436   6.473   0.277   5.988
30804SOL    HW292437   6.620   0.234   6.047
30805SOL     OW92438   6.662   0.683   7.050
30805SOL    HW192439   6.582   0.622   7.053
30805SOL    HW292440   6.743   0.630   7.026
30806SOL     OW92441   6.813   1.570   6.379
30806SOL    HW192442   6.834   1.644   6.314
30806SOL    HW292443   6.881   1.570   6.452
30807SOL     OW92444   6.045   1.152   6.327
30807SOL    HW192445   5.974   1.125   6.392
30807SOL    HW292446   6.019   1.124   6.234
30808SOL     OW92447   6.857   1.797   6.177
30808SOL    HW192448   6.901   1.861   6.113
30808SOL    HW292449   6.807   1.849   6.247
30809SOL     OW92450   6.618   0.549   5.602
30809SOL    HW192451   6.577   0.631   5.563
30809SOL    HW292452   6.682   0.575   5.675
30810SOL     OW92453   5.664   0.556   6.972
30810SOL    HW192454   5.756   0.555   6.931
30810SOL    HW292455   5.658   0.630   7.039
30811SOL     OW92456   6.147   0.222   6.733
30811SOL    HW192457   6.185   0.138   6.770
30811SOL    HW292458   6.059   0.241   6.777
30812SOL     OW92459   6.452   0.454   6.228
30812SOL    HW192460   6.420   0.526   6.166
30812SOL    HW292461   6.476   0.373   6.175
30813SOL     OW92462   6.603   0.039   6.339
30813SOL    HW192463   6.531   0.044   6.270
30813SOL    HW292464   6.579  -0.030   6.408
30814SOL     OW92465   7.015   1.173   6.453
30814SOL    HW192466   6.960   1.089   6.446
30814SOL    HW292467   7.041   1.202   6.361
30815SOL     OW92468   7.052   0.590   6.578
30815SOL    HW192469   7.022   0.495   6.585
30815SOL    HW292470   7.125   0.606   6.644
30816SOL     OW92471   7.443   0.833   5.963
30816SOL    HW192472   7.485   0.769   6.027
30816SOL    HW292473   7.405   0.782   5.885
30817SOL     OW92474   6.074   1.385   5.760
30817SOL    HW192475   5.987   1.370   5.807
30817SOL    HW292476   6.057   1.411   5.665
30818SOL     OW92477   7.250   1.280   6.243
30818SOL    HW192478   7.349   1.288   6.257
30818SOL    HW292479   7.205   1.364   6.274
30819SOL     OW92480   6.976   0.575   5.664
30819SOL    HW192481   6.922   0.554   5.745
30819SOL    HW292482   7.067   0.534   5.673
30820SOL     OW92483   6.113   0.256   5.914
30820SOL    HW192484   6.140   0.197   5.839
30820SOL    HW292485   6.113   0.351   5.883
30821SOL     OW92486   7.340   1.223   7.174
30821SOL    HW192487   7.431   1.184   7.161
30821SOL    HW292488   7.348   1.319   7.198
30822SOL     OW92489   6.650   1.347   6.926
30822SOL    HW192490   6.570   1.324   6.981
30822SOL    HW292491   6.733   1.321   6.975
30823SOL     OW92492   7.178   1.629   7.211
30823SOL    HW192493   7.205   1.663   7.121
30823SOL    HW292494   7.257   1.591   7.257
30824SOL     OW92495   6.697   1.195   6.686
30824SOL    HW192496   6.657   1.239   6.767
30824SOL    HW292497   6.656   1.232   6.603
30825SOL     OW92498   7.224   1.099   6.665
30825SOL    HW192499   7.229   1.180   6.724
30825SOL    HW292500   7.138   1.101   6.614
30826SOL     OW92501   6.501   0.089   6.988
30826SOL    HW192502   6.526   0.069   6.893
30826SOL    HW292503   6.573   0.145   7.030
30827SOL     OW92504   6.566   1.116   7.305
30827SOL    HW192505   6.467   1.122   7.315
30827SOL    HW292506   6.589   1.036   7.249
30828SOL     OW92507   6.291   1.050   5.954
30828SOL    HW192508   6.277   1.057   6.053
30828SOL    HW292509   6.375   0.999   5.936
30829SOL     OW92510   5.996   0.813   6.837
30829SOL    HW192511   6.082   0.825   6.887
30829SOL    HW292512   5.954   0.726   6.864
30830SOL     OW92513   6.860   0.386   6.848
30830SOL    HW192514   6.881   0.460   6.912
30830SOL    HW292515   6.771   0.403   6.805
30831SOL     OW92516   5.650   1.564   6.917
30831SOL    HW192517   5.604   1.646   6.883
30831SOL    HW292518   5.748   1.583   6.926
30832SOL     OW92519   5.953   1.100   6.087
30832SOL    HW192520   5.946   1.183   6.031
30832SOL    HW292521   5.957   1.020   6.027
30833SOL     OW92522   6.152   0.537   6.451
30833SOL    HW192523   6.164   0.603   6.377
30833SOL    HW292524   6.198   0.571   6.534
30834SOL     OW92525   6.838   1.348   5.974
30834SOL    HW192526   6.888   1.425   6.014
30834SOL    HW292527   6.743   1.350   6.006
30835SOL     OW92528   6.858   1.445   6.728
30835SOL    HW192529   6.905   1.458   6.815
30835SOL    HW292530   6.792   1.371   6.737
30836SOL     OW92531   7.168   0.639   6.058
30836SOL    HW192532   7.137   0.700   6.131
30836SOL    HW292533   7.218   0.691   5.989
30837SOL     OW92534   5.940   1.510   6.915
30837SOL    HW192535   5.919   1.466   6.828
30837SOL    HW292536   6.037   1.536   6.918
30838SOL     OW92537   5.988   0.751   7.184
30838SOL    HW192538   6.056   0.806   7.137
30838SOL    HW292539   6.028   0.663   7.211
30839SOL     OW92540   7.173   0.779   7.256
30839SOL    HW192541   7.081   0.817   7.251
30839SOL    HW292542   7.233   0.826   7.191
30840SOL     OW92543   6.599   0.105   7.356
30840SOL    HW192544   6.605   0.190   7.304
30840SOL    HW292545   6.631   0.029   7.299
30841SOL     OW92546   6.090   0.050   7.326
30841SOL    HW192547   6.048  -0.007   7.256
30841SOL    HW292548   6.024   0.119   7.358
30842SOL     OW92549   6.159   0.870   6.615
30842SOL    HW192550   6.203   0.959   6.606
30842SOL    HW292551   6.096   0.870   6.692
30843SOL     OW92552   6.946   0.862   6.631
30843SOL    HW192553   6.871   0.862   6.565
30843SOL    HW292554   6.983   0.770   6.640
30844SOL     OW92555   6.795   0.525   5.861
30844SOL    HW192556   6.808   0.441   5.915
30844SOL    HW292557   6.766   0.599   5.921
30845SOL     OW92558   5.893   0.213   6.817
30845SOL    HW192559   5.870   0.250   6.907
30845SOL    HW292560   5.863   0.118   6.811
30846SOL     OW92561   5.623   1.310   6.868
30846SOL    HW192562   5.676   1.261   6.936
30846SOL    HW292563   5.645   1.408   6.873
30847SOL     OW92564   6.318   0.634   6.650
30847SOL    HW192565   6.377   0.608   6.574
30847SOL    HW292566   6.290   0.730   6.639
30848SOL     OW92567   7.314   0.935   7.440
30848SOL    HW192568   7.268   0.928   7.351
30848SOL    HW292569   7.252   0.979   7.506
30849SOL     OW92570   5.893   0.063   6.204
30849SOL    HW192571   5.882   0.157   6.237
30849SOL    HW292572   5.888   0.000   6.281
30850SOL     OW92573   7.208   0.367   5.960
30850SOL    HW192574   7.210   0.291   6.024
30850SOL    HW292575   7.160   0.444   6.000
30851SOL     OW92576   6.609   0.766   6.552
30851SOL    HW192577   6.624   0.787   6.648
30851SOL    HW292578   6.579   0.671   6.543
30852SOL     OW92579   6.566   1.573   7.286
30852SOL    HW192580   6.546   1.617   7.198
30852SOL    HW292581   6.605   1.482   7.270
30853SOL     OW92582   7.445   1.518   7.191
30853SOL    HW192583   7.459   1.545   7.096
30853SOL    HW292584   7.528   1.540   7.244
30854SOL     OW92585   5.936   0.898   7.390
30854SOL    HW192586   6.012   0.942   7.438
30854SOL    HW292587   5.971   0.851   7.308
30855SOL     OW92588   7.126   0.274   5.711
30855SOL    HW192589   7.065   0.199   5.734
30855SOL    HW292590   7.148   0.326   5.794
30856SOL     OW92591   6.889   0.838   5.628
30856SOL    HW192592   6.923   0.745   5.643
30856SOL    HW292593   6.907   0.865   5.533
30857SOL     OW92594   6.654   1.333   6.435
30857SOL    HW192595   6.661   1.249   6.380
30857SOL    HW292596   6.716   1.402   6.399
30858SOL     OW92597   5.905   0.810   6.535
30858SOL    HW192598   5.998   0.846   6.540
30858SOL    HW292599   5.899   0.725   6.587
30859SOL     OW92600   5.925   0.509   6.592
30859SOL    HW192601   5.873   0.426   6.575
30859SOL    HW292602   6.002   0.514   6.528
30860SOL     OW92603   6.724   0.380   7.264
30860SOL    HW192604   6.679   0.443   7.328
30860SOL    HW292605   6.817   0.411   7.247
30861SOL     OW92606   6.746   0.207   7.063
30861SOL    HW192607   6.746   0.271   7.140
30861SOL    HW292608   6.774   0.255   6.980
30862SOL     OW92609   5.594   1.326   5.786
30862SOL    HW192610   5.501   1.347   5.755
30862SOL    HW292611   5.604   1.227   5.799
30863SOL     OW92612   5.674   1.801   6.513
30863SOL    HW192613   5.632   1.715   6.486
30863SOL    HW292614   5.768   1.804   6.479
30864SOL     OW92615   6.090   1.568   6.496
30864SOL    HW192616   6.156   1.642   6.505
30864SOL    HW292617   6.134   1.489   6.454
30865SOL     OW92618   6.588   0.796   6.824
30865SOL    HW192619   6.629   0.764   6.910
30865SOL    HW292620   6.492   0.769   6.821
30866SOL     OW92621   5.626   0.544   6.700
30866SOL    HW192622   5.711   0.511   6.659
30866SOL    HW292623   5.639   0.559   6.798
30867SOL     OW92624   5.775   0.520   7.308
30867SOL    HW192625   5.834   0.480   7.238
30867SOL    HW292626   5.717   0.591   7.267
30868SOL     OW92627   6.955   0.950   7.246
30868SOL    HW192628   6.994   1.039   7.266
30868SOL    HW292629   6.965   0.930   7.149
30869SOL     OW92630   6.401   0.572   5.911
30869SOL    HW192631   6.408   0.483   5.865
30869SOL    HW292632   6.307   0.606   5.903
30870SOL     OW92633   7.243   0.604   6.792
30870SOL    HW192634   7.205   0.535   6.854
30870SOL    HW292635   7.325   0.568   6.748
30871SOL     OW92636   5.838   1.564   7.330
30871SOL    HW192637   5.808   1.621   7.406
30871SOL    HW292638   5.831   1.467   7.356
30872SOL     OW92639   6.257   0.464   6.855
30872SOL    HW192640   6.223   0.375   6.825
30872SOL    HW292641   6.283   0.518   6.775
30873SOL     OW92642   6.516   1.678   7.051
30873SOL    HW192643   6.492   1.660   6.956
30873SOL    HW292644   6.546   1.772   7.061
30874SOL     OW92645   6.059   0.500   5.777
30874SOL    HW192646   6.120   0.580   5.781
30874SOL    HW292647   5.964   0.531   5.784
30875SOL     OW92648   5.745   1.137   7.052
30875SOL    HW192649   5.767   1.076   7.128
30875SOL    HW292650   5.755   1.088   6.966
30876SOL     OW92651   6.933   1.059   6.820
30876SOL    HW192652   6.957   0.996   6.746
30876SOL    HW292653   6.843   1.099   6.802
30877SOL     OW92654   6.888   0.855   5.895
30877SOL    HW192655   6.802   0.824   5.937
30877SOL    HW292656   6.884   0.841   5.796
30878SOL     OW92657   7.345   1.747   6.740
30878SOL    HW192658   7.406   1.777   6.667
30878SOL    HW292659   7.307   1.658   6.718
30879SOL     OW92660   6.838   1.731   6.714
30879SOL    HW192661   6.922   1.736   6.660
30879SOL    HW292662   6.815   1.635   6.732
30880SOL     OW92663   5.669   1.258   6.608
30880SOL    HW192664   5.664   1.257   6.708
30880SOL    HW292665   5.586   1.217   6.570
30881SOL     OW92666   6.274   1.662   7.302
30881SOL    HW192667   6.218   1.743   7.311
30881SOL    HW292668   6.326   1.666   7.216
30882SOL     OW92669   7.312   0.135   6.109
30882SOL    HW192670   7.385   0.118   6.042
30882SOL    HW292671   7.281   0.048   6.147
30883SOL     OW92672   6.974   1.573   6.063
30883SOL    HW192673   7.041   1.585   5.989
30883SOL    HW292674   6.934   1.662   6.086
30884SOL     OW92675   5.716   1.794   7.437
30884SOL    HW192676   5.675   1.720   7.490
30884SOL    HW292677   5.780   1.845   7.495
30885SOL     OW92678   6.866   0.927   6.258
30885SOL    HW192679   6.926   0.846   6.260
30885SOL    HW292680   6.906   0.996   6.198
30886SOL     OW92681   6.416   1.273   7.008
30886SOL    HW192682   6.411   1.306   7.103
30886SOL    HW292683   6.330   1.292   6.962
30887SOL     OW92684   6.258   1.616   5.740
30887SOL    HW192685   6.267   1.626   5.641
30887SOL    HW292686   6.218   1.527   5.761
30888SOL     OW92687   7.236   1.720   6.980
30888SOL    HW192688   7.289   1.730   6.896
30888SOL    HW292689   7.209   1.810   7.014
30889SOL     OW92690   7.427   0.175   6.549
30889SOL    HW192691   7.466   0.090   6.513
30889SOL    HW292692   7.329   0.177   6.530
30890SOL     OW92693   5.849   0.326   6.306
30890SOL    HW192694   5.770   0.377   6.272
30890SOL    HW292695   5.840   0.311   6.404
30891SOL     OW92696   6.780   1.612   5.617
30891SOL    HW192697   6.786   1.519   5.654
30891SOL    HW292698   6.721   1.612   5.537
30892SOL     OW92699   6.408   1.002   6.958
30892SOL    HW192700   6.448   1.001   6.866
30892SOL    HW292701   6.418   1.094   6.998
30893SOL     OW92702   6.502   0.910   5.877
30893SOL    HW192703   6.565   0.948   5.809
30893SOL    HW292704   6.542   0.827   5.916
30894SOL     OW92705   7.090   1.607   5.630
30894SOL    HW192706   6.998   1.644   5.637
30894SOL    HW292707   7.128   1.627   5.540
30895SOL     OW92708   5.958   1.288   7.076
30895SOL    HW192709   5.945   1.381   7.042
30895SOL    HW292710   5.874   1.236   7.063
30896SOL     OW92711   7.200   1.292   6.875
30896SOL    HW192712   7.260   1.295   6.955
30896SOL    HW292713   7.125   1.356   6.888
30897SOL     OW92714   6.625   1.098   6.282
30897SOL    HW192715   6.555   1.051   6.336
30897SOL    HW292716   6.684   1.030   6.239
30898SOL     OW92717   6.600   0.236   6.557
30898SOL    HW192718   6.592   0.200   6.464
30898SOL    HW292719   6.598   0.160   6.622
30899SOL     OW92720   6.176   1.487   6.077
30899SOL    HW192721   6.218   1.429   6.007
30899SOL    HW292722   6.132   1.566   6.033
30900SOL     OW92723   7.295   0.385   6.967
30900SOL    HW192724   7.368   0.454   6.971
30900SOL    HW292725   7.323   0.310   6.908
30901SOL     OW92726   5.841   1.348   5.876
30901SOL    HW192727   5.745   1.349   5.849
30901SOL    HW292728   5.853   1.401   5.960
30902SOL     OW92729   5.691   1.013   7.312
30902SOL    HW192730   5.614   0.980   7.366
30902SOL    HW292731   5.776   0.983   7.354
30903SOL     OW92732   6.258   0.203   7.075
30903SOL    HW192733   6.348   0.187   7.035
30903SOL    HW292734   6.266   0.208   7.174
30904SOL     OW92735   5.661   0.345   5.619
30904SOL    HW192736   5.569   0.317   5.590
30904SOL    HW292737   5.692   0.422   5.563
30905SOL     OW92738   7.026   0.856   6.984
30905SOL    HW192739   6.969   0.908   6.921
30905SOL    HW292740   7.122   0.868   6.960
30906SOL     OW92741   5.658   0.166   5.904
30906SOL    HW192742   5.641   0.249   5.850
30906SOL    HW292743   5.748   0.129   5.882
30907SOL     OW92744   6.769   1.335   5.705
30907SOL    HW192745   6.670   1.324   5.707
30907SOL    HW292746   6.803   1.350   5.798
30908SOL     OW92747   6.199   0.842   7.017
30908SOL    HW192748   6.255   0.923   7.000
30908SOL    HW292749   6.258   0.762   7.020
30909SOL     OW92750   7.079   1.767   6.545
30909SOL    HW192751   7.112   1.831   6.476
30909SOL    HW292752   7.145   1.761   6.620
30910SOL     OW92753   6.302   0.565   7.294
30910SOL    HW192754   6.321   0.630   7.368
30910SOL    HW292755   6.362   0.485   7.303
30911SOL     OW92756   7.036   1.220   7.219
30911SOL    HW192757   7.027   1.210   7.318
30911SOL    HW292758   7.132   1.213   7.193
30912SOL     OW92759   5.976   1.741   7.146
30912SOL    HW192760   5.885   1.782   7.144
30912SOL    HW292761   5.969   1.647   7.178
30913SOL     OW92762   7.260   0.883   6.840
30913SOL    HW192763   7.233   0.794   6.803
30913SOL    HW292764   7.261   0.951   6.767
30914SOL     OW92765   6.811   0.325   6.035
30914SOL    HW192766   6.876   0.251   6.024
30914SOL    HW292767   6.831   0.375   6.119
30915SOL     OW92768   6.180   0.745   6.238
30915SOL    HW192769   6.230   0.830   6.219
30915SOL    HW292770   6.092   0.747   6.190
30916SOL     OW92771   7.363   0.342   7.228
30916SOL    HW192772   7.346   0.373   7.134
30916SOL    HW292773   7.279   0.305   7.266
30917SOL     OW92774   7.316   0.934   7.103
30917SOL    HW192775   7.354   1.025   7.118
30917SOL    HW292776   7.308   0.917   7.004
30918SOL     OW92777   6.445   1.374   5.602
30918SOL    HW192778   6.399   1.389   5.690
30918SOL    HW292779   6.489   1.459   5.572
30919SOL     OW92780   6.247   1.790   6.539
30919SOL    HW192781   6.201   1.878   6.526
30919SOL    HW292782   6.346   1.802   6.532
30920SOL     OW92783   6.445   0.956   6.447
30920SOL    HW192784   6.499   0.887   6.495
30920SOL    HW292785   6.413   1.025   6.513
30921SOL     OW92786   6.669   0.984   5.673
30921SOL    HW192787   6.646   1.037   5.591
30921SOL    HW292788   6.750   0.928   5.654
30922SOL     OW92789   7.447   1.569   6.437
30922SOL    HW192790   7.376   1.557   6.367
30922SOL    HW292791   7.448   1.490   6.497
30923SOL     OW92792   5.807   1.314   7.430
30923SOL    HW192793   5.742   1.241   7.409
30923SOL    HW292794   5.811   1.328   7.528
30924SOL     OW92795   5.665   1.240   6.239
30924SOL    HW192796   5.664   1.193   6.327
30924SOL    HW292797   5.747   1.212   6.188
30925SOL     OW92798   6.258   1.391   7.210
30925SOL    HW192799   6.180   1.341   7.248
30925SOL    HW292800   6.255   1.486   7.241
30926SOL     OW92801   7.410   0.192   6.813
30926SOL    HW192802   7.406   0.102   6.857
30926SOL    HW292803   7.413   0.181   6.714
30927SOL     OW92804   6.014   0.424   6.106
30927SOL    HW192805   6.044   0.352   6.044
30927SOL    HW292806   5.975   0.384   6.189
30928SOL     OW92807   7.291   1.487   6.690
30928SOL    HW192808   7.198   1.462   6.663
30928SOL    HW292809   7.317   1.437   6.772
30929SOL     OW92810   5.903   0.547   6.866
30929SOL    HW192811   5.941   0.488   6.938
30929SOL    HW292812   5.943   0.521   6.778
30930SOL     OW92813   6.398   1.586   6.273
30930SOL    HW192814   6.430   1.596   6.179
30930SOL    HW292815   6.319   1.524   6.275
30931SOL     OW92816   7.010   0.214   6.698
30931SOL    HW192817   7.062   0.149   6.753
30931SOL    HW292818   6.961   0.277   6.759
30932SOL     OW92819   6.587   0.034   6.740
30932SOL    HW192820   6.524  -0.038   6.709
30932SOL    HW292821   6.680  -0.002   6.740
30933SOL     OW92822   6.356   1.330   5.887
30933SOL    HW192823   6.310   1.243   5.904
30933SOL    HW292824   6.447   1.327   5.928
30934SOL     OW92825   6.204   1.567   6.870
30934SOL    HW192826   6.199   1.649   6.927
30934SOL    HW292827   6.293   1.564   6.825
30935SOL     OW92828   6.938   0.052   5.754
30935SOL    HW192829   6.973   0.011   5.670
30935SOL    HW292830   6.848   0.014   5.774
30936SOL     OW92831   6.886   0.453   6.277
30936SOL    HW192832   6.827   0.533   6.281
30936SOL    HW292833   6.901   0.418   6.370
30937SOL     OW92834   7.179   0.221   6.468
30937SOL    HW192835   7.095   0.220   6.522
30937SOL    HW292836   7.181   0.304   6.412
30938SOL     OW92837   5.625   1.077   5.886
30938SOL    HW192838   5.724   1.066   5.877
30938SOL    HW292839   5.585   0.991   5.918
30939SOL     OW92840   6.461   1.646   5.923
30939SOL    HW192841   6.384   1.611   5.869
30939SOL    HW292842   6.429   1.717   5.985
30940SOL     OW92843   5.816   0.628   7.561
30940SOL    HW192844   5.723   0.626   7.598
30940SOL    HW292845   5.817   0.589   7.469
30941SOL     OW92846   5.811   0.275   8.444
30941SOL    HW192847   5.846   0.258   8.536
30941SOL    HW292848   5.723   0.230   8.432
30942SOL     OW92849   5.605   0.368   8.095
30942SOL    HW192850   5.523   0.411   8.134
30942SOL    HW292851   5.577   0.295   8.032
30943SOL     OW92852   6.155   1.275   8.613
30943SOL    HW192853   6.062   1.268   8.576
30943SOL    HW292854   6.166   1.364   8.657
30944SOL     OW92855   7.141   1.511   8.151
30944SOL    HW192856   7.084   1.495   8.232
30944SOL    HW292857   7.082   1.521   8.071
30945SOL     OW92858   6.721   0.703   8.165
30945SOL    HW192859   6.778   0.781   8.140
30945SOL    HW292860   6.661   0.729   8.241
30946SOL     OW92861   7.341   0.607   7.679
30946SOL    HW192862   7.329   0.594   7.580
30946SOL    HW292863   7.311   0.526   7.728
30947SOL     OW92864   6.354   1.144   8.471
30947SOL    HW192865   6.276   1.161   8.531
30947SOL    HW292866   6.388   1.231   8.435
30948SOL     OW92867   6.436   0.798   9.271
30948SOL    HW192868   6.432   0.874   9.336
30948SOL    HW292869   6.458   0.834   9.180
30949SOL     OW92870   6.271   1.012   8.113
30949SOL    HW192871   6.340   0.996   8.183
30949SOL    HW292872   6.198   1.069   8.151
30950SOL     OW92873   6.272   1.161   9.251
30950SOL    HW192874   6.332   1.240   9.265
30950SOL    HW292875   6.186   1.192   9.210
30951SOL     OW92876   5.921   1.435   8.509
30951SOL    HW192877   5.843   1.404   8.456
30951SOL    HW292878   5.979   1.493   8.452
30952SOL     OW92879   7.046   1.505   8.787
30952SOL    HW192880   7.070   1.599   8.813
30952SOL    HW292881   7.030   1.451   8.869
30953SOL     OW92882   6.024   0.392   8.947
30953SOL    HW192883   6.106   0.336   8.956
30953SOL    HW292884   5.943   0.334   8.951
30954SOL     OW92885   7.189   0.447   8.185
30954SOL    HW192886   7.115   0.493   8.135
30954SOL    HW292887   7.240   0.515   8.238
30955SOL     OW92888   5.817   1.713   7.931
30955SOL    HW192889   5.851   1.790   7.985
30955SOL    HW292890   5.861   1.713   7.841
30956SOL     OW92891   6.713   1.341   9.138
30956SOL    HW192892   6.760   1.341   9.226
30956SOL    HW292893   6.665   1.254   9.127
30957SOL     OW92894   5.816   1.434   7.986
30957SOL    HW192895   5.790   1.530   7.986
30957SOL    HW292896   5.745   1.380   8.031
30958SOL     OW92897   5.826   1.091   8.334
30958SOL    HW192898   5.840   1.007   8.386
30958SOL    HW292899   5.771   1.155   8.389
30959SOL     OW92900   6.206   1.786   8.887
30959SOL    HW192901   6.114   1.769   8.922
30959SOL    HW292902   6.234   1.878   8.913
30960SOL     OW92903   6.192   0.964   7.571
30960SOL    HW192904   6.199   1.048   7.517
30960SOL    HW292905   6.238   0.977   7.659
30961SOL     OW92906   7.180   0.114   8.928
30961SOL    HW192907   7.162   0.181   8.856
30961SOL    HW292908   7.177   0.160   9.017
30962SOL     OW92909   5.708   0.643   8.011
30962SOL    HW192910   5.663   0.555   8.028
30962SOL    HW292911   5.707   0.697   8.095
30963SOL     OW92912   7.428   1.767   7.807
30963SOL    HW192913   7.482   1.738   7.887
30963SOL    HW292914   7.458   1.857   7.778
30964SOL     OW92915   5.613   1.596   7.565
30964SOL    HW192916   5.594   1.500   7.586
30964SOL    HW292917   5.580   1.654   7.640
30965SOL     OW92918   7.275   0.922   8.060
30965SOL    HW192919   7.370   0.893   8.068
30965SOL    HW292920   7.267   0.987   7.985
30966SOL     OW92921   7.227   1.108   7.880
30966SOL    HW192922   7.313   1.110   7.828
30966SOL    HW292923   7.241   1.155   7.968
30967SOL     OW92924   5.699   0.737   9.045
30967SOL    HW192925   5.787   0.724   9.090
30967SOL    HW292926   5.686   0.834   9.023
30968SOL     OW92927   6.199   1.365   8.174
30968SOL    HW192928   6.150   1.278   8.183
30968SOL    HW292929   6.176   1.408   8.087
30969SOL     OW92930   6.879   1.228   8.871
30969SOL    HW192931   6.916   1.155   8.813
30969SOL    HW292932   6.931   1.233   8.956
30970SOL     OW92933   6.395   0.004   7.950
30970SOL    HW192934   6.435   0.095   7.941
30970SOL    HW292935   6.295   0.012   7.956
30971SOL     OW92936   5.783   0.976   8.712
30971SOL    HW192937   5.872   0.931   8.698
30971SOL    HW292938   5.710   0.911   8.693
30972SOL     OW92939   7.111   0.999   7.638
30972SOL    HW192940   7.048   0.923   7.651
30972SOL    HW292941   7.159   1.017   7.724
30973SOL     OW92942   6.773   1.792   9.064
30973SOL    HW192943   6.797   1.852   8.988
30973SOL    HW292944   6.780   1.697   9.034
30974SOL     OW92945   5.903   0.251   9.249
30974SOL    HW192946   5.974   0.322   9.255
30974SOL    HW292947   5.815   0.290   9.277
30975SOL     OW92948   7.052   1.417   8.401
30975SOL    HW192949   6.993   1.423   8.481
30975SOL    HW292950   7.037   1.329   8.355
30976SOL     OW92951   7.253   1.714   8.020
30976SOL    HW192952   7.212   1.691   7.932
30976SOL    HW292953   7.235   1.640   8.085
30977SOL     OW92954   6.184   0.729   7.718
30977SOL    HW192955   6.208   0.798   7.650
30977SOL    HW292956   6.106   0.762   7.772
30978SOL     OW92957   6.867   0.345   8.392
30978SOL    HW192958   6.781   0.295   8.379
30978SOL    HW292959   6.929   0.291   8.448
30979SOL     OW92960   7.162   1.662   7.755
30979SOL    HW192961   7.251   1.708   7.758
30979SOL    HW292962   7.141   1.638   7.660
30980SOL     OW92963   6.393   0.605   8.913
30980SOL    HW192964   6.346   0.602   9.002
30980SOL    HW292965   6.342   0.550   8.847
30981SOL     OW92966   6.980   0.469   9.122
30981SOL    HW192967   6.960   0.512   9.210
30981SOL    HW292968   7.058   0.407   9.131
30982SOL     OW92969   6.559   0.890   9.020
30982SOL    HW192970   6.605   0.806   8.991
30982SOL    HW292971   6.503   0.924   8.945
30983SOL     OW92972   6.577   0.410   8.690
30983SOL    HW192973   6.500   0.444   8.744
30983SOL    HW292974   6.543   0.359   8.611
30984SOL     OW92975   6.627   0.701   7.877
30984SOL    HW192976   6.653   0.697   7.973
30984SOL    HW292977   6.542   0.650   7.863
30985SOL     OW92978   5.662   0.811   8.237
30985SOL    HW192979   5.761   0.799   8.246
30985SOL    HW292980   5.638   0.906   8.258
30986SOL     OW92981   5.716   1.821   9.019
30986SOL    HW192982   5.706   1.806   9.118
30986SOL    HW292983   5.630   1.857   8.983
30987SOL     OW92984   6.451   0.348   7.643
30987SOL    HW192985   6.510   0.411   7.594
30987SOL    HW292986   6.470   0.254   7.614
30988SOL     OW92987   7.305   0.585   9.279
30988SOL    HW192988   7.279   0.674   9.243
30988SOL    HW292989   7.303   0.517   9.206
30989SOL     OW92990   6.948   1.144   7.993
30989SOL    HW192991   7.031   1.115   7.945
30989SOL    HW292992   6.899   1.211   7.937
30990SOL     OW92993   6.136   0.196   8.333
30990SOL    HW192994   6.131   0.191   8.433
30990SOL    HW292995   6.138   0.292   8.304
30991SOL     OW92996   6.594   1.456   7.925
30991SOL    HW192997   6.548   1.528   7.873
30991SOL    HW292998   6.590   1.476   8.023
30992SOL     OW92999   5.937   1.801   8.301
30992SOL    HW193000   5.987   1.715   8.307
30992SOL    HW293001   6.002   1.878   8.298
30993SOL     OW93002   7.381   1.066   8.321
30993SOL    HW193003   7.319   1.051   8.245
30993SOL    HW293004   7.329   1.077   8.406
30994SOL     OW93005   6.813   1.550   8.954
30994SOL    HW193006   6.819   1.473   9.018
30994SOL    HW293007   6.761   1.524   8.874
30995SOL     OW93008   5.907   0.943   7.690
30995SOL    HW193009   5.989   0.982   7.648
30995SOL    HW293010   5.880   0.861   7.641
30996SOL     OW93011   7.044   0.735   8.176
30996SOL    HW193012   7.039   0.670   8.251
30996SOL    HW293013   7.124   0.794   8.189
30997SOL     OW93014   6.047   1.266   9.175
30997SOL    HW193015   5.997   1.267   9.089
30997SOL    HW293016   5.984   1.248   9.251
30998SOL     OW93017   6.697   1.776   7.685
30998SOL    HW193018   6.637   1.714   7.735
30998SOL    HW293019   6.728   1.732   7.600
30999SOL     OW93020   5.788   0.285   8.946
30999SOL    HW193021   5.708   0.345   8.933
30999SOL    HW293022   5.778   0.236   9.032
31000SOL     OW93023   7.218   1.377   7.529
31000SOL    HW193024   7.186   1.471   7.519
31000SOL    HW293025   7.142   1.314   7.517
31001SOL     OW93026   6.050   1.743   7.771
31001SOL    HW193027   6.083   1.782   7.857
31001SOL    HW293028   6.126   1.736   7.706
31002SOL     OW93029   6.986   0.107   7.874
31002SOL    HW193030   6.962   0.070   7.784
31002SOL    HW293031   7.085   0.123   7.878
31003SOL     OW93032   5.835   1.785   8.689
31003SOL    HW193033   5.892   1.720   8.739
31003SOL    HW293034   5.819   1.752   8.596
31004SOL     OW93035   6.526   1.698   8.352
31004SOL    HW193036   6.606   1.641   8.373
31004SOL    HW293037   6.477   1.658   8.275
31005SOL     OW93038   5.968   0.700   7.928
31005SOL    HW193039   6.013   0.610   7.925
31005SOL    HW293040   5.874   0.689   7.961
31006SOL     OW93041   7.133   0.222   9.177
31006SOL    HW193042   7.128   0.259   9.269
31006SOL    HW293043   7.061   0.153   9.165
31007SOL     OW93044   6.200   0.122   7.565
31007SOL    HW193045   6.298   0.100   7.572
31007SOL    HW293046   6.169   0.105   7.472
31008SOL     OW93047   6.367   0.264   9.197
31008SOL    HW193048   6.434   0.203   9.240
31008SOL    HW293049   6.294   0.283   9.262
31009SOL     OW93050   6.474   1.514   8.643
31009SOL    HW193051   6.451   1.489   8.549
31009SOL    HW293052   6.535   1.445   8.682
31010SOL     OW93053   6.937   0.590   8.881
31010SOL    HW193054   6.965   0.547   8.966
31010SOL    HW293055   6.962   0.686   8.882
31011SOL     OW93056   6.389   1.402   8.372
31011SOL    HW193057   6.479   1.416   8.330
31011SOL    HW293058   6.318   1.404   8.301
31012SOL     OW93059   6.508   0.503   8.347
31012SOL    HW193060   6.483   0.494   8.251
31012SOL    HW293061   6.556   0.421   8.378
31013SOL     OW93062   6.125   0.064   7.960
31013SOL    HW193063   6.044   0.065   8.018
31013SOL    HW293064   6.128   0.147   7.905
31014SOL     OW93065   7.020   1.188   7.489
31014SOL    HW193066   7.052   1.112   7.546
31014SOL    HW293067   6.928   1.215   7.519
31015SOL     OW93068   5.883   0.035   7.619
31015SOL    HW193069   5.932   0.119   7.598
31015SOL    HW293070   5.945  -0.030   7.664
31016SOL     OW93071   6.521   0.236   7.928
31016SOL    HW193072   6.473   0.277   7.850
31016SOL    HW293073   6.620   0.234   7.909
31017SOL     OW93074   6.662   0.683   8.912
31017SOL    HW193075   6.582   0.622   8.915
31017SOL    HW293076   6.743   0.630   8.888
31018SOL     OW93077   6.813   1.570   8.241
31018SOL    HW193078   6.834   1.644   8.176
31018SOL    HW293079   6.881   1.570   8.314
31019SOL     OW93080   6.045   1.152   8.189
31019SOL    HW193081   5.974   1.125   8.254
31019SOL    HW293082   6.019   1.124   8.096
31020SOL     OW93083   6.857   1.797   8.039
31020SOL    HW193084   6.901   1.861   7.975
31020SOL    HW293085   6.807   1.849   8.109
31021SOL     OW93086   6.618   0.549   7.464
31021SOL    HW193087   6.577   0.631   7.425
31021SOL    HW293088   6.682   0.575   7.537
31022SOL     OW93089   5.664   0.556   8.834
31022SOL    HW193090   5.756   0.555   8.793
31022SOL    HW293091   5.658   0.630   8.901
31023SOL     OW93092   6.147   0.222   8.595
31023SOL    HW193093   6.185   0.138   8.632
31023SOL    HW293094   6.059   0.241   8.639
31024SOL     OW93095   6.452   0.454   8.090
31024SOL    HW193096   6.420   0.526   8.028
31024SOL    HW293097   6.476   0.373   8.037
31025SOL     OW93098   6.603   0.039   8.201
31025SOL    HW193099   6.531   0.044   8.132
31025SOL    HW293100   6.579  -0.030   8.270
31026SOL     OW93101   7.015   1.173   8.315
31026SOL    HW193102   6.960   1.089   8.308
31026SOL    HW293103   7.041   1.202   8.223
31027SOL     OW93104   7.052   0.590   8.440
31027SOL    HW193105   7.022   0.495   8.447
31027SOL    HW293106   7.125   0.606   8.506
31028SOL     OW93107   7.443   0.833   7.825
31028SOL    HW193108   7.485   0.769   7.889
31028SOL    HW293109   7.405   0.782   7.747
31029SOL     OW93110   6.074   1.385   7.622
31029SOL    HW193111   5.987   1.370   7.669
31029SOL    HW293112   6.057   1.411   7.527
31030SOL     OW93113   7.250   1.280   8.105
31030SOL    HW193114   7.349   1.288   8.119
31030SOL    HW293115   7.205   1.364   8.136
31031SOL     OW93116   6.976   0.575   7.526
31031SOL    HW193117   6.922   0.554   7.607
31031SOL    HW293118   7.067   0.534   7.535
31032SOL     OW93119   6.113   0.256   7.776
31032SOL    HW193120   6.140   0.197   7.701
31032SOL    HW293121   6.113   0.351   7.745
31033SOL     OW93122   7.340   1.223   9.036
31033SOL    HW193123   7.431   1.184   9.023
31033SOL    HW293124   7.348   1.319   9.060
31034SOL     OW93125   6.650   1.347   8.788
31034SOL    HW193126   6.570   1.324   8.843
31034SOL    HW293127   6.733   1.321   8.837
31035SOL     OW93128   7.178   1.629   9.073
31035SOL    HW193129   7.205   1.663   8.983
31035SOL    HW293130   7.257   1.591   9.119
31036SOL     OW93131   6.697   1.195   8.548
31036SOL    HW193132   6.657   1.239   8.629
31036SOL    HW293133   6.656   1.232   8.465
31037SOL     OW93134   7.224   1.099   8.527
31037SOL    HW193135   7.229   1.180   8.586
31037SOL    HW293136   7.138   1.101   8.476
31038SOL     OW93137   6.501   0.089   8.850
31038SOL    HW193138   6.526   0.069   8.755
31038SOL    HW293139   6.573   0.145   8.892
31039SOL     OW93140   6.566   1.116   9.167
31039SOL    HW193141   6.467   1.122   9.177
31039SOL    HW293142   6.589   1.036   9.111
31040SOL     OW93143   6.291   1.050   7.816
31040SOL    HW193144   6.277   1.057   7.915
31040SOL    HW293145   6.375   0.999   7.798
31041SOL     OW93146   5.996   0.813   8.699
31041SOL    HW193147   6.082   0.825   8.749
31041SOL    HW293148   5.954   0.726   8.726
31042SOL     OW93149   6.860   0.386   8.710
31042SOL    HW193150   6.881   0.460   8.774
31042SOL    HW293151   6.771   0.403   8.667
31043SOL     OW93152   5.650   1.564   8.779
31043SOL    HW193153   5.604   1.646   8.745
31043SOL    HW293154   5.748   1.583   8.788
31044SOL     OW93155   5.953   1.100   7.949
31044SOL    HW193156   5.946   1.183   7.893
31044SOL    HW293157   5.957   1.020   7.889
31045SOL     OW93158   6.152   0.537   8.313
31045SOL    HW193159   6.164   0.603   8.239
31045SOL    HW293160   6.198   0.571   8.396
31046SOL     OW93161   6.838   1.348   7.836
31046SOL    HW193162   6.888   1.425   7.876
31046SOL    HW293163   6.743   1.350   7.868
31047SOL     OW93164   6.858   1.445   8.590
31047SOL    HW193165   6.905   1.458   8.677
31047SOL    HW293166   6.792   1.371   8.599
31048SOL     OW93167   7.168   0.639   7.920
31048SOL    HW193168   7.137   0.700   7.993
31048SOL    HW293169   7.218   0.691   7.851
31049SOL     OW93170   5.940   1.510   8.777
31049SOL    HW193171   5.919   1.466   8.690
31049SOL    HW293172   6.037   1.536   8.780
31050SOL     OW93173   5.988   0.751   9.046
31050SOL    HW193174   6.056   0.806   8.999
31050SOL    HW293175   6.028   0.663   9.073
31051SOL     OW93176   7.173   0.779   9.118
31051SOL    HW193177   7.081   0.817   9.113
31051SOL    HW293178   7.233   0.826   9.053
31052SOL     OW93179   6.599   0.105   9.218
31052SOL    HW193180   6.605   0.190   9.166
31052SOL    HW293181   6.631   0.029   9.161
31053SOL     OW93182   6.090   0.050   9.188
31053SOL    HW193183   6.048  -0.007   9.118
31053SOL    HW293184   6.024   0.119   9.220
31054SOL     OW93185   6.159   0.870   8.477
31054SOL    HW193186   6.203   0.959   8.468
31054SOL    HW293187   6.096   0.870   8.554
31055SOL     OW93188   6.946   0.862   8.493
31055SOL    HW193189   6.871   0.862   8.427
31055SOL    HW293190   6.983   0.770   8.502
31056SOL     OW93191   6.795   0.525   7.723
31056SOL    HW193192   6.808   0.441   7.777
31056SOL    HW293193   6.766   0.599   7.783
31057SOL     OW93194   5.893   0.213   8.679
31057SOL    HW193195   5.870   0.250   8.769
31057SOL    HW293196   5.863   0.118   8.673
31058SOL     OW93197   5.623   1.310   8.730
31058SOL    HW193198   5.676   1.261   8.798
31058SOL    HW293199   5.645   1.408   8.735
31059SOL     OW93200   6.318   0.634   8.512
31059SOL    HW193201   6.377   0.608   8.436
31059SOL    HW293202   6.290   0.730   8.501
31060SOL     OW93203   7.314   0.935   9.302
31060SOL    HW193204   7.268   0.928   9.213
31060SOL    HW293205   7.252   0.979   9.368
31061SOL     OW93206   5.893   0.063   8.066
31061SOL    HW193207   5.882   0.157   8.099
31061SOL    HW293208   5.888   0.000   8.143
31062SOL     OW93209   7.208   0.367   7.822
31062SOL    HW193210   7.210   0.291   7.886
31062SOL    HW293211   7.160   0.444   7.862
31063SOL     OW93212   6.609   0.766   8.414
31063SOL    HW193213   6.624   0.787   8.510
31063SOL    HW293214   6.579   0.671   8.405
31064SOL     OW93215   6.566   1.573   9.148
31064SOL    HW193216   6.546   1.617   9.060
31064SOL    HW293217   6.605   1.482   9.132
31065SOL     OW93218   7.445   1.518   9.053
31065SOL    HW193219   7.459   1.545   8.958
31065SOL    HW293220   7.528   1.540   9.106
31066SOL     OW93221   5.936   0.898   9.252
31066SOL    HW193222   6.012   0.942   9.300
31066SOL    HW293223   5.971   0.851   9.170
31067SOL     OW93224   7.126   0.274   7.573
31067SOL    HW193225   7.065   0.199   7.596
31067SOL    HW293226   7.148   0.326   7.656
31068SOL     OW93227   6.889   0.838   7.490
31068SOL    HW193228   6.923   0.745   7.505
31068SOL    HW293229   6.907   0.865   7.395
31069SOL     OW93230   6.654   1.333   8.297
31069SOL    HW193231   6.661   1.249   8.242
31069SOL    HW293232   6.716   1.402   8.261
31070SOL     OW93233   5.905   0.810   8.397
31070SOL    HW193234   5.998   0.846   8.402
31070SOL    HW293235   5.899   0.725   8.449
31071SOL     OW93236   5.925   0.509   8.454
31071SOL    HW193237   5.873   0.426   8.437
31071SOL    HW293238   6.002   0.514   8.390
31072SOL     OW93239   6.724   0.380   9.126
31072SOL    HW193240   6.679   0.443   9.190
31072SOL    HW293241   6.817   0.411   9.109
31073SOL     OW93242   6.746   0.207   8.925
31073SOL    HW193243   6.746   0.271   9.002
31073SOL    HW293244   6.774   0.255   8.842
31074SOL     OW93245   5.594   1.326   7.648
31074SOL    HW193246   5.501   1.347   7.617
31074SOL    HW293247   5.604   1.227   7.661
31075SOL     OW93248   5.674   1.801   8.375
31075SOL    HW193249   5.632   1.715   8.348
31075SOL    HW293250   5.768   1.804   8.341
31076SOL     OW93251   6.090   1.568   8.358
31076SOL    HW193252   6.156   1.642   8.367
31076SOL    HW293253   6.134   1.489   8.316
31077SOL     OW93254   6.588   0.796   8.686
31077SOL    HW193255   6.629   0.764   8.772
31077SOL    HW293256   6.492   0.769   8.683
31078SOL     OW93257   5.626   0.544   8.562
31078SOL    HW193258   5.711   0.511   8.521
31078SOL    HW293259   5.639   0.559   8.660
31079SOL     OW93260   5.775   0.520   9.170
31079SOL    HW193261   5.834   0.480   9.100
31079SOL    HW293262   5.717   0.591   9.129
31080SOL     OW93263   6.955   0.950   9.108
31080SOL    HW193264   6.994   1.039   9.128
31080SOL    HW293265   6.965   0.930   9.011
31081SOL     OW93266   6.401   0.572   7.773
31081SOL    HW193267   6.408   0.483   7.727
31081SOL    HW293268   6.307   0.606   7.765
31082SOL     OW93269   7.243   0.604   8.654
31082SOL    HW193270   7.205   0.535   8.716
31082SOL    HW293271   7.325   0.568   8.610
31083SOL     OW93272   5.838   1.564   9.192
31083SOL    HW193273   5.808   1.621   9.268
31083SOL    HW293274   5.831   1.467   9.218
31084SOL     OW93275   6.257   0.464   8.717
31084SOL    HW193276   6.223   0.375   8.687
31084SOL    HW293277   6.283   0.518   8.637
31085SOL     OW93278   6.516   1.678   8.913
31085SOL    HW193279   6.492   1.660   8.818
31085SOL    HW293280   6.546   1.772   8.923
31086SOL     OW93281   6.059   0.500   7.639
31086SOL    HW193282   6.120   0.580   7.643
31086SOL    HW293283   5.964   0.531   7.646
31087SOL     OW93284   5.745   1.137   8.914
31087SOL    HW193285   5.767   1.076   8.990
31087SOL    HW293286   5.755   1.088   8.828
31088SOL     OW93287   6.933   1.059   8.682
31088SOL    HW193288   6.957   0.996   8.608
31088SOL    HW293289   6.843   1.099   8.664
31089SOL     OW93290   6.888   0.855   7.757
31089SOL    HW193291   6.802   0.824   7.799
31089SOL    HW293292   6.884   0.841   7.658
31090SOL     OW93293   7.345   1.747   8.602
31090SOL    HW193294   7.406   1.777   8.529
31090SOL    HW293295   7.307   1.658   8.580
31091SOL     OW93296   6.838   1.731   8.576
31091SOL    HW193297   6.922   1.736   8.522
31091SOL    HW293298   6.815   1.635   8.594
31092SOL     OW93299   5.669   1.258   8.470
31092SOL    HW193300   5.664   1.257   8.570
31092SOL    HW293301   5.586   1.217   8.432
31093SOL     OW93302   6.274   1.662   9.164
31093SOL    HW193303   6.218   1.743   9.173
31093SOL    HW293304   6.326   1.666   9.078
31094SOL     OW93305   7.312   0.135   7.971
31094SOL    HW193306   7.385   0.118   7.904
31094SOL    HW293307   7.281   0.048   8.009
31095SOL     OW93308   6.974   1.573   7.925
31095SOL    HW193309   7.041   1.585   7.851
31095SOL    HW293310   6.934   1.662   7.948
31096SOL     OW93311   5.716   1.794   9.299
31096SOL    HW193312   5.675   1.720   9.352
31096SOL    HW293313   5.780   1.845   9.357
31097SOL     OW93314   6.866   0.927   8.120
31097SOL    HW193315   6.926   0.846   8.122
31097SOL    HW293316   6.906   0.996   8.060
31098SOL     OW93317   6.416   1.273   8.870
31098SOL    HW193318   6.411   1.306   8.965
31098SOL    HW293319   6.330   1.292   8.824
31099SOL     OW93320   6.258   1.616   7.602
31099SOL    HW193321   6.267   1.626   7.503
31099SOL    HW293322   6.218   1.527   7.623
31100SOL     OW93323   7.236   1.720   8.842
31100SOL    HW193324   7.289   1.730   8.758
31100SOL    HW293325   7.209   1.810   8.876
31101SOL     OW93326   7.427   0.175   8.411
31101SOL    HW193327   7.466   0.090   8.375
31101SOL    HW293328   7.329   0.177   8.392
31102SOL     OW93329   5.849   0.326   8.168
31102SOL    HW193330   5.770   0.377   8.134
31102SOL    HW293331   5.840   0.311   8.266
31103SOL     OW93332   6.780   1.612   7.479
31103SOL    HW193333   6.786   1.519   7.516
31103SOL    HW293334   6.721   1.612   7.399
31104SOL     OW93335   6.408   1.002   8.820
31104SOL    HW193336   6.448   1.001   8.728
31104SOL    HW293337   6.418   1.094   8.860
31105SOL     OW93338   6.502   0.910   7.739
31105SOL    HW193339   6.565   0.948   7.671
31105SOL    HW293340   6.542   0.827   7.778
31106SOL     OW93341   7.090   1.607   7.492
31106SOL    HW193342   6.998   1.644   7.499
31106SOL    HW293343   7.128   1.627   7.402
31107SOL     OW93344   5.958   1.288   8.938
31107SOL    HW193345   5.945   1.381   8.904
31107SOL    HW293346   5.874   1.236   8.925
31108SOL     OW93347   7.200   1.292   8.737
31108SOL    HW193348   7.260   1.295   8.817
31108SOL    HW293349   7.125   1.356   8.750
31109SOL     OW93350   6.625   1.098   8.144
31109SOL    HW193351   6.555   1.051   8.198
31109SOL    HW293352   6.684   1.030   8.101
31110SOL     OW93353   6.600   0.236   8.419
31110SOL    HW193354   6.592   0.200   8.326
31110SOL    HW293355   6.598   0.160   8.484
31111SOL     OW93356   6.176   1.487   7.939
31111SOL    HW193357   6.218   1.429   7.869
31111SOL    HW293358   6.132   1.566   7.895
31112SOL     OW93359   7.295   0.385   8.829
31112SOL    HW193360   7.368   0.454   8.833
31112SOL    HW293361   7.323   0.310   8.770
31113SOL     OW93362   5.841   1.348   7.738
31113SOL    HW193363   5.745   1.349   7.711
31113SOL    HW293364   5.853   1.401   7.822
31114SOL     OW93365   5.691   1.013   9.174
31114SOL    HW193366   5.614   0.980   9.228
31114SOL    HW293367   5.776   0.983   9.216
31115SOL     OW93368   6.258   0.203   8.937
31115SOL    HW193369   6.348   0.187   8.897
31115SOL    HW293370   6.266   0.208   9.036
31116SOL     OW93371   5.661   0.345   7.481
31116SOL    HW193372   5.569   0.317   7.452
31116SOL    HW293373   5.692   0.422   7.425
31117SOL     OW93374   7.026   0.856   8.846
31117SOL    HW193375   6.969   0.908   8.783
31117SOL    HW293376   7.122   0.868   8.822
31118SOL     OW93377   5.658   0.166   7.766
31118SOL    HW193378   5.641   0.249   7.712
31118SOL    HW293379   5.748   0.129   7.744
31119SOL     OW93380   6.769   1.335   7.567
31119SOL    HW193381   6.670   1.324   7.569
31119SOL    HW293382   6.803   1.350   7.660
31120SOL     OW93383   6.199   0.842   8.879
31120SOL    HW193384   6.255   0.923   8.862
31120SOL    HW293385   6.258   0.762   8.882
31121SOL     OW93386   7.079   1.767   8.407
31121SOL    HW193387   7.112   1.831   8.338
31121SOL    HW293388   7.145   1.761   8.482
31122SOL     OW93389   6.302   0.565   9.156
31122SOL    HW193390   6.321   0.630   9.230
31122SOL    HW293391   6.362   0.485   9.165
31123SOL     OW93392   7.036   1.220   9.081
31123SOL    HW193393   7.027   1.210   9.180
31123SOL    HW293394   7.132   1.213   9.055
31124SOL     OW93395   5.976   1.741   9.008
31124SOL    HW193396   5.885   1.782   9.006
31124SOL    HW293397   5.969   1.647   9.040
31125SOL     OW93398   7.260   0.883   8.702
31125SOL    HW193399   7.233   0.794   8.665
31125SOL    HW293400   7.261   0.951   8.629
31126SOL     OW93401   6.811   0.325   7.897
31126SOL    HW193402   6.876   0.251   7.886
31126SOL    HW293403   6.831   0.375   7.981
31127SOL     OW93404   6.180   0.745   8.100
31127SOL    HW193405   6.230   0.830   8.081
31127SOL    HW293406   6.092   0.747   8.052
31128SOL     OW93407   7.363   0.342   9.090
31128SOL    HW193408   7.346   0.373   8.996
31128SOL    HW293409   7.279   0.305   9.128
31129SOL     OW93410   7.316   0.934   8.965
31129SOL    HW193411   7.354   1.025   8.980
31129SOL    HW293412   7.308   0.917   8.866
31130SOL     OW93413   6.445   1.374   7.464
31130SOL    HW193414   6.399   1.389   7.552
31130SOL    HW293415   6.489   1.459   7.434
31131SOL     OW93416   6.247   1.790   8.401
31131SOL    HW193417   6.201   1.878   8.388
31131SOL    HW293418   6.346   1.802   8.394
31132SOL     OW93419   6.445   0.956   8.309
31132SOL    HW193420   6.499   0.887   8.357
31132SOL    HW293421   6.413   1.025   8.375
31133SOL     OW93422   6.669   0.984   7.535
31133SOL    HW193423   6.646   1.037   7.453
31133SOL    HW293424   6.750   0.928   7.516
31134SOL     OW93425   7.447   1.569   8.299
31134SOL    HW193426   7.376   1.557   8.229
31134SOL    HW293427   7.448   1.490   8.359
31135SOL     OW93428   5.807   1.314   9.292
31135SOL    HW193429   5.742   1.241   9.271
31135SOL    HW293430   5.811   1.328   9.390
31136SOL     OW93431   5.665   1.240   8.101
31136SOL    HW193432   5.664   1.193   8.189
31136SOL    HW293433   5.747   1.212   8.050
31137SOL     OW93434   6.258   1.391   9.072
31137SOL    HW193435   6.180   1.341   9.110
31137SOL    HW293436   6.255   1.486   9.103
31138SOL     OW93437   7.410   0.192   8.675
31138SOL    HW193438   7.406   0.102   8.719
31138SOL    HW293439   7.413   0.181   8.576
31139SOL     OW93440   6.014   0.424   7.968
31139SOL    HW193441   6.044   0.352   7.906
31139SOL    HW293442   5.975   0.384   8.051
31140SOL     OW93443   7.291   1.487   8.552
31140SOL    HW193444   7.198   1.462   8.525
31140SOL    HW293445   7.317   1.437   8.634
31141SOL     OW93446   5.903   0.547   8.728
31141SOL    HW193447   5.941   0.488   8.800
31141SOL    HW293448   5.943   0.521   8.640
31142SOL     OW93449   6.398   1.586   8.135
31142SOL    HW193450   6.430   1.596   8.041
31142SOL    HW293451   6.319   1.524   8.137
31143SOL     OW93452   7.010   0.214   8.560
31143SOL    HW193453   7.062   0.149   8.615
31143SOL    HW293454   6.961   0.277   8.621
31144SOL     OW93455   6.587   0.034   8.602
31144SOL    HW193456   6.524  -0.038   8.571
31144SOL    HW293457   6.680  -0.002   8.602
31145SOL     OW93458   6.356   1.330   7.749
31145SOL    HW193459   6.310   1.243   7.766
31145SOL    HW293460   6.447   1.327   7.790
31146SOL     OW93461   6.204   1.567   8.732
31146SOL    HW193462   6.199   1.649   8.789
31146SOL    HW293463   6.293   1.564   8.687
31147SOL     OW93464   6.938   0.052   7.616
31147SOL    HW193465   6.973   0.011   7.532
31147SOL    HW293466   6.848   0.014   7.636
31148SOL     OW93467   6.886   0.453   8.139
31148SOL    HW193468   6.827   0.533   8.143
31148SOL    HW293469   6.901   0.418   8.232
31149SOL     OW93470   7.179   0.221   8.330
31149SOL    HW193471   7.095   0.220   8.384
31149SOL    HW293472   7.181   0.304   8.274
31150SOL     OW93473   5.625   1.077   7.748
31150SOL    HW193474   5.724   1.066   7.739
31150SOL    HW293475   5.585   0.991   7.780
31151SOL     OW93476   6.461   1.646   7.785
31151SOL    HW193477   6.384   1.611   7.731
31151SOL    HW293478   6.429   1.717   7.847
31152SOL     OW93479   5.816   0.628   9.423
31152SOL    HW193480   5.723   0.626   9.460
31152SOL    HW293481   5.817   0.589   9.331
31153SOL     OW93482   5.811   0.275  10.306
31153SOL    HW193483   5.846   0.258  10.398
31153SOL    HW293484   5.723   0.230  10.294
31154SOL     OW93485   5.605   0.368   9.957
31154SOL    HW193486   5.523   0.411   9.996
31154SOL    HW293487   5.577   0.295   9.894
31155SOL     OW93488   6.155   1.275  10.475
31155SOL    HW193489   6.062   1.268  10.438
31155SOL    HW293490   6.166   1.364  10.519
31156SOL     OW93491   7.141   1.511  10.013
31156SOL    HW193492   7.084   1.495  10.094
31156SOL    HW293493   7.082   1.521   9.933
31157SOL     OW93494   6.721   0.703  10.027
31157SOL    HW193495   6.778   0.781  10.002
31157SOL    HW293496   6.661   0.729  10.103
31158SOL     OW93497   7.341   0.607   9.541
31158SOL    HW193498   7.329   0.594   9.442
31158SOL    HW293499   7.311   0.526   9.590
31159SOL     OW93500   6.354   1.144  10.333
31159SOL    HW193501   6.276   1.161  10.393
31159SOL    HW293502   6.388   1.231  10.297
31160SOL     OW93503   6.436   0.798  11.133
31160SOL    HW193504   6.432   0.874  11.198
31160SOL    HW293505   6.458   0.834  11.042
31161SOL     OW93506   6.271   1.012   9.975
31161SOL    HW193507   6.340   0.996  10.045
31161SOL    HW293508   6.198   1.069  10.013
31162SOL     OW93509   6.272   1.161  11.113
31162SOL    HW193510   6.332   1.240  11.127
31162SOL    HW293511   6.186   1.192  11.072
31163SOL     OW93512   5.921   1.435  10.371
31163SOL    HW193513   5.843   1.404  10.318
31163SOL    HW293514   5.979   1.493  10.314
31164SOL     OW93515   7.046   1.505  10.649
31164SOL    HW193516   7.070   1.599  10.675
31164SOL    HW293517   7.030   1.451  10.731
31165SOL     OW93518   6.024   0.392  10.809
31165SOL    HW193519   6.106   0.336  10.818
31165SOL    HW293520   5.943   0.334  10.813
31166SOL     OW93521   7.189   0.447  10.047
31166SOL    HW193522   7.115   0.493   9.997
31166SOL    HW293523   7.240   0.515  10.100
31167SOL     OW93524   5.817   1.713   9.793
31167SOL    HW193525   5.851   1.790   9.847
31167SOL    HW293526   5.861   1.713   9.703
31168SOL     OW93527   6.713   1.341  11.000
31168SOL    HW193528   6.760   1.341  11.088
31168SOL    HW293529   6.665   1.254  10.989
31169SOL     OW93530   5.816   1.434   9.848
31169SOL    HW193531   5.790   1.530   9.848
31169SOL    HW293532   5.745   1.380   9.893
31170SOL     OW93533   5.826   1.091  10.196
31170SOL    HW193534   5.840   1.007  10.248
31170SOL    HW293535   5.771   1.155  10.251
31171SOL     OW93536   6.206   1.786  10.749
31171SOL    HW193537   6.114   1.769  10.784
31171SOL    HW293538   6.234   1.878  10.775
31172SOL     OW93539   6.192   0.964   9.433
31172SOL    HW193540   6.199   1.048   9.379
31172SOL    HW293541   6.238   0.977   9.521
31173SOL     OW93542   7.180   0.114  10.790
31173SOL    HW193543   7.162   0.181  10.718
31173SOL    HW293544   7.177   0.160  10.879
31174SOL     OW93545   5.708   0.643   9.873
31174SOL    HW193546   5.663   0.555   9.890
31174SOL    HW293547   5.707   0.697   9.957
31175SOL     OW93548   7.428   1.767   9.669
31175SOL    HW193549   7.482   1.738   9.749
31175SOL    HW293550   7.458   1.857   9.640
31176SOL     OW93551   5.613   1.596   9.427
31176SOL    HW193552   5.594   1.500   9.448
31176SOL    HW293553   5.580   1.654   9.502
31177SOL     OW93554   7.275   0.922   9.922
31177SOL    HW193555   7.370   0.893   9.930
31177SOL    HW293556   7.267   0.987   9.847
31178SOL     OW93557   7.227   1.108   9.742
31178SOL    HW193558   7.313   1.110   9.690
31178SOL    HW293559   7.241   1.155   9.830
31179SOL     OW93560   5.699   0.737  10.907
31179SOL    HW193561   5.787   0.724  10.952
31179SOL    HW293562   5.686   0.834  10.885
31180SOL     OW93563   6.199   1.365  10.036
31180SOL    HW193564   6.150   1.278  10.045
31180SOL    HW293565   6.176   1.408   9.949
31181SOL     OW93566   6.879   1.228  10.733
31181SOL    HW193567   6.916   1.155  10.675
31181SOL    HW293568   6.931   1.233  10.818
31182SOL     OW93569   6.395   0.004   9.812
31182SOL    HW193570   6.435   0.095   9.803
31182SOL    HW293571   6.295   0.012   9.818
31183SOL     OW93572   5.783   0.976  10.574
31183SOL    HW193573   5.872   0.931  10.560
31183SOL    HW293574   5.710   0.911  10.555
31184SOL     OW93575   7.111   0.999   9.500
31184SOL    HW193576   7.048   0.923   9.513
31184SOL    HW293577   7.159   1.017   9.586
31185SOL     OW93578   6.773   1.792  10.926
31185SOL    HW193579   6.797   1.852  10.850
31185SOL    HW293580   6.780   1.697  10.896
31186SOL     OW93581   5.903   0.251  11.111
31186SOL    HW193582   5.974   0.322  11.117
31186SOL    HW293583   5.815   0.290  11.139
31187SOL     OW93584   7.052   1.417  10.263
31187SOL    HW193585   6.993   1.423  10.343
31187SOL    HW293586   7.037   1.329  10.217
31188SOL     OW93587   7.253   1.714   9.882
31188SOL    HW193588   7.212   1.691   9.794
31188SOL    HW293589   7.235   1.640   9.947
31189SOL     OW93590   6.184   0.729   9.580
31189SOL    HW193591   6.208   0.798   9.512
31189SOL    HW293592   6.106   0.762   9.634
31190SOL     OW93593   6.867   0.345  10.254
31190SOL    HW193594   6.781   0.295  10.241
31190SOL    HW293595   6.929   0.291  10.310
31191SOL     OW93596   7.162   1.662   9.617
31191SOL    HW193597   7.251   1.708   9.620
31191SOL    HW293598   7.141   1.638   9.522
31192SOL     OW93599   6.393   0.605  10.775
31192SOL    HW193600   6.346   0.602  10.864
31192SOL    HW293601   6.342   0.550  10.709
31193SOL     OW93602   6.980   0.469  10.984
31193SOL    HW193603   6.960   0.512  11.072
31193SOL    HW293604   7.058   0.407  10.993
31194SOL     OW93605   6.559   0.890  10.882
31194SOL    HW193606   6.605   0.806  10.853
31194SOL    HW293607   6.503   0.924  10.807
31195SOL     OW93608   6.577   0.410  10.552
31195SOL    HW193609   6.500   0.444  10.606
31195SOL    HW293610   6.543   0.359  10.473
31196SOL     OW93611   6.627   0.701   9.739
31196SOL    HW193612   6.653   0.697   9.835
31196SOL    HW293613   6.542   0.650   9.725
31197SOL     OW93614   5.662   0.811  10.099
31197SOL    HW193615   5.761   0.799  10.108
31197SOL    HW293616   5.638   0.906  10.120
31198SOL     OW93617   5.716   1.821  10.881
31198SOL    HW193618   5.706   1.806  10.980
31198SOL    HW293619   5.630   1.857  10.845
31199SOL     OW93620   6.451   0.348   9.505
31199SOL    HW193621   6.510   0.411   9.456
31199SOL    HW293622   6.470   0.254   9.476
31200SOL     OW93623   7.305   0.585  11.141
31200SOL    HW193624   7.279   0.674  11.105
31200SOL    HW293625   7.303   0.517  11.068
31201SOL     OW93626   6.948   1.144   9.855
31201SOL    HW193627   7.031   1.115   9.807
31201SOL    HW293628   6.899   1.211   9.799
31202SOL     OW93629   6.136   0.196  10.195
31202SOL    HW193630   6.131   0.191  10.295
31202SOL    HW293631   6.138   0.292  10.166
31203SOL     OW93632   6.594   1.456   9.787
31203SOL    HW193633   6.548   1.528   9.735
31203SOL    HW293634   6.590   1.476   9.885
31204SOL     OW93635   5.937   1.801  10.163
31204SOL    HW193636   5.987   1.715  10.169
31204SOL    HW293637   6.002   1.878  10.160
31205SOL     OW93638   7.381   1.066  10.183
31205SOL    HW193639   7.319   1.051  10.107
31205SOL    HW293640   7.329   1.077  10.268
31206SOL     OW93641   6.813   1.550  10.816
31206SOL    HW193642   6.819   1.473  10.880
31206SOL    HW293643   6.761   1.524  10.736
31207SOL     OW93644   5.907   0.943   9.552
31207SOL    HW193645   5.989   0.982   9.510
31207SOL    HW293646   5.880   0.861   9.503
31208SOL     OW93647   7.044   0.735  10.038
31208SOL    HW193648   7.039   0.670  10.113
31208SOL    HW293649   7.124   0.794  10.051
31209SOL     OW93650   6.047   1.266  11.037
31209SOL    HW193651   5.997   1.267  10.951
31209SOL    HW293652   5.984   1.248  11.113
31210SOL     OW93653   6.697   1.776   9.547
31210SOL    HW193654   6.637   1.714   9.597
31210SOL    HW293655   6.728   1.732   9.462
31211SOL     OW93656   5.788   0.285  10.808
31211SOL    HW193657   5.708   0.345  10.795
31211SOL    HW293658   5.778   0.236  10.894
31212SOL     OW93659   7.218   1.377   9.391
31212SOL    HW193660   7.186   1.471   9.381
31212SOL    HW293661   7.142   1.314   9.379
31213SOL     OW93662   6.050   1.743   9.633
31213SOL    HW193663   6.083   1.782   9.719
31213SOL    HW293664   6.126   1.736   9.568
31214SOL     OW93665   6.986   0.107   9.736
31214SOL    HW193666   6.962   0.070   9.646
31214SOL    HW293667   7.085   0.123   9.740
31215SOL     OW93668   5.835   1.785  10.551
31215SOL    HW193669   5.892   1.720  10.601
31215SOL    HW293670   5.819   1.752  10.458
31216SOL     OW93671   6.526   1.698  10.214
31216SOL    HW193672   6.606   1.641  10.235
31216SOL    HW293673   6.477   1.658  10.137
31217SOL     OW93674   5.968   0.700   9.790
31217SOL    HW193675   6.013   0.610   9.787
31217SOL    HW293676   5.874   0.689   9.823
31218SOL     OW93677   7.133   0.222  11.039
31218SOL    HW193678   7.128   0.259  11.131
31218SOL    HW293679   7.061   0.153  11.027
31219SOL     OW93680   6.200   0.122   9.427
31219SOL    HW193681   6.298   0.100   9.434
31219SOL    HW293682   6.169   0.105   9.334
31220SOL     OW93683   6.367   0.264  11.059
31220SOL    HW193684   6.434   0.203  11.102
31220SOL    HW293685   6.294   0.283  11.124
31221SOL     OW93686   6.474   1.514  10.505
31221SOL    HW193687   6.451   1.489  10.411
31221SOL    HW293688   6.535   1.445  10.544
31222SOL     OW93689   6.937   0.590  10.743
31222SOL    HW193690   6.965   0.547  10.828
31222SOL    HW293691   6.962   0.686  10.744
31223SOL     OW93692   6.389   1.402  10.234
31223SOL    HW193693   6.479   1.416  10.192
31223SOL    HW293694   6.318   1.404  10.163
31224SOL     OW93695   6.508   0.503  10.209
31224SOL    HW193696   6.483   0.494  10.113
31224SOL    HW293697   6.556   0.421  10.240
31225SOL     OW93698   6.125   0.064   9.822
31225SOL    HW193699   6.044   0.065   9.880
31225SOL    HW293700   6.128   0.147   9.767
31226SOL     OW93701   7.020   1.188   9.351
31226SOL    HW193702   7.052   1.112   9.408
31226SOL    HW293703   6.928   1.215   9.381
31227SOL     OW93704   5.883   0.035   9.481
31227SOL    HW193705   5.932   0.119   9.460
31227SOL    HW293706   5.945  -0.030   9.526
31228SOL     OW93707   6.521   0.236   9.790
31228SOL    HW193708   6.473   0.277   9.712
31228SOL    HW293709   6.620   0.234   9.771
31229SOL     OW93710   6.662   0.683  10.774
31229SOL    HW193711   6.582   0.622  10.777
31229SOL    HW293712   6.743   0.630  10.750
31230SOL     OW93713   6.813   1.570  10.103
31230SOL    HW193714   6.834   1.644  10.038
31230SOL    HW293715   6.881   1.570  10.176
31231SOL     OW93716   6.045   1.152  10.051
31231SOL    HW193717   5.974   1.125  10.116
31231SOL    HW293718   6.019   1.124   9.958
31232SOL     OW93719   6.857   1.797   9.901
31232SOL    HW193720   6.901   1.861   9.837
31232SOL    HW293721   6.807   1.849   9.971
31233SOL     OW93722   6.618   0.549   9.326
31233SOL    HW193723   6.577   0.631   9.287
31233SOL    HW293724   6.682   0.575   9.399
31234SOL     OW93725   5.664   0.556  10.696
31234SOL    HW193726   5.756   0.555  10.655
31234SOL    HW293727   5.658   0.630  10.763
31235SOL     OW93728   6.147   0.222  10.457
31235SOL    HW193729   6.185   0.138  10.494
31235SOL    HW293730   6.059   0.241  10.501
31236SOL     OW93731   6.452   0.454   9.952
31236SOL    HW193732   6.420   0.526   9.890
31236SOL    HW293733   6.476   0.373   9.899
31237SOL     OW93734   6.603   0.039  10.063
31237SOL    HW193735   6.531   0.044   9.994
31237SOL    HW293736   6.579  -0.030  10.132
31238SOL     OW93737   7.015   1.173  10.177
31238SOL    HW193738   6.960   1.089  10.170
31238SOL    HW293739   7.041   1.202  10.085
31239SOL     OW93740   7.052   0.590  10.302
31239SOL    HW193741   7.022   0.495  10.309
31239SOL    HW293742   7.125   0.606  10.368
31240SOL     OW93743   7.443   0.833   9.687
31240SOL    HW193744   7.485   0.769   9.751
31240SOL    HW293745   7.405   0.782   9.609
31241SOL     OW93746   6.074   1.385   9.484
31241SOL    HW193747   5.987   1.370   9.531
31241SOL    HW293748   6.057   1.411   9.389
31242SOL     OW93749   7.250   1.280   9.967
31242SOL    HW193750   7.349   1.288   9.981
31242SOL    HW293751   7.205   1.364   9.998
31243SOL     OW93752   6.976   0.575   9.388
31243SOL    HW193753   6.922   0.554   9.469
31243SOL    HW293754   7.067   0.534   9.397
31244SOL     OW93755   6.113   0.256   9.638
31244SOL    HW193756   6.140   0.197   9.563
31244SOL    HW293757   6.113   0.351   9.607
31245SOL     OW93758   7.340   1.223  10.898
31245SOL    HW193759   7.431   1.184  10.885
31245SOL    HW293760   7.348   1.319  10.922
31246SOL     OW93761   6.650   1.347  10.650
31246SOL    HW193762   6.570   1.324  10.705
31246SOL    HW293763   6.733   1.321  10.699
31247SOL     OW93764   7.178   1.629  10.935
31247SOL    HW193765   7.205   1.663  10.845
31247SOL    HW293766   7.257   1.591  10.981
31248SOL     OW93767   6.697   1.195  10.410
31248SOL    HW193768   6.657   1.239  10.491
31248SOL    HW293769   6.656   1.232  10.327
31249SOL     OW93770   7.224   1.099  10.389
31249SOL    HW193771   7.229   1.180  10.448
31249SOL    HW293772   7.138   1.101  10.338
31250SOL     OW93773   6.501   0.089  10.712
31250SOL    HW193774   6.526   0.069  10.617
31250SOL    HW293775   6.573   0.145  10.754
31251SOL     OW93776   6.566   1.116  11.029
31251SOL    HW193777   6.467   1.122  11.039
31251SOL    HW293778   6.589   1.036  10.973
31252SOL     OW93779   6.291   1.050   9.678
31252SOL    HW193780   6.277   1.057   9.777
31252SOL    HW293781   6.375   0.999   9.660
31253SOL     OW93782   5.996   0.813  10.561
31253SOL    HW193783   6.082   0.825  10.611
31253SOL    HW293784   5.954   0.726  10.588
31254SOL     OW93785   6.860   0.386  10.572
31254SOL    HW193786   6.881   0.460  10.636
31254SOL    HW293787   6.771   0.403  10.529
31255SOL     OW93788   5.650   1.564  10.641
31255SOL    HW193789   5.604   1.646  10.607
31255SOL    HW293790   5.748   1.583  10.650
31256SOL     OW93791   5.953   1.100   9.811
31256SOL    HW193792   5.946   1.183   9.755
31256SOL    HW293793   5.957   1.020   9.751
31257SOL     OW93794   6.152   0.537  10.175
31257SOL    HW193795   6.164   0.603  10.101
31257SOL    HW293796   6.198   0.571  10.258
31258SOL     OW93797   6.838   1.348   9.698
31258SOL    HW193798   6.888   1.425   9.738
31258SOL    HW293799   6.743   1.350   9.730
31259SOL     OW93800   6.858   1.445  10.452
31259SOL    HW193801   6.905   1.458  10.539
31259SOL    HW293802   6.792   1.371  10.461
31260SOL     OW93803   7.168   0.639   9.782
31260SOL    HW193804   7.137   0.700   9.855
31260SOL    HW293805   7.218   0.691   9.713
31261SOL     OW93806   5.940   1.510  10.639
31261SOL    HW193807   5.919   1.466  10.552
31261SOL    HW293808   6.037   1.536  10.642
31262SOL     OW93809   5.988   0.751  10.908
31262SOL    HW193810   6.056   0.806  10.861
31262SOL    HW293811   6.028   0.663  10.935
31263SOL     OW93812   7.173   0.779  10.980
31263SOL    HW193813   7.081   0.817  10.975
31263SOL    HW293814   7.233   0.826  10.915
31264SOL     OW93815   6.599   0.105  11.080
31264SOL    HW193816   6.605   0.190  11.028
31264SOL    HW293817   6.631   0.029  11.023
31265SOL     OW93818   6.090   0.050  11.050
31265SOL    HW193819   6.048  -0.007  10.980
31265SOL    HW293820   6.024   0.119  11.082
31266SOL     OW93821   6.159   0.870  10.339
31266SOL    HW193822   6.203   0.959  10.330
31266SOL    HW293823   6.096   0.870  10.416
31267SOL     OW93824   6.946   0.862  10.355
31267SOL    HW193825   6.871   0.862  10.289
31267SOL    HW293826   6.983   0.770  10.364
31268SOL     OW93827   6.795   0.525   9.585
31268SOL    HW193828   6.808   0.441   9.639
31268SOL    HW293829   6.766   0.599   9.645
31269SOL     OW93830   5.893   0.213  10.541
31269SOL    HW193831   5.870   0.250  10.631
31269SOL    HW293832   5.863   0.118  10.535
31270SOL     OW93833   5.623   1.310  10.592
31270SOL    HW193834   5.676   1.261  10.660
31270SOL    HW293835   5.645   1.408  10.597
31271SOL     OW93836   6.318   0.634  10.374
31271SOL    HW193837   6.377   0.608  10.298
31271SOL    HW293838   6.290   0.730  10.363
31272SOL     OW93839   7.314   0.935  11.164
31272SOL    HW193840   7.268   0.928  11.075
31272SOL    HW293841   7.252   0.979  11.230
31273SOL     OW93842   5.893   0.063   9.928
31273SOL    HW193843   5.882   0.157   9.961
31273SOL    HW293844   5.888   0.000  10.005
31274SOL     OW93845   7.208   0.367   9.684
31274SOL    HW193846   7.210   0.291   9.748
31274SOL    HW293847   7.160   0.444   9.724
31275SOL     OW93848   6.609   0.766  10.276
31275SOL    HW193849   6.624   0.787  10.372
31275SOL    HW293850   6.579   0.671  10.267
31276SOL     OW93851   6.566   1.573  11.010
31276SOL    HW193852   6.546   1.617  10.922
31276SOL    HW293853   6.605   1.482  10.994
31277SOL     OW93854   7.445   1.518  10.915
31277SOL    HW193855   7.459   1.545  10.820
31277SOL    HW293856   7.528   1.540  10.968
31278SOL     OW93857   5.936   0.898  11.114
31278SOL    HW193858   6.012   0.942  11.162
31278SOL    HW293859   5.971   0.851  11.032
31279SOL     OW93860   7.126   0.274   9.435
31279SOL    HW193861   7.065   0.199   9.458
31279SOL    HW293862   7.148   0.326   9.518
31280SOL     OW93863   6.889   0.838   9.352
31280SOL    HW193864   6.923   0.745   9.367
31280SOL    HW293865   6.907   0.865   9.257
31281SOL     OW93866   6.654   1.333  10.159
31281SOL    HW193867   6.661   1.249  10.104
31281SOL    HW293868   6.716   1.402  10.123
31282SOL     OW93869   5.905   0.810  10.259
31282SOL    HW193870   5.998   0.846  10.264
31282SOL    HW293871   5.899   0.725  10.311
31283SOL     OW93872   5.925   0.509  10.316
31283SOL    HW193873   5.873   0.426  10.299
31283SOL    HW293874   6.002   0.514  10.252
31284SOL     OW93875   6.724   0.380  10.988
31284SOL    HW193876   6.679   0.443  11.052
31284SOL    HW293877   6.817   0.411  10.971
31285SOL     OW93878   6.746   0.207  10.787
31285SOL    HW193879   6.746   0.271  10.864
31285SOL    HW293880   6.774   0.255  10.704
31286SOL     OW93881   5.594   1.326   9.510
31286SOL    HW193882   5.501   1.347   9.479
31286SOL    HW293883   5.604   1.227   9.523
31287SOL     OW93884   5.674   1.801  10.237
31287SOL    HW193885   5.632   1.715  10.210
31287SOL    HW293886   5.768   1.804  10.203
31288SOL     OW93887   6.090   1.568  10.220
31288SOL    HW193888   6.156   1.642  10.229
31288SOL    HW293889   6.134   1.489  10.178
31289SOL     OW93890   6.588   0.796  10.548
31289SOL    HW193891   6.629   0.764  10.634
31289SOL    HW293892   6.492   0.769  10.545
31290SOL     OW93893   5.626   0.544  10.424
31290SOL    HW193894   5.711   0.511  10.383
31290SOL    HW293895   5.639   0.559  10.522
31291SOL     OW93896   5.775   0.520  11.032
31291SOL    HW193897   5.834   0.480  10.962
31291SOL    HW293898   5.717   0.591  10.991
31292SOL     OW93899   6.955   0.950  10.970
31292SOL    HW193900   6.994   1.039  10.990
31292SOL    HW293901   6.965   0.930  10.873
31293SOL     OW93902   6.401   0.572   9.635
31293SOL    HW193903   6.408   0.483   9.589
31293SOL    HW293904   6.307   0.606   9.627
31294SOL     OW93905   7.243   0.604  10.516
31294SOL    HW193906   7.205   0.535  10.578
31294SOL    HW293907   7.325   0.568  10.472
31295SOL     OW93908   5.838   1.564  11.054
31295SOL    HW193909   5.808   1.621  11.130
31295SOL    HW293910   5.831   1.467  11.080
31296SOL     OW93911   6.257   0.464  10.579
31296SOL    HW193912   6.223   0.375  10.549
31296SOL    HW293913   6.283   0.518  10.499
31297SOL     OW93914   6.516   1.678  10.775
31297SOL    HW193915   6.492   1.660  10.680
31297SOL    HW293916   6.546   1.772  10.785
31298SOL     OW93917   6.059   0.500   9.501
31298SOL    HW193918   6.120   0.580   9.505
31298SOL    HW293919   5.964   0.531   9.508
31299SOL     OW93920   5.745   1.137  10.776
31299SOL    HW193921   5.767   1.076  10.852
31299SOL    HW293922   5.755   1.088  10.690
31300SOL     OW93923   6.933   1.059  10.544
31300SOL    HW193924   6.957   0.996  10.470
31300SOL    HW293925   6.843   1.099  10.526
31301SOL     OW93926   6.888   0.855   9.619
31301SOL    HW193927   6.802   0.824   9.661
31301SOL    HW293928   6.884   0.841   9.520
31302SOL     OW93929   7.345   1.747  10.464
31302SOL    HW193930   7.406   1.777  10.391
31302SOL    HW293931   7.307   1.658  10.442
31303SOL     OW93932   6.838   1.731  10.438
31303SOL    HW193933   6.922   1.736  10.384
31303SOL    HW293934   6.815   1.635  10.456
31304SOL     OW93935   5.669   1.258  10.332
31304SOL    HW193936   5.664   1.257  10.432
31304SOL    HW293937   5.586   1.217  10.294
31305SOL     OW93938   6.274   1.662  11.026
31305SOL    HW193939   6.218   1.743  11.035
31305SOL    HW293940   6.326   1.666  10.940
31306SOL     OW93941   7.312   0.135   9.833
31306SOL    HW193942   7.385   0.118   9.766
31306SOL    HW293943   7.281   0.048   9.871
31307SOL     OW93944   6.974   1.573   9.787
31307SOL    HW193945   7.041   1.585   9.713
31307SOL    HW293946   6.934   1.662   9.810
31308SOL     OW93947   5.716   1.794  11.161
31308SOL    HW193948   5.675   1.720  11.214
31308SOL    HW293949   5.780   1.845  11.219
31309SOL     OW93950   6.866   0.927   9.982
31309SOL    HW193951   6.926   0.846   9.984
31309SOL    HW293952   6.906   0.996   9.922
31310SOL     OW93953   6.416   1.273  10.732
31310SOL    HW193954   6.411   1.306  10.827
31310SOL    HW293955   6.330   1.292  10.686
31311SOL     OW93956   6.258   1.616   9.464
31311SOL    HW193957   6.267   1.626   9.365
31311SOL    HW293958   6.218   1.527   9.485
31312SOL     OW93959   7.236   1.720  10.704
31312SOL    HW193960   7.289   1.730  10.620
31312SOL    HW293961   7.209   1.810  10.738
31313SOL     OW93962   7.427   0.175  10.273
31313SOL    HW193963   7.466   0.090  10.237
31313SOL    HW293964   7.329   0.177  10.254
31314SOL     OW93965   5.849   0.326  10.030
31314SOL    HW193966   5.770   0.377   9.996
31314SOL    HW293967   5.840   0.311  10.128
31315SOL     OW93968   6.780   1.612   9.341
31315SOL    HW193969   6.786   1.519   9.378
31315SOL    HW293970   6.721   1.612   9.261
31316SOL     OW93971   6.408   1.002  10.682
31316SOL    HW193972   6.448   1.001  10.590
31316SOL    HW293973   6.418   1.094  10.722
31317SOL     OW93974   6.502   0.910   9.601
31317SOL    HW193975   6.565   0.948   9.533
31317SOL    HW293976   6.542   0.827   9.640
31318SOL     OW93977   7.090   1.607   9.354
31318SOL    HW193978   6.998   1.644   9.361
31318SOL    HW293979   7.128   1.627   9.264
31319SOL     OW93980   5.958   1.288  10.800
31319SOL    HW193981   5.945   1.381  10.766
31319SOL    HW293982   5.874   1.236  10.787
31320SOL     OW93983   7.200   1.292  10.599
31320SOL    HW193984   7.260   1.295  10.679
31320SOL    HW293985   7.125   1.356  10.612
31321SOL     OW93986   6.625   1.098  10.006
31321SOL    HW193987   6.555   1.051  10.060
31321SOL    HW293988   6.684   1.030   9.963
31322SOL     OW93989   6.600   0.236  10.281
31322SOL    HW193990   6.592   0.200  10.188
31322SOL    HW293991   6.598   0.160  10.346
31323SOL     OW93992   6.176   1.487   9.801
31323SOL    HW193993   6.218   1.429   9.731
31323SOL    HW293994   6.132   1.566   9.757
31324SOL     OW93995   7.295   0.385  10.691
31324SOL    HW193996   7.368   0.454  10.695
31324SOL    HW293997   7.323   0.310  10.632
31325SOL     OW93998   5.841   1.348   9.600
31325SOL    HW193999   5.745   1.349   9.573
31325SOL    HW294000   5.853   1.401   9.684
31326SOL     OW94001   5.691   1.013  11.036
31326SOL    HW194002   5.614   0.980  11.090
31326SOL    HW294003   5.776   0.983  11.078
31327SOL     OW94004   6.258   0.203  10.799
31327SOL    HW194005   6.348   0.187  10.759
31327SOL    HW294006   6.266   0.208  10.898
31328SOL     OW94007   5.661   0.345   9.343
31328SOL    HW194008   5.569   0.317   9.314
31328SOL    HW294009   5.692   0.422   9.287
31329SOL     OW94010   7.026   0.856  10.708
31329SOL    HW194011   6.969   0.908  10.645
31329SOL    HW294012   7.122   0.868  10.684
31330SOL     OW94013   5.658   0.166   9.628
31330SOL    HW194014   5.641   0.249   9.574
31330SOL    HW294015   5.748   0.129   9.606
31331SOL     OW94016   6.769   1.335   9.429
31331SOL    HW194017   6.670   1.324   9.431
31331SOL    HW294018   6.803   1.350   9.522
31332SOL     OW94019   6.199   0.842  10.741
31332SOL    HW194020   6.255   0.923  10.724
31332SOL    HW294021   6.258   0.762  10.744
31333SOL     OW94022   7.079   1.767  10.269
31333SOL    HW194023   7.112   1.831  10.200
31333SOL    HW294024   7.145   1.761  10.344
31334SOL     OW94025   6.302   0.565  11.018
31334SOL    HW194026   6.321   0.630  11.092
31334SOL    HW294027   6.362   0.485  11.027
31335SOL     OW94028   7.036   1.220  10.943
31335SOL    HW194029   7.027   1.210  11.042
31335SOL    HW294030   7.132   1.213  10.917
31336SOL     OW94031   5.976   1.741  10.870
31336SOL    HW194032   5.885   1.782  10.868
31336SOL    HW294033   5.969   1.647  10.902
31337SOL     OW94034   7.260   0.883  10.564
31337SOL    HW194035   7.233   0.794  10.527
31337SOL    HW294036   7.261   0.951  10.491
31338SOL     OW94037   6.811   0.325   9.759
31338SOL    HW194038   6.876   0.251   9.748
31338SOL    HW294039   6.831   0.375   9.843
31339SOL     OW94040   6.180   0.745   9.962
31339SOL    HW194041   6.230   0.830   9.943
31339SOL    HW294042   6.092   0.747   9.914
31340SOL     OW94043   7.363   0.342  10.952
31340SOL    HW194044   7.346   0.373  10.858
31340SOL    HW294045   7.279   0.305  10.990
31341SOL     OW94046   7.316   0.934  10.827
31341SOL    HW194047   7.354   1.025  10.842
31341SOL    HW294048   7.308   0.917  10.728
31342SOL     OW94049   6.445   1.374   9.326
31342SOL    HW194050   6.399   1.389   9.414
31342SOL    HW294051   6.489   1.459   9.296
31343SOL     OW94052   6.247   1.790  10.263
31343SOL    HW194053   6.201   1.878  10.250
31343SOL    HW294054   6.346   1.802  10.256
31344SOL     OW94055   6.445   0.956  10.171
31344SOL    HW194056   6.499   0.887  10.219
31344SOL    HW294057   6.413   1.025  10.237
31345SOL     OW94058   6.669   0.984   9.397
31345SOL    HW194059   6.646   1.037   9.315
31345SOL    HW294060   6.750   0.928   9.378
31346SOL     OW94061   7.447   1.569  10.161
31346SOL    HW194062   7.376   1.557  10.091
31346SOL    HW294063   7.448   1.490  10.221
31347SOL     OW94064   5.807   1.314  11.154
31347SOL    HW194065   5.742   1.241  11.133
31347SOL    HW294066   5.811   1.328  11.252
31348SOL     OW94067   5.665   1.240   9.963
31348SOL    HW194068   5.664   1.193  10.051
31348SOL    HW294069   5.747   1.212   9.912
31349SOL     OW94070   6.258   1.391  10.934
31349SOL    HW194071   6.180   1.341  10.972
31349SOL    HW294072   6.255   1.486  10.965
31350SOL     OW94073   7.410   0.192  10.537
31350SOL    HW194074   7.406   0.102  10.581
31350SOL    HW294075   7.413   0.181  10.438
31351SOL     OW94076   6.014   0.424   9.830
31351SOL    HW194077   6.044   0.352   9.768
31351SOL    HW294078   5.975   0.384   9.913
31352SOL     OW94079   7.291   1.487  10.414
31352SOL    HW194080   7.198   1.462  10.387
31352SOL    HW294081   7.317   1.437  10.496
31353SOL     OW94082   5.903   0.547  10.590
31353SOL    HW194083   5.941   0.488  10.662
31353SOL    HW294084   5.943   0.521  10.502
31354SOL     OW94085   6.398   1.586   9.997
31354SOL    HW194086   6.430   1.596   9.903
31354SOL    HW294087   6.319   1.524   9.999
31355SOL     OW94088   7.010   0.214  10.422
31355SOL    HW194089   7.062   0.149  10.477
31355SOL    HW294090   6.961   0.277  10.483
31356SOL     OW94091   6.587   0.034  10.464
31356SOL    HW194092   6.524  -0.038  10.433
31356SOL    HW294093   6.680  -0.002  10.464
31357SOL     OW94094   6.356   1.330   9.611
31357SOL    HW194095   6.310   1.243   9.628
31357SOL    HW294096   6.447   1.327   9.652
31358SOL     OW94097   6.204   1.567  10.594
31358SOL    HW194098   6.199   1.649  10.651
31358SOL    HW294099   6.293   1.564  10.549
31359SOL     OW94100   6.938   0.052   9.478
31359SOL    HW194101   6.973   0.011   9.394
31359SOL    HW294102   6.848   0.014   9.498
31360SOL     OW94103   6.886   0.453  10.001
31360SOL    HW194104   6.827   0.533  10.005
31360SOL    HW294105   6.901   0.418  10.094
31361SOL     OW94106   7.179   0.221  10.192
31361SOL    HW194107   7.095   0.220  10.246
31361SOL    HW294108   7.181   0.304  10.136
31362SOL     OW94109   5.625   1.077   9.610
31362SOL    HW194110   5.724   1.066   9.601
31362SOL    HW294111   5.585   0.991   9.642
31363SOL     OW94112   6.461   1.646   9.647
31363SOL    HW194113   6.384   1.611   9.593
31363SOL    HW294114   6.429   1.717   9.709
31364SOL     OW94115   5.816   0.628  11.285
31364SOL    HW194116   5.723   0.626  11.322
31364SOL    HW294117   5.817   0.589  11.193
31365SOL     OW94118   5.811   0.275  12.168
31365SOL    HW194119   5.846   0.258  12.260
31365SOL    HW294120   5.723   0.230  12.156
31366SOL     OW94121   5.605   0.368  11.819
31366SOL    HW194122   5.523   0.411  11.858
31366SOL    HW294123   5.577   0.295  11.756
31367SOL     OW94124   6.155   1.275  12.337
31367SOL    HW194125   6.062   1.268  12.300
31367SOL    HW294126   6.166   1.364  12.381
31368SOL     OW94127   7.141   1.511  11.875
31368SOL    HW194128   7.084   1.495  11.956
31368SOL    HW294129   7.082   1.521  11.795
31369SOL     OW94130   6.721   0.703  11.889
31369SOL    HW194131   6.778   0.781  11.864
31369SOL    HW294132   6.661   0.729  11.965
31370SOL     OW94133   7.341   0.607  11.403
31370SOL    HW194134   7.329   0.594  11.304
31370SOL    HW294135   7.311   0.526  11.452
31371SOL     OW94136   6.354   1.144  12.195
31371SOL    HW194137   6.276   1.161  12.255
31371SOL    HW294138   6.388   1.231  12.159
31372SOL     OW94139   6.271   1.012  11.837
31372SOL    HW194140   6.340   0.996  11.907
31372SOL    HW294141   6.198   1.069  11.875
31373SOL     OW94142   5.921   1.435  12.233
31373SOL    HW194143   5.843   1.404  12.180
31373SOL    HW294144   5.979   1.493  12.176
31374SOL     OW94145   7.046   1.505  12.511
31374SOL    HW194146   7.070   1.599  12.537
31374SOL    HW294147   7.030   1.451  12.593
31375SOL     OW94148   6.024   0.392  12.671
31375SOL    HW194149   6.106   0.336  12.680
31375SOL    HW294150   5.943   0.334  12.675
31376SOL     OW94151   7.189   0.447  11.909
31376SOL    HW194152   7.115   0.493  11.859
31376SOL    HW294153   7.240   0.515  11.962
31377SOL     OW94154   5.817   1.713  11.655
31377SOL    HW194155   5.851   1.790  11.709
31377SOL    HW294156   5.861   1.713  11.565
31378SOL     OW94157   5.816   1.434  11.710
31378SOL    HW194158   5.790   1.530  11.710
31378SOL    HW294159   5.745   1.380  11.755
31379SOL     OW94160   5.826   1.091  12.058
31379SOL    HW194161   5.840   1.007  12.110
31379SOL    HW294162   5.771   1.155  12.113
31380SOL     OW94163   6.206   1.786  12.611
31380SOL    HW194164   6.114   1.769  12.646
31380SOL    HW294165   6.234   1.878  12.637
31381SOL     OW94166   6.192   0.964  11.295
31381SOL    HW194167   6.199   1.048  11.241
31381SOL    HW294168   6.238   0.977  11.383
31382SOL     OW94169   7.180   0.114  12.652
31382SOL    HW194170   7.162   0.181  12.580
31382SOL    HW294171   7.177   0.160  12.741
31383SOL     OW94172   5.708   0.643  11.735
31383SOL    HW194173   5.663   0.555  11.752
31383SOL    HW294174   5.707   0.697  11.819
31384SOL     OW94175   7.428   1.767  11.531
31384SOL    HW194176   7.482   1.738  11.611
31384SOL    HW294177   7.458   1.857  11.502
31385SOL     OW94178   5.613   1.596  11.289
31385SOL    HW194179   5.594   1.500  11.310
31385SOL    HW294180   5.580   1.654  11.364
31386SOL     OW94181   7.275   0.922  11.784
31386SOL    HW194182   7.370   0.893  11.792
31386SOL    HW294183   7.267   0.987  11.709
31387SOL     OW94184   7.227   1.108  11.604
31387SOL    HW194185   7.313   1.110  11.552
31387SOL    HW294186   7.241   1.155  11.692
31388SOL     OW94187   5.699   0.737  12.769
31388SOL    HW194188   5.787   0.724  12.814
31388SOL    HW294189   5.686   0.834  12.747
31389SOL     OW94190   6.199   1.365  11.898
31389SOL    HW194191   6.150   1.278  11.907
31389SOL    HW294192   6.176   1.408  11.811
31390SOL     OW94193   6.879   1.228  12.595
31390SOL    HW194194   6.916   1.155  12.537
31390SOL    HW294195   6.931   1.233  12.680
31391SOL     OW94196   6.395   0.004  11.674
31391SOL    HW194197   6.435   0.095  11.665
31391SOL    HW294198   6.295   0.012  11.680
31392SOL     OW94199   5.783   0.976  12.436
31392SOL    HW194200   5.872   0.931  12.422
31392SOL    HW294201   5.710   0.911  12.417
31393SOL     OW94202   7.111   0.999  11.362
31393SOL    HW194203   7.048   0.923  11.375
31393SOL    HW294204   7.159   1.017  11.448
31394SOL     OW94205   7.052   1.417  12.125
31394SOL    HW194206   6.993   1.423  12.205
31394SOL    HW294207   7.037   1.329  12.079
31395SOL     OW94208   7.253   1.714  11.744
31395SOL    HW194209   7.212   1.691  11.656
31395SOL    HW294210   7.235   1.640  11.809
31396SOL     OW94211   6.184   0.729  11.442
31396SOL    HW194212   6.208   0.798  11.374
31396SOL    HW294213   6.106   0.762  11.496
31397SOL     OW94214   6.867   0.345  12.116
31397SOL    HW194215   6.781   0.295  12.103
31397SOL    HW294216   6.929   0.291  12.172
31398SOL     OW94217   7.162   1.662  11.479
31398SOL    HW194218   7.251   1.708  11.482
31398SOL    HW294219   7.141   1.638  11.384
31399SOL     OW94220   6.393   0.605  12.637
31399SOL    HW194221   6.346   0.602  12.726
31399SOL    HW294222   6.342   0.550  12.571
31400SOL     OW94223   6.559   0.890  12.744
31400SOL    HW194224   6.605   0.806  12.715
31400SOL    HW294225   6.503   0.924  12.669
31401SOL     OW94226   6.577   0.410  12.414
31401SOL    HW194227   6.500   0.444  12.468
31401SOL    HW294228   6.543   0.359  12.335
31402SOL     OW94229   6.627   0.701  11.601
31402SOL    HW194230   6.653   0.697  11.697
31402SOL    HW294231   6.542   0.650  11.587
31403SOL     OW94232   5.662   0.811  11.961
31403SOL    HW194233   5.761   0.799  11.970
31403SOL    HW294234   5.638   0.906  11.982
31404SOL     OW94235   5.716   1.821  12.743
31404SOL    HW194236   5.706   1.806  12.842
31404SOL    HW294237   5.630   1.857  12.707
31405SOL     OW94238   6.451   0.348  11.367
31405SOL    HW194239   6.510   0.411  11.318
31405SOL    HW294240   6.470   0.254  11.338
31406SOL     OW94241   6.948   1.144  11.717
31406SOL    HW194242   7.031   1.115  11.669
31406SOL    HW294243   6.899   1.211  11.661
31407SOL     OW94244   6.136   0.196  12.057
31407SOL    HW194245   6.131   0.191  12.157
31407SOL    HW294246   6.138   0.292  12.028
31408SOL     OW94247   6.594   1.456  11.649
31408SOL    HW194248   6.548   1.528  11.597
31408SOL    HW294249   6.590   1.476  11.747
31409SOL     OW94250   5.937   1.801  12.025
31409SOL    HW194251   5.987   1.715  12.031
31409SOL    HW294252   6.002   1.878  12.022
31410SOL     OW94253   7.381   1.066  12.045
31410SOL    HW194254   7.319   1.051  11.969
31410SOL    HW294255   7.329   1.077  12.130
31411SOL     OW94256   6.813   1.550  12.678
31411SOL    HW194257   6.819   1.473  12.742
31411SOL    HW294258   6.761   1.524  12.598
31412SOL     OW94259   5.907   0.943  11.414
31412SOL    HW194260   5.989   0.982  11.372
31412SOL    HW294261   5.880   0.861  11.365
31413SOL     OW94262   7.044   0.735  11.900
31413SOL    HW194263   7.039   0.670  11.975
31413SOL    HW294264   7.124   0.794  11.913
31414SOL     OW94265   6.697   1.776  11.409
31414SOL    HW194266   6.637   1.714  11.459
31414SOL    HW294267   6.728   1.732  11.324
31415SOL     OW94268   5.788   0.285  12.670
31415SOL    HW194269   5.708   0.345  12.657
31415SOL    HW294270   5.778   0.236  12.756
31416SOL     OW94271   7.218   1.377  11.253
31416SOL    HW194272   7.186   1.471  11.243
31416SOL    HW294273   7.142   1.314  11.241
31417SOL     OW94274   6.050   1.743  11.495
31417SOL    HW194275   6.083   1.782  11.581
31417SOL    HW294276   6.126   1.736  11.430
31418SOL     OW94277   6.986   0.107  11.598
31418SOL    HW194278   6.962   0.070  11.508
31418SOL    HW294279   7.085   0.123  11.602
31419SOL     OW94280   5.835   1.785  12.413
31419SOL    HW194281   5.892   1.720  12.463
31419SOL    HW294282   5.819   1.752  12.320
31420SOL     OW94283   6.526   1.698  12.076
31420SOL    HW194284   6.606   1.641  12.097
31420SOL    HW294285   6.477   1.658  11.999
31421SOL     OW94286   5.968   0.700  11.652
31421SOL    HW194287   6.013   0.610  11.649
31421SOL    HW294288   5.874   0.689  11.685
31422SOL     OW94289   6.200   0.122  11.289
31422SOL    HW194290   6.298   0.100  11.296
31422SOL    HW294291   6.169   0.105  11.196
31423SOL     OW94292   6.474   1.514  12.367
31423SOL    HW194293   6.451   1.489  12.273
31423SOL    HW294294   6.535   1.445  12.406
31424SOL     OW94295   6.937   0.590  12.605
31424SOL    HW194296   6.965   0.547  12.690
31424SOL    HW294297   6.962   0.686  12.606
31425SOL     OW94298   6.389   1.402  12.096
31425SOL    HW194299   6.479   1.416  12.054
31425SOL    HW294300   6.318   1.404  12.025
31426SOL     OW94301   6.508   0.503  12.071
31426SOL    HW194302   6.483   0.494  11.975
31426SOL    HW294303   6.556   0.421  12.102
31427SOL     OW94304   6.125   0.064  11.684
31427SOL    HW194305   6.044   0.065  11.742
31427SOL    HW294306   6.128   0.147  11.629
31428SOL     OW94307   7.020   1.188  11.213
31428SOL    HW194308   7.052   1.112  11.270
31428SOL    HW294309   6.928   1.215  11.243
31429SOL     OW94310   5.883   0.035  11.343
31429SOL    HW194311   5.932   0.119  11.322
31429SOL    HW294312   5.945  -0.030  11.388
31430SOL     OW94313   6.521   0.236  11.652
31430SOL    HW194314   6.473   0.277  11.574
31430SOL    HW294315   6.620   0.234  11.633
31431SOL     OW94316   6.662   0.683  12.636
31431SOL    HW194317   6.582   0.622  12.639
31431SOL    HW294318   6.743   0.630  12.612
31432SOL     OW94319   6.813   1.570  11.965
31432SOL    HW194320   6.834   1.644  11.900
31432SOL    HW294321   6.881   1.570  12.038
31433SOL     OW94322   6.045   1.152  11.913
31433SOL    HW194323   5.974   1.125  11.978
31433SOL    HW294324   6.019   1.124  11.820
31434SOL     OW94325   6.857   1.797  11.763
31434SOL    HW194326   6.901   1.861  11.699
31434SOL    HW294327   6.807   1.849  11.833
31435SOL     OW94328   6.618   0.549  11.188
31435SOL    HW194329   6.577   0.631  11.149
31435SOL    HW294330   6.682   0.575  11.261
31436SOL     OW94331   5.664   0.556  12.558
31436SOL    HW194332   5.756   0.555  12.517
31436SOL    HW294333   5.658   0.630  12.625
31437SOL     OW94334   6.147   0.222  12.319
31437SOL    HW194335   6.185   0.138  12.356
31437SOL    HW294336   6.059   0.241  12.363
31438SOL     OW94337   6.452   0.454  11.814
31438SOL    HW194338   6.420   0.526  11.752
31438SOL    HW294339   6.476   0.373  11.761
31439SOL     OW94340   6.603   0.039  11.925
31439SOL    HW194341   6.531   0.044  11.856
31439SOL    HW294342   6.579  -0.030  11.994
31440SOL     OW94343   7.015   1.173  12.039
31440SOL    HW194344   6.960   1.089  12.032
31440SOL    HW294345   7.041   1.202  11.947
31441SOL     OW94346   7.052   0.590  12.164
31441SOL    HW194347   7.022   0.495  12.171
31441SOL    HW294348   7.125   0.606  12.230
31442SOL     OW94349   7.443   0.833  11.549
31442SOL    HW194350   7.485   0.769  11.613
31442SOL    HW294351   7.405   0.782  11.471
31443SOL     OW94352   6.074   1.385  11.346
31443SOL    HW194353   5.987   1.370  11.393
31443SOL    HW294354   6.057   1.411  11.251
31444SOL     OW94355   7.250   1.280  11.829
31444SOL    HW194356   7.349   1.288  11.843
31444SOL    HW294357   7.205   1.364  11.860
31445SOL     OW94358   6.976   0.575  11.250
31445SOL    HW194359   6.922   0.554  11.331
31445SOL    HW294360   7.067   0.534  11.259
31446SOL     OW94361   6.113   0.256  11.500
31446SOL    HW194362   6.140   0.197  11.425
31446SOL    HW294363   6.113   0.351  11.469
31447SOL     OW94364   7.340   1.223  12.760
31447SOL    HW194365   7.431   1.184  12.747
31447SOL    HW294366   7.348   1.319  12.784
31448SOL     OW94367   6.650   1.347  12.512
31448SOL    HW194368   6.570   1.324  12.567
31448SOL    HW294369   6.733   1.321  12.561
31449SOL     OW94370   6.697   1.195  12.272
31449SOL    HW194371   6.657   1.239  12.353
31449SOL    HW294372   6.656   1.232  12.189
31450SOL     OW94373   7.224   1.099  12.251
31450SOL    HW194374   7.229   1.180  12.310
31450SOL    HW294375   7.138   1.101  12.200
31451SOL     OW94376   6.501   0.089  12.574
31451SOL    HW194377   6.526   0.069  12.479
31451SOL    HW294378   6.573   0.145  12.616
31452SOL     OW94379   6.291   1.050  11.540
31452SOL    HW194380   6.277   1.057  11.639
31452SOL    HW294381   6.375   0.999  11.522
31453SOL     OW94382   5.996   0.813  12.423
31453SOL    HW194383   6.082   0.825  12.473
31453SOL    HW294384   5.954   0.726  12.450
31454SOL     OW94385   6.860   0.386  12.434
31454SOL    HW194386   6.881   0.460  12.498
31454SOL    HW294387   6.771   0.403  12.391
31455SOL     OW94388   5.650   1.564  12.503
31455SOL    HW194389   5.604   1.646  12.469
31455SOL    HW294390   5.748   1.583  12.512
31456SOL     OW94391   5.953   1.100  11.673
31456SOL    HW194392   5.946   1.183  11.617
31456SOL    HW294393   5.957   1.020  11.613
31457SOL     OW94394   6.152   0.537  12.037
31457SOL    HW194395   6.164   0.603  11.963
31457SOL    HW294396   6.198   0.571  12.120
31458SOL     OW94397   6.838   1.348  11.560
31458SOL    HW194398   6.888   1.425  11.600
31458SOL    HW294399   6.743   1.350  11.592
31459SOL     OW94400   6.858   1.445  12.314
31459SOL    HW194401   6.905   1.458  12.401
31459SOL    HW294402   6.792   1.371  12.323
31460SOL     OW94403   7.168   0.639  11.644
31460SOL    HW194404   7.137   0.700  11.717
31460SOL    HW294405   7.218   0.691  11.575
31461SOL     OW94406   5.940   1.510  12.501
31461SOL    HW194407   5.919   1.466  12.414
31461SOL    HW294408   6.037   1.536  12.504
31462SOL     OW94409   5.988   0.751  12.770
31462SOL    HW194410   6.056   0.806  12.723
31462SOL    HW294411   6.028   0.663  12.797
31463SOL     OW94412   7.173   0.779  12.842
31463SOL    HW194413   7.081   0.817  12.837
31463SOL    HW294414   7.233   0.826  12.777
31464SOL     OW94415   6.159   0.870  12.201
31464SOL    HW194416   6.203   0.959  12.192
31464SOL    HW294417   6.096   0.870  12.278
31465SOL     OW94418   6.946   0.862  12.217
31465SOL    HW194419   6.871   0.862  12.151
31465SOL    HW294420   6.983   0.770  12.226
31466SOL     OW94421   6.795   0.525  11.447
31466SOL    HW194422   6.808   0.441  11.501
31466SOL    HW294423   6.766   0.599  11.507
31467SOL     OW94424   5.893   0.213  12.403
31467SOL    HW194425   5.870   0.250  12.493
31467SOL    HW294426   5.863   0.118  12.397
31468SOL     OW94427   5.623   1.310  12.454
31468SOL    HW194428   5.676   1.261  12.522
31468SOL    HW294429   5.645   1.408  12.459
31469SOL     OW94430   6.318   0.634  12.236
31469SOL    HW194431   6.377   0.608  12.160
31469SOL    HW294432   6.290   0.730  12.225
31470SOL     OW94433   5.893   0.063  11.790
31470SOL    HW194434   5.882   0.157  11.823
31470SOL    HW294435   5.888   0.000  11.867
31471SOL     OW94436   7.208   0.367  11.546
31471SOL    HW194437   7.210   0.291  11.610
31471SOL    HW294438   7.160   0.444  11.586
31472SOL     OW94439   6.609   0.766  12.138
31472SOL    HW194440   6.624   0.787  12.234
31472SOL    HW294441   6.579   0.671  12.129
31473SOL     OW94442   7.126   0.274  11.297
31473SOL    HW194443   7.065   0.199  11.320
31473SOL    HW294444   7.148   0.326  11.380
31474SOL     OW94445   6.889   0.838  11.214
31474SOL    HW194446   6.923   0.745  11.229
31474SOL    HW294447   6.907   0.865  11.119
31475SOL     OW94448   6.654   1.333  12.021
31475SOL    HW194449   6.661   1.249  11.966
31475SOL    HW294450   6.716   1.402  11.985
31476SOL     OW94451   5.905   0.810  12.121
31476SOL    HW194452   5.998   0.846  12.126
31476SOL    HW294453   5.899   0.725  12.173
31477SOL     OW94454   5.925   0.509  12.178
31477SOL    HW194455   5.873   0.426  12.161
31477SOL    HW294456   6.002   0.514  12.114
31478SOL     OW94457   6.746   0.207  12.649
31478SOL    HW194458   6.746   0.271  12.726
31478SOL    HW294459   6.774   0.255  12.566
31479SOL     OW94460   5.594   1.326  11.372
31479SOL    HW194461   5.501   1.347  11.341
31479SOL    HW294462   5.604   1.227  11.385
31480SOL     OW94463   5.674   1.801  12.099
31480SOL    HW194464   5.632   1.715  12.072
31480SOL    HW294465   5.768   1.804  12.065
31481SOL     OW94466   6.090   1.568  12.082
31481SOL    HW194467   6.156   1.642  12.091
31481SOL    HW294468   6.134   1.489  12.040
31482SOL     OW94469   6.588   0.796  12.410
31482SOL    HW194470   6.629   0.764  12.496
31482SOL    HW294471   6.492   0.769  12.407
31483SOL     OW94472   5.626   0.544  12.286
31483SOL    HW194473   5.711   0.511  12.245
31483SOL    HW294474   5.639   0.559  12.384
31484SOL     OW94475   6.401   0.572  11.497
31484SOL    HW194476   6.408   0.483  11.451
31484SOL    HW294477   6.307   0.606  11.489
31485SOL     OW94478   7.243   0.604  12.378
31485SOL    HW194479   7.205   0.535  12.440
31485SOL    HW294480   7.325   0.568  12.334
31486SOL     OW94481   5.838   1.564  12.916
31486SOL    HW194482   5.808   1.621  12.992
31486SOL    HW294483   5.831   1.467  12.942
31487SOL     OW94484   6.257   0.464  12.441
31487SOL    HW194485   6.223   0.375  12.411
31487SOL    HW294486   6.283   0.518  12.361
31488SOL     OW94487   6.516   1.678  12.637
31488SOL    HW194488   6.492   1.660  12.542
31488SOL    HW294489   6.546   1.772  12.647
31489SOL     OW94490   6.059   0.500  11.363
31489SOL    HW194491   6.120   0.580  11.367
31489SOL    HW294492   5.964   0.531  11.370
31490SOL     OW94493   5.745   1.137  12.638
31490SOL    HW194494   5.767   1.076  12.714
31490SOL    HW294495   5.755   1.088  12.552
31491SOL     OW94496   6.933   1.059  12.406
31491SOL    HW194497   6.957   0.996  12.332
31491SOL    HW294498   6.843   1.099  12.388
31492SOL     OW94499   6.888   0.855  11.481
31492SOL    HW194500   6.802   0.824  11.523
31492SOL    HW294501   6.884   0.841  11.382
31493SOL     OW94502   7.345   1.747  12.326
31493SOL    HW194503   7.406   1.777  12.253
31493SOL    HW294504   7.307   1.658  12.304
31494SOL     OW94505   6.838   1.731  12.300
31494SOL    HW194506   6.922   1.736  12.246
31494SOL    HW294507   6.815   1.635  12.318
31495SOL     OW94508   5.669   1.258  12.194
31495SOL    HW194509   5.664   1.257  12.294
31495SOL    HW294510   5.586   1.217  12.156
31496SOL     OW94511   7.312   0.135  11.695
31496SOL    HW194512   7.385   0.118  11.628
31496SOL    HW294513   7.281   0.048  11.733
31497SOL     OW94514   6.974   1.573  11.649
31497SOL    HW194515   7.041   1.585  11.575
31497SOL    HW294516   6.934   1.662  11.672
31498SOL     OW94517   6.866   0.927  11.844
31498SOL    HW194518   6.926   0.846  11.846
31498SOL    HW294519   6.906   0.996  11.784
31499SOL     OW94520   6.416   1.273  12.594
31499SOL    HW194521   6.411   1.306  12.689
31499SOL    HW294522   6.330   1.292  12.548
31500SOL     OW94523   6.258   1.616  11.326
31500SOL    HW194524   6.267   1.626  11.227
31500SOL    HW294525   6.218   1.527  11.347
31501SOL     OW94526   7.236   1.720  12.566
31501SOL    HW194527   7.289   1.730  12.482
31501SOL    HW294528   7.209   1.810  12.600
31502SOL     OW94529   7.427   0.175  12.135
31502SOL    HW194530   7.466   0.090  12.099
31502SOL    HW294531   7.329   0.177  12.116
31503SOL     OW94532   5.849   0.326  11.892
31503SOL    HW194533   5.770   0.377  11.858
31503SOL    HW294534   5.840   0.311  11.990
31504SOL     OW94535   6.780   1.612  11.203
31504SOL    HW194536   6.786   1.519  11.240
31504SOL    HW294537   6.721   1.612  11.123
31505SOL     OW94538   6.408   1.002  12.544
31505SOL    HW194539   6.448   1.001  12.452
31505SOL    HW294540   6.418   1.094  12.584
31506SOL     OW94541   6.502   0.910  11.463
31506SOL    HW194542   6.565   0.948  11.395
31506SOL    HW294543   6.542   0.827  11.502
31507SOL     OW94544   7.090   1.607  11.216
31507SOL    HW194545   6.998   1.644  11.223
31507SOL    HW294546   7.128   1.627  11.126
31508SOL     OW94547   5.958   1.288  12.662
31508SOL    HW194548   5.945   1.381  12.628
31508SOL    HW294549   5.874   1.236  12.649
31509SOL     OW94550   7.200   1.292  12.461
31509SOL    HW194551   7.260   1.295  12.541
31509SOL    HW294552   7.125   1.356  12.474
31510SOL     OW94553   6.625   1.098  11.868
31510SOL    HW194554   6.555   1.051  11.922
31510SOL    HW294555   6.684   1.030  11.825
31511SOL     OW94556   6.600   0.236  12.143
31511SOL    HW194557   6.592   0.200  12.050
31511SOL    HW294558   6.598   0.160  12.208
31512SOL     OW94559   6.176   1.487  11.663
31512SOL    HW194560   6.218   1.429  11.593
31512SOL    HW294561   6.132   1.566  11.619
31513SOL     OW94562   7.295   0.385  12.553
31513SOL    HW194563   7.368   0.454  12.557
31513SOL    HW294564   7.323   0.310  12.494
31514SOL     OW94565   5.841   1.348  11.462
31514SOL    HW194566   5.745   1.349  11.435
31514SOL    HW294567   5.853   1.401  11.546
31515SOL     OW94568   5.691   1.013  12.898
31515SOL    HW194569   5.614   0.980  12.952
31515SOL    HW294570   5.776   0.983  12.940
31516SOL     OW94571   6.258   0.203  12.661
31516SOL    HW194572   6.348   0.187  12.621
31516SOL    HW294573   6.266   0.208  12.760
31517SOL     OW94574   5.661   0.345  11.205
31517SOL    HW194575   5.569   0.317  11.176
31517SOL    HW294576   5.692   0.422  11.149
31518SOL     OW94577   7.026   0.856  12.570
31518SOL    HW194578   6.969   0.908  12.507
31518SOL    HW294579   7.122   0.868  12.546
31519SOL     OW94580   5.658   0.166  11.490
31519SOL    HW194581   5.641   0.249  11.436
31519SOL    HW294582   5.748   0.129  11.468
31520SOL     OW94583   6.769   1.335  11.291
31520SOL    HW194584   6.670   1.324  11.293
31520SOL    HW294585   6.803   1.350  11.384
31521SOL     OW94586   6.199   0.842  12.603
31521SOL    HW194587   6.255   0.923  12.586
31521SOL    HW294588   6.258   0.762  12.606
31522SOL     OW94589   7.079   1.767  12.131
31522SOL    HW194590   7.112   1.831  12.062
31522SOL    HW294591   7.145   1.761  12.206
31523SOL     OW94592   6.302   0.565  12.880
31523SOL    HW194593   6.321   0.630  12.954
31523SOL    HW294594   6.362   0.485  12.889
31524SOL     OW94595   5.976   1.741  12.732
31524SOL    HW194596   5.885   1.782  12.730
31524SOL    HW294597   5.969   1.647  12.764
31525SOL     OW94598   7.260   0.883  12.426
31525SOL    HW194599   7.233   0.794  12.389
31525SOL    HW294600   7.261   0.951  12.353
31526SOL     OW94601   6.811   0.325  11.621
31526SOL    HW194602   6.876   0.251  11.610
31526SOL    HW294603   6.831   0.375  11.705
31527SOL     OW94604   6.180   0.745  11.824
31527SOL    HW194605   6.230   0.830  11.805
31527SOL    HW294606   6.092   0.747  11.776
31528SOL     OW94607   7.363   0.342  12.814
31528SOL    HW194608   7.346   0.373  12.720
31528SOL    HW294609   7.279   0.305  12.852
31529SOL     OW94610   7.316   0.934  12.689
31529SOL    HW194611   7.354   1.025  12.704
31529SOL    HW294612   7.308   0.917  12.590
31530SOL     OW94613   6.445   1.374  11.188
31530SOL    HW194614   6.399   1.389  11.276
31530SOL    HW294615   6.489   1.459  11.158
31531SOL     OW94616   6.247   1.790  12.125
31531SOL    HW194617   6.201   1.878  12.112
31531SOL    HW294618   6.346   1.802  12.118
31532SOL     OW94619   6.445   0.956  12.033
31532SOL    HW194620   6.499   0.887  12.081
31532SOL    HW294621   6.413   1.025  12.099
31533SOL     OW94622   6.669   0.984  11.259
31533SOL    HW194623   6.646   1.037  11.177
31533SOL    HW294624   6.750   0.928  11.240
31534SOL     OW94625   7.447   1.569  12.023
31534SOL    HW194626   7.376   1.557  11.953
31534SOL    HW294627   7.448   1.490  12.083
31535SOL     OW94628   5.665   1.240  11.825
31535SOL    HW194629   5.664   1.193  11.913
31535SOL    HW294630   5.747   1.212  11.774
31536SOL     OW94631   6.258   1.391  12.796
31536SOL    HW194632   6.180   1.341  12.834
31536SOL    HW294633   6.255   1.486  12.827
31537SOL     OW94634   7.410   0.192  12.399
31537SOL    HW194635   7.406   0.102  12.443
31537SOL    HW294636   7.413   0.181  12.300
31538SOL     OW94637   6.014   0.424  11.692
31538SOL    HW194638   6.044   0.352  11.630
31538SOL    HW294639   5.975   0.384  11.775
31539SOL     OW94640   7.291   1.487  12.276
31539SOL    HW194641   7.198   1.462  12.249
31539SOL    HW294642   7.317   1.437  12.358
31540SOL     OW94643   5.903   0.547  12.452
31540SOL    HW194644   5.941   0.488  12.524
31540SOL    HW294645   5.943   0.521  12.364
31541SOL     OW94646   6.398   1.586  11.859
31541SOL    HW194647   6.430   1.596  11.765
31541SOL    HW294648   6.319   1.524  11.861
31542SOL     OW94649   7.010   0.214  12.284
31542SOL    HW194650   7.062   0.149  12.339
31542SOL    HW294651   6.961   0.277  12.345
31543SOL     OW94652   6.587   0.034  12.326
31543SOL    HW194653   6.524  -0.038  12.295
31543SOL    HW294654   6.680  -0.002  12.326
31544SOL     OW94655   6.356   1.330  11.473
31544SOL    HW194656   6.310   1.243  11.490
31544SOL    HW294657   6.447   1.327  11.514
31545SOL     OW94658   6.204   1.567  12.456
31545SOL    HW194659   6.199   1.649  12.513
31545SOL    HW294660   6.293   1.564  12.411
31546SOL     OW94661   6.938   0.052  11.340
31546SOL    HW194662   6.973   0.011  11.256
31546SOL    HW294663   6.848   0.014  11.360
31547SOL     OW94664   6.886   0.453  11.863
31547SOL    HW194665   6.827   0.533  11.867
31547SOL    HW294666   6.901   0.418  11.956
31548SOL     OW94667   7.179   0.221  12.054
31548SOL    HW194668   7.095   0.220  12.108
31548SOL    HW294669   7.181   0.304  11.998
31549SOL     OW94670   5.625   1.077  11.472
31549SOL    HW194671   5.724   1.066  11.463
31549SOL    HW294672   5.585   0.991  11.504
31550SOL     OW94673   6.461   1.646  11.509
31550SOL    HW194674   6.384   1.611  11.455
31550SOL    HW294675   6.429   1.717  11.571
31551SOL     OW94676   5.816   2.490   0.113
31551SOL    HW194677   5.723   2.488   0.150
31551SOL    HW294678   5.817   2.451   0.021
31552SOL     OW94679   5.811   2.137   0.996
31552SOL    HW194680   5.846   2.120   1.088
31552SOL    HW294681   5.723   2.092   0.984
31553SOL     OW94682   5.605   2.230   0.647
31553SOL    HW194683   5.523   2.273   0.686
31553SOL    HW294684   5.577   2.157   0.584
31554SOL     OW94685   6.155   3.137   1.165
31554SOL    HW194686   6.062   3.130   1.128
31554SOL    HW294687   6.166   3.226   1.209
31555SOL     OW94688   7.141   3.373   0.703
31555SOL    HW194689   7.084   3.357   0.784
31555SOL    HW294690   7.082   3.383   0.623
31556SOL     OW94691   6.721   2.565   0.717
31556SOL    HW194692   6.778   2.643   0.692
31556SOL    HW294693   6.661   2.591   0.793
31557SOL     OW94694   7.341   2.469   0.231
31557SOL    HW194695   7.329   2.456   0.132
31557SOL    HW294696   7.311   2.388   0.280
31558SOL     OW94697   6.354   3.006   1.023
31558SOL    HW194698   6.276   3.023   1.083
31558SOL    HW294699   6.388   3.093   0.987
31559SOL     OW94700   6.436   2.660   1.823
31559SOL    HW194701   6.432   2.736   1.888
31559SOL    HW294702   6.458   2.696   1.732
31560SOL     OW94703   6.271   2.874   0.665
31560SOL    HW194704   6.340   2.858   0.735
31560SOL    HW294705   6.198   2.931   0.703
31561SOL     OW94706   6.272   3.023   1.803
31561SOL    HW194707   6.332   3.102   1.817
31561SOL    HW294708   6.186   3.054   1.762
31562SOL     OW94709   5.921   3.297   1.061
31562SOL    HW194710   5.843   3.266   1.008
31562SOL    HW294711   5.979   3.355   1.004
31563SOL     OW94712   7.046   3.367   1.339
31563SOL    HW194713   7.070   3.461   1.365
31563SOL    HW294714   7.030   3.313   1.421
31564SOL     OW94715   6.024   2.254   1.499
31564SOL    HW194716   6.106   2.198   1.508
31564SOL    HW294717   5.943   2.196   1.503
31565SOL     OW94718   7.189   2.309   0.737
31565SOL    HW194719   7.115   2.355   0.687
31565SOL    HW294720   7.240   2.377   0.790
31566SOL     OW94721   5.817   3.575   0.483
31566SOL    HW194722   5.851   3.652   0.537
31566SOL    HW294723   5.861   3.575   0.393
31567SOL     OW94724   6.713   3.203   1.690
31567SOL    HW194725   6.760   3.203   1.778
31567SOL    HW294726   6.665   3.116   1.679
31568SOL     OW94727   5.816   3.296   0.538
31568SOL    HW194728   5.790   3.392   0.538
31568SOL    HW294729   5.745   3.242   0.583
31569SOL     OW94730   5.826   2.953   0.886
31569SOL    HW194731   5.840   2.869   0.938
31569SOL    HW294732   5.771   3.017   0.941
31570SOL     OW94733   6.206   3.648   1.439
31570SOL    HW194734   6.114   3.631   1.474
31570SOL    HW294735   6.234   3.740   1.465
31571SOL     OW94736   6.192   2.826   0.123
31571SOL    HW194737   6.199   2.910   0.069
31571SOL    HW294738   6.238   2.839   0.211
31572SOL     OW94739   7.180   1.976   1.480
31572SOL    HW194740   7.162   2.043   1.408
31572SOL    HW294741   7.177   2.022   1.569
31573SOL     OW94742   5.708   2.505   0.563
31573SOL    HW194743   5.663   2.417   0.580
31573SOL    HW294744   5.707   2.559   0.647
31574SOL     OW94745   7.428   3.629   0.359
31574SOL    HW194746   7.482   3.600   0.439
31574SOL    HW294747   7.458   3.719   0.330
31575SOL     OW94748   5.613   3.458   0.117
31575SOL    HW194749   5.594   3.362   0.138
31575SOL    HW294750   5.580   3.516   0.192
31576SOL     OW94751   7.275   2.784   0.612
31576SOL    HW194752   7.370   2.755   0.620
31576SOL    HW294753   7.267   2.849   0.537
31577SOL     OW94754   7.227   2.970   0.432
31577SOL    HW194755   7.313   2.972   0.380
31577SOL    HW294756   7.241   3.017   0.520
31578SOL     OW94757   5.699   2.599   1.597
31578SOL    HW194758   5.787   2.586   1.642
31578SOL    HW294759   5.686   2.696   1.575
31579SOL     OW94760   6.199   3.227   0.726
31579SOL    HW194761   6.150   3.140   0.735
31579SOL    HW294762   6.176   3.270   0.639
31580SOL     OW94763   6.879   3.090   1.423
31580SOL    HW194764   6.916   3.017   1.365
31580SOL    HW294765   6.931   3.095   1.508
31581SOL     OW94766   6.395   1.866   0.502
31581SOL    HW194767   6.435   1.957   0.493
31581SOL    HW294768   6.295   1.874   0.508
31582SOL     OW94769   5.783   2.838   1.264
31582SOL    HW194770   5.872   2.793   1.250
31582SOL    HW294771   5.710   2.773   1.245
31583SOL     OW94772   7.111   2.861   0.190
31583SOL    HW194773   7.048   2.785   0.203
31583SOL    HW294774   7.159   2.879   0.276
31584SOL     OW94775   6.773   3.654   1.616
31584SOL    HW194776   6.797   3.714   1.540
31584SOL    HW294777   6.780   3.559   1.586
31585SOL     OW94778   5.903   2.113   1.801
31585SOL    HW194779   5.974   2.184   1.807
31585SOL    HW294780   5.815   2.152   1.829
31586SOL     OW94781   7.052   3.279   0.953
31586SOL    HW194782   6.993   3.285   1.033
31586SOL    HW294783   7.037   3.191   0.907
31587SOL     OW94784   7.253   3.576   0.572
31587SOL    HW194785   7.212   3.553   0.484
31587SOL    HW294786   7.235   3.502   0.637
31588SOL     OW94787   6.184   2.591   0.270
31588SOL    HW194788   6.208   2.660   0.202
31588SOL    HW294789   6.106   2.624   0.324
31589SOL     OW94790   6.867   2.207   0.944
31589SOL    HW194791   6.781   2.157   0.931
31589SOL    HW294792   6.929   2.153   1.000
31590SOL     OW94793   7.162   3.524   0.307
31590SOL    HW194794   7.251   3.570   0.310
31590SOL    HW294795   7.141   3.500   0.212
31591SOL     OW94796   6.393   2.467   1.465
31591SOL    HW194797   6.346   2.464   1.554
31591SOL    HW294798   6.342   2.412   1.399
31592SOL     OW94799   6.980   2.331   1.674
31592SOL    HW194800   6.960   2.374   1.762
31592SOL    HW294801   7.058   2.269   1.683
31593SOL     OW94802   6.559   2.752   1.572
31593SOL    HW194803   6.605   2.668   1.543
31593SOL    HW294804   6.503   2.786   1.497
31594SOL     OW94805   6.577   2.272   1.242
31594SOL    HW194806   6.500   2.306   1.296
31594SOL    HW294807   6.543   2.221   1.163
31595SOL     OW94808   6.627   2.563   0.429
31595SOL    HW194809   6.653   2.559   0.525
31595SOL    HW294810   6.542   2.512   0.415
31596SOL     OW94811   5.662   2.673   0.789
31596SOL    HW194812   5.761   2.661   0.798
31596SOL    HW294813   5.638   2.768   0.810
31597SOL     OW94814   5.716   3.683   1.571
31597SOL    HW194815   5.706   3.668   1.670
31597SOL    HW294816   5.630   3.719   1.535
31598SOL     OW94817   6.451   2.210   0.195
31598SOL    HW194818   6.510   2.273   0.146
31598SOL    HW294819   6.470   2.116   0.166
31599SOL     OW94820   7.305   2.447   1.831
31599SOL    HW194821   7.279   2.536   1.795
31599SOL    HW294822   7.303   2.379   1.758
31600SOL     OW94823   6.948   3.006   0.545
31600SOL    HW194824   7.031   2.977   0.497
31600SOL    HW294825   6.899   3.073   0.489
31601SOL     OW94826   6.136   2.058   0.885
31601SOL    HW194827   6.131   2.053   0.985
31601SOL    HW294828   6.138   2.154   0.856
31602SOL     OW94829   6.594   3.318   0.477
31602SOL    HW194830   6.548   3.390   0.425
31602SOL    HW294831   6.590   3.338   0.575
31603SOL     OW94832   5.937   3.663   0.853
31603SOL    HW194833   5.987   3.577   0.859
31603SOL    HW294834   6.002   3.740   0.850
31604SOL     OW94835   7.381   2.928   0.873
31604SOL    HW194836   7.319   2.913   0.797
31604SOL    HW294837   7.329   2.939   0.958
31605SOL     OW94838   6.813   3.412   1.506
31605SOL    HW194839   6.819   3.335   1.570
31605SOL    HW294840   6.761   3.386   1.426
31606SOL     OW94841   5.907   2.805   0.242
31606SOL    HW194842   5.989   2.844   0.200
31606SOL    HW294843   5.880   2.723   0.193
31607SOL     OW94844   7.044   2.597   0.728
31607SOL    HW194845   7.039   2.532   0.803
31607SOL    HW294846   7.124   2.656   0.741
31608SOL     OW94847   6.047   3.128   1.727
31608SOL    HW194848   5.997   3.129   1.641
31608SOL    HW294849   5.984   3.110   1.803
31609SOL     OW94850   6.697   3.638   0.237
31609SOL    HW194851   6.637   3.576   0.287
31609SOL    HW294852   6.728   3.594   0.152
31610SOL     OW94853   5.788   2.147   1.498
31610SOL    HW194854   5.708   2.207   1.485
31610SOL    HW294855   5.778   2.098   1.584
31611SOL     OW94856   7.218   3.239   0.081
31611SOL    HW194857   7.186   3.333   0.071
31611SOL    HW294858   7.142   3.176   0.069
31612SOL     OW94859   6.050   3.605   0.323
31612SOL    HW194860   6.083   3.644   0.409
31612SOL    HW294861   6.126   3.598   0.258
31613SOL     OW94862   6.986   1.969   0.426
31613SOL    HW194863   6.962   1.932   0.336
31613SOL    HW294864   7.085   1.985   0.430
31614SOL     OW94865   5.835   3.647   1.241
31614SOL    HW194866   5.892   3.582   1.291
31614SOL    HW294867   5.819   3.614   1.148
31615SOL     OW94868   6.526   3.560   0.904
31615SOL    HW194869   6.606   3.503   0.925
31615SOL    HW294870   6.477   3.520   0.827
31616SOL     OW94871   5.968   2.562   0.480
31616SOL    HW194872   6.013   2.472   0.477
31616SOL    HW294873   5.874   2.551   0.513
31617SOL     OW94874   7.133   2.084   1.729
31617SOL    HW194875   7.128   2.121   1.821
31617SOL    HW294876   7.061   2.015   1.717
31618SOL     OW94877   6.200   1.984   0.117
31618SOL    HW194878   6.298   1.962   0.124
31618SOL    HW294879   6.169   1.967   0.024
31619SOL     OW94880   6.367   2.126   1.749
31619SOL    HW194881   6.434   2.065   1.792
31619SOL    HW294882   6.294   2.145   1.814
31620SOL     OW94883   6.474   3.376   1.195
31620SOL    HW194884   6.451   3.351   1.101
31620SOL    HW294885   6.535   3.307   1.234
31621SOL     OW94886   6.937   2.452   1.433
31621SOL    HW194887   6.965   2.409   1.518
31621SOL    HW294888   6.962   2.548   1.434
31622SOL     OW94889   6.389   3.264   0.924
31622SOL    HW194890   6.479   3.278   0.882
31622SOL    HW294891   6.318   3.266   0.853
31623SOL     OW94892   6.508   2.365   0.899
31623SOL    HW194893   6.483   2.356   0.803
31623SOL    HW294894   6.556   2.283   0.930
31624SOL     OW94895   6.125   1.926   0.512
31624SOL    HW194896   6.044   1.927   0.570
31624SOL    HW294897   6.128   2.009   0.457
31625SOL     OW94898   7.020   3.050   0.041
31625SOL    HW194899   7.052   2.974   0.098
31625SOL    HW294900   6.928   3.077   0.071
31626SOL     OW94901   5.883   1.897   0.171
31626SOL    HW194902   5.932   1.981   0.150
31626SOL    HW294903   5.945   1.832   0.216
31627SOL     OW94904   6.521   2.098   0.480
31627SOL    HW194905   6.473   2.139   0.402
31627SOL    HW294906   6.620   2.096   0.461
31628SOL     OW94907   6.662   2.545   1.464
31628SOL    HW194908   6.582   2.484   1.467
31628SOL    HW294909   6.743   2.492   1.440
31629SOL     OW94910   6.813   3.432   0.793
31629SOL    HW194911   6.834   3.506   0.728
31629SOL    HW294912   6.881   3.432   0.866
31630SOL     OW94913   6.045   3.014   0.741
31630SOL    HW194914   5.974   2.987   0.806
31630SOL    HW294915   6.019   2.986   0.648
31631SOL     OW94916   6.857   3.659   0.591
31631SOL    HW194917   6.901   3.723   0.527
31631SOL    HW294918   6.807   3.711   0.661
31632SOL     OW94919   6.618   2.411   0.016
31632SOL    HW194920   6.577   2.493  -0.023
31632SOL    HW294921   6.682   2.437   0.089
31633SOL     OW94922   5.664   2.418   1.386
31633SOL    HW194923   5.756   2.417   1.345
31633SOL    HW294924   5.658   2.492   1.453
31634SOL     OW94925   6.147   2.084   1.147
31634SOL    HW194926   6.185   2.000   1.184
31634SOL    HW294927   6.059   2.103   1.191
31635SOL     OW94928   6.452   2.316   0.642
31635SOL    HW194929   6.420   2.388   0.580
31635SOL    HW294930   6.476   2.235   0.589
31636SOL     OW94931   6.603   1.901   0.753
31636SOL    HW194932   6.531   1.906   0.684
31636SOL    HW294933   6.579   1.832   0.822
31637SOL     OW94934   7.015   3.035   0.867
31637SOL    HW194935   6.960   2.951   0.860
31637SOL    HW294936   7.041   3.064   0.775
31638SOL     OW94937   7.052   2.452   0.992
31638SOL    HW194938   7.022   2.357   0.999
31638SOL    HW294939   7.125   2.468   1.058
31639SOL     OW94940   7.443   2.695   0.377
31639SOL    HW194941   7.485   2.631   0.441
31639SOL    HW294942   7.405   2.644   0.299
31640SOL     OW94943   6.074   3.247   0.174
31640SOL    HW194944   5.987   3.232   0.221
31640SOL    HW294945   6.057   3.273   0.079
31641SOL     OW94946   7.250   3.142   0.657
31641SOL    HW194947   7.349   3.150   0.671
31641SOL    HW294948   7.205   3.226   0.688
31642SOL     OW94949   6.976   2.437   0.078
31642SOL    HW194950   6.922   2.416   0.159
31642SOL    HW294951   7.067   2.396   0.087
31643SOL     OW94952   6.113   2.118   0.328
31643SOL    HW194953   6.140   2.059   0.253
31643SOL    HW294954   6.113   2.213   0.297
31644SOL     OW94955   7.340   3.085   1.588
31644SOL    HW194956   7.431   3.046   1.575
31644SOL    HW294957   7.348   3.181   1.612
31645SOL     OW94958   6.650   3.209   1.340
31645SOL    HW194959   6.570   3.186   1.395
31645SOL    HW294960   6.733   3.183   1.389
31646SOL     OW94961   7.178   3.491   1.625
31646SOL    HW194962   7.205   3.525   1.535
31646SOL    HW294963   7.257   3.453   1.671
31647SOL     OW94964   6.697   3.057   1.100
31647SOL    HW194965   6.657   3.101   1.181
31647SOL    HW294966   6.656   3.094   1.017
31648SOL     OW94967   7.224   2.961   1.079
31648SOL    HW194968   7.229   3.042   1.138
31648SOL    HW294969   7.138   2.963   1.028
31649SOL     OW94970   6.501   1.951   1.402
31649SOL    HW194971   6.526   1.931   1.307
31649SOL    HW294972   6.573   2.007   1.444
31650SOL     OW94973   6.566   2.978   1.719
31650SOL    HW194974   6.467   2.984   1.729
31650SOL    HW294975   6.589   2.898   1.663
31651SOL     OW94976   6.291   2.912   0.368
31651SOL    HW194977   6.277   2.919   0.467
31651SOL    HW294978   6.375   2.861   0.350
31652SOL     OW94979   5.996   2.675   1.251
31652SOL    HW194980   6.082   2.687   1.301
31652SOL    HW294981   5.954   2.588   1.278
31653SOL     OW94982   6.860   2.248   1.262
31653SOL    HW194983   6.881   2.322   1.326
31653SOL    HW294984   6.771   2.265   1.219
31654SOL     OW94985   5.650   3.426   1.331
31654SOL    HW194986   5.604   3.508   1.297
31654SOL    HW294987   5.748   3.445   1.340
31655SOL     OW94988   5.953   2.962   0.501
31655SOL    HW194989   5.946   3.045   0.445
31655SOL    HW294990   5.957   2.882   0.441
31656SOL     OW94991   6.152   2.399   0.865
31656SOL    HW194992   6.164   2.465   0.791
31656SOL    HW294993   6.198   2.433   0.948
31657SOL     OW94994   6.838   3.210   0.388
31657SOL    HW194995   6.888   3.287   0.428
31657SOL    HW294996   6.743   3.212   0.420
31658SOL     OW94997   6.858   3.307   1.142
31658SOL    HW194998   6.905   3.320   1.229
31658SOL    HW294999   6.792   3.233   1.151
31659SOL     OW95000   7.168   2.501   0.472
31659SOL    HW195001   7.137   2.562   0.545
31659SOL    HW295002   7.218   2.553   0.403
31660SOL     OW95003   5.940   3.372   1.329
31660SOL    HW195004   5.919   3.328   1.242
31660SOL    HW295005   6.037   3.398   1.332
31661SOL     OW95006   5.988   2.613   1.598
31661SOL    HW195007   6.056   2.668   1.551
31661SOL    HW295008   6.028   2.525   1.625
31662SOL     OW95009   7.173   2.641   1.670
31662SOL    HW195010   7.081   2.679   1.665
31662SOL    HW295011   7.233   2.688   1.605
31663SOL     OW95012   6.599   1.967   1.770
31663SOL    HW195013   6.605   2.052   1.718
31663SOL    HW295014   6.631   1.891   1.713
31664SOL     OW95015   6.090   1.912   1.740
31664SOL    HW195016   6.048   1.855   1.670
31664SOL    HW295017   6.024   1.981   1.772
31665SOL     OW95018   6.159   2.732   1.029
31665SOL    HW195019   6.203   2.821   1.020
31665SOL    HW295020   6.096   2.732   1.106
31666SOL     OW95021   6.946   2.724   1.045
31666SOL    HW195022   6.871   2.724   0.979
31666SOL    HW295023   6.983   2.632   1.054
31667SOL     OW95024   6.795   2.387   0.275
31667SOL    HW195025   6.808   2.303   0.329
31667SOL    HW295026   6.766   2.461   0.335
31668SOL     OW95027   5.893   2.075   1.231
31668SOL    HW195028   5.870   2.112   1.321
31668SOL    HW295029   5.863   1.980   1.225
31669SOL     OW95030   5.623   3.172   1.282
31669SOL    HW195031   5.676   3.123   1.350
31669SOL    HW295032   5.645   3.270   1.287
31670SOL     OW95033   6.318   2.496   1.064
31670SOL    HW195034   6.377   2.470   0.988
31670SOL    HW295035   6.290   2.592   1.053
31671SOL     OW95036   7.314   2.797   1.854
31671SOL    HW195037   7.268   2.790   1.765
31671SOL    HW295038   7.252   2.841   1.920
31672SOL     OW95039   5.893   1.925   0.618
31672SOL    HW195040   5.882   2.019   0.651
31672SOL    HW295041   5.888   1.862   0.695
31673SOL     OW95042   7.208   2.229   0.374
31673SOL    HW195043   7.210   2.153   0.438
31673SOL    HW295044   7.160   2.306   0.414
31674SOL     OW95045   6.609   2.628   0.966
31674SOL    HW195046   6.624   2.649   1.062
31674SOL    HW295047   6.579   2.533   0.957
31675SOL     OW95048   6.566   3.435   1.700
31675SOL    HW195049   6.546   3.479   1.612
31675SOL    HW295050   6.605   3.344   1.684
31676SOL     OW95051   7.445   3.380   1.605
31676SOL    HW195052   7.459   3.407   1.510
31676SOL    HW295053   7.528   3.402   1.658
31677SOL     OW95054   5.936   2.760   1.804
31677SOL    HW195055   6.012   2.804   1.852
31677SOL    HW295056   5.971   2.713   1.722
31678SOL     OW95057   7.126   2.136   0.125
31678SOL    HW195058   7.065   2.061   0.148
31678SOL    HW295059   7.148   2.188   0.208
31679SOL     OW95060   6.889   2.700   0.042
31679SOL    HW195061   6.923   2.607   0.057
31679SOL    HW295062   6.907   2.727  -0.053
31680SOL     OW95063   6.654   3.195   0.849
31680SOL    HW195064   6.661   3.111   0.794
31680SOL    HW295065   6.716   3.264   0.813
31681SOL     OW95066   5.905   2.672   0.949
31681SOL    HW195067   5.998   2.708   0.954
31681SOL    HW295068   5.899   2.587   1.001
31682SOL     OW95069   5.925   2.371   1.006
31682SOL    HW195070   5.873   2.288   0.989
31682SOL    HW295071   6.002   2.376   0.942
31683SOL     OW95072   6.724   2.242   1.678
31683SOL    HW195073   6.679   2.305   1.742
31683SOL    HW295074   6.817   2.273   1.661
31684SOL     OW95075   6.746   2.069   1.477
31684SOL    HW195076   6.746   2.133   1.554
31684SOL    HW295077   6.774   2.117   1.394
31685SOL     OW95078   5.594   3.188   0.200
31685SOL    HW195079   5.501   3.209   0.169
31685SOL    HW295080   5.604   3.089   0.213
31686SOL     OW95081   5.674   3.663   0.927
31686SOL    HW195082   5.632   3.577   0.900
31686SOL    HW295083   5.768   3.666   0.893
31687SOL     OW95084   6.090   3.430   0.910
31687SOL    HW195085   6.156   3.504   0.919
31687SOL    HW295086   6.134   3.351   0.868
31688SOL     OW95087   6.588   2.658   1.238
31688SOL    HW195088   6.629   2.626   1.324
31688SOL    HW295089   6.492   2.631   1.235
31689SOL     OW95090   5.626   2.406   1.114
31689SOL    HW195091   5.711   2.373   1.073
31689SOL    HW295092   5.639   2.421   1.212
31690SOL     OW95093   5.775   2.382   1.722
31690SOL    HW195094   5.834   2.342   1.652
31690SOL    HW295095   5.717   2.453   1.681
31691SOL     OW95096   6.955   2.812   1.660
31691SOL    HW195097   6.994   2.901   1.680
31691SOL    HW295098   6.965   2.792   1.563
31692SOL     OW95099   6.401   2.434   0.325
31692SOL    HW195100   6.408   2.345   0.279
31692SOL    HW295101   6.307   2.468   0.317
31693SOL     OW95102   7.243   2.466   1.206
31693SOL    HW195103   7.205   2.397   1.268
31693SOL    HW295104   7.325   2.430   1.162
31694SOL     OW95105   5.838   3.426   1.744
31694SOL    HW195106   5.808   3.483   1.820
31694SOL    HW295107   5.831   3.329   1.770
31695SOL     OW95108   6.257   2.326   1.269
31695SOL    HW195109   6.223   2.237   1.239
31695SOL    HW295110   6.283   2.380   1.189
31696SOL     OW95111   6.516   3.540   1.465
31696SOL    HW195112   6.492   3.522   1.370
31696SOL    HW295113   6.546   3.634   1.475
31697SOL     OW95114   6.059   2.362   0.191
31697SOL    HW195115   6.120   2.442   0.195
31697SOL    HW295116   5.964   2.393   0.198
31698SOL     OW95117   5.745   2.999   1.466
31698SOL    HW195118   5.767   2.938   1.542
31698SOL    HW295119   5.755   2.950   1.380
31699SOL     OW95120   6.933   2.921   1.234
31699SOL    HW195121   6.957   2.858   1.160
31699SOL    HW295122   6.843   2.961   1.216
31700SOL     OW95123   6.888   2.717   0.309
31700SOL    HW195124   6.802   2.686   0.351
31700SOL    HW295125   6.884   2.703   0.210
31701SOL     OW95126   7.345   3.609   1.154
31701SOL    HW195127   7.406   3.639   1.081
31701SOL    HW295128   7.307   3.520   1.132
31702SOL     OW95129   6.838   3.593   1.128
31702SOL    HW195130   6.922   3.598   1.074
31702SOL    HW295131   6.815   3.497   1.146
31703SOL     OW95132   5.669   3.120   1.022
31703SOL    HW195133   5.664   3.119   1.122
31703SOL    HW295134   5.586   3.079   0.984
31704SOL     OW95135   6.274   3.524   1.716
31704SOL    HW195136   6.218   3.605   1.725
31704SOL    HW295137   6.326   3.528   1.630
31705SOL     OW95138   6.489   1.948   0.133
31705SOL    HW195139   6.540   1.949   0.047
31705SOL    HW295140   6.545   1.906   0.204
31706SOL     OW95141   7.312   1.997   0.523
31706SOL    HW195142   7.385   1.980   0.456
31706SOL    HW295143   7.281   1.910   0.561
31707SOL     OW95144   6.974   3.435   0.477
31707SOL    HW195145   7.041   3.447   0.403
31707SOL    HW295146   6.934   3.524   0.500
31708SOL     OW95147   5.716   3.656   1.851
31708SOL    HW195148   5.675   3.582   1.904
31708SOL    HW295149   5.780   3.707   1.909
31709SOL     OW95150   6.866   2.789   0.672
31709SOL    HW195151   6.926   2.708   0.674
31709SOL    HW295152   6.906   2.858   0.612
31710SOL     OW95153   6.416   3.135   1.422
31710SOL    HW195154   6.411   3.168   1.517
31710SOL    HW295155   6.330   3.154   1.376
31711SOL     OW95156   6.258   3.478   0.154
31711SOL    HW195157   6.267   3.488   0.055
31711SOL    HW295158   6.218   3.389   0.175
31712SOL     OW95159   7.236   3.582   1.394
31712SOL    HW195160   7.289   3.592   1.310
31712SOL    HW295161   7.209   3.672   1.428
31713SOL     OW95162   7.427   2.037   0.963
31713SOL    HW195163   7.466   1.952   0.927
31713SOL    HW295164   7.329   2.039   0.944
31714SOL     OW95165   5.849   2.188   0.720
31714SOL    HW195166   5.770   2.239   0.686
31714SOL    HW295167   5.840   2.173   0.818
31715SOL     OW95168   6.780   3.474   0.031
31715SOL    HW195169   6.786   3.381   0.068
31715SOL    HW295170   6.721   3.474  -0.049
31716SOL     OW95171   6.408   2.864   1.372
31716SOL    HW195172   6.448   2.863   1.280
31716SOL    HW295173   6.418   2.956   1.412
31717SOL     OW95174   6.502   2.772   0.291
31717SOL    HW195175   6.565   2.810   0.223
31717SOL    HW295176   6.542   2.689   0.330
31718SOL     OW95177   7.090   3.469   0.044
31718SOL    HW195178   6.998   3.506   0.051
31718SOL    HW295179   7.128   3.489  -0.046
31719SOL     OW95180   5.958   3.150   1.490
31719SOL    HW195181   5.945   3.243   1.456
31719SOL    HW295182   5.874   3.098   1.477
31720SOL     OW95183   7.200   3.154   1.289
31720SOL    HW195184   7.260   3.157   1.369
31720SOL    HW295185   7.125   3.218   1.302
31721SOL     OW95186   6.625   2.960   0.696
31721SOL    HW195187   6.555   2.913   0.750
31721SOL    HW295188   6.684   2.892   0.653
31722SOL     OW95189   6.600   2.098   0.971
31722SOL    HW195190   6.592   2.062   0.878
31722SOL    HW295191   6.598   2.022   1.036
31723SOL     OW95192   6.176   3.349   0.491
31723SOL    HW195193   6.218   3.291   0.421
31723SOL    HW295194   6.132   3.428   0.447
31724SOL     OW95195   7.295   2.247   1.381
31724SOL    HW195196   7.368   2.316   1.385
31724SOL    HW295197   7.323   2.172   1.322
31725SOL     OW95198   5.841   3.210   0.290
31725SOL    HW195199   5.745   3.211   0.263
31725SOL    HW295200   5.853   3.263   0.374
31726SOL     OW95201   5.691   2.875   1.726
31726SOL    HW195202   5.614   2.842   1.780
31726SOL    HW295203   5.776   2.845   1.768
31727SOL     OW95204   6.258   2.065   1.489
31727SOL    HW195205   6.348   2.049   1.449
31727SOL    HW295206   6.266   2.070   1.588
31728SOL     OW95207   7.026   2.718   1.398
31728SOL    HW195208   6.969   2.770   1.335
31728SOL    HW295209   7.122   2.730   1.374
31729SOL     OW95210   5.658   2.028   0.318
31729SOL    HW195211   5.641   2.111   0.264
31729SOL    HW295212   5.748   1.991   0.296
31730SOL     OW95213   6.769   3.197   0.119
31730SOL    HW195214   6.670   3.186   0.121
31730SOL    HW295215   6.803   3.212   0.212
31731SOL     OW95216   6.199   2.704   1.431
31731SOL    HW195217   6.255   2.785   1.414
31731SOL    HW295218   6.258   2.624   1.434
31732SOL     OW95219   7.079   3.629   0.959
31732SOL    HW195220   7.112   3.693   0.890
31732SOL    HW295221   7.145   3.623   1.034
31733SOL     OW95222   6.302   2.427   1.708
31733SOL    HW195223   6.321   2.492   1.782
31733SOL    HW295224   6.362   2.347   1.717
31734SOL     OW95225   7.036   3.082   1.633
31734SOL    HW195226   7.027   3.072   1.732
31734SOL    HW295227   7.132   3.075   1.607
31735SOL     OW95228   5.976   3.603   1.560
31735SOL    HW195229   5.885   3.644   1.558
31735SOL    HW295230   5.969   3.509   1.592
31736SOL     OW95231   7.260   2.745   1.254
31736SOL    HW195232   7.233   2.656   1.217
31736SOL    HW295233   7.261   2.813   1.181
31737SOL     OW95234   6.811   2.187   0.449
31737SOL    HW195235   6.876   2.113   0.438
31737SOL    HW295236   6.831   2.237   0.533
31738SOL     OW95237   6.180   2.607   0.652
31738SOL    HW195238   6.230   2.692   0.633
31738SOL    HW295239   6.092   2.609   0.604
31739SOL     OW95240   7.363   2.204   1.642
31739SOL    HW195241   7.346   2.235   1.548
31739SOL    HW295242   7.279   2.167   1.680
31740SOL     OW95243   7.316   2.796   1.517
31740SOL    HW195244   7.354   2.887   1.532
31740SOL    HW295245   7.308   2.779   1.418
31741SOL     OW95246   6.445   3.236   0.016
31741SOL    HW195247   6.399   3.251   0.104
31741SOL    HW295248   6.489   3.321  -0.014
31742SOL     OW95249   6.247   3.652   0.953
31742SOL    HW195250   6.201   3.740   0.940
31742SOL    HW295251   6.346   3.664   0.946
31743SOL     OW95252   6.445   2.818   0.861
31743SOL    HW195253   6.499   2.749   0.909
31743SOL    HW295254   6.413   2.887   0.927
31744SOL     OW95255   6.669   2.846   0.087
31744SOL    HW195256   6.646   2.899   0.005
31744SOL    HW295257   6.750   2.790   0.068
31745SOL     OW95258   7.447   3.431   0.851
31745SOL    HW195259   7.376   3.419   0.781
31745SOL    HW295260   7.448   3.352   0.911
31746SOL     OW95261   5.807   3.176   1.844
31746SOL    HW195262   5.742   3.103   1.823
31746SOL    HW295263   5.811   3.190   1.942
31747SOL     OW95264   5.665   3.102   0.653
31747SOL    HW195265   5.664   3.055   0.741
31747SOL    HW295266   5.747   3.074   0.602
31748SOL     OW95267   6.258   3.253   1.624
31748SOL    HW195268   6.180   3.203   1.662
31748SOL    HW295269   6.255   3.348   1.655
31749SOL     OW95270   7.410   2.054   1.227
31749SOL    HW195271   7.406   1.964   1.271
31749SOL    HW295272   7.413   2.043   1.128
31750SOL     OW95273   6.014   2.286   0.520
31750SOL    HW195274   6.044   2.214   0.458
31750SOL    HW295275   5.975   2.246   0.603
31751SOL     OW95276   7.291   3.349   1.104
31751SOL    HW195277   7.198   3.324   1.077
31751SOL    HW295278   7.317   3.299   1.186
31752SOL     OW95279   5.903   2.409   1.280
31752SOL    HW195280   5.941   2.350   1.352
31752SOL    HW295281   5.943   2.383   1.192
31753SOL     OW95282   6.398   3.448   0.687
31753SOL    HW195283   6.430   3.458   0.593
31753SOL    HW295284   6.319   3.386   0.689
31754SOL     OW95285   7.010   2.076   1.112
31754SOL    HW195286   7.062   2.011   1.167
31754SOL    HW295287   6.961   2.139   1.173
31755SOL     OW95288   6.587   1.896   1.154
31755SOL    HW195289   6.524   1.824   1.123
31755SOL    HW295290   6.680   1.860   1.154
31756SOL     OW95291   6.356   3.192   0.301
31756SOL    HW195292   6.310   3.105   0.318
31756SOL    HW295293   6.447   3.189   0.342
31757SOL     OW95294   6.204   3.429   1.284
31757SOL    HW195295   6.199   3.511   1.341
31757SOL    HW295296   6.293   3.426   1.239
31758SOL     OW95297   6.938   1.914   0.168
31758SOL    HW195298   6.973   1.873   0.084
31758SOL    HW295299   6.848   1.876   0.188
31759SOL     OW95300   6.886   2.315   0.691
31759SOL    HW195301   6.827   2.395   0.695
31759SOL    HW295302   6.901   2.280   0.784
31760SOL     OW95303   7.179   2.083   0.882
31760SOL    HW195304   7.095   2.082   0.936
31760SOL    HW295305   7.181   2.166   0.826
31761SOL     OW95306   5.625   2.939   0.300
31761SOL    HW195307   5.724   2.928   0.291
31761SOL    HW295308   5.585   2.853   0.332
31762SOL     OW95309   6.461   3.508   0.337
31762SOL    HW195310   6.384   3.473   0.283
31762SOL    HW295311   6.429   3.579   0.399
31763SOL     OW95312   5.816   2.490   1.975
31763SOL    HW195313   5.723   2.488   2.012
31763SOL    HW295314   5.817   2.451   1.883
31764SOL     OW95315   5.811   2.137   2.858
31764SOL    HW195316   5.846   2.120   2.950
31764SOL    HW295317   5.723   2.092   2.846
31765SOL     OW95318   5.605   2.230   2.509
31765SOL    HW195319   5.523   2.273   2.548
31765SOL    HW295320   5.577   2.157   2.446
31766SOL     OW95321   6.155   3.137   3.027
31766SOL    HW195322   6.062   3.130   2.990
31766SOL    HW295323   6.166   3.226   3.071
31767SOL     OW95324   7.141   3.373   2.565
31767SOL    HW195325   7.084   3.357   2.646
31767SOL    HW295326   7.082   3.383   2.485
31768SOL     OW95327   6.721   2.565   2.579
31768SOL    HW195328   6.778   2.643   2.554
31768SOL    HW295329   6.661   2.591   2.655
31769SOL     OW95330   7.341   2.469   2.093
31769SOL    HW195331   7.329   2.456   1.994
31769SOL    HW295332   7.311   2.388   2.142
31770SOL     OW95333   6.354   3.006   2.885
31770SOL    HW195334   6.276   3.023   2.945
31770SOL    HW295335   6.388   3.093   2.849
31771SOL     OW95336   6.436   2.660   3.685
31771SOL    HW195337   6.432   2.736   3.750
31771SOL    HW295338   6.458   2.696   3.594
31772SOL     OW95339   6.271   2.874   2.527
31772SOL    HW195340   6.340   2.858   2.597
31772SOL    HW295341   6.198   2.931   2.565
31773SOL     OW95342   6.272   3.023   3.665
31773SOL    HW195343   6.332   3.102   3.679
31773SOL    HW295344   6.186   3.054   3.624
31774SOL     OW95345   5.921   3.297   2.923
31774SOL    HW195346   5.843   3.266   2.870
31774SOL    HW295347   5.979   3.355   2.866
31775SOL     OW95348   7.046   3.367   3.201
31775SOL    HW195349   7.070   3.461   3.227
31775SOL    HW295350   7.030   3.313   3.283
31776SOL     OW95351   6.024   2.254   3.361
31776SOL    HW195352   6.106   2.198   3.370
31776SOL    HW295353   5.943   2.196   3.365
31777SOL     OW95354   7.189   2.309   2.599
31777SOL    HW195355   7.115   2.355   2.549
31777SOL    HW295356   7.240   2.377   2.652
31778SOL     OW95357   5.817   3.575   2.345
31778SOL    HW195358   5.851   3.652   2.399
31778SOL    HW295359   5.861   3.575   2.255
31779SOL     OW95360   6.713   3.203   3.552
31779SOL    HW195361   6.760   3.203   3.640
31779SOL    HW295362   6.665   3.116   3.541
31780SOL     OW95363   5.816   3.296   2.400
31780SOL    HW195364   5.790   3.392   2.400
31780SOL    HW295365   5.745   3.242   2.445
31781SOL     OW95366   5.826   2.953   2.748
31781SOL    HW195367   5.840   2.869   2.800
31781SOL    HW295368   5.771   3.017   2.803
31782SOL     OW95369   6.206   3.648   3.301
31782SOL    HW195370   6.114   3.631   3.336
31782SOL    HW295371   6.234   3.740   3.327
31783SOL     OW95372   6.192   2.826   1.985
31783SOL    HW195373   6.199   2.910   1.931
31783SOL    HW295374   6.238   2.839   2.073
31784SOL     OW95375   7.180   1.976   3.342
31784SOL    HW195376   7.162   2.043   3.270
31784SOL    HW295377   7.177   2.022   3.431
31785SOL     OW95378   5.708   2.505   2.425
31785SOL    HW195379   5.663   2.417   2.442
31785SOL    HW295380   5.707   2.559   2.509
31786SOL     OW95381   7.428   3.629   2.221
31786SOL    HW195382   7.482   3.600   2.301
31786SOL    HW295383   7.458   3.719   2.192
31787SOL     OW95384   5.613   3.458   1.979
31787SOL    HW195385   5.594   3.362   2.000
31787SOL    HW295386   5.580   3.516   2.054
31788SOL     OW95387   7.275   2.784   2.474
31788SOL    HW195388   7.370   2.755   2.482
31788SOL    HW295389   7.267   2.849   2.399
31789SOL     OW95390   7.227   2.970   2.294
31789SOL    HW195391   7.313   2.972   2.242
31789SOL    HW295392   7.241   3.017   2.382
31790SOL     OW95393   5.699   2.599   3.459
31790SOL    HW195394   5.787   2.586   3.504
31790SOL    HW295395   5.686   2.696   3.437
31791SOL     OW95396   6.199   3.227   2.588
31791SOL    HW195397   6.150   3.140   2.597
31791SOL    HW295398   6.176   3.270   2.501
31792SOL     OW95399   6.879   3.090   3.285
31792SOL    HW195400   6.916   3.017   3.227
31792SOL    HW295401   6.931   3.095   3.370
31793SOL     OW95402   6.395   1.866   2.364
31793SOL    HW195403   6.435   1.957   2.355
31793SOL    HW295404   6.295   1.874   2.370
31794SOL     OW95405   5.783   2.838   3.126
31794SOL    HW195406   5.872   2.793   3.112
31794SOL    HW295407   5.710   2.773   3.107
31795SOL     OW95408   7.111   2.861   2.052
31795SOL    HW195409   7.048   2.785   2.065
31795SOL    HW295410   7.159   2.879   2.138
31796SOL     OW95411   6.773   3.654   3.478
31796SOL    HW195412   6.797   3.714   3.402
31796SOL    HW295413   6.780   3.559   3.448
31797SOL     OW95414   5.903   2.113   3.663
31797SOL    HW195415   5.974   2.184   3.669
31797SOL    HW295416   5.815   2.152   3.691
31798SOL     OW95417   7.052   3.279   2.815
31798SOL    HW195418   6.993   3.285   2.895
31798SOL    HW295419   7.037   3.191   2.769
31799SOL     OW95420   7.253   3.576   2.434
31799SOL    HW195421   7.212   3.553   2.346
31799SOL    HW295422   7.235   3.502   2.499
31800SOL     OW95423   6.184   2.591   2.132
31800SOL    HW195424   6.208   2.660   2.064
31800SOL    HW295425   6.106   2.624   2.186
31801SOL     OW95426   6.867   2.207   2.806
31801SOL    HW195427   6.781   2.157   2.793
31801SOL    HW295428   6.929   2.153   2.862
31802SOL     OW95429   7.162   3.524   2.169
31802SOL    HW195430   7.251   3.570   2.172
31802SOL    HW295431   7.141   3.500   2.074
31803SOL     OW95432   6.393   2.467   3.327
31803SOL    HW195433   6.346   2.464   3.416
31803SOL    HW295434   6.342   2.412   3.261
31804SOL     OW95435   6.980   2.331   3.536
31804SOL    HW195436   6.960   2.374   3.624
31804SOL    HW295437   7.058   2.269   3.545
31805SOL     OW95438   6.559   2.752   3.434
31805SOL    HW195439   6.605   2.668   3.405
31805SOL    HW295440   6.503   2.786   3.359
31806SOL     OW95441   6.577   2.272   3.104
31806SOL    HW195442   6.500   2.306   3.158
31806SOL    HW295443   6.543   2.221   3.025
31807SOL     OW95444   6.627   2.563   2.291
31807SOL    HW195445   6.653   2.559   2.387
31807SOL    HW295446   6.542   2.512   2.277
31808SOL     OW95447   5.662   2.673   2.651
31808SOL    HW195448   5.761   2.661   2.660
31808SOL    HW295449   5.638   2.768   2.672
31809SOL     OW95450   5.716   3.683   3.433
31809SOL    HW195451   5.706   3.668   3.532
31809SOL    HW295452   5.630   3.719   3.397
31810SOL     OW95453   6.451   2.210   2.057
31810SOL    HW195454   6.510   2.273   2.008
31810SOL    HW295455   6.470   2.116   2.028
31811SOL     OW95456   7.305   2.447   3.693
31811SOL    HW195457   7.279   2.536   3.657
31811SOL    HW295458   7.303   2.379   3.620
31812SOL     OW95459   6.948   3.006   2.407
31812SOL    HW195460   7.031   2.977   2.359
31812SOL    HW295461   6.899   3.073   2.351
31813SOL     OW95462   6.136   2.058   2.747
31813SOL    HW195463   6.131   2.053   2.847
31813SOL    HW295464   6.138   2.154   2.718
31814SOL     OW95465   6.594   3.318   2.339
31814SOL    HW195466   6.548   3.390   2.287
31814SOL    HW295467   6.590   3.338   2.437
31815SOL     OW95468   5.937   3.663   2.715
31815SOL    HW195469   5.987   3.577   2.721
31815SOL    HW295470   6.002   3.740   2.712
31816SOL     OW95471   7.381   2.928   2.735
31816SOL    HW195472   7.319   2.913   2.659
31816SOL    HW295473   7.329   2.939   2.820
31817SOL     OW95474   6.813   3.412   3.368
31817SOL    HW195475   6.819   3.335   3.432
31817SOL    HW295476   6.761   3.386   3.288
31818SOL     OW95477   5.907   2.805   2.104
31818SOL    HW195478   5.989   2.844   2.062
31818SOL    HW295479   5.880   2.723   2.055
31819SOL     OW95480   7.044   2.597   2.590
31819SOL    HW195481   7.039   2.532   2.665
31819SOL    HW295482   7.124   2.656   2.603
31820SOL     OW95483   6.047   3.128   3.589
31820SOL    HW195484   5.997   3.129   3.503
31820SOL    HW295485   5.984   3.110   3.665
31821SOL     OW95486   6.697   3.638   2.099
31821SOL    HW195487   6.637   3.576   2.149
31821SOL    HW295488   6.728   3.594   2.014
31822SOL     OW95489   5.788   2.147   3.360
31822SOL    HW195490   5.708   2.207   3.347
31822SOL    HW295491   5.778   2.098   3.446
31823SOL     OW95492   7.218   3.239   1.943
31823SOL    HW195493   7.186   3.333   1.933
31823SOL    HW295494   7.142   3.176   1.931
31824SOL     OW95495   6.050   3.605   2.185
31824SOL    HW195496   6.083   3.644   2.271
31824SOL    HW295497   6.126   3.598   2.120
31825SOL     OW95498   6.986   1.969   2.288
31825SOL    HW195499   6.962   1.932   2.198
31825SOL    HW295500   7.085   1.985   2.292
31826SOL     OW95501   5.835   3.647   3.103
31826SOL    HW195502   5.892   3.582   3.153
31826SOL    HW295503   5.819   3.614   3.010
31827SOL     OW95504   6.526   3.560   2.766
31827SOL    HW195505   6.606   3.503   2.787
31827SOL    HW295506   6.477   3.520   2.689
31828SOL     OW95507   5.968   2.562   2.342
31828SOL    HW195508   6.013   2.472   2.339
31828SOL    HW295509   5.874   2.551   2.375
31829SOL     OW95510   7.133   2.084   3.591
31829SOL    HW195511   7.128   2.121   3.683
31829SOL    HW295512   7.061   2.015   3.579
31830SOL     OW95513   6.200   1.984   1.979
31830SOL    HW195514   6.298   1.962   1.986
31830SOL    HW295515   6.169   1.967   1.886
31831SOL     OW95516   6.367   2.126   3.611
31831SOL    HW195517   6.434   2.065   3.654
31831SOL    HW295518   6.294   2.145   3.676
31832SOL     OW95519   6.474   3.376   3.057
31832SOL    HW195520   6.451   3.351   2.963
31832SOL    HW295521   6.535   3.307   3.096
31833SOL     OW95522   6.937   2.452   3.295
31833SOL    HW195523   6.965   2.409   3.380
31833SOL    HW295524   6.962   2.548   3.296
31834SOL     OW95525   6.389   3.264   2.786
31834SOL    HW195526   6.479   3.278   2.744
31834SOL    HW295527   6.318   3.266   2.715
31835SOL     OW95528   6.508   2.365   2.761
31835SOL    HW195529   6.483   2.356   2.665
31835SOL    HW295530   6.556   2.283   2.792
31836SOL     OW95531   6.125   1.926   2.374
31836SOL    HW195532   6.044   1.927   2.432
31836SOL    HW295533   6.128   2.009   2.319
31837SOL     OW95534   7.020   3.050   1.903
31837SOL    HW195535   7.052   2.974   1.960
31837SOL    HW295536   6.928   3.077   1.933
31838SOL     OW95537   5.883   1.897   2.033
31838SOL    HW195538   5.932   1.981   2.012
31838SOL    HW295539   5.945   1.832   2.078
31839SOL     OW95540   6.521   2.098   2.342
31839SOL    HW195541   6.473   2.139   2.264
31839SOL    HW295542   6.620   2.096   2.323
31840SOL     OW95543   6.662   2.545   3.326
31840SOL    HW195544   6.582   2.484   3.329
31840SOL    HW295545   6.743   2.492   3.302
31841SOL     OW95546   6.813   3.432   2.655
31841SOL    HW195547   6.834   3.506   2.590
31841SOL    HW295548   6.881   3.432   2.728
31842SOL     OW95549   6.045   3.014   2.603
31842SOL    HW195550   5.974   2.987   2.668
31842SOL    HW295551   6.019   2.986   2.510
31843SOL     OW95552   6.857   3.659   2.453
31843SOL    HW195553   6.901   3.723   2.389
31843SOL    HW295554   6.807   3.711   2.523
31844SOL     OW95555   6.618   2.411   1.878
31844SOL    HW195556   6.577   2.493   1.839
31844SOL    HW295557   6.682   2.437   1.951
31845SOL     OW95558   5.664   2.418   3.248
31845SOL    HW195559   5.756   2.417   3.207
31845SOL    HW295560   5.658   2.492   3.315
31846SOL     OW95561   6.147   2.084   3.009
31846SOL    HW195562   6.185   2.000   3.046
31846SOL    HW295563   6.059   2.103   3.053
31847SOL     OW95564   6.452   2.316   2.504
31847SOL    HW195565   6.420   2.388   2.442
31847SOL    HW295566   6.476   2.235   2.451
31848SOL     OW95567   6.603   1.901   2.615
31848SOL    HW195568   6.531   1.906   2.546
31848SOL    HW295569   6.579   1.832   2.684
31849SOL     OW95570   7.015   3.035   2.729
31849SOL    HW195571   6.960   2.951   2.722
31849SOL    HW295572   7.041   3.064   2.637
31850SOL     OW95573   7.052   2.452   2.854
31850SOL    HW195574   7.022   2.357   2.861
31850SOL    HW295575   7.125   2.468   2.920
31851SOL     OW95576   7.443   2.695   2.239
31851SOL    HW195577   7.485   2.631   2.303
31851SOL    HW295578   7.405   2.644   2.161
31852SOL     OW95579   6.074   3.247   2.036
31852SOL    HW195580   5.987   3.232   2.083
31852SOL    HW295581   6.057   3.273   1.941
31853SOL     OW95582   7.250   3.142   2.519
31853SOL    HW195583   7.349   3.150   2.533
31853SOL    HW295584   7.205   3.226   2.550
31854SOL     OW95585   6.976   2.437   1.940
31854SOL    HW195586   6.922   2.416   2.021
31854SOL    HW295587   7.067   2.396   1.949
31855SOL     OW95588   6.113   2.118   2.190
31855SOL    HW195589   6.140   2.059   2.115
31855SOL    HW295590   6.113   2.213   2.159
31856SOL     OW95591   7.340   3.085   3.450
31856SOL    HW195592   7.431   3.046   3.437
31856SOL    HW295593   7.348   3.181   3.474
31857SOL     OW95594   6.650   3.209   3.202
31857SOL    HW195595   6.570   3.186   3.257
31857SOL    HW295596   6.733   3.183   3.251
31858SOL     OW95597   7.178   3.491   3.487
31858SOL    HW195598   7.205   3.525   3.397
31858SOL    HW295599   7.257   3.453   3.533
31859SOL     OW95600   6.697   3.057   2.962
31859SOL    HW195601   6.657   3.101   3.043
31859SOL    HW295602   6.656   3.094   2.879
31860SOL     OW95603   7.224   2.961   2.941
31860SOL    HW195604   7.229   3.042   3.000
31860SOL    HW295605   7.138   2.963   2.890
31861SOL     OW95606   6.501   1.951   3.264
31861SOL    HW195607   6.526   1.931   3.169
31861SOL    HW295608   6.573   2.007   3.306
31862SOL     OW95609   6.566   2.978   3.581
31862SOL    HW195610   6.467   2.984   3.591
31862SOL    HW295611   6.589   2.898   3.525
31863SOL     OW95612   6.291   2.912   2.230
31863SOL    HW195613   6.277   2.919   2.329
31863SOL    HW295614   6.375   2.861   2.212
31864SOL     OW95615   5.996   2.675   3.113
31864SOL    HW195616   6.082   2.687   3.163
31864SOL    HW295617   5.954   2.588   3.140
31865SOL     OW95618   6.860   2.248   3.124
31865SOL    HW195619   6.881   2.322   3.188
31865SOL    HW295620   6.771   2.265   3.081
31866SOL     OW95621   5.650   3.426   3.193
31866SOL    HW195622   5.604   3.508   3.159
31866SOL    HW295623   5.748   3.445   3.202
31867SOL     OW95624   5.953   2.962   2.363
31867SOL    HW195625   5.946   3.045   2.307
31867SOL    HW295626   5.957   2.882   2.303
31868SOL     OW95627   6.152   2.399   2.727
31868SOL    HW195628   6.164   2.465   2.653
31868SOL    HW295629   6.198   2.433   2.810
31869SOL     OW95630   6.838   3.210   2.250
31869SOL    HW195631   6.888   3.287   2.290
31869SOL    HW295632   6.743   3.212   2.282
31870SOL     OW95633   6.858   3.307   3.004
31870SOL    HW195634   6.905   3.320   3.091
31870SOL    HW295635   6.792   3.233   3.013
31871SOL     OW95636   7.168   2.501   2.334
31871SOL    HW195637   7.137   2.562   2.407
31871SOL    HW295638   7.218   2.553   2.265
31872SOL     OW95639   5.940   3.372   3.191
31872SOL    HW195640   5.919   3.328   3.104
31872SOL    HW295641   6.037   3.398   3.194
31873SOL     OW95642   5.988   2.613   3.460
31873SOL    HW195643   6.056   2.668   3.413
31873SOL    HW295644   6.028   2.525   3.487
31874SOL     OW95645   7.173   2.641   3.532
31874SOL    HW195646   7.081   2.679   3.527
31874SOL    HW295647   7.233   2.688   3.467
31875SOL     OW95648   6.599   1.967   3.632
31875SOL    HW195649   6.605   2.052   3.580
31875SOL    HW295650   6.631   1.891   3.575
31876SOL     OW95651   6.090   1.912   3.602
31876SOL    HW195652   6.048   1.855   3.532
31876SOL    HW295653   6.024   1.981   3.634
31877SOL     OW95654   6.159   2.732   2.891
31877SOL    HW195655   6.203   2.821   2.882
31877SOL    HW295656   6.096   2.732   2.968
31878SOL     OW95657   6.946   2.724   2.907
31878SOL    HW195658   6.871   2.724   2.841
31878SOL    HW295659   6.983   2.632   2.916
31879SOL     OW95660   6.795   2.387   2.137
31879SOL    HW195661   6.808   2.303   2.191
31879SOL    HW295662   6.766   2.461   2.197
31880SOL     OW95663   5.893   2.075   3.093
31880SOL    HW195664   5.870   2.112   3.183
31880SOL    HW295665   5.863   1.980   3.087
31881SOL     OW95666   5.623   3.172   3.144
31881SOL    HW195667   5.676   3.123   3.212
31881SOL    HW295668   5.645   3.270   3.149
31882SOL     OW95669   6.318   2.496   2.926
31882SOL    HW195670   6.377   2.470   2.850
31882SOL    HW295671   6.290   2.592   2.915
31883SOL     OW95672   7.314   2.797   3.716
31883SOL    HW195673   7.268   2.790   3.627
31883SOL    HW295674   7.252   2.841   3.782
31884SOL     OW95675   5.893   1.925   2.480
31884SOL    HW195676   5.882   2.019   2.513
31884SOL    HW295677   5.888   1.862   2.557
31885SOL     OW95678   7.208   2.229   2.236
31885SOL    HW195679   7.210   2.153   2.300
31885SOL    HW295680   7.160   2.306   2.276
31886SOL     OW95681   6.609   2.628   2.828
31886SOL    HW195682   6.624   2.649   2.924
31886SOL    HW295683   6.579   2.533   2.819
31887SOL     OW95684   6.566   3.435   3.562
31887SOL    HW195685   6.546   3.479   3.474
31887SOL    HW295686   6.605   3.344   3.546
31888SOL     OW95687   7.445   3.380   3.467
31888SOL    HW195688   7.459   3.407   3.372
31888SOL    HW295689   7.528   3.402   3.520
31889SOL     OW95690   5.936   2.760   3.666
31889SOL    HW195691   6.012   2.804   3.714
31889SOL    HW295692   5.971   2.713   3.584
31890SOL     OW95693   7.126   2.136   1.987
31890SOL    HW195694   7.065   2.061   2.010
31890SOL    HW295695   7.148   2.188   2.070
31891SOL     OW95696   6.889   2.700   1.904
31891SOL    HW195697   6.923   2.607   1.919
31891SOL    HW295698   6.907   2.727   1.809
31892SOL     OW95699   6.654   3.195   2.711
31892SOL    HW195700   6.661   3.111   2.656
31892SOL    HW295701   6.716   3.264   2.675
31893SOL     OW95702   5.905   2.672   2.811
31893SOL    HW195703   5.998   2.708   2.816
31893SOL    HW295704   5.899   2.587   2.863
31894SOL     OW95705   5.925   2.371   2.868
31894SOL    HW195706   5.873   2.288   2.851
31894SOL    HW295707   6.002   2.376   2.804
31895SOL     OW95708   6.724   2.242   3.540
31895SOL    HW195709   6.679   2.305   3.604
31895SOL    HW295710   6.817   2.273   3.523
31896SOL     OW95711   6.746   2.069   3.339
31896SOL    HW195712   6.746   2.133   3.416
31896SOL    HW295713   6.774   2.117   3.256
31897SOL     OW95714   5.594   3.188   2.062
31897SOL    HW195715   5.501   3.209   2.031
31897SOL    HW295716   5.604   3.089   2.075
31898SOL     OW95717   5.674   3.663   2.789
31898SOL    HW195718   5.632   3.577   2.762
31898SOL    HW295719   5.768   3.666   2.755
31899SOL     OW95720   6.090   3.430   2.772
31899SOL    HW195721   6.156   3.504   2.781
31899SOL    HW295722   6.134   3.351   2.730
31900SOL     OW95723   6.588   2.658   3.100
31900SOL    HW195724   6.629   2.626   3.186
31900SOL    HW295725   6.492   2.631   3.097
31901SOL     OW95726   5.626   2.406   2.976
31901SOL    HW195727   5.711   2.373   2.935
31901SOL    HW295728   5.639   2.421   3.074
31902SOL     OW95729   5.775   2.382   3.584
31902SOL    HW195730   5.834   2.342   3.514
31902SOL    HW295731   5.717   2.453   3.543
31903SOL     OW95732   6.955   2.812   3.522
31903SOL    HW195733   6.994   2.901   3.542
31903SOL    HW295734   6.965   2.792   3.425
31904SOL     OW95735   6.401   2.434   2.187
31904SOL    HW195736   6.408   2.345   2.141
31904SOL    HW295737   6.307   2.468   2.179
31905SOL     OW95738   7.243   2.466   3.068
31905SOL    HW195739   7.205   2.397   3.130
31905SOL    HW295740   7.325   2.430   3.024
31906SOL     OW95741   5.838   3.426   3.606
31906SOL    HW195742   5.808   3.483   3.682
31906SOL    HW295743   5.831   3.329   3.632
31907SOL     OW95744   6.257   2.326   3.131
31907SOL    HW195745   6.223   2.237   3.101
31907SOL    HW295746   6.283   2.380   3.051
31908SOL     OW95747   6.516   3.540   3.327
31908SOL    HW195748   6.492   3.522   3.232
31908SOL    HW295749   6.546   3.634   3.337
31909SOL     OW95750   6.059   2.362   2.053
31909SOL    HW195751   6.120   2.442   2.057
31909SOL    HW295752   5.964   2.393   2.060
31910SOL     OW95753   5.745   2.999   3.328
31910SOL    HW195754   5.767   2.938   3.404
31910SOL    HW295755   5.755   2.950   3.242
31911SOL     OW95756   6.933   2.921   3.096
31911SOL    HW195757   6.957   2.858   3.022
31911SOL    HW295758   6.843   2.961   3.078
31912SOL     OW95759   6.888   2.717   2.171
31912SOL    HW195760   6.802   2.686   2.213
31912SOL    HW295761   6.884   2.703   2.072
31913SOL     OW95762   7.345   3.609   3.016
31913SOL    HW195763   7.406   3.639   2.943
31913SOL    HW295764   7.307   3.520   2.994
31914SOL     OW95765   6.838   3.593   2.990
31914SOL    HW195766   6.922   3.598   2.936
31914SOL    HW295767   6.815   3.497   3.008
31915SOL     OW95768   5.669   3.120   2.884
31915SOL    HW195769   5.664   3.119   2.984
31915SOL    HW295770   5.586   3.079   2.846
31916SOL     OW95771   6.274   3.524   3.578
31916SOL    HW195772   6.218   3.605   3.587
31916SOL    HW295773   6.326   3.528   3.492
31917SOL     OW95774   7.312   1.997   2.385
31917SOL    HW195775   7.385   1.980   2.318
31917SOL    HW295776   7.281   1.910   2.423
31918SOL     OW95777   6.974   3.435   2.339
31918SOL    HW195778   7.041   3.447   2.265
31918SOL    HW295779   6.934   3.524   2.362
31919SOL     OW95780   5.716   3.656   3.713
31919SOL    HW195781   5.675   3.582   3.766
31919SOL    HW295782   5.780   3.707   3.771
31920SOL     OW95783   6.866   2.789   2.534
31920SOL    HW195784   6.926   2.708   2.536
31920SOL    HW295785   6.906   2.858   2.474
31921SOL     OW95786   6.416   3.135   3.284
31921SOL    HW195787   6.411   3.168   3.379
31921SOL    HW295788   6.330   3.154   3.238
31922SOL     OW95789   6.258   3.478   2.016
31922SOL    HW195790   6.267   3.488   1.917
31922SOL    HW295791   6.218   3.389   2.037
31923SOL     OW95792   7.236   3.582   3.256
31923SOL    HW195793   7.289   3.592   3.172
31923SOL    HW295794   7.209   3.672   3.290
31924SOL     OW95795   7.427   2.037   2.825
31924SOL    HW195796   7.466   1.952   2.789
31924SOL    HW295797   7.329   2.039   2.806
31925SOL     OW95798   5.849   2.188   2.582
31925SOL    HW195799   5.770   2.239   2.548
31925SOL    HW295800   5.840   2.173   2.680
31926SOL     OW95801   6.780   3.474   1.893
31926SOL    HW195802   6.786   3.381   1.930
31926SOL    HW295803   6.721   3.474   1.813
31927SOL     OW95804   6.408   2.864   3.234
31927SOL    HW195805   6.448   2.863   3.142
31927SOL    HW295806   6.418   2.956   3.274
31928SOL     OW95807   6.502   2.772   2.153
31928SOL    HW195808   6.565   2.810   2.085
31928SOL    HW295809   6.542   2.689   2.192
31929SOL     OW95810   7.090   3.469   1.906
31929SOL    HW195811   6.998   3.506   1.913
31929SOL    HW295812   7.128   3.489   1.816
31930SOL     OW95813   5.958   3.150   3.352
31930SOL    HW195814   5.945   3.243   3.318
31930SOL    HW295815   5.874   3.098   3.339
31931SOL     OW95816   7.200   3.154   3.151
31931SOL    HW195817   7.260   3.157   3.231
31931SOL    HW295818   7.125   3.218   3.164
31932SOL     OW95819   6.625   2.960   2.558
31932SOL    HW195820   6.555   2.913   2.612
31932SOL    HW295821   6.684   2.892   2.515
31933SOL     OW95822   6.600   2.098   2.833
31933SOL    HW195823   6.592   2.062   2.740
31933SOL    HW295824   6.598   2.022   2.898
31934SOL     OW95825   6.176   3.349   2.353
31934SOL    HW195826   6.218   3.291   2.283
31934SOL    HW295827   6.132   3.428   2.309
31935SOL     OW95828   7.295   2.247   3.243
31935SOL    HW195829   7.368   2.316   3.247
31935SOL    HW295830   7.323   2.172   3.184
31936SOL     OW95831   5.841   3.210   2.152
31936SOL    HW195832   5.745   3.211   2.125
31936SOL    HW295833   5.853   3.263   2.236
31937SOL     OW95834   5.691   2.875   3.588
31937SOL    HW195835   5.614   2.842   3.642
31937SOL    HW295836   5.776   2.845   3.630
31938SOL     OW95837   6.258   2.065   3.351
31938SOL    HW195838   6.348   2.049   3.311
31938SOL    HW295839   6.266   2.070   3.450
31939SOL     OW95840   5.661   2.207   1.895
31939SOL    HW195841   5.569   2.179   1.866
31939SOL    HW295842   5.692   2.284   1.839
31940SOL     OW95843   7.026   2.718   3.260
31940SOL    HW195844   6.969   2.770   3.197
31940SOL    HW295845   7.122   2.730   3.236
31941SOL     OW95846   5.658   2.028   2.180
31941SOL    HW195847   5.641   2.111   2.126
31941SOL    HW295848   5.748   1.991   2.158
31942SOL     OW95849   6.769   3.197   1.981
31942SOL    HW195850   6.670   3.186   1.983
31942SOL    HW295851   6.803   3.212   2.074
31943SOL     OW95852   6.199   2.704   3.293
31943SOL    HW195853   6.255   2.785   3.276
31943SOL    HW295854   6.258   2.624   3.296
31944SOL     OW95855   7.079   3.629   2.821
31944SOL    HW195856   7.112   3.693   2.752
31944SOL    HW295857   7.145   3.623   2.896
31945SOL     OW95858   6.302   2.427   3.570
31945SOL    HW195859   6.321   2.492   3.644
31945SOL    HW295860   6.362   2.347   3.579
31946SOL     OW95861   7.036   3.082   3.495
31946SOL    HW195862   7.027   3.072   3.594
31946SOL    HW295863   7.132   3.075   3.469
31947SOL     OW95864   5.976   3.603   3.422
31947SOL    HW195865   5.885   3.644   3.420
31947SOL    HW295866   5.969   3.509   3.454
31948SOL     OW95867   7.260   2.745   3.116
31948SOL    HW195868   7.233   2.656   3.079
31948SOL    HW295869   7.261   2.813   3.043
31949SOL     OW95870   6.811   2.187   2.311
31949SOL    HW195871   6.876   2.113   2.300
31949SOL    HW295872   6.831   2.237   2.395
31950SOL     OW95873   6.180   2.607   2.514
31950SOL    HW195874   6.230   2.692   2.495
31950SOL    HW295875   6.092   2.609   2.466
31951SOL     OW95876   7.363   2.204   3.504
31951SOL    HW195877   7.346   2.235   3.410
31951SOL    HW295878   7.279   2.167   3.542
31952SOL     OW95879   7.316   2.796   3.379
31952SOL    HW195880   7.354   2.887   3.394
31952SOL    HW295881   7.308   2.779   3.280
31953SOL     OW95882   6.445   3.236   1.878
31953SOL    HW195883   6.399   3.251   1.966
31953SOL    HW295884   6.489   3.321   1.848
31954SOL     OW95885   6.247   3.652   2.815
31954SOL    HW195886   6.201   3.740   2.802
31954SOL    HW295887   6.346   3.664   2.808
31955SOL     OW95888   6.445   2.818   2.723
31955SOL    HW195889   6.499   2.749   2.771
31955SOL    HW295890   6.413   2.887   2.789
31956SOL     OW95891   6.669   2.846   1.949
31956SOL    HW195892   6.646   2.899   1.867
31956SOL    HW295893   6.750   2.790   1.930
31957SOL     OW95894   7.447   3.431   2.713
31957SOL    HW195895   7.376   3.419   2.643
31957SOL    HW295896   7.448   3.352   2.773
31958SOL     OW95897   5.807   3.176   3.706
31958SOL    HW195898   5.742   3.103   3.685
31958SOL    HW295899   5.811   3.190   3.804
31959SOL     OW95900   5.665   3.102   2.515
31959SOL    HW195901   5.664   3.055   2.603
31959SOL    HW295902   5.747   3.074   2.464
31960SOL     OW95903   6.258   3.253   3.486
31960SOL    HW195904   6.180   3.203   3.524
31960SOL    HW295905   6.255   3.348   3.517
31961SOL     OW95906   7.410   2.054   3.089
31961SOL    HW195907   7.406   1.964   3.133
31961SOL    HW295908   7.413   2.043   2.990
31962SOL     OW95909   6.014   2.286   2.382
31962SOL    HW195910   6.044   2.214   2.320
31962SOL    HW295911   5.975   2.246   2.465
31963SOL     OW95912   7.291   3.349   2.966
31963SOL    HW195913   7.198   3.324   2.939
31963SOL    HW295914   7.317   3.299   3.048
31964SOL     OW95915   5.903   2.409   3.142
31964SOL    HW195916   5.941   2.350   3.214
31964SOL    HW295917   5.943   2.383   3.054
31965SOL     OW95918   6.398   3.448   2.549
31965SOL    HW195919   6.430   3.458   2.455
31965SOL    HW295920   6.319   3.386   2.551
31966SOL     OW95921   7.010   2.076   2.974
31966SOL    HW195922   7.062   2.011   3.029
31966SOL    HW295923   6.961   2.139   3.035
31967SOL     OW95924   6.587   1.896   3.016
31967SOL    HW195925   6.524   1.824   2.985
31967SOL    HW295926   6.680   1.860   3.016
31968SOL     OW95927   6.356   3.192   2.163
31968SOL    HW195928   6.310   3.105   2.180
31968SOL    HW295929   6.447   3.189   2.204
31969SOL     OW95930   6.204   3.429   3.146
31969SOL    HW195931   6.199   3.511   3.203
31969SOL    HW295932   6.293   3.426   3.101
31970SOL     OW95933   6.938   1.914   2.030
31970SOL    HW195934   6.973   1.873   1.946
31970SOL    HW295935   6.848   1.876   2.050
31971SOL     OW95936   6.886   2.315   2.553
31971SOL    HW195937   6.827   2.395   2.557
31971SOL    HW295938   6.901   2.280   2.646
31972SOL     OW95939   7.179   2.083   2.744
31972SOL    HW195940   7.095   2.082   2.798
31972SOL    HW295941   7.181   2.166   2.688
31973SOL     OW95942   5.625   2.939   2.162
31973SOL    HW195943   5.724   2.928   2.153
31973SOL    HW295944   5.585   2.853   2.194
31974SOL     OW95945   6.461   3.508   2.199
31974SOL    HW195946   6.384   3.473   2.145
31974SOL    HW295947   6.429   3.579   2.261
31975SOL     OW95948   5.816   2.490   3.837
31975SOL    HW195949   5.723   2.488   3.874
31975SOL    HW295950   5.817   2.451   3.745
31976SOL     OW95951   5.811   2.137   4.720
31976SOL    HW195952   5.846   2.120   4.812
31976SOL    HW295953   5.723   2.092   4.708
31977SOL     OW95954   5.605   2.230   4.371
31977SOL    HW195955   5.523   2.273   4.410
31977SOL    HW295956   5.577   2.157   4.308
31978SOL     OW95957   6.155   3.137   4.889
31978SOL    HW195958   6.062   3.130   4.852
31978SOL    HW295959   6.166   3.226   4.933
31979SOL     OW95960   7.141   3.373   4.427
31979SOL    HW195961   7.084   3.357   4.508
31979SOL    HW295962   7.082   3.383   4.347
31980SOL     OW95963   6.721   2.565   4.441
31980SOL    HW195964   6.778   2.643   4.416
31980SOL    HW295965   6.661   2.591   4.517
31981SOL     OW95966   7.341   2.469   3.955
31981SOL    HW195967   7.329   2.456   3.856
31981SOL    HW295968   7.311   2.388   4.004
31982SOL     OW95969   6.354   3.006   4.747
31982SOL    HW195970   6.276   3.023   4.807
31982SOL    HW295971   6.388   3.093   4.711
31983SOL     OW95972   6.436   2.660   5.547
31983SOL    HW195973   6.432   2.736   5.612
31983SOL    HW295974   6.458   2.696   5.456
31984SOL     OW95975   6.271   2.874   4.389
31984SOL    HW195976   6.340   2.858   4.459
31984SOL    HW295977   6.198   2.931   4.427
31985SOL     OW95978   6.272   3.023   5.527
31985SOL    HW195979   6.332   3.102   5.541
31985SOL    HW295980   6.186   3.054   5.486
31986SOL     OW95981   5.921   3.297   4.785
31986SOL    HW195982   5.843   3.266   4.732
31986SOL    HW295983   5.979   3.355   4.728
31987SOL     OW95984   7.046   3.367   5.063
31987SOL    HW195985   7.070   3.461   5.089
31987SOL    HW295986   7.030   3.313   5.145
31988SOL     OW95987   6.024   2.254   5.223
31988SOL    HW195988   6.106   2.198   5.232
31988SOL    HW295989   5.943   2.196   5.227
31989SOL     OW95990   7.189   2.309   4.461
31989SOL    HW195991   7.115   2.355   4.411
31989SOL    HW295992   7.240   2.377   4.514
31990SOL     OW95993   5.817   3.575   4.207
31990SOL    HW195994   5.851   3.652   4.261
31990SOL    HW295995   5.861   3.575   4.117
31991SOL     OW95996   6.713   3.203   5.414
31991SOL    HW195997   6.760   3.203   5.502
31991SOL    HW295998   6.665   3.116   5.403
31992SOL     OW95999   5.816   3.296   4.262
31992SOL    HW196000   5.790   3.392   4.262
31992SOL    HW296001   5.745   3.242   4.307
31993SOL     OW96002   5.826   2.953   4.610
31993SOL    HW196003   5.840   2.869   4.662
31993SOL    HW296004   5.771   3.017   4.665
31994SOL     OW96005   6.206   3.648   5.163
31994SOL    HW196006   6.114   3.631   5.198
31994SOL    HW296007   6.234   3.740   5.189
31995SOL     OW96008   6.192   2.826   3.847
31995SOL    HW196009   6.199   2.910   3.793
31995SOL    HW296010   6.238   2.839   3.935
31996SOL     OW96011   7.180   1.976   5.204
31996SOL    HW196012   7.162   2.043   5.132
31996SOL    HW296013   7.177   2.022   5.293
31997SOL     OW96014   5.708   2.505   4.287
31997SOL    HW196015   5.663   2.417   4.304
31997SOL    HW296016   5.707   2.559   4.371
31998SOL     OW96017   7.428   3.629   4.083
31998SOL    HW196018   7.482   3.600   4.163
31998SOL    HW296019   7.458   3.719   4.054
31999SOL     OW96020   5.613   3.458   3.841
31999SOL    HW196021   5.594   3.362   3.862
31999SOL    HW296022   5.580   3.516   3.916
32000SOL     OW96023   7.275   2.784   4.336
32000SOL    HW196024   7.370   2.755   4.344
32000SOL    HW296025   7.267   2.849   4.261
32001SOL     OW96026   7.227   2.970   4.156
32001SOL    HW196027   7.313   2.972   4.104
32001SOL    HW296028   7.241   3.017   4.244
32002SOL     OW96029   5.699   2.599   5.321
32002SOL    HW196030   5.787   2.586   5.366
32002SOL    HW296031   5.686   2.696   5.299
32003SOL     OW96032   6.199   3.227   4.450
32003SOL    HW196033   6.150   3.140   4.459
32003SOL    HW296034   6.176   3.270   4.363
32004SOL     OW96035   6.879   3.090   5.147
32004SOL    HW196036   6.916   3.017   5.089
32004SOL    HW296037   6.931   3.095   5.232
32005SOL     OW96038   6.395   1.866   4.226
32005SOL    HW196039   6.435   1.957   4.217
32005SOL    HW296040   6.295   1.874   4.232
32006SOL     OW96041   5.783   2.838   4.988
32006SOL    HW196042   5.872   2.793   4.974
32006SOL    HW296043   5.710   2.773   4.969
32007SOL     OW96044   7.111   2.861   3.914
32007SOL    HW196045   7.048   2.785   3.927
32007SOL    HW296046   7.159   2.879   4.000
32008SOL     OW96047   6.773   3.654   5.340
32008SOL    HW196048   6.797   3.714   5.264
32008SOL    HW296049   6.780   3.559   5.310
32009SOL     OW96050   5.903   2.113   5.525
32009SOL    HW196051   5.974   2.184   5.531
32009SOL    HW296052   5.815   2.152   5.553
32010SOL     OW96053   7.052   3.279   4.677
32010SOL    HW196054   6.993   3.285   4.757
32010SOL    HW296055   7.037   3.191   4.631
32011SOL     OW96056   7.253   3.576   4.296
32011SOL    HW196057   7.212   3.553   4.208
32011SOL    HW296058   7.235   3.502   4.361
32012SOL     OW96059   6.184   2.591   3.994
32012SOL    HW196060   6.208   2.660   3.926
32012SOL    HW296061   6.106   2.624   4.048
32013SOL     OW96062   6.867   2.207   4.668
32013SOL    HW196063   6.781   2.157   4.655
32013SOL    HW296064   6.929   2.153   4.724
32014SOL     OW96065   7.162   3.524   4.031
32014SOL    HW196066   7.251   3.570   4.034
32014SOL    HW296067   7.141   3.500   3.936
32015SOL     OW96068   6.393   2.467   5.189
32015SOL    HW196069   6.346   2.464   5.278
32015SOL    HW296070   6.342   2.412   5.123
32016SOL     OW96071   6.980   2.331   5.398
32016SOL    HW196072   6.960   2.374   5.486
32016SOL    HW296073   7.058   2.269   5.407
32017SOL     OW96074   6.559   2.752   5.296
32017SOL    HW196075   6.605   2.668   5.267
32017SOL    HW296076   6.503   2.786   5.221
32018SOL     OW96077   6.577   2.272   4.966
32018SOL    HW196078   6.500   2.306   5.020
32018SOL    HW296079   6.543   2.221   4.887
32019SOL     OW96080   6.627   2.563   4.153
32019SOL    HW196081   6.653   2.559   4.249
32019SOL    HW296082   6.542   2.512   4.139
32020SOL     OW96083   5.662   2.673   4.513
32020SOL    HW196084   5.761   2.661   4.522
32020SOL    HW296085   5.638   2.768   4.534
32021SOL     OW96086   5.716   3.683   5.295
32021SOL    HW196087   5.706   3.668   5.394
32021SOL    HW296088   5.630   3.719   5.259
32022SOL     OW96089   6.451   2.210   3.919
32022SOL    HW196090   6.510   2.273   3.870
32022SOL    HW296091   6.470   2.116   3.890
32023SOL     OW96092   7.305   2.447   5.555
32023SOL    HW196093   7.279   2.536   5.519
32023SOL    HW296094   7.303   2.379   5.482
32024SOL     OW96095   6.948   3.006   4.269
32024SOL    HW196096   7.031   2.977   4.221
32024SOL    HW296097   6.899   3.073   4.213
32025SOL     OW96098   6.136   2.058   4.609
32025SOL    HW196099   6.131   2.053   4.709
32025SOL    HW296100   6.138   2.154   4.580
32026SOL     OW96101   6.594   3.318   4.201
32026SOL    HW196102   6.548   3.390   4.149
32026SOL    HW296103   6.590   3.338   4.299
32027SOL     OW96104   5.937   3.663   4.577
32027SOL    HW196105   5.987   3.577   4.583
32027SOL    HW296106   6.002   3.740   4.574
32028SOL     OW96107   7.381   2.928   4.597
32028SOL    HW196108   7.319   2.913   4.521
32028SOL    HW296109   7.329   2.939   4.682
32029SOL     OW96110   6.813   3.412   5.230
32029SOL    HW196111   6.819   3.335   5.294
32029SOL    HW296112   6.761   3.386   5.150
32030SOL     OW96113   5.907   2.805   3.966
32030SOL    HW196114   5.989   2.844   3.924
32030SOL    HW296115   5.880   2.723   3.917
32031SOL     OW96116   7.044   2.597   4.452
32031SOL    HW196117   7.039   2.532   4.527
32031SOL    HW296118   7.124   2.656   4.465
32032SOL     OW96119   6.047   3.128   5.451
32032SOL    HW196120   5.997   3.129   5.365
32032SOL    HW296121   5.984   3.110   5.527
32033SOL     OW96122   6.697   3.638   3.961
32033SOL    HW196123   6.637   3.576   4.011
32033SOL    HW296124   6.728   3.594   3.876
32034SOL     OW96125   5.788   2.147   5.222
32034SOL    HW196126   5.708   2.207   5.209
32034SOL    HW296127   5.778   2.098   5.308
32035SOL     OW96128   7.218   3.239   3.805
32035SOL    HW196129   7.186   3.333   3.795
32035SOL    HW296130   7.142   3.176   3.793
32036SOL     OW96131   6.050   3.605   4.047
32036SOL    HW196132   6.083   3.644   4.133
32036SOL    HW296133   6.126   3.598   3.982
32037SOL     OW96134   6.986   1.969   4.150
32037SOL    HW196135   6.962   1.932   4.060
32037SOL    HW296136   7.085   1.985   4.154
32038SOL     OW96137   5.835   3.647   4.965
32038SOL    HW196138   5.892   3.582   5.015
32038SOL    HW296139   5.819   3.614   4.872
32039SOL     OW96140   6.526   3.560   4.628
32039SOL    HW196141   6.606   3.503   4.649
32039SOL    HW296142   6.477   3.520   4.551
32040SOL     OW96143   5.968   2.562   4.204
32040SOL    HW196144   6.013   2.472   4.201
32040SOL    HW296145   5.874   2.551   4.237
32041SOL     OW96146   7.133   2.084   5.453
32041SOL    HW196147   7.128   2.121   5.545
32041SOL    HW296148   7.061   2.015   5.441
32042SOL     OW96149   6.200   1.984   3.841
32042SOL    HW196150   6.298   1.962   3.848
32042SOL    HW296151   6.169   1.967   3.748
32043SOL     OW96152   6.367   2.126   5.473
32043SOL    HW196153   6.434   2.065   5.516
32043SOL    HW296154   6.294   2.145   5.538
32044SOL     OW96155   6.474   3.376   4.919
32044SOL    HW196156   6.451   3.351   4.825
32044SOL    HW296157   6.535   3.307   4.958
32045SOL     OW96158   6.937   2.452   5.157
32045SOL    HW196159   6.965   2.409   5.242
32045SOL    HW296160   6.962   2.548   5.158
32046SOL     OW96161   6.389   3.264   4.648
32046SOL    HW196162   6.479   3.278   4.606
32046SOL    HW296163   6.318   3.266   4.577
32047SOL     OW96164   6.508   2.365   4.623
32047SOL    HW196165   6.483   2.356   4.527
32047SOL    HW296166   6.556   2.283   4.654
32048SOL     OW96167   6.125   1.926   4.236
32048SOL    HW196168   6.044   1.927   4.294
32048SOL    HW296169   6.128   2.009   4.181
32049SOL     OW96170   7.020   3.050   3.765
32049SOL    HW196171   7.052   2.974   3.822
32049SOL    HW296172   6.928   3.077   3.795
32050SOL     OW96173   5.883   1.897   3.895
32050SOL    HW196174   5.932   1.981   3.874
32050SOL    HW296175   5.945   1.832   3.940
32051SOL     OW96176   6.521   2.098   4.204
32051SOL    HW196177   6.473   2.139   4.126
32051SOL    HW296178   6.620   2.096   4.185
32052SOL     OW96179   6.662   2.545   5.188
32052SOL    HW196180   6.582   2.484   5.191
32052SOL    HW296181   6.743   2.492   5.164
32053SOL     OW96182   6.813   3.432   4.517
32053SOL    HW196183   6.834   3.506   4.452
32053SOL    HW296184   6.881   3.432   4.590
32054SOL     OW96185   6.045   3.014   4.465
32054SOL    HW196186   5.974   2.987   4.530
32054SOL    HW296187   6.019   2.986   4.372
32055SOL     OW96188   6.857   3.659   4.315
32055SOL    HW196189   6.901   3.723   4.251
32055SOL    HW296190   6.807   3.711   4.385
32056SOL     OW96191   6.618   2.411   3.740
32056SOL    HW196192   6.577   2.493   3.701
32056SOL    HW296193   6.682   2.437   3.813
32057SOL     OW96194   5.664   2.418   5.110
32057SOL    HW196195   5.756   2.417   5.069
32057SOL    HW296196   5.658   2.492   5.177
32058SOL     OW96197   6.147   2.084   4.871
32058SOL    HW196198   6.185   2.000   4.908
32058SOL    HW296199   6.059   2.103   4.915
32059SOL     OW96200   6.452   2.316   4.366
32059SOL    HW196201   6.420   2.388   4.304
32059SOL    HW296202   6.476   2.235   4.313
32060SOL     OW96203   6.603   1.901   4.477
32060SOL    HW196204   6.531   1.906   4.408
32060SOL    HW296205   6.579   1.832   4.546
32061SOL     OW96206   7.015   3.035   4.591
32061SOL    HW196207   6.960   2.951   4.584
32061SOL    HW296208   7.041   3.064   4.499
32062SOL     OW96209   7.052   2.452   4.716
32062SOL    HW196210   7.022   2.357   4.723
32062SOL    HW296211   7.125   2.468   4.782
32063SOL     OW96212   7.443   2.695   4.101
32063SOL    HW196213   7.485   2.631   4.165
32063SOL    HW296214   7.405   2.644   4.023
32064SOL     OW96215   6.074   3.247   3.898
32064SOL    HW196216   5.987   3.232   3.945
32064SOL    HW296217   6.057   3.273   3.803
32065SOL     OW96218   7.250   3.142   4.381
32065SOL    HW196219   7.349   3.150   4.395
32065SOL    HW296220   7.205   3.226   4.412
32066SOL     OW96221   6.976   2.437   3.802
32066SOL    HW196222   6.922   2.416   3.883
32066SOL    HW296223   7.067   2.396   3.811
32067SOL     OW96224   6.113   2.118   4.052
32067SOL    HW196225   6.140   2.059   3.977
32067SOL    HW296226   6.113   2.213   4.021
32068SOL     OW96227   7.340   3.085   5.312
32068SOL    HW196228   7.431   3.046   5.299
32068SOL    HW296229   7.348   3.181   5.336
32069SOL     OW96230   6.650   3.209   5.064
32069SOL    HW196231   6.570   3.186   5.119
32069SOL    HW296232   6.733   3.183   5.113
32070SOL     OW96233   7.178   3.491   5.349
32070SOL    HW196234   7.205   3.525   5.259
32070SOL    HW296235   7.257   3.453   5.395
32071SOL     OW96236   6.697   3.057   4.824
32071SOL    HW196237   6.657   3.101   4.905
32071SOL    HW296238   6.656   3.094   4.741
32072SOL     OW96239   7.224   2.961   4.803
32072SOL    HW196240   7.229   3.042   4.862
32072SOL    HW296241   7.138   2.963   4.752
32073SOL     OW96242   6.501   1.951   5.126
32073SOL    HW196243   6.526   1.931   5.031
32073SOL    HW296244   6.573   2.007   5.168
32074SOL     OW96245   6.566   2.978   5.443
32074SOL    HW196246   6.467   2.984   5.453
32074SOL    HW296247   6.589   2.898   5.387
32075SOL     OW96248   6.291   2.912   4.092
32075SOL    HW196249   6.277   2.919   4.191
32075SOL    HW296250   6.375   2.861   4.074
32076SOL     OW96251   5.996   2.675   4.975
32076SOL    HW196252   6.082   2.687   5.025
32076SOL    HW296253   5.954   2.588   5.002
32077SOL     OW96254   6.860   2.248   4.986
32077SOL    HW196255   6.881   2.322   5.050
32077SOL    HW296256   6.771   2.265   4.943
32078SOL     OW96257   5.650   3.426   5.055
32078SOL    HW196258   5.604   3.508   5.021
32078SOL    HW296259   5.748   3.445   5.064
32079SOL     OW96260   5.953   2.962   4.225
32079SOL    HW196261   5.946   3.045   4.169
32079SOL    HW296262   5.957   2.882   4.165
32080SOL     OW96263   6.152   2.399   4.589
32080SOL    HW196264   6.164   2.465   4.515
32080SOL    HW296265   6.198   2.433   4.672
32081SOL     OW96266   6.838   3.210   4.112
32081SOL    HW196267   6.888   3.287   4.152
32081SOL    HW296268   6.743   3.212   4.144
32082SOL     OW96269   6.858   3.307   4.866
32082SOL    HW196270   6.905   3.320   4.953
32082SOL    HW296271   6.792   3.233   4.875
32083SOL     OW96272   7.168   2.501   4.196
32083SOL    HW196273   7.137   2.562   4.269
32083SOL    HW296274   7.218   2.553   4.127
32084SOL     OW96275   5.940   3.372   5.053
32084SOL    HW196276   5.919   3.328   4.966
32084SOL    HW296277   6.037   3.398   5.056
32085SOL     OW96278   5.988   2.613   5.322
32085SOL    HW196279   6.056   2.668   5.275
32085SOL    HW296280   6.028   2.525   5.349
32086SOL     OW96281   7.173   2.641   5.394
32086SOL    HW196282   7.081   2.679   5.389
32086SOL    HW296283   7.233   2.688   5.329
32087SOL     OW96284   6.599   1.967   5.494
32087SOL    HW196285   6.605   2.052   5.442
32087SOL    HW296286   6.631   1.891   5.437
32088SOL     OW96287   6.090   1.912   5.464
32088SOL    HW196288   6.048   1.855   5.394
32088SOL    HW296289   6.024   1.981   5.496
32089SOL     OW96290   6.159   2.732   4.753
32089SOL    HW196291   6.203   2.821   4.744
32089SOL    HW296292   6.096   2.732   4.830
32090SOL     OW96293   6.946   2.724   4.769
32090SOL    HW196294   6.871   2.724   4.703
32090SOL    HW296295   6.983   2.632   4.778
32091SOL     OW96296   6.795   2.387   3.999
32091SOL    HW196297   6.808   2.303   4.053
32091SOL    HW296298   6.766   2.461   4.059
32092SOL     OW96299   5.893   2.075   4.955
32092SOL    HW196300   5.870   2.112   5.045
32092SOL    HW296301   5.863   1.980   4.949
32093SOL     OW96302   5.623   3.172   5.006
32093SOL    HW196303   5.676   3.123   5.074
32093SOL    HW296304   5.645   3.270   5.011
32094SOL     OW96305   6.318   2.496   4.788
32094SOL    HW196306   6.377   2.470   4.712
32094SOL    HW296307   6.290   2.592   4.777
32095SOL     OW96308   7.314   2.797   5.578
32095SOL    HW196309   7.268   2.790   5.489
32095SOL    HW296310   7.252   2.841   5.644
32096SOL     OW96311   5.893   1.925   4.342
32096SOL    HW196312   5.882   2.019   4.375
32096SOL    HW296313   5.888   1.862   4.419
32097SOL     OW96314   7.208   2.229   4.098
32097SOL    HW196315   7.210   2.153   4.162
32097SOL    HW296316   7.160   2.306   4.138
32098SOL     OW96317   6.609   2.628   4.690
32098SOL    HW196318   6.624   2.649   4.786
32098SOL    HW296319   6.579   2.533   4.681
32099SOL     OW96320   6.566   3.435   5.424
32099SOL    HW196321   6.546   3.479   5.336
32099SOL    HW296322   6.605   3.344   5.408
32100SOL     OW96323   7.445   3.380   5.329
32100SOL    HW196324   7.459   3.407   5.234
32100SOL    HW296325   7.528   3.402   5.382
32101SOL     OW96326   5.936   2.760   5.528
32101SOL    HW196327   6.012   2.804   5.576
32101SOL    HW296328   5.971   2.713   5.446
32102SOL     OW96329   7.126   2.136   3.849
32102SOL    HW196330   7.065   2.061   3.872
32102SOL    HW296331   7.148   2.188   3.932
32103SOL     OW96332   6.889   2.700   3.766
32103SOL    HW196333   6.923   2.607   3.781
32103SOL    HW296334   6.907   2.727   3.671
32104SOL     OW96335   6.654   3.195   4.573
32104SOL    HW196336   6.661   3.111   4.518
32104SOL    HW296337   6.716   3.264   4.537
32105SOL     OW96338   5.905   2.672   4.673
32105SOL    HW196339   5.998   2.708   4.678
32105SOL    HW296340   5.899   2.587   4.725
32106SOL     OW96341   5.925   2.371   4.730
32106SOL    HW196342   5.873   2.288   4.713
32106SOL    HW296343   6.002   2.376   4.666
32107SOL     OW96344   6.724   2.242   5.402
32107SOL    HW196345   6.679   2.305   5.466
32107SOL    HW296346   6.817   2.273   5.385
32108SOL     OW96347   6.746   2.069   5.201
32108SOL    HW196348   6.746   2.133   5.278
32108SOL    HW296349   6.774   2.117   5.118
32109SOL     OW96350   5.594   3.188   3.924
32109SOL    HW196351   5.501   3.209   3.893
32109SOL    HW296352   5.604   3.089   3.937
32110SOL     OW96353   5.674   3.663   4.651
32110SOL    HW196354   5.632   3.577   4.624
32110SOL    HW296355   5.768   3.666   4.617
32111SOL     OW96356   6.090   3.430   4.634
32111SOL    HW196357   6.156   3.504   4.643
32111SOL    HW296358   6.134   3.351   4.592
32112SOL     OW96359   6.588   2.658   4.962
32112SOL    HW196360   6.629   2.626   5.048
32112SOL    HW296361   6.492   2.631   4.959
32113SOL     OW96362   5.626   2.406   4.838
32113SOL    HW196363   5.711   2.373   4.797
32113SOL    HW296364   5.639   2.421   4.936
32114SOL     OW96365   5.775   2.382   5.446
32114SOL    HW196366   5.834   2.342   5.376
32114SOL    HW296367   5.717   2.453   5.405
32115SOL     OW96368   6.955   2.812   5.384
32115SOL    HW196369   6.994   2.901   5.404
32115SOL    HW296370   6.965   2.792   5.287
32116SOL     OW96371   6.401   2.434   4.049
32116SOL    HW196372   6.408   2.345   4.003
32116SOL    HW296373   6.307   2.468   4.041
32117SOL     OW96374   7.243   2.466   4.930
32117SOL    HW196375   7.205   2.397   4.992
32117SOL    HW296376   7.325   2.430   4.886
32118SOL     OW96377   5.838   3.426   5.468
32118SOL    HW196378   5.808   3.483   5.544
32118SOL    HW296379   5.831   3.329   5.494
32119SOL     OW96380   6.257   2.326   4.993
32119SOL    HW196381   6.223   2.237   4.963
32119SOL    HW296382   6.283   2.380   4.913
32120SOL     OW96383   6.516   3.540   5.189
32120SOL    HW196384   6.492   3.522   5.094
32120SOL    HW296385   6.546   3.634   5.199
32121SOL     OW96386   6.059   2.362   3.915
32121SOL    HW196387   6.120   2.442   3.919
32121SOL    HW296388   5.964   2.393   3.922
32122SOL     OW96389   5.745   2.999   5.190
32122SOL    HW196390   5.767   2.938   5.266
32122SOL    HW296391   5.755   2.950   5.104
32123SOL     OW96392   6.933   2.921   4.958
32123SOL    HW196393   6.957   2.858   4.884
32123SOL    HW296394   6.843   2.961   4.940
32124SOL     OW96395   6.888   2.717   4.033
32124SOL    HW196396   6.802   2.686   4.075
32124SOL    HW296397   6.884   2.703   3.934
32125SOL     OW96398   7.345   3.609   4.878
32125SOL    HW196399   7.406   3.639   4.805
32125SOL    HW296400   7.307   3.520   4.856
32126SOL     OW96401   6.838   3.593   4.852
32126SOL    HW196402   6.922   3.598   4.798
32126SOL    HW296403   6.815   3.497   4.870
32127SOL     OW96404   5.669   3.120   4.746
32127SOL    HW196405   5.664   3.119   4.846
32127SOL    HW296406   5.586   3.079   4.708
32128SOL     OW96407   6.274   3.524   5.440
32128SOL    HW196408   6.218   3.605   5.449
32128SOL    HW296409   6.326   3.528   5.354
32129SOL     OW96410   7.312   1.997   4.247
32129SOL    HW196411   7.385   1.980   4.180
32129SOL    HW296412   7.281   1.910   4.285
32130SOL     OW96413   6.974   3.435   4.201
32130SOL    HW196414   7.041   3.447   4.127
32130SOL    HW296415   6.934   3.524   4.224
32131SOL     OW96416   5.716   3.656   5.575
32131SOL    HW196417   5.675   3.582   5.628
32131SOL    HW296418   5.780   3.707   5.633
32132SOL     OW96419   6.866   2.789   4.396
32132SOL    HW196420   6.926   2.708   4.398
32132SOL    HW296421   6.906   2.858   4.336
32133SOL     OW96422   6.416   3.135   5.146
32133SOL    HW196423   6.411   3.168   5.241
32133SOL    HW296424   6.330   3.154   5.100
32134SOL     OW96425   6.258   3.478   3.878
32134SOL    HW196426   6.267   3.488   3.779
32134SOL    HW296427   6.218   3.389   3.899
32135SOL     OW96428   7.236   3.582   5.118
32135SOL    HW196429   7.289   3.592   5.034
32135SOL    HW296430   7.209   3.672   5.152
32136SOL     OW96431   7.427   2.037   4.687
32136SOL    HW196432   7.466   1.952   4.651
32136SOL    HW296433   7.329   2.039   4.668
32137SOL     OW96434   5.849   2.188   4.444
32137SOL    HW196435   5.770   2.239   4.410
32137SOL    HW296436   5.840   2.173   4.542
32138SOL     OW96437   6.780   3.474   3.755
32138SOL    HW196438   6.786   3.381   3.792
32138SOL    HW296439   6.721   3.474   3.675
32139SOL     OW96440   6.408   2.864   5.096
32139SOL    HW196441   6.448   2.863   5.004
32139SOL    HW296442   6.418   2.956   5.136
32140SOL     OW96443   6.502   2.772   4.015
32140SOL    HW196444   6.565   2.810   3.947
32140SOL    HW296445   6.542   2.689   4.054
32141SOL     OW96446   7.090   3.469   3.768
32141SOL    HW196447   6.998   3.506   3.775
32141SOL    HW296448   7.128   3.489   3.678
32142SOL     OW96449   5.958   3.150   5.214
32142SOL    HW196450   5.945   3.243   5.180
32142SOL    HW296451   5.874   3.098   5.201
32143SOL     OW96452   7.200   3.154   5.013
32143SOL    HW196453   7.260   3.157   5.093
32143SOL    HW296454   7.125   3.218   5.026
32144SOL     OW96455   6.625   2.960   4.420
32144SOL    HW196456   6.555   2.913   4.474
32144SOL    HW296457   6.684   2.892   4.377
32145SOL     OW96458   6.600   2.098   4.695
32145SOL    HW196459   6.592   2.062   4.602
32145SOL    HW296460   6.598   2.022   4.760
32146SOL     OW96461   6.176   3.349   4.215
32146SOL    HW196462   6.218   3.291   4.145
32146SOL    HW296463   6.132   3.428   4.171
32147SOL     OW96464   7.295   2.247   5.105
32147SOL    HW196465   7.368   2.316   5.109
32147SOL    HW296466   7.323   2.172   5.046
32148SOL     OW96467   5.841   3.210   4.014
32148SOL    HW196468   5.745   3.211   3.987
32148SOL    HW296469   5.853   3.263   4.098
32149SOL     OW96470   5.691   2.875   5.450
32149SOL    HW196471   5.614   2.842   5.504
32149SOL    HW296472   5.776   2.845   5.492
32150SOL     OW96473   6.258   2.065   5.213
32150SOL    HW196474   6.348   2.049   5.173
32150SOL    HW296475   6.266   2.070   5.312
32151SOL     OW96476   5.661   2.207   3.757
32151SOL    HW196477   5.569   2.179   3.728
32151SOL    HW296478   5.692   2.284   3.701
32152SOL     OW96479   7.026   2.718   5.122
32152SOL    HW196480   6.969   2.770   5.059
32152SOL    HW296481   7.122   2.730   5.098
32153SOL     OW96482   5.658   2.028   4.042
32153SOL    HW196483   5.641   2.111   3.988
32153SOL    HW296484   5.748   1.991   4.020
32154SOL     OW96485   6.769   3.197   3.843
32154SOL    HW196486   6.670   3.186   3.845
32154SOL    HW296487   6.803   3.212   3.936
32155SOL     OW96488   6.199   2.704   5.155
32155SOL    HW196489   6.255   2.785   5.138
32155SOL    HW296490   6.258   2.624   5.158
32156SOL     OW96491   7.079   3.629   4.683
32156SOL    HW196492   7.112   3.693   4.614
32156SOL    HW296493   7.145   3.623   4.758
32157SOL     OW96494   6.302   2.427   5.432
32157SOL    HW196495   6.321   2.492   5.506
32157SOL    HW296496   6.362   2.347   5.441
32158SOL     OW96497   7.036   3.082   5.357
32158SOL    HW196498   7.027   3.072   5.456
32158SOL    HW296499   7.132   3.075   5.331
32159SOL     OW96500   5.976   3.603   5.284
32159SOL    HW196501   5.885   3.644   5.282
32159SOL    HW296502   5.969   3.509   5.316
32160SOL     OW96503   7.260   2.745   4.978
32160SOL    HW196504   7.233   2.656   4.941
32160SOL    HW296505   7.261   2.813   4.905
32161SOL     OW96506   6.811   2.187   4.173
32161SOL    HW196507   6.876   2.113   4.162
32161SOL    HW296508   6.831   2.237   4.257
32162SOL     OW96509   6.180   2.607   4.376
32162SOL    HW196510   6.230   2.692   4.357
32162SOL    HW296511   6.092   2.609   4.328
32163SOL     OW96512   7.363   2.204   5.366
32163SOL    HW196513   7.346   2.235   5.272
32163SOL    HW296514   7.279   2.167   5.404
32164SOL     OW96515   7.316   2.796   5.241
32164SOL    HW196516   7.354   2.887   5.256
32164SOL    HW296517   7.308   2.779   5.142
32165SOL     OW96518   6.445   3.236   3.740
32165SOL    HW196519   6.399   3.251   3.828
32165SOL    HW296520   6.489   3.321   3.710
32166SOL     OW96521   6.247   3.652   4.677
32166SOL    HW196522   6.201   3.740   4.664
32166SOL    HW296523   6.346   3.664   4.670
32167SOL     OW96524   6.445   2.818   4.585
32167SOL    HW196525   6.499   2.749   4.633
32167SOL    HW296526   6.413   2.887   4.651
32168SOL     OW96527   6.669   2.846   3.811
32168SOL    HW196528   6.646   2.899   3.729
32168SOL    HW296529   6.750   2.790   3.792
32169SOL     OW96530   7.447   3.431   4.575
32169SOL    HW196531   7.376   3.419   4.505
32169SOL    HW296532   7.448   3.352   4.635
32170SOL     OW96533   5.807   3.176   5.568
32170SOL    HW196534   5.742   3.103   5.547
32170SOL    HW296535   5.811   3.190   5.666
32171SOL     OW96536   5.665   3.102   4.377
32171SOL    HW196537   5.664   3.055   4.465
32171SOL    HW296538   5.747   3.074   4.326
32172SOL     OW96539   6.258   3.253   5.348
32172SOL    HW196540   6.180   3.203   5.386
32172SOL    HW296541   6.255   3.348   5.379
32173SOL     OW96542   7.410   2.054   4.951
32173SOL    HW196543   7.406   1.964   4.995
32173SOL    HW296544   7.413   2.043   4.852
32174SOL     OW96545   6.014   2.286   4.244
32174SOL    HW196546   6.044   2.214   4.182
32174SOL    HW296547   5.975   2.246   4.327
32175SOL     OW96548   7.291   3.349   4.828
32175SOL    HW196549   7.198   3.324   4.801
32175SOL    HW296550   7.317   3.299   4.910
32176SOL     OW96551   5.903   2.409   5.004
32176SOL    HW196552   5.941   2.350   5.076
32176SOL    HW296553   5.943   2.383   4.916
32177SOL     OW96554   6.398   3.448   4.411
32177SOL    HW196555   6.430   3.458   4.317
32177SOL    HW296556   6.319   3.386   4.413
32178SOL     OW96557   7.010   2.076   4.836
32178SOL    HW196558   7.062   2.011   4.891
32178SOL    HW296559   6.961   2.139   4.897
32179SOL     OW96560   6.587   1.896   4.878
32179SOL    HW196561   6.524   1.824   4.847
32179SOL    HW296562   6.680   1.860   4.878
32180SOL     OW96563   6.356   3.192   4.025
32180SOL    HW196564   6.310   3.105   4.042
32180SOL    HW296565   6.447   3.189   4.066
32181SOL     OW96566   6.204   3.429   5.008
32181SOL    HW196567   6.199   3.511   5.065
32181SOL    HW296568   6.293   3.426   4.963
32182SOL     OW96569   6.938   1.914   3.892
32182SOL    HW196570   6.973   1.873   3.808
32182SOL    HW296571   6.848   1.876   3.912
32183SOL     OW96572   6.886   2.315   4.415
32183SOL    HW196573   6.827   2.395   4.419
32183SOL    HW296574   6.901   2.280   4.508
32184SOL     OW96575   7.179   2.083   4.606
32184SOL    HW196576   7.095   2.082   4.660
32184SOL    HW296577   7.181   2.166   4.550
32185SOL     OW96578   5.625   2.939   4.024
32185SOL    HW196579   5.724   2.928   4.015
32185SOL    HW296580   5.585   2.853   4.056
32186SOL     OW96581   6.461   3.508   4.061
32186SOL    HW196582   6.384   3.473   4.007
32186SOL    HW296583   6.429   3.579   4.123
32187SOL     OW96584   5.816   2.490   5.699
32187SOL    HW196585   5.723   2.488   5.736
32187SOL    HW296586   5.817   2.451   5.607
32188SOL     OW96587   5.811   2.137   6.582
32188SOL    HW196588   5.846   2.120   6.674
32188SOL    HW296589   5.723   2.092   6.570
32189SOL     OW96590   5.605   2.230   6.233
32189SOL    HW196591   5.523   2.273   6.272
32189SOL    HW296592   5.577   2.157   6.170
32190SOL     OW96593   6.155   3.137   6.751
32190SOL    HW196594   6.062   3.130   6.714
32190SOL    HW296595   6.166   3.226   6.795
32191SOL     OW96596   7.141   3.373   6.289
32191SOL    HW196597   7.084   3.357   6.370
32191SOL    HW296598   7.082   3.383   6.209
32192SOL     OW96599   6.721   2.565   6.303
32192SOL    HW196600   6.778   2.643   6.278
32192SOL    HW296601   6.661   2.591   6.379
32193SOL     OW96602   7.341   2.469   5.817
32193SOL    HW196603   7.329   2.456   5.718
32193SOL    HW296604   7.311   2.388   5.866
32194SOL     OW96605   6.354   3.006   6.609
32194SOL    HW196606   6.276   3.023   6.669
32194SOL    HW296607   6.388   3.093   6.573
32195SOL     OW96608   6.436   2.660   7.409
32195SOL    HW196609   6.432   2.736   7.474
32195SOL    HW296610   6.458   2.696   7.318
32196SOL     OW96611   6.271   2.874   6.251
32196SOL    HW196612   6.340   2.858   6.321
32196SOL    HW296613   6.198   2.931   6.289
32197SOL     OW96614   6.272   3.023   7.389
32197SOL    HW196615   6.332   3.102   7.403
32197SOL    HW296616   6.186   3.054   7.348
32198SOL     OW96617   5.921   3.297   6.647
32198SOL    HW196618   5.843   3.266   6.594
32198SOL    HW296619   5.979   3.355   6.590
32199SOL     OW96620   7.046   3.367   6.925
32199SOL    HW196621   7.070   3.461   6.951
32199SOL    HW296622   7.030   3.313   7.007
32200SOL     OW96623   6.024   2.254   7.085
32200SOL    HW196624   6.106   2.198   7.094
32200SOL    HW296625   5.943   2.196   7.089
32201SOL     OW96626   7.189   2.309   6.323
32201SOL    HW196627   7.115   2.355   6.273
32201SOL    HW296628   7.240   2.377   6.376
32202SOL     OW96629   5.817   3.575   6.069
32202SOL    HW196630   5.851   3.652   6.123
32202SOL    HW296631   5.861   3.575   5.979
32203SOL     OW96632   6.713   3.203   7.276
32203SOL    HW196633   6.760   3.203   7.364
32203SOL    HW296634   6.665   3.116   7.265
32204SOL     OW96635   5.816   3.296   6.124
32204SOL    HW196636   5.790   3.392   6.124
32204SOL    HW296637   5.745   3.242   6.169
32205SOL     OW96638   5.826   2.953   6.472
32205SOL    HW196639   5.840   2.869   6.524
32205SOL    HW296640   5.771   3.017   6.527
32206SOL     OW96641   6.206   3.648   7.025
32206SOL    HW196642   6.114   3.631   7.060
32206SOL    HW296643   6.234   3.740   7.051
32207SOL     OW96644   6.192   2.826   5.709
32207SOL    HW196645   6.199   2.910   5.655
32207SOL    HW296646   6.238   2.839   5.797
32208SOL     OW96647   7.180   1.976   7.066
32208SOL    HW196648   7.162   2.043   6.994
32208SOL    HW296649   7.177   2.022   7.155
32209SOL     OW96650   5.708   2.505   6.149
32209SOL    HW196651   5.663   2.417   6.166
32209SOL    HW296652   5.707   2.559   6.233
32210SOL     OW96653   7.428   3.629   5.945
32210SOL    HW196654   7.482   3.600   6.025
32210SOL    HW296655   7.458   3.719   5.916
32211SOL     OW96656   5.613   3.458   5.703
32211SOL    HW196657   5.594   3.362   5.724
32211SOL    HW296658   5.580   3.516   5.778
32212SOL     OW96659   7.275   2.784   6.198
32212SOL    HW196660   7.370   2.755   6.206
32212SOL    HW296661   7.267   2.849   6.123
32213SOL     OW96662   7.227   2.970   6.018
32213SOL    HW196663   7.313   2.972   5.966
32213SOL    HW296664   7.241   3.017   6.106
32214SOL     OW96665   5.699   2.599   7.183
32214SOL    HW196666   5.787   2.586   7.228
32214SOL    HW296667   5.686   2.696   7.161
32215SOL     OW96668   6.199   3.227   6.312
32215SOL    HW196669   6.150   3.140   6.321
32215SOL    HW296670   6.176   3.270   6.225
32216SOL     OW96671   6.879   3.090   7.009
32216SOL    HW196672   6.916   3.017   6.951
32216SOL    HW296673   6.931   3.095   7.094
32217SOL     OW96674   6.395   1.866   6.088
32217SOL    HW196675   6.435   1.957   6.079
32217SOL    HW296676   6.295   1.874   6.094
32218SOL     OW96677   5.783   2.838   6.850
32218SOL    HW196678   5.872   2.793   6.836
32218SOL    HW296679   5.710   2.773   6.831
32219SOL     OW96680   7.111   2.861   5.776
32219SOL    HW196681   7.048   2.785   5.789
32219SOL    HW296682   7.159   2.879   5.862
32220SOL     OW96683   6.773   3.654   7.202
32220SOL    HW196684   6.797   3.714   7.126
32220SOL    HW296685   6.780   3.559   7.172
32221SOL     OW96686   5.903   2.113   7.387
32221SOL    HW196687   5.974   2.184   7.393
32221SOL    HW296688   5.815   2.152   7.415
32222SOL     OW96689   7.052   3.279   6.539
32222SOL    HW196690   6.993   3.285   6.619
32222SOL    HW296691   7.037   3.191   6.493
32223SOL     OW96692   7.253   3.576   6.158
32223SOL    HW196693   7.212   3.553   6.070
32223SOL    HW296694   7.235   3.502   6.223
32224SOL     OW96695   6.184   2.591   5.856
32224SOL    HW196696   6.208   2.660   5.788
32224SOL    HW296697   6.106   2.624   5.910
32225SOL     OW96698   6.867   2.207   6.530
32225SOL    HW196699   6.781   2.157   6.517
32225SOL    HW296700   6.929   2.153   6.586
32226SOL     OW96701   7.162   3.524   5.893
32226SOL    HW196702   7.251   3.570   5.896
32226SOL    HW296703   7.141   3.500   5.798
32227SOL     OW96704   6.393   2.467   7.051
32227SOL    HW196705   6.346   2.464   7.140
32227SOL    HW296706   6.342   2.412   6.985
32228SOL     OW96707   6.980   2.331   7.260
32228SOL    HW196708   6.960   2.374   7.348
32228SOL    HW296709   7.058   2.269   7.269
32229SOL     OW96710   6.559   2.752   7.158
32229SOL    HW196711   6.605   2.668   7.129
32229SOL    HW296712   6.503   2.786   7.083
32230SOL     OW96713   6.577   2.272   6.828
32230SOL    HW196714   6.500   2.306   6.882
32230SOL    HW296715   6.543   2.221   6.749
32231SOL     OW96716   6.627   2.563   6.015
32231SOL    HW196717   6.653   2.559   6.111
32231SOL    HW296718   6.542   2.512   6.001
32232SOL     OW96719   5.662   2.673   6.375
32232SOL    HW196720   5.761   2.661   6.384
32232SOL    HW296721   5.638   2.768   6.396
32233SOL     OW96722   5.716   3.683   7.157
32233SOL    HW196723   5.706   3.668   7.256
32233SOL    HW296724   5.630   3.719   7.121
32234SOL     OW96725   6.451   2.210   5.781
32234SOL    HW196726   6.510   2.273   5.732
32234SOL    HW296727   6.470   2.116   5.752
32235SOL     OW96728   7.305   2.447   7.417
32235SOL    HW196729   7.279   2.536   7.381
32235SOL    HW296730   7.303   2.379   7.344
32236SOL     OW96731   6.948   3.006   6.131
32236SOL    HW196732   7.031   2.977   6.083
32236SOL    HW296733   6.899   3.073   6.075
32237SOL     OW96734   6.136   2.058   6.471
32237SOL    HW196735   6.131   2.053   6.571
32237SOL    HW296736   6.138   2.154   6.442
32238SOL     OW96737   6.594   3.318   6.063
32238SOL    HW196738   6.548   3.390   6.011
32238SOL    HW296739   6.590   3.338   6.161
32239SOL     OW96740   5.937   3.663   6.439
32239SOL    HW196741   5.987   3.577   6.445
32239SOL    HW296742   6.002   3.740   6.436
32240SOL     OW96743   7.381   2.928   6.459
32240SOL    HW196744   7.319   2.913   6.383
32240SOL    HW296745   7.329   2.939   6.544
32241SOL     OW96746   6.813   3.412   7.092
32241SOL    HW196747   6.819   3.335   7.156
32241SOL    HW296748   6.761   3.386   7.012
32242SOL     OW96749   5.907   2.805   5.828
32242SOL    HW196750   5.989   2.844   5.786
32242SOL    HW296751   5.880   2.723   5.779
32243SOL     OW96752   7.044   2.597   6.314
32243SOL    HW196753   7.039   2.532   6.389
32243SOL    HW296754   7.124   2.656   6.327
32244SOL     OW96755   6.047   3.128   7.313
32244SOL    HW196756   5.997   3.129   7.227
32244SOL    HW296757   5.984   3.110   7.389
32245SOL     OW96758   6.697   3.638   5.823
32245SOL    HW196759   6.637   3.576   5.873
32245SOL    HW296760   6.728   3.594   5.738
32246SOL     OW96761   5.788   2.147   7.084
32246SOL    HW196762   5.708   2.207   7.071
32246SOL    HW296763   5.778   2.098   7.170
32247SOL     OW96764   7.218   3.239   5.667
32247SOL    HW196765   7.186   3.333   5.657
32247SOL    HW296766   7.142   3.176   5.655
32248SOL     OW96767   6.050   3.605   5.909
32248SOL    HW196768   6.083   3.644   5.995
32248SOL    HW296769   6.126   3.598   5.844
32249SOL     OW96770   6.986   1.969   6.012
32249SOL    HW196771   6.962   1.932   5.922
32249SOL    HW296772   7.085   1.985   6.016
32250SOL     OW96773   5.835   3.647   6.827
32250SOL    HW196774   5.892   3.582   6.877
32250SOL    HW296775   5.819   3.614   6.734
32251SOL     OW96776   6.526   3.560   6.490
32251SOL    HW196777   6.606   3.503   6.511
32251SOL    HW296778   6.477   3.520   6.413
32252SOL     OW96779   5.968   2.562   6.066
32252SOL    HW196780   6.013   2.472   6.063
32252SOL    HW296781   5.874   2.551   6.099
32253SOL     OW96782   7.133   2.084   7.315
32253SOL    HW196783   7.128   2.121   7.407
32253SOL    HW296784   7.061   2.015   7.303
32254SOL     OW96785   6.200   1.984   5.703
32254SOL    HW196786   6.298   1.962   5.710
32254SOL    HW296787   6.169   1.967   5.610
32255SOL     OW96788   6.367   2.126   7.335
32255SOL    HW196789   6.434   2.065   7.378
32255SOL    HW296790   6.294   2.145   7.400
32256SOL     OW96791   6.474   3.376   6.781
32256SOL    HW196792   6.451   3.351   6.687
32256SOL    HW296793   6.535   3.307   6.820
32257SOL     OW96794   6.937   2.452   7.019
32257SOL    HW196795   6.965   2.409   7.104
32257SOL    HW296796   6.962   2.548   7.020
32258SOL     OW96797   6.389   3.264   6.510
32258SOL    HW196798   6.479   3.278   6.468
32258SOL    HW296799   6.318   3.266   6.439
32259SOL     OW96800   6.508   2.365   6.485
32259SOL    HW196801   6.483   2.356   6.389
32259SOL    HW296802   6.556   2.283   6.516
32260SOL     OW96803   6.125   1.926   6.098
32260SOL    HW196804   6.044   1.927   6.156
32260SOL    HW296805   6.128   2.009   6.043
32261SOL     OW96806   7.020   3.050   5.627
32261SOL    HW196807   7.052   2.974   5.684
32261SOL    HW296808   6.928   3.077   5.657
32262SOL     OW96809   5.883   1.897   5.757
32262SOL    HW196810   5.932   1.981   5.736
32262SOL    HW296811   5.945   1.832   5.802
32263SOL     OW96812   6.521   2.098   6.066
32263SOL    HW196813   6.473   2.139   5.988
32263SOL    HW296814   6.620   2.096   6.047
32264SOL     OW96815   6.662   2.545   7.050
32264SOL    HW196816   6.582   2.484   7.053
32264SOL    HW296817   6.743   2.492   7.026
32265SOL     OW96818   6.813   3.432   6.379
32265SOL    HW196819   6.834   3.506   6.314
32265SOL    HW296820   6.881   3.432   6.452
32266SOL     OW96821   6.045   3.014   6.327
32266SOL    HW196822   5.974   2.987   6.392
32266SOL    HW296823   6.019   2.986   6.234
32267SOL     OW96824   6.857   3.659   6.177
32267SOL    HW196825   6.901   3.723   6.113
32267SOL    HW296826   6.807   3.711   6.247
32268SOL     OW96827   6.618   2.411   5.602
32268SOL    HW196828   6.577   2.493   5.563
32268SOL    HW296829   6.682   2.437   5.675
32269SOL     OW96830   5.664   2.418   6.972
32269SOL    HW196831   5.756   2.417   6.931
32269SOL    HW296832   5.658   2.492   7.039
32270SOL     OW96833   6.147   2.084   6.733
32270SOL    HW196834   6.185   2.000   6.770
32270SOL    HW296835   6.059   2.103   6.777
32271SOL     OW96836   6.452   2.316   6.228
32271SOL    HW196837   6.420   2.388   6.166
32271SOL    HW296838   6.476   2.235   6.175
32272SOL     OW96839   6.603   1.901   6.339
32272SOL    HW196840   6.531   1.906   6.270
32272SOL    HW296841   6.579   1.832   6.408
32273SOL     OW96842   7.015   3.035   6.453
32273SOL    HW196843   6.960   2.951   6.446
32273SOL    HW296844   7.041   3.064   6.361
32274SOL     OW96845   7.052   2.452   6.578
32274SOL    HW196846   7.022   2.357   6.585
32274SOL    HW296847   7.125   2.468   6.644
32275SOL     OW96848   7.443   2.695   5.963
32275SOL    HW196849   7.485   2.631   6.027
32275SOL    HW296850   7.405   2.644   5.885
32276SOL     OW96851   6.074   3.247   5.760
32276SOL    HW196852   5.987   3.232   5.807
32276SOL    HW296853   6.057   3.273   5.665
32277SOL     OW96854   7.250   3.142   6.243
32277SOL    HW196855   7.349   3.150   6.257
32277SOL    HW296856   7.205   3.226   6.274
32278SOL     OW96857   6.976   2.437   5.664
32278SOL    HW196858   6.922   2.416   5.745
32278SOL    HW296859   7.067   2.396   5.673
32279SOL     OW96860   6.113   2.118   5.914
32279SOL    HW196861   6.140   2.059   5.839
32279SOL    HW296862   6.113   2.213   5.883
32280SOL     OW96863   7.340   3.085   7.174
32280SOL    HW196864   7.431   3.046   7.161
32280SOL    HW296865   7.348   3.181   7.198
32281SOL     OW96866   6.650   3.209   6.926
32281SOL    HW196867   6.570   3.186   6.981
32281SOL    HW296868   6.733   3.183   6.975
32282SOL     OW96869   7.178   3.491   7.211
32282SOL    HW196870   7.205   3.525   7.121
32282SOL    HW296871   7.257   3.453   7.257
32283SOL     OW96872   6.697   3.057   6.686
32283SOL    HW196873   6.657   3.101   6.767
32283SOL    HW296874   6.656   3.094   6.603
32284SOL     OW96875   7.224   2.961   6.665
32284SOL    HW196876   7.229   3.042   6.724
32284SOL    HW296877   7.138   2.963   6.614
32285SOL     OW96878   6.501   1.951   6.988
32285SOL    HW196879   6.526   1.931   6.893
32285SOL    HW296880   6.573   2.007   7.030
32286SOL     OW96881   6.566   2.978   7.305
32286SOL    HW196882   6.467   2.984   7.315
32286SOL    HW296883   6.589   2.898   7.249
32287SOL     OW96884   6.291   2.912   5.954
32287SOL    HW196885   6.277   2.919   6.053
32287SOL    HW296886   6.375   2.861   5.936
32288SOL     OW96887   5.996   2.675   6.837
32288SOL    HW196888   6.082   2.687   6.887
32288SOL    HW296889   5.954   2.588   6.864
32289SOL     OW96890   6.860   2.248   6.848
32289SOL    HW196891   6.881   2.322   6.912
32289SOL    HW296892   6.771   2.265   6.805
32290SOL     OW96893   5.650   3.426   6.917
32290SOL    HW196894   5.604   3.508   6.883
32290SOL    HW296895   5.748   3.445   6.926
32291SOL     OW96896   5.953   2.962   6.087
32291SOL    HW196897   5.946   3.045   6.031
32291SOL    HW296898   5.957   2.882   6.027
32292SOL     OW96899   6.152   2.399   6.451
32292SOL    HW196900   6.164   2.465   6.377
32292SOL    HW296901   6.198   2.433   6.534
32293SOL     OW96902   6.838   3.210   5.974
32293SOL    HW196903   6.888   3.287   6.014
32293SOL    HW296904   6.743   3.212   6.006
32294SOL     OW96905   6.858   3.307   6.728
32294SOL    HW196906   6.905   3.320   6.815
32294SOL    HW296907   6.792   3.233   6.737
32295SOL     OW96908   7.168   2.501   6.058
32295SOL    HW196909   7.137   2.562   6.131
32295SOL    HW296910   7.218   2.553   5.989
32296SOL     OW96911   5.940   3.372   6.915
32296SOL    HW196912   5.919   3.328   6.828
32296SOL    HW296913   6.037   3.398   6.918
32297SOL     OW96914   5.988   2.613   7.184
32297SOL    HW196915   6.056   2.668   7.137
32297SOL    HW296916   6.028   2.525   7.211
32298SOL     OW96917   7.173   2.641   7.256
32298SOL    HW196918   7.081   2.679   7.251
32298SOL    HW296919   7.233   2.688   7.191
32299SOL     OW96920   6.599   1.967   7.356
32299SOL    HW196921   6.605   2.052   7.304
32299SOL    HW296922   6.631   1.891   7.299
32300SOL     OW96923   6.090   1.912   7.326
32300SOL    HW196924   6.048   1.855   7.256
32300SOL    HW296925   6.024   1.981   7.358
32301SOL     OW96926   6.159   2.732   6.615
32301SOL    HW196927   6.203   2.821   6.606
32301SOL    HW296928   6.096   2.732   6.692
32302SOL     OW96929   6.946   2.724   6.631
32302SOL    HW196930   6.871   2.724   6.565
32302SOL    HW296931   6.983   2.632   6.640
32303SOL     OW96932   6.795   2.387   5.861
32303SOL    HW196933   6.808   2.303   5.915
32303SOL    HW296934   6.766   2.461   5.921
32304SOL     OW96935   5.893   2.075   6.817
32304SOL    HW196936   5.870   2.112   6.907
32304SOL    HW296937   5.863   1.980   6.811
32305SOL     OW96938   5.623   3.172   6.868
32305SOL    HW196939   5.676   3.123   6.936
32305SOL    HW296940   5.645   3.270   6.873
32306SOL     OW96941   6.318   2.496   6.650
32306SOL    HW196942   6.377   2.470   6.574
32306SOL    HW296943   6.290   2.592   6.639
32307SOL     OW96944   7.314   2.797   7.440
32307SOL    HW196945   7.268   2.790   7.351
32307SOL    HW296946   7.252   2.841   7.506
32308SOL     OW96947   5.893   1.925   6.204
32308SOL    HW196948   5.882   2.019   6.237
32308SOL    HW296949   5.888   1.862   6.281
32309SOL     OW96950   7.208   2.229   5.960
32309SOL    HW196951   7.210   2.153   6.024
32309SOL    HW296952   7.160   2.306   6.000
32310SOL     OW96953   6.609   2.628   6.552
32310SOL    HW196954   6.624   2.649   6.648
32310SOL    HW296955   6.579   2.533   6.543
32311SOL     OW96956   6.566   3.435   7.286
32311SOL    HW196957   6.546   3.479   7.198
32311SOL    HW296958   6.605   3.344   7.270
32312SOL     OW96959   7.445   3.380   7.191
32312SOL    HW196960   7.459   3.407   7.096
32312SOL    HW296961   7.528   3.402   7.244
32313SOL     OW96962   5.936   2.760   7.390
32313SOL    HW196963   6.012   2.804   7.438
32313SOL    HW296964   5.971   2.713   7.308
32314SOL     OW96965   7.126   2.136   5.711
32314SOL    HW196966   7.065   2.061   5.734
32314SOL    HW296967   7.148   2.188   5.794
32315SOL     OW96968   6.889   2.700   5.628
32315SOL    HW196969   6.923   2.607   5.643
32315SOL    HW296970   6.907   2.727   5.533
32316SOL     OW96971   6.654   3.195   6.435
32316SOL    HW196972   6.661   3.111   6.380
32316SOL    HW296973   6.716   3.264   6.399
32317SOL     OW96974   5.905   2.672   6.535
32317SOL    HW196975   5.998   2.708   6.540
32317SOL    HW296976   5.899   2.587   6.587
32318SOL     OW96977   5.925   2.371   6.592
32318SOL    HW196978   5.873   2.288   6.575
32318SOL    HW296979   6.002   2.376   6.528
32319SOL     OW96980   6.724   2.242   7.264
32319SOL    HW196981   6.679   2.305   7.328
32319SOL    HW296982   6.817   2.273   7.247
32320SOL     OW96983   6.746   2.069   7.063
32320SOL    HW196984   6.746   2.133   7.140
32320SOL    HW296985   6.774   2.117   6.980
32321SOL     OW96986   5.594   3.188   5.786
32321SOL    HW196987   5.501   3.209   5.755
32321SOL    HW296988   5.604   3.089   5.799
32322SOL     OW96989   5.674   3.663   6.513
32322SOL    HW196990   5.632   3.577   6.486
32322SOL    HW296991   5.768   3.666   6.479
32323SOL     OW96992   6.090   3.430   6.496
32323SOL    HW196993   6.156   3.504   6.505
32323SOL    HW296994   6.134   3.351   6.454
32324SOL     OW96995   6.588   2.658   6.824
32324SOL    HW196996   6.629   2.626   6.910
32324SOL    HW296997   6.492   2.631   6.821
32325SOL     OW96998   5.626   2.406   6.700
32325SOL    HW196999   5.711   2.373   6.659
32325SOL    HW297000   5.639   2.421   6.798
32326SOL     OW97001   5.775   2.382   7.308
32326SOL    HW197002   5.834   2.342   7.238
32326SOL    HW297003   5.717   2.453   7.267
32327SOL     OW97004   6.955   2.812   7.246
32327SOL    HW197005   6.994   2.901   7.266
32327SOL    HW297006   6.965   2.792   7.149
32328SOL     OW97007   6.401   2.434   5.911
32328SOL    HW197008   6.408   2.345   5.865
32328SOL    HW297009   6.307   2.468   5.903
32329SOL     OW97010   7.243   2.466   6.792
32329SOL    HW197011   7.205   2.397   6.854
32329SOL    HW297012   7.325   2.430   6.748
32330SOL     OW97013   5.838   3.426   7.330
32330SOL    HW197014   5.808   3.483   7.406
32330SOL    HW297015   5.831   3.329   7.356
32331SOL     OW97016   6.257   2.326   6.855
32331SOL    HW197017   6.223   2.237   6.825
32331SOL    HW297018   6.283   2.380   6.775
32332SOL     OW97019   6.516   3.540   7.051
32332SOL    HW197020   6.492   3.522   6.956
32332SOL    HW297021   6.546   3.634   7.061
32333SOL     OW97022   6.059   2.362   5.777
32333SOL    HW197023   6.120   2.442   5.781
32333SOL    HW297024   5.964   2.393   5.784
32334SOL     OW97025   5.745   2.999   7.052
32334SOL    HW197026   5.767   2.938   7.128
32334SOL    HW297027   5.755   2.950   6.966
32335SOL     OW97028   6.933   2.921   6.820
32335SOL    HW197029   6.957   2.858   6.746
32335SOL    HW297030   6.843   2.961   6.802
32336SOL     OW97031   6.888   2.717   5.895
32336SOL    HW197032   6.802   2.686   5.937
32336SOL    HW297033   6.884   2.703   5.796
32337SOL     OW97034   7.345   3.609   6.740
32337SOL    HW197035   7.406   3.639   6.667
32337SOL    HW297036   7.307   3.520   6.718
32338SOL     OW97037   6.838   3.593   6.714
32338SOL    HW197038   6.922   3.598   6.660
32338SOL    HW297039   6.815   3.497   6.732
32339SOL     OW97040   5.669   3.120   6.608
32339SOL    HW197041   5.664   3.119   6.708
32339SOL    HW297042   5.586   3.079   6.570
32340SOL     OW97043   6.274   3.524   7.302
32340SOL    HW197044   6.218   3.605   7.311
32340SOL    HW297045   6.326   3.528   7.216
32341SOL     OW97046   7.312   1.997   6.109
32341SOL    HW197047   7.385   1.980   6.042
32341SOL    HW297048   7.281   1.910   6.147
32342SOL     OW97049   6.974   3.435   6.063
32342SOL    HW197050   7.041   3.447   5.989
32342SOL    HW297051   6.934   3.524   6.086
32343SOL     OW97052   5.716   3.656   7.437
32343SOL    HW197053   5.675   3.582   7.490
32343SOL    HW297054   5.780   3.707   7.495
32344SOL     OW97055   6.866   2.789   6.258
32344SOL    HW197056   6.926   2.708   6.260
32344SOL    HW297057   6.906   2.858   6.198
32345SOL     OW97058   6.416   3.135   7.008
32345SOL    HW197059   6.411   3.168   7.103
32345SOL    HW297060   6.330   3.154   6.962
32346SOL     OW97061   6.258   3.478   5.740
32346SOL    HW197062   6.267   3.488   5.641
32346SOL    HW297063   6.218   3.389   5.761
32347SOL     OW97064   7.236   3.582   6.980
32347SOL    HW197065   7.289   3.592   6.896
32347SOL    HW297066   7.209   3.672   7.014
32348SOL     OW97067   7.427   2.037   6.549
32348SOL    HW197068   7.466   1.952   6.513
32348SOL    HW297069   7.329   2.039   6.530
32349SOL     OW97070   5.849   2.188   6.306
32349SOL    HW197071   5.770   2.239   6.272
32349SOL    HW297072   5.840   2.173   6.404
32350SOL     OW97073   6.780   3.474   5.617
32350SOL    HW197074   6.786   3.381   5.654
32350SOL    HW297075   6.721   3.474   5.537
32351SOL     OW97076   6.408   2.864   6.958
32351SOL    HW197077   6.448   2.863   6.866
32351SOL    HW297078   6.418   2.956   6.998
32352SOL     OW97079   6.502   2.772   5.877
32352SOL    HW197080   6.565   2.810   5.809
32352SOL    HW297081   6.542   2.689   5.916
32353SOL     OW97082   7.090   3.469   5.630
32353SOL    HW197083   6.998   3.506   5.637
32353SOL    HW297084   7.128   3.489   5.540
32354SOL     OW97085   5.958   3.150   7.076
32354SOL    HW197086   5.945   3.243   7.042
32354SOL    HW297087   5.874   3.098   7.063
32355SOL     OW97088   7.200   3.154   6.875
32355SOL    HW197089   7.260   3.157   6.955
32355SOL    HW297090   7.125   3.218   6.888
32356SOL     OW97091   6.625   2.960   6.282
32356SOL    HW197092   6.555   2.913   6.336
32356SOL    HW297093   6.684   2.892   6.239
32357SOL     OW97094   6.600   2.098   6.557
32357SOL    HW197095   6.592   2.062   6.464
32357SOL    HW297096   6.598   2.022   6.622
32358SOL     OW97097   6.176   3.349   6.077
32358SOL    HW197098   6.218   3.291   6.007
32358SOL    HW297099   6.132   3.428   6.033
32359SOL     OW97100   7.295   2.247   6.967
32359SOL    HW197101   7.368   2.316   6.971
32359SOL    HW297102   7.323   2.172   6.908
32360SOL     OW97103   5.841   3.210   5.876
32360SOL    HW197104   5.745   3.211   5.849
32360SOL    HW297105   5.853   3.263   5.960
32361SOL     OW97106   5.691   2.875   7.312
32361SOL    HW197107   5.614   2.842   7.366
32361SOL    HW297108   5.776   2.845   7.354
32362SOL     OW97109   6.258   2.065   7.075
32362SOL    HW197110   6.348   2.049   7.035
32362SOL    HW297111   6.266   2.070   7.174
32363SOL     OW97112   5.661   2.207   5.619
32363SOL    HW197113   5.569   2.179   5.590
32363SOL    HW297114   5.692   2.284   5.563
32364SOL     OW97115   7.026   2.718   6.984
32364SOL    HW197116   6.969   2.770   6.921
32364SOL    HW297117   7.122   2.730   6.960
32365SOL     OW97118   5.658   2.028   5.904
32365SOL    HW197119   5.641   2.111   5.850
32365SOL    HW297120   5.748   1.991   5.882
32366SOL     OW97121   6.769   3.197   5.705
32366SOL    HW197122   6.670   3.186   5.707
32366SOL    HW297123   6.803   3.212   5.798
32367SOL     OW97124   6.199   2.704   7.017
32367SOL    HW197125   6.255   2.785   7.000
32367SOL    HW297126   6.258   2.624   7.020
32368SOL     OW97127   7.079   3.629   6.545
32368SOL    HW197128   7.112   3.693   6.476
32368SOL    HW297129   7.145   3.623   6.620
32369SOL     OW97130   6.302   2.427   7.294
32369SOL    HW197131   6.321   2.492   7.368
32369SOL    HW297132   6.362   2.347   7.303
32370SOL     OW97133   7.036   3.082   7.219
32370SOL    HW197134   7.027   3.072   7.318
32370SOL    HW297135   7.132   3.075   7.193
32371SOL     OW97136   5.976   3.603   7.146
32371SOL    HW197137   5.885   3.644   7.144
32371SOL    HW297138   5.969   3.509   7.178
32372SOL     OW97139   7.260   2.745   6.840
32372SOL    HW197140   7.233   2.656   6.803
32372SOL    HW297141   7.261   2.813   6.767
32373SOL     OW97142   6.811   2.187   6.035
32373SOL    HW197143   6.876   2.113   6.024
32373SOL    HW297144   6.831   2.237   6.119
32374SOL     OW97145   6.180   2.607   6.238
32374SOL    HW197146   6.230   2.692   6.219
32374SOL    HW297147   6.092   2.609   6.190
32375SOL     OW97148   7.363   2.204   7.228
32375SOL    HW197149   7.346   2.235   7.134
32375SOL    HW297150   7.279   2.167   7.266
32376SOL     OW97151   7.316   2.796   7.103
32376SOL    HW197152   7.354   2.887   7.118
32376SOL    HW297153   7.308   2.779   7.004
32377SOL     OW97154   6.445   3.236   5.602
32377SOL    HW197155   6.399   3.251   5.690
32377SOL    HW297156   6.489   3.321   5.572
32378SOL     OW97157   6.247   3.652   6.539
32378SOL    HW197158   6.201   3.740   6.526
32378SOL    HW297159   6.346   3.664   6.532
32379SOL     OW97160   6.445   2.818   6.447
32379SOL    HW197161   6.499   2.749   6.495
32379SOL    HW297162   6.413   2.887   6.513
32380SOL     OW97163   6.669   2.846   5.673
32380SOL    HW197164   6.646   2.899   5.591
32380SOL    HW297165   6.750   2.790   5.654
32381SOL     OW97166   7.447   3.431   6.437
32381SOL    HW197167   7.376   3.419   6.367
32381SOL    HW297168   7.448   3.352   6.497
32382SOL     OW97169   5.807   3.176   7.430
32382SOL    HW197170   5.742   3.103   7.409
32382SOL    HW297171   5.811   3.190   7.528
32383SOL     OW97172   5.665   3.102   6.239
32383SOL    HW197173   5.664   3.055   6.327
32383SOL    HW297174   5.747   3.074   6.188
32384SOL     OW97175   6.258   3.253   7.210
32384SOL    HW197176   6.180   3.203   7.248
32384SOL    HW297177   6.255   3.348   7.241
32385SOL     OW97178   7.410   2.054   6.813
32385SOL    HW197179   7.406   1.964   6.857
32385SOL    HW297180   7.413   2.043   6.714
32386SOL     OW97181   6.014   2.286   6.106
32386SOL    HW197182   6.044   2.214   6.044
32386SOL    HW297183   5.975   2.246   6.189
32387SOL     OW97184   7.291   3.349   6.690
32387SOL    HW197185   7.198   3.324   6.663
32387SOL    HW297186   7.317   3.299   6.772
32388SOL     OW97187   5.903   2.409   6.866
32388SOL    HW197188   5.941   2.350   6.938
32388SOL    HW297189   5.943   2.383   6.778
32389SOL     OW97190   6.398   3.448   6.273
32389SOL    HW197191   6.430   3.458   6.179
32389SOL    HW297192   6.319   3.386   6.275
32390SOL     OW97193   7.010   2.076   6.698
32390SOL    HW197194   7.062   2.011   6.753
32390SOL    HW297195   6.961   2.139   6.759
32391SOL     OW97196   6.587   1.896   6.740
32391SOL    HW197197   6.524   1.824   6.709
32391SOL    HW297198   6.680   1.860   6.740
32392SOL     OW97199   6.356   3.192   5.887
32392SOL    HW197200   6.310   3.105   5.904
32392SOL    HW297201   6.447   3.189   5.928
32393SOL     OW97202   6.204   3.429   6.870
32393SOL    HW197203   6.199   3.511   6.927
32393SOL    HW297204   6.293   3.426   6.825
32394SOL     OW97205   6.938   1.914   5.754
32394SOL    HW197206   6.973   1.873   5.670
32394SOL    HW297207   6.848   1.876   5.774
32395SOL     OW97208   6.886   2.315   6.277
32395SOL    HW197209   6.827   2.395   6.281
32395SOL    HW297210   6.901   2.280   6.370
32396SOL     OW97211   7.179   2.083   6.468
32396SOL    HW197212   7.095   2.082   6.522
32396SOL    HW297213   7.181   2.166   6.412
32397SOL     OW97214   5.625   2.939   5.886
32397SOL    HW197215   5.724   2.928   5.877
32397SOL    HW297216   5.585   2.853   5.918
32398SOL     OW97217   6.461   3.508   5.923
32398SOL    HW197218   6.384   3.473   5.869
32398SOL    HW297219   6.429   3.579   5.985
32399SOL     OW97220   5.816   2.490   7.561
32399SOL    HW197221   5.723   2.488   7.598
32399SOL    HW297222   5.817   2.451   7.469
32400SOL     OW97223   5.811   2.137   8.444
32400SOL    HW197224   5.846   2.120   8.536
32400SOL    HW297225   5.723   2.092   8.432
32401SOL     OW97226   5.605   2.230   8.095
32401SOL    HW197227   5.523   2.273   8.134
32401SOL    HW297228   5.577   2.157   8.032
32402SOL     OW97229   6.155   3.137   8.613
32402SOL    HW197230   6.062   3.130   8.576
32402SOL    HW297231   6.166   3.226   8.657
32403SOL     OW97232   7.141   3.373   8.151
32403SOL    HW197233   7.084   3.357   8.232
32403SOL    HW297234   7.082   3.383   8.071
32404SOL     OW97235   6.721   2.565   8.165
32404SOL    HW197236   6.778   2.643   8.140
32404SOL    HW297237   6.661   2.591   8.241
32405SOL     OW97238   7.341   2.469   7.679
32405SOL    HW197239   7.329   2.456   7.580
32405SOL    HW297240   7.311   2.388   7.728
32406SOL     OW97241   6.354   3.006   8.471
32406SOL    HW197242   6.276   3.023   8.531
32406SOL    HW297243   6.388   3.093   8.435
32407SOL     OW97244   6.436   2.660   9.271
32407SOL    HW197245   6.432   2.736   9.336
32407SOL    HW297246   6.458   2.696   9.180
32408SOL     OW97247   6.271   2.874   8.113
32408SOL    HW197248   6.340   2.858   8.183
32408SOL    HW297249   6.198   2.931   8.151
32409SOL     OW97250   6.272   3.023   9.251
32409SOL    HW197251   6.332   3.102   9.265
32409SOL    HW297252   6.186   3.054   9.210
32410SOL     OW97253   5.921   3.297   8.509
32410SOL    HW197254   5.843   3.266   8.456
32410SOL    HW297255   5.979   3.355   8.452
32411SOL     OW97256   7.046   3.367   8.787
32411SOL    HW197257   7.070   3.461   8.813
32411SOL    HW297258   7.030   3.313   8.869
32412SOL     OW97259   6.024   2.254   8.947
32412SOL    HW197260   6.106   2.198   8.956
32412SOL    HW297261   5.943   2.196   8.951
32413SOL     OW97262   7.189   2.309   8.185
32413SOL    HW197263   7.115   2.355   8.135
32413SOL    HW297264   7.240   2.377   8.238
32414SOL     OW97265   5.817   3.575   7.931
32414SOL    HW197266   5.851   3.652   7.985
32414SOL    HW297267   5.861   3.575   7.841
32415SOL     OW97268   6.713   3.203   9.138
32415SOL    HW197269   6.760   3.203   9.226
32415SOL    HW297270   6.665   3.116   9.127
32416SOL     OW97271   5.816   3.296   7.986
32416SOL    HW197272   5.790   3.392   7.986
32416SOL    HW297273   5.745   3.242   8.031
32417SOL     OW97274   5.826   2.953   8.334
32417SOL    HW197275   5.840   2.869   8.386
32417SOL    HW297276   5.771   3.017   8.389
32418SOL     OW97277   6.206   3.648   8.887
32418SOL    HW197278   6.114   3.631   8.922
32418SOL    HW297279   6.234   3.740   8.913
32419SOL     OW97280   6.192   2.826   7.571
32419SOL    HW197281   6.199   2.910   7.517
32419SOL    HW297282   6.238   2.839   7.659
32420SOL     OW97283   7.180   1.976   8.928
32420SOL    HW197284   7.162   2.043   8.856
32420SOL    HW297285   7.177   2.022   9.017
32421SOL     OW97286   5.708   2.505   8.011
32421SOL    HW197287   5.663   2.417   8.028
32421SOL    HW297288   5.707   2.559   8.095
32422SOL     OW97289   7.428   3.629   7.807
32422SOL    HW197290   7.482   3.600   7.887
32422SOL    HW297291   7.458   3.719   7.778
32423SOL     OW97292   5.613   3.458   7.565
32423SOL    HW197293   5.594   3.362   7.586
32423SOL    HW297294   5.580   3.516   7.640
32424SOL     OW97295   7.275   2.784   8.060
32424SOL    HW197296   7.370   2.755   8.068
32424SOL    HW297297   7.267   2.849   7.985
32425SOL     OW97298   7.227   2.970   7.880
32425SOL    HW197299   7.313   2.972   7.828
32425SOL    HW297300   7.241   3.017   7.968
32426SOL     OW97301   5.699   2.599   9.045
32426SOL    HW197302   5.787   2.586   9.090
32426SOL    HW297303   5.686   2.696   9.023
32427SOL     OW97304   6.199   3.227   8.174
32427SOL    HW197305   6.150   3.140   8.183
32427SOL    HW297306   6.176   3.270   8.087
32428SOL     OW97307   6.879   3.090   8.871
32428SOL    HW197308   6.916   3.017   8.813
32428SOL    HW297309   6.931   3.095   8.956
32429SOL     OW97310   6.395   1.866   7.950
32429SOL    HW197311   6.435   1.957   7.941
32429SOL    HW297312   6.295   1.874   7.956
32430SOL     OW97313   5.783   2.838   8.712
32430SOL    HW197314   5.872   2.793   8.698
32430SOL    HW297315   5.710   2.773   8.693
32431SOL     OW97316   7.111   2.861   7.638
32431SOL    HW197317   7.048   2.785   7.651
32431SOL    HW297318   7.159   2.879   7.724
32432SOL     OW97319   6.773   3.654   9.064
32432SOL    HW197320   6.797   3.714   8.988
32432SOL    HW297321   6.780   3.559   9.034
32433SOL     OW97322   5.903   2.113   9.249
32433SOL    HW197323   5.974   2.184   9.255
32433SOL    HW297324   5.815   2.152   9.277
32434SOL     OW97325   7.052   3.279   8.401
32434SOL    HW197326   6.993   3.285   8.481
32434SOL    HW297327   7.037   3.191   8.355
32435SOL     OW97328   7.253   3.576   8.020
32435SOL    HW197329   7.212   3.553   7.932
32435SOL    HW297330   7.235   3.502   8.085
32436SOL     OW97331   6.184   2.591   7.718
32436SOL    HW197332   6.208   2.660   7.650
32436SOL    HW297333   6.106   2.624   7.772
32437SOL     OW97334   6.867   2.207   8.392
32437SOL    HW197335   6.781   2.157   8.379
32437SOL    HW297336   6.929   2.153   8.448
32438SOL     OW97337   7.162   3.524   7.755
32438SOL    HW197338   7.251   3.570   7.758
32438SOL    HW297339   7.141   3.500   7.660
32439SOL     OW97340   6.393   2.467   8.913
32439SOL    HW197341   6.346   2.464   9.002
32439SOL    HW297342   6.342   2.412   8.847
32440SOL     OW97343   6.980   2.331   9.122
32440SOL    HW197344   6.960   2.374   9.210
32440SOL    HW297345   7.058   2.269   9.131
32441SOL     OW97346   6.559   2.752   9.020
32441SOL    HW197347   6.605   2.668   8.991
32441SOL    HW297348   6.503   2.786   8.945
32442SOL     OW97349   6.577   2.272   8.690
32442SOL    HW197350   6.500   2.306   8.744
32442SOL    HW297351   6.543   2.221   8.611
32443SOL     OW97352   6.627   2.563   7.877
32443SOL    HW197353   6.653   2.559   7.973
32443SOL    HW297354   6.542   2.512   7.863
32444SOL     OW97355   5.662   2.673   8.237
32444SOL    HW197356   5.761   2.661   8.246
32444SOL    HW297357   5.638   2.768   8.258
32445SOL     OW97358   5.716   3.683   9.019
32445SOL    HW197359   5.706   3.668   9.118
32445SOL    HW297360   5.630   3.719   8.983
32446SOL     OW97361   6.451   2.210   7.643
32446SOL    HW197362   6.510   2.273   7.594
32446SOL    HW297363   6.470   2.116   7.614
32447SOL     OW97364   7.305   2.447   9.279
32447SOL    HW197365   7.279   2.536   9.243
32447SOL    HW297366   7.303   2.379   9.206
32448SOL     OW97367   6.948   3.006   7.993
32448SOL    HW197368   7.031   2.977   7.945
32448SOL    HW297369   6.899   3.073   7.937
32449SOL     OW97370   6.136   2.058   8.333
32449SOL    HW197371   6.131   2.053   8.433
32449SOL    HW297372   6.138   2.154   8.304
32450SOL     OW97373   6.594   3.318   7.925
32450SOL    HW197374   6.548   3.390   7.873
32450SOL    HW297375   6.590   3.338   8.023
32451SOL     OW97376   5.937   3.663   8.301
32451SOL    HW197377   5.987   3.577   8.307
32451SOL    HW297378   6.002   3.740   8.298
32452SOL     OW97379   7.381   2.928   8.321
32452SOL    HW197380   7.319   2.913   8.245
32452SOL    HW297381   7.329   2.939   8.406
32453SOL     OW97382   6.813   3.412   8.954
32453SOL    HW197383   6.819   3.335   9.018
32453SOL    HW297384   6.761   3.386   8.874
32454SOL     OW97385   5.907   2.805   7.690
32454SOL    HW197386   5.989   2.844   7.648
32454SOL    HW297387   5.880   2.723   7.641
32455SOL     OW97388   7.044   2.597   8.176
32455SOL    HW197389   7.039   2.532   8.251
32455SOL    HW297390   7.124   2.656   8.189
32456SOL     OW97391   6.047   3.128   9.175
32456SOL    HW197392   5.997   3.129   9.089
32456SOL    HW297393   5.984   3.110   9.251
32457SOL     OW97394   6.697   3.638   7.685
32457SOL    HW197395   6.637   3.576   7.735
32457SOL    HW297396   6.728   3.594   7.600
32458SOL     OW97397   5.788   2.147   8.946
32458SOL    HW197398   5.708   2.207   8.933
32458SOL    HW297399   5.778   2.098   9.032
32459SOL     OW97400   7.218   3.239   7.529
32459SOL    HW197401   7.186   3.333   7.519
32459SOL    HW297402   7.142   3.176   7.517
32460SOL     OW97403   6.050   3.605   7.771
32460SOL    HW197404   6.083   3.644   7.857
32460SOL    HW297405   6.126   3.598   7.706
32461SOL     OW97406   6.986   1.969   7.874
32461SOL    HW197407   6.962   1.932   7.784
32461SOL    HW297408   7.085   1.985   7.878
32462SOL     OW97409   5.835   3.647   8.689
32462SOL    HW197410   5.892   3.582   8.739
32462SOL    HW297411   5.819   3.614   8.596
32463SOL     OW97412   6.526   3.560   8.352
32463SOL    HW197413   6.606   3.503   8.373
32463SOL    HW297414   6.477   3.520   8.275
32464SOL     OW97415   5.968   2.562   7.928
32464SOL    HW197416   6.013   2.472   7.925
32464SOL    HW297417   5.874   2.551   7.961
32465SOL     OW97418   7.133   2.084   9.177
32465SOL    HW197419   7.128   2.121   9.269
32465SOL    HW297420   7.061   2.015   9.165
32466SOL     OW97421   6.200   1.984   7.565
32466SOL    HW197422   6.298   1.962   7.572
32466SOL    HW297423   6.169   1.967   7.472
32467SOL     OW97424   6.367   2.126   9.197
32467SOL    HW197425   6.434   2.065   9.240
32467SOL    HW297426   6.294   2.145   9.262
32468SOL     OW97427   6.474   3.376   8.643
32468SOL    HW197428   6.451   3.351   8.549
32468SOL    HW297429   6.535   3.307   8.682
32469SOL     OW97430   6.937   2.452   8.881
32469SOL    HW197431   6.965   2.409   8.966
32469SOL    HW297432   6.962   2.548   8.882
32470SOL     OW97433   6.389   3.264   8.372
32470SOL    HW197434   6.479   3.278   8.330
32470SOL    HW297435   6.318   3.266   8.301
32471SOL     OW97436   6.508   2.365   8.347
32471SOL    HW197437   6.483   2.356   8.251
32471SOL    HW297438   6.556   2.283   8.378
32472SOL     OW97439   6.125   1.926   7.960
32472SOL    HW197440   6.044   1.927   8.018
32472SOL    HW297441   6.128   2.009   7.905
32473SOL     OW97442   7.020   3.050   7.489
32473SOL    HW197443   7.052   2.974   7.546
32473SOL    HW297444   6.928   3.077   7.519
32474SOL     OW97445   5.883   1.897   7.619
32474SOL    HW197446   5.932   1.981   7.598
32474SOL    HW297447   5.945   1.832   7.664
32475SOL     OW97448   6.521   2.098   7.928
32475SOL    HW197449   6.473   2.139   7.850
32475SOL    HW297450   6.620   2.096   7.909
32476SOL     OW97451   6.662   2.545   8.912
32476SOL    HW197452   6.582   2.484   8.915
32476SOL    HW297453   6.743   2.492   8.888
32477SOL     OW97454   6.813   3.432   8.241
32477SOL    HW197455   6.834   3.506   8.176
32477SOL    HW297456   6.881   3.432   8.314
32478SOL     OW97457   6.045   3.014   8.189
32478SOL    HW197458   5.974   2.987   8.254
32478SOL    HW297459   6.019   2.986   8.096
32479SOL     OW97460   6.857   3.659   8.039
32479SOL    HW197461   6.901   3.723   7.975
32479SOL    HW297462   6.807   3.711   8.109
32480SOL     OW97463   6.618   2.411   7.464
32480SOL    HW197464   6.577   2.493   7.425
32480SOL    HW297465   6.682   2.437   7.537
32481SOL     OW97466   5.664   2.418   8.834
32481SOL    HW197467   5.756   2.417   8.793
32481SOL    HW297468   5.658   2.492   8.901
32482SOL     OW97469   6.147   2.084   8.595
32482SOL    HW197470   6.185   2.000   8.632
32482SOL    HW297471   6.059   2.103   8.639
32483SOL     OW97472   6.452   2.316   8.090
32483SOL    HW197473   6.420   2.388   8.028
32483SOL    HW297474   6.476   2.235   8.037
32484SOL     OW97475   6.603   1.901   8.201
32484SOL    HW197476   6.531   1.906   8.132
32484SOL    HW297477   6.579   1.832   8.270
32485SOL     OW97478   7.015   3.035   8.315
32485SOL    HW197479   6.960   2.951   8.308
32485SOL    HW297480   7.041   3.064   8.223
32486SOL     OW97481   7.052   2.452   8.440
32486SOL    HW197482   7.022   2.357   8.447
32486SOL    HW297483   7.125   2.468   8.506
32487SOL     OW97484   7.443   2.695   7.825
32487SOL    HW197485   7.485   2.631   7.889
32487SOL    HW297486   7.405   2.644   7.747
32488SOL     OW97487   6.074   3.247   7.622
32488SOL    HW197488   5.987   3.232   7.669
32488SOL    HW297489   6.057   3.273   7.527
32489SOL     OW97490   7.250   3.142   8.105
32489SOL    HW197491   7.349   3.150   8.119
32489SOL    HW297492   7.205   3.226   8.136
32490SOL     OW97493   6.976   2.437   7.526
32490SOL    HW197494   6.922   2.416   7.607
32490SOL    HW297495   7.067   2.396   7.535
32491SOL     OW97496   6.113   2.118   7.776
32491SOL    HW197497   6.140   2.059   7.701
32491SOL    HW297498   6.113   2.213   7.745
32492SOL     OW97499   7.340   3.085   9.036
32492SOL    HW197500   7.431   3.046   9.023
32492SOL    HW297501   7.348   3.181   9.060
32493SOL     OW97502   6.650   3.209   8.788
32493SOL    HW197503   6.570   3.186   8.843
32493SOL    HW297504   6.733   3.183   8.837
32494SOL     OW97505   7.178   3.491   9.073
32494SOL    HW197506   7.205   3.525   8.983
32494SOL    HW297507   7.257   3.453   9.119
32495SOL     OW97508   6.697   3.057   8.548
32495SOL    HW197509   6.657   3.101   8.629
32495SOL    HW297510   6.656   3.094   8.465
32496SOL     OW97511   7.224   2.961   8.527
32496SOL    HW197512   7.229   3.042   8.586
32496SOL    HW297513   7.138   2.963   8.476
32497SOL     OW97514   6.501   1.951   8.850
32497SOL    HW197515   6.526   1.931   8.755
32497SOL    HW297516   6.573   2.007   8.892
32498SOL     OW97517   6.566   2.978   9.167
32498SOL    HW197518   6.467   2.984   9.177
32498SOL    HW297519   6.589   2.898   9.111
32499SOL     OW97520   6.291   2.912   7.816
32499SOL    HW197521   6.277   2.919   7.915
32499SOL    HW297522   6.375   2.861   7.798
32500SOL     OW97523   5.996   2.675   8.699
32500SOL    HW197524   6.082   2.687   8.749
32500SOL    HW297525   5.954   2.588   8.726
32501SOL     OW97526   6.860   2.248   8.710
32501SOL    HW197527   6.881   2.322   8.774
32501SOL    HW297528   6.771   2.265   8.667
32502SOL     OW97529   5.650   3.426   8.779
32502SOL    HW197530   5.604   3.508   8.745
32502SOL    HW297531   5.748   3.445   8.788
32503SOL     OW97532   5.953   2.962   7.949
32503SOL    HW197533   5.946   3.045   7.893
32503SOL    HW297534   5.957   2.882   7.889
32504SOL     OW97535   6.152   2.399   8.313
32504SOL    HW197536   6.164   2.465   8.239
32504SOL    HW297537   6.198   2.433   8.396
32505SOL     OW97538   6.838   3.210   7.836
32505SOL    HW197539   6.888   3.287   7.876
32505SOL    HW297540   6.743   3.212   7.868
32506SOL     OW97541   6.858   3.307   8.590
32506SOL    HW197542   6.905   3.320   8.677
32506SOL    HW297543   6.792   3.233   8.599
32507SOL     OW97544   7.168   2.501   7.920
32507SOL    HW197545   7.137   2.562   7.993
32507SOL    HW297546   7.218   2.553   7.851
32508SOL     OW97547   5.940   3.372   8.777
32508SOL    HW197548   5.919   3.328   8.690
32508SOL    HW297549   6.037   3.398   8.780
32509SOL     OW97550   5.988   2.613   9.046
32509SOL    HW197551   6.056   2.668   8.999
32509SOL    HW297552   6.028   2.525   9.073
32510SOL     OW97553   7.173   2.641   9.118
32510SOL    HW197554   7.081   2.679   9.113
32510SOL    HW297555   7.233   2.688   9.053
32511SOL     OW97556   6.599   1.967   9.218
32511SOL    HW197557   6.605   2.052   9.166
32511SOL    HW297558   6.631   1.891   9.161
32512SOL     OW97559   6.090   1.912   9.188
32512SOL    HW197560   6.048   1.855   9.118
32512SOL    HW297561   6.024   1.981   9.220
32513SOL     OW97562   6.159   2.732   8.477
32513SOL    HW197563   6.203   2.821   8.468
32513SOL    HW297564   6.096   2.732   8.554
32514SOL     OW97565   6.946   2.724   8.493
32514SOL    HW197566   6.871   2.724   8.427
32514SOL    HW297567   6.983   2.632   8.502
32515SOL     OW97568   6.795   2.387   7.723
32515SOL    HW197569   6.808   2.303   7.777
32515SOL    HW297570   6.766   2.461   7.783
32516SOL     OW97571   5.893   2.075   8.679
32516SOL    HW197572   5.870   2.112   8.769
32516SOL    HW297573   5.863   1.980   8.673
32517SOL     OW97574   5.623   3.172   8.730
32517SOL    HW197575   5.676   3.123   8.798
32517SOL    HW297576   5.645   3.270   8.735
32518SOL     OW97577   6.318   2.496   8.512
32518SOL    HW197578   6.377   2.470   8.436
32518SOL    HW297579   6.290   2.592   8.501
32519SOL     OW97580   7.314   2.797   9.302
32519SOL    HW197581   7.268   2.790   9.213
32519SOL    HW297582   7.252   2.841   9.368
32520SOL     OW97583   5.893   1.925   8.066
32520SOL    HW197584   5.882   2.019   8.099
32520SOL    HW297585   5.888   1.862   8.143
32521SOL     OW97586   7.208   2.229   7.822
32521SOL    HW197587   7.210   2.153   7.886
32521SOL    HW297588   7.160   2.306   7.862
32522SOL     OW97589   6.609   2.628   8.414
32522SOL    HW197590   6.624   2.649   8.510
32522SOL    HW297591   6.579   2.533   8.405
32523SOL     OW97592   6.566   3.435   9.148
32523SOL    HW197593   6.546   3.479   9.060
32523SOL    HW297594   6.605   3.344   9.132
32524SOL     OW97595   7.445   3.380   9.053
32524SOL    HW197596   7.459   3.407   8.958
32524SOL    HW297597   7.528   3.402   9.106
32525SOL     OW97598   5.936   2.760   9.252
32525SOL    HW197599   6.012   2.804   9.300
32525SOL    HW297600   5.971   2.713   9.170
32526SOL     OW97601   7.126   2.136   7.573
32526SOL    HW197602   7.065   2.061   7.596
32526SOL    HW297603   7.148   2.188   7.656
32527SOL     OW97604   6.889   2.700   7.490
32527SOL    HW197605   6.923   2.607   7.505
32527SOL    HW297606   6.907   2.727   7.395
32528SOL     OW97607   6.654   3.195   8.297
32528SOL    HW197608   6.661   3.111   8.242
32528SOL    HW297609   6.716   3.264   8.261
32529SOL     OW97610   5.905   2.672   8.397
32529SOL    HW197611   5.998   2.708   8.402
32529SOL    HW297612   5.899   2.587   8.449
32530SOL     OW97613   5.925   2.371   8.454
32530SOL    HW197614   5.873   2.288   8.437
32530SOL    HW297615   6.002   2.376   8.390
32531SOL     OW97616   6.724   2.242   9.126
32531SOL    HW197617   6.679   2.305   9.190
32531SOL    HW297618   6.817   2.273   9.109
32532SOL     OW97619   6.746   2.069   8.925
32532SOL    HW197620   6.746   2.133   9.002
32532SOL    HW297621   6.774   2.117   8.842
32533SOL     OW97622   5.594   3.188   7.648
32533SOL    HW197623   5.501   3.209   7.617
32533SOL    HW297624   5.604   3.089   7.661
32534SOL     OW97625   5.674   3.663   8.375
32534SOL    HW197626   5.632   3.577   8.348
32534SOL    HW297627   5.768   3.666   8.341
32535SOL     OW97628   6.090   3.430   8.358
32535SOL    HW197629   6.156   3.504   8.367
32535SOL    HW297630   6.134   3.351   8.316
32536SOL     OW97631   6.588   2.658   8.686
32536SOL    HW197632   6.629   2.626   8.772
32536SOL    HW297633   6.492   2.631   8.683
32537SOL     OW97634   5.626   2.406   8.562
32537SOL    HW197635   5.711   2.373   8.521
32537SOL    HW297636   5.639   2.421   8.660
32538SOL     OW97637   5.775   2.382   9.170
32538SOL    HW197638   5.834   2.342   9.100
32538SOL    HW297639   5.717   2.453   9.129
32539SOL     OW97640   6.955   2.812   9.108
32539SOL    HW197641   6.994   2.901   9.128
32539SOL    HW297642   6.965   2.792   9.011
32540SOL     OW97643   6.401   2.434   7.773
32540SOL    HW197644   6.408   2.345   7.727
32540SOL    HW297645   6.307   2.468   7.765
32541SOL     OW97646   7.243   2.466   8.654
32541SOL    HW197647   7.205   2.397   8.716
32541SOL    HW297648   7.325   2.430   8.610
32542SOL     OW97649   5.838   3.426   9.192
32542SOL    HW197650   5.808   3.483   9.268
32542SOL    HW297651   5.831   3.329   9.218
32543SOL     OW97652   6.257   2.326   8.717
32543SOL    HW197653   6.223   2.237   8.687
32543SOL    HW297654   6.283   2.380   8.637
32544SOL     OW97655   6.516   3.540   8.913
32544SOL    HW197656   6.492   3.522   8.818
32544SOL    HW297657   6.546   3.634   8.923
32545SOL     OW97658   6.059   2.362   7.639
32545SOL    HW197659   6.120   2.442   7.643
32545SOL    HW297660   5.964   2.393   7.646
32546SOL     OW97661   5.745   2.999   8.914
32546SOL    HW197662   5.767   2.938   8.990
32546SOL    HW297663   5.755   2.950   8.828
32547SOL     OW97664   6.933   2.921   8.682
32547SOL    HW197665   6.957   2.858   8.608
32547SOL    HW297666   6.843   2.961   8.664
32548SOL     OW97667   6.888   2.717   7.757
32548SOL    HW197668   6.802   2.686   7.799
32548SOL    HW297669   6.884   2.703   7.658
32549SOL     OW97670   7.345   3.609   8.602
32549SOL    HW197671   7.406   3.639   8.529
32549SOL    HW297672   7.307   3.520   8.580
32550SOL     OW97673   6.838   3.593   8.576
32550SOL    HW197674   6.922   3.598   8.522
32550SOL    HW297675   6.815   3.497   8.594
32551SOL     OW97676   5.669   3.120   8.470
32551SOL    HW197677   5.664   3.119   8.570
32551SOL    HW297678   5.586   3.079   8.432
32552SOL     OW97679   6.274   3.524   9.164
32552SOL    HW197680   6.218   3.605   9.173
32552SOL    HW297681   6.326   3.528   9.078
32553SOL     OW97682   7.312   1.997   7.971
32553SOL    HW197683   7.385   1.980   7.904
32553SOL    HW297684   7.281   1.910   8.009
32554SOL     OW97685   6.974   3.435   7.925
32554SOL    HW197686   7.041   3.447   7.851
32554SOL    HW297687   6.934   3.524   7.948
32555SOL     OW97688   5.716   3.656   9.299
32555SOL    HW197689   5.675   3.582   9.352
32555SOL    HW297690   5.780   3.707   9.357
32556SOL     OW97691   6.866   2.789   8.120
32556SOL    HW197692   6.926   2.708   8.122
32556SOL    HW297693   6.906   2.858   8.060
32557SOL     OW97694   6.416   3.135   8.870
32557SOL    HW197695   6.411   3.168   8.965
32557SOL    HW297696   6.330   3.154   8.824
32558SOL     OW97697   6.258   3.478   7.602
32558SOL    HW197698   6.267   3.488   7.503
32558SOL    HW297699   6.218   3.389   7.623
32559SOL     OW97700   7.236   3.582   8.842
32559SOL    HW197701   7.289   3.592   8.758
32559SOL    HW297702   7.209   3.672   8.876
32560SOL     OW97703   7.427   2.037   8.411
32560SOL    HW197704   7.466   1.952   8.375
32560SOL    HW297705   7.329   2.039   8.392
32561SOL     OW97706   5.849   2.188   8.168
32561SOL    HW197707   5.770   2.239   8.134
32561SOL    HW297708   5.840   2.173   8.266
32562SOL     OW97709   6.780   3.474   7.479
32562SOL    HW197710   6.786   3.381   7.516
32562SOL    HW297711   6.721   3.474   7.399
32563SOL     OW97712   6.408   2.864   8.820
32563SOL    HW197713   6.448   2.863   8.728
32563SOL    HW297714   6.418   2.956   8.860
32564SOL     OW97715   6.502   2.772   7.739
32564SOL    HW197716   6.565   2.810   7.671
32564SOL    HW297717   6.542   2.689   7.778
32565SOL     OW97718   7.090   3.469   7.492
32565SOL    HW197719   6.998   3.506   7.499
32565SOL    HW297720   7.128   3.489   7.402
32566SOL     OW97721   5.958   3.150   8.938
32566SOL    HW197722   5.945   3.243   8.904
32566SOL    HW297723   5.874   3.098   8.925
32567SOL     OW97724   7.200   3.154   8.737
32567SOL    HW197725   7.260   3.157   8.817
32567SOL    HW297726   7.125   3.218   8.750
32568SOL     OW97727   6.625   2.960   8.144
32568SOL    HW197728   6.555   2.913   8.198
32568SOL    HW297729   6.684   2.892   8.101
32569SOL     OW97730   6.600   2.098   8.419
32569SOL    HW197731   6.592   2.062   8.326
32569SOL    HW297732   6.598   2.022   8.484
32570SOL     OW97733   6.176   3.349   7.939
32570SOL    HW197734   6.218   3.291   7.869
32570SOL    HW297735   6.132   3.428   7.895
32571SOL     OW97736   7.295   2.247   8.829
32571SOL    HW197737   7.368   2.316   8.833
32571SOL    HW297738   7.323   2.172   8.770
32572SOL     OW97739   5.841   3.210   7.738
32572SOL    HW197740   5.745   3.211   7.711
32572SOL    HW297741   5.853   3.263   7.822
32573SOL     OW97742   5.691   2.875   9.174
32573SOL    HW197743   5.614   2.842   9.228
32573SOL    HW297744   5.776   2.845   9.216
32574SOL     OW97745   6.258   2.065   8.937
32574SOL    HW197746   6.348   2.049   8.897
32574SOL    HW297747   6.266   2.070   9.036
32575SOL     OW97748   5.661   2.207   7.481
32575SOL    HW197749   5.569   2.179   7.452
32575SOL    HW297750   5.692   2.284   7.425
32576SOL     OW97751   7.026   2.718   8.846
32576SOL    HW197752   6.969   2.770   8.783
32576SOL    HW297753   7.122   2.730   8.822
32577SOL     OW97754   5.658   2.028   7.766
32577SOL    HW197755   5.641   2.111   7.712
32577SOL    HW297756   5.748   1.991   7.744
32578SOL     OW97757   6.769   3.197   7.567
32578SOL    HW197758   6.670   3.186   7.569
32578SOL    HW297759   6.803   3.212   7.660
32579SOL     OW97760   6.199   2.704   8.879
32579SOL    HW197761   6.255   2.785   8.862
32579SOL    HW297762   6.258   2.624   8.882
32580SOL     OW97763   7.079   3.629   8.407
32580SOL    HW197764   7.112   3.693   8.338
32580SOL    HW297765   7.145   3.623   8.482
32581SOL     OW97766   6.302   2.427   9.156
32581SOL    HW197767   6.321   2.492   9.230
32581SOL    HW297768   6.362   2.347   9.165
32582SOL     OW97769   7.036   3.082   9.081
32582SOL    HW197770   7.027   3.072   9.180
32582SOL    HW297771   7.132   3.075   9.055
32583SOL     OW97772   5.976   3.603   9.008
32583SOL    HW197773   5.885   3.644   9.006
32583SOL    HW297774   5.969   3.509   9.040
32584SOL     OW97775   7.260   2.745   8.702
32584SOL    HW197776   7.233   2.656   8.665
32584SOL    HW297777   7.261   2.813   8.629
32585SOL     OW97778   6.811   2.187   7.897
32585SOL    HW197779   6.876   2.113   7.886
32585SOL    HW297780   6.831   2.237   7.981
32586SOL     OW97781   6.180   2.607   8.100
32586SOL    HW197782   6.230   2.692   8.081
32586SOL    HW297783   6.092   2.609   8.052
32587SOL     OW97784   7.363   2.204   9.090
32587SOL    HW197785   7.346   2.235   8.996
32587SOL    HW297786   7.279   2.167   9.128
32588SOL     OW97787   7.316   2.796   8.965
32588SOL    HW197788   7.354   2.887   8.980
32588SOL    HW297789   7.308   2.779   8.866
32589SOL     OW97790   6.445   3.236   7.464
32589SOL    HW197791   6.399   3.251   7.552
32589SOL    HW297792   6.489   3.321   7.434
32590SOL     OW97793   6.247   3.652   8.401
32590SOL    HW197794   6.201   3.740   8.388
32590SOL    HW297795   6.346   3.664   8.394
32591SOL     OW97796   6.445   2.818   8.309
32591SOL    HW197797   6.499   2.749   8.357
32591SOL    HW297798   6.413   2.887   8.375
32592SOL     OW97799   6.669   2.846   7.535
32592SOL    HW197800   6.646   2.899   7.453
32592SOL    HW297801   6.750   2.790   7.516
32593SOL     OW97802   7.447   3.431   8.299
32593SOL    HW197803   7.376   3.419   8.229
32593SOL    HW297804   7.448   3.352   8.359
32594SOL     OW97805   5.807   3.176   9.292
32594SOL    HW197806   5.742   3.103   9.271
32594SOL    HW297807   5.811   3.190   9.390
32595SOL     OW97808   5.665   3.102   8.101
32595SOL    HW197809   5.664   3.055   8.189
32595SOL    HW297810   5.747   3.074   8.050
32596SOL     OW97811   6.258   3.253   9.072
32596SOL    HW197812   6.180   3.203   9.110
32596SOL    HW297813   6.255   3.348   9.103
32597SOL     OW97814   7.410   2.054   8.675
32597SOL    HW197815   7.406   1.964   8.719
32597SOL    HW297816   7.413   2.043   8.576
32598SOL     OW97817   6.014   2.286   7.968
32598SOL    HW197818   6.044   2.214   7.906
32598SOL    HW297819   5.975   2.246   8.051
32599SOL     OW97820   7.291   3.349   8.552
32599SOL    HW197821   7.198   3.324   8.525
32599SOL    HW297822   7.317   3.299   8.634
32600SOL     OW97823   5.903   2.409   8.728
32600SOL    HW197824   5.941   2.350   8.800
32600SOL    HW297825   5.943   2.383   8.640
32601SOL     OW97826   6.398   3.448   8.135
32601SOL    HW197827   6.430   3.458   8.041
32601SOL    HW297828   6.319   3.386   8.137
32602SOL     OW97829   7.010   2.076   8.560
32602SOL    HW197830   7.062   2.011   8.615
32602SOL    HW297831   6.961   2.139   8.621
32603SOL     OW97832   6.587   1.896   8.602
32603SOL    HW197833   6.524   1.824   8.571
32603SOL    HW297834   6.680   1.860   8.602
32604SOL     OW97835   6.356   3.192   7.749
32604SOL    HW197836   6.310   3.105   7.766
32604SOL    HW297837   6.447   3.189   7.790
32605SOL     OW97838   6.204   3.429   8.732
32605SOL    HW197839   6.199   3.511   8.789
32605SOL    HW297840   6.293   3.426   8.687
32606SOL     OW97841   6.938   1.914   7.616
32606SOL    HW197842   6.973   1.873   7.532
32606SOL    HW297843   6.848   1.876   7.636
32607SOL     OW97844   6.886   2.315   8.139
32607SOL    HW197845   6.827   2.395   8.143
32607SOL    HW297846   6.901   2.280   8.232
32608SOL     OW97847   7.179   2.083   8.330
32608SOL    HW197848   7.095   2.082   8.384
32608SOL    HW297849   7.181   2.166   8.274
32609SOL     OW97850   5.625   2.939   7.748
32609SOL    HW197851   5.724   2.928   7.739
32609SOL    HW297852   5.585   2.853   7.780
32610SOL     OW97853   6.461   3.508   7.785
32610SOL    HW197854   6.384   3.473   7.731
32610SOL    HW297855   6.429   3.579   7.847
32611SOL     OW97856   5.816   2.490   9.423
32611SOL    HW197857   5.723   2.488   9.460
32611SOL    HW297858   5.817   2.451   9.331
32612SOL     OW97859   5.811   2.137  10.306
32612SOL    HW197860   5.846   2.120  10.398
32612SOL    HW297861   5.723   2.092  10.294
32613SOL     OW97862   5.605   2.230   9.957
32613SOL    HW197863   5.523   2.273   9.996
32613SOL    HW297864   5.577   2.157   9.894
32614SOL     OW97865   6.155   3.137  10.475
32614SOL    HW197866   6.062   3.130  10.438
32614SOL    HW297867   6.166   3.226  10.519
32615SOL     OW97868   7.141   3.373  10.013
32615SOL    HW197869   7.084   3.357  10.094
32615SOL    HW297870   7.082   3.383   9.933
32616SOL     OW97871   6.721   2.565  10.027
32616SOL    HW197872   6.778   2.643  10.002
32616SOL    HW297873   6.661   2.591  10.103
32617SOL     OW97874   7.341   2.469   9.541
32617SOL    HW197875   7.329   2.456   9.442
32617SOL    HW297876   7.311   2.388   9.590
32618SOL     OW97877   6.354   3.006  10.333
32618SOL    HW197878   6.276   3.023  10.393
32618SOL    HW297879   6.388   3.093  10.297
32619SOL     OW97880   6.436   2.660  11.133
32619SOL    HW197881   6.432   2.736  11.198
32619SOL    HW297882   6.458   2.696  11.042
32620SOL     OW97883   6.271   2.874   9.975
32620SOL    HW197884   6.340   2.858  10.045
32620SOL    HW297885   6.198   2.931  10.013
32621SOL     OW97886   6.272   3.023  11.113
32621SOL    HW197887   6.332   3.102  11.127
32621SOL    HW297888   6.186   3.054  11.072
32622SOL     OW97889   5.921   3.297  10.371
32622SOL    HW197890   5.843   3.266  10.318
32622SOL    HW297891   5.979   3.355  10.314
32623SOL     OW97892   7.046   3.367  10.649
32623SOL    HW197893   7.070   3.461  10.675
32623SOL    HW297894   7.030   3.313  10.731
32624SOL     OW97895   6.024   2.254  10.809
32624SOL    HW197896   6.106   2.198  10.818
32624SOL    HW297897   5.943   2.196  10.813
32625SOL     OW97898   7.189   2.309  10.047
32625SOL    HW197899   7.115   2.355   9.997
32625SOL    HW297900   7.240   2.377  10.100
32626SOL     OW97901   5.817   3.575   9.793
32626SOL    HW197902   5.851   3.652   9.847
32626SOL    HW297903   5.861   3.575   9.703
32627SOL     OW97904   6.713   3.203  11.000
32627SOL    HW197905   6.760   3.203  11.088
32627SOL    HW297906   6.665   3.116  10.989
32628SOL     OW97907   5.816   3.296   9.848
32628SOL    HW197908   5.790   3.392   9.848
32628SOL    HW297909   5.745   3.242   9.893
32629SOL     OW97910   5.826   2.953  10.196
32629SOL    HW197911   5.840   2.869  10.248
32629SOL    HW297912   5.771   3.017  10.251
32630SOL     OW97913   6.206   3.648  10.749
32630SOL    HW197914   6.114   3.631  10.784
32630SOL    HW297915   6.234   3.740  10.775
32631SOL     OW97916   6.192   2.826   9.433
32631SOL    HW197917   6.199   2.910   9.379
32631SOL    HW297918   6.238   2.839   9.521
32632SOL     OW97919   7.180   1.976  10.790
32632SOL    HW197920   7.162   2.043  10.718
32632SOL    HW297921   7.177   2.022  10.879
32633SOL     OW97922   5.708   2.505   9.873
32633SOL    HW197923   5.663   2.417   9.890
32633SOL    HW297924   5.707   2.559   9.957
32634SOL     OW97925   7.428   3.629   9.669
32634SOL    HW197926   7.482   3.600   9.749
32634SOL    HW297927   7.458   3.719   9.640
32635SOL     OW97928   5.613   3.458   9.427
32635SOL    HW197929   5.594   3.362   9.448
32635SOL    HW297930   5.580   3.516   9.502
32636SOL     OW97931   7.275   2.784   9.922
32636SOL    HW197932   7.370   2.755   9.930
32636SOL    HW297933   7.267   2.849   9.847
32637SOL     OW97934   7.227   2.970   9.742
32637SOL    HW197935   7.313   2.972   9.690
32637SOL    HW297936   7.241   3.017   9.830
32638SOL     OW97937   5.699   2.599  10.907
32638SOL    HW197938   5.787   2.586  10.952
32638SOL    HW297939   5.686   2.696  10.885
32639SOL     OW97940   6.199   3.227  10.036
32639SOL    HW197941   6.150   3.140  10.045
32639SOL    HW297942   6.176   3.270   9.949
32640SOL     OW97943   6.879   3.090  10.733
32640SOL    HW197944   6.916   3.017  10.675
32640SOL    HW297945   6.931   3.095  10.818
32641SOL     OW97946   6.395   1.866   9.812
32641SOL    HW197947   6.435   1.957   9.803
32641SOL    HW297948   6.295   1.874   9.818
32642SOL     OW97949   5.783   2.838  10.574
32642SOL    HW197950   5.872   2.793  10.560
32642SOL    HW297951   5.710   2.773  10.555
32643SOL     OW97952   7.111   2.861   9.500
32643SOL    HW197953   7.048   2.785   9.513
32643SOL    HW297954   7.159   2.879   9.586
32644SOL     OW97955   6.773   3.654  10.926
32644SOL    HW197956   6.797   3.714  10.850
32644SOL    HW297957   6.780   3.559  10.896
32645SOL     OW97958   5.903   2.113  11.111
32645SOL    HW197959   5.974   2.184  11.117
32645SOL    HW297960   5.815   2.152  11.139
32646SOL     OW97961   7.052   3.279  10.263
32646SOL    HW197962   6.993   3.285  10.343
32646SOL    HW297963   7.037   3.191  10.217
32647SOL     OW97964   7.253   3.576   9.882
32647SOL    HW197965   7.212   3.553   9.794
32647SOL    HW297966   7.235   3.502   9.947
32648SOL     OW97967   6.184   2.591   9.580
32648SOL    HW197968   6.208   2.660   9.512
32648SOL    HW297969   6.106   2.624   9.634
32649SOL     OW97970   6.867   2.207  10.254
32649SOL    HW197971   6.781   2.157  10.241
32649SOL    HW297972   6.929   2.153  10.310
32650SOL     OW97973   7.162   3.524   9.617
32650SOL    HW197974   7.251   3.570   9.620
32650SOL    HW297975   7.141   3.500   9.522
32651SOL     OW97976   6.393   2.467  10.775
32651SOL    HW197977   6.346   2.464  10.864
32651SOL    HW297978   6.342   2.412  10.709
32652SOL     OW97979   6.980   2.331  10.984
32652SOL    HW197980   6.960   2.374  11.072
32652SOL    HW297981   7.058   2.269  10.993
32653SOL     OW97982   6.559   2.752  10.882
32653SOL    HW197983   6.605   2.668  10.853
32653SOL    HW297984   6.503   2.786  10.807
32654SOL     OW97985   6.577   2.272  10.552
32654SOL    HW197986   6.500   2.306  10.606
32654SOL    HW297987   6.543   2.221  10.473
32655SOL     OW97988   6.627   2.563   9.739
32655SOL    HW197989   6.653   2.559   9.835
32655SOL    HW297990   6.542   2.512   9.725
32656SOL     OW97991   5.662   2.673  10.099
32656SOL    HW197992   5.761   2.661  10.108
32656SOL    HW297993   5.638   2.768  10.120
32657SOL     OW97994   5.716   3.683  10.881
32657SOL    HW197995   5.706   3.668  10.980
32657SOL    HW297996   5.630   3.719  10.845
32658SOL     OW97997   6.451   2.210   9.505
32658SOL    HW197998   6.510   2.273   9.456
32658SOL    HW297999   6.470   2.116   9.476
32659SOL     OW98000   7.305   2.447  11.141
32659SOL    HW198001   7.279   2.536  11.105
32659SOL    HW298002   7.303   2.379  11.068
32660SOL     OW98003   6.948   3.006   9.855
32660SOL    HW198004   7.031   2.977   9.807
32660SOL    HW298005   6.899   3.073   9.799
32661SOL     OW98006   6.136   2.058  10.195
32661SOL    HW198007   6.131   2.053  10.295
32661SOL    HW298008   6.138   2.154  10.166
32662SOL     OW98009   6.594   3.318   9.787
32662SOL    HW198010   6.548   3.390   9.735
32662SOL    HW298011   6.590   3.338   9.885
32663SOL     OW98012   5.937   3.663  10.163
32663SOL    HW198013   5.987   3.577  10.169
32663SOL    HW298014   6.002   3.740  10.160
32664SOL     OW98015   7.381   2.928  10.183
32664SOL    HW198016   7.319   2.913  10.107
32664SOL    HW298017   7.329   2.939  10.268
32665SOL     OW98018   6.813   3.412  10.816
32665SOL    HW198019   6.819   3.335  10.880
32665SOL    HW298020   6.761   3.386  10.736
32666SOL     OW98021   5.907   2.805   9.552
32666SOL    HW198022   5.989   2.844   9.510
32666SOL    HW298023   5.880   2.723   9.503
32667SOL     OW98024   7.044   2.597  10.038
32667SOL    HW198025   7.039   2.532  10.113
32667SOL    HW298026   7.124   2.656  10.051
32668SOL     OW98027   6.047   3.128  11.037
32668SOL    HW198028   5.997   3.129  10.951
32668SOL    HW298029   5.984   3.110  11.113
32669SOL     OW98030   6.697   3.638   9.547
32669SOL    HW198031   6.637   3.576   9.597
32669SOL    HW298032   6.728   3.594   9.462
32670SOL     OW98033   5.788   2.147  10.808
32670SOL    HW198034   5.708   2.207  10.795
32670SOL    HW298035   5.778   2.098  10.894
32671SOL     OW98036   7.218   3.239   9.391
32671SOL    HW198037   7.186   3.333   9.381
32671SOL    HW298038   7.142   3.176   9.379
32672SOL     OW98039   6.050   3.605   9.633
32672SOL    HW198040   6.083   3.644   9.719
32672SOL    HW298041   6.126   3.598   9.568
32673SOL     OW98042   6.986   1.969   9.736
32673SOL    HW198043   6.962   1.932   9.646
32673SOL    HW298044   7.085   1.985   9.740
32674SOL     OW98045   5.835   3.647  10.551
32674SOL    HW198046   5.892   3.582  10.601
32674SOL    HW298047   5.819   3.614  10.458
32675SOL     OW98048   6.526   3.560  10.214
32675SOL    HW198049   6.606   3.503  10.235
32675SOL    HW298050   6.477   3.520  10.137
32676SOL     OW98051   5.968   2.562   9.790
32676SOL    HW198052   6.013   2.472   9.787
32676SOL    HW298053   5.874   2.551   9.823
32677SOL     OW98054   7.133   2.084  11.039
32677SOL    HW198055   7.128   2.121  11.131
32677SOL    HW298056   7.061   2.015  11.027
32678SOL     OW98057   6.200   1.984   9.427
32678SOL    HW198058   6.298   1.962   9.434
32678SOL    HW298059   6.169   1.967   9.334
32679SOL     OW98060   6.367   2.126  11.059
32679SOL    HW198061   6.434   2.065  11.102
32679SOL    HW298062   6.294   2.145  11.124
32680SOL     OW98063   6.474   3.376  10.505
32680SOL    HW198064   6.451   3.351  10.411
32680SOL    HW298065   6.535   3.307  10.544
32681SOL     OW98066   6.937   2.452  10.743
32681SOL    HW198067   6.965   2.409  10.828
32681SOL    HW298068   6.962   2.548  10.744
32682SOL     OW98069   6.389   3.264  10.234
32682SOL    HW198070   6.479   3.278  10.192
32682SOL    HW298071   6.318   3.266  10.163
32683SOL     OW98072   6.508   2.365  10.209
32683SOL    HW198073   6.483   2.356  10.113
32683SOL    HW298074   6.556   2.283  10.240
32684SOL     OW98075   6.125   1.926   9.822
32684SOL    HW198076   6.044   1.927   9.880
32684SOL    HW298077   6.128   2.009   9.767
32685SOL     OW98078   7.020   3.050   9.351
32685SOL    HW198079   7.052   2.974   9.408
32685SOL    HW298080   6.928   3.077   9.381
32686SOL     OW98081   5.883   1.897   9.481
32686SOL    HW198082   5.932   1.981   9.460
32686SOL    HW298083   5.945   1.832   9.526
32687SOL     OW98084   6.521   2.098   9.790
32687SOL    HW198085   6.473   2.139   9.712
32687SOL    HW298086   6.620   2.096   9.771
32688SOL     OW98087   6.662   2.545  10.774
32688SOL    HW198088   6.582   2.484  10.777
32688SOL    HW298089   6.743   2.492  10.750
32689SOL     OW98090   6.813   3.432  10.103
32689SOL    HW198091   6.834   3.506  10.038
32689SOL    HW298092   6.881   3.432  10.176
32690SOL     OW98093   6.045   3.014  10.051
32690SOL    HW198094   5.974   2.987  10.116
32690SOL    HW298095   6.019   2.986   9.958
32691SOL     OW98096   6.857   3.659   9.901
32691SOL    HW198097   6.901   3.723   9.837
32691SOL    HW298098   6.807   3.711   9.971
32692SOL     OW98099   6.618   2.411   9.326
32692SOL    HW198100   6.577   2.493   9.287
32692SOL    HW298101   6.682   2.437   9.399
32693SOL     OW98102   5.664   2.418  10.696
32693SOL    HW198103   5.756   2.417  10.655
32693SOL    HW298104   5.658   2.492  10.763
32694SOL     OW98105   6.147   2.084  10.457
32694SOL    HW198106   6.185   2.000  10.494
32694SOL    HW298107   6.059   2.103  10.501
32695SOL     OW98108   6.452   2.316   9.952
32695SOL    HW198109   6.420   2.388   9.890
32695SOL    HW298110   6.476   2.235   9.899
32696SOL     OW98111   6.603   1.901  10.063
32696SOL    HW198112   6.531   1.906   9.994
32696SOL    HW298113   6.579   1.832  10.132
32697SOL     OW98114   7.015   3.035  10.177
32697SOL    HW198115   6.960   2.951  10.170
32697SOL    HW298116   7.041   3.064  10.085
32698SOL     OW98117   7.052   2.452  10.302
32698SOL    HW198118   7.022   2.357  10.309
32698SOL    HW298119   7.125   2.468  10.368
32699SOL     OW98120   7.443   2.695   9.687
32699SOL    HW198121   7.485   2.631   9.751
32699SOL    HW298122   7.405   2.644   9.609
32700SOL     OW98123   6.074   3.247   9.484
32700SOL    HW198124   5.987   3.232   9.531
32700SOL    HW298125   6.057   3.273   9.389
32701SOL     OW98126   7.250   3.142   9.967
32701SOL    HW198127   7.349   3.150   9.981
32701SOL    HW298128   7.205   3.226   9.998
32702SOL     OW98129   6.976   2.437   9.388
32702SOL    HW198130   6.922   2.416   9.469
32702SOL    HW298131   7.067   2.396   9.397
32703SOL     OW98132   6.113   2.118   9.638
32703SOL    HW198133   6.140   2.059   9.563
32703SOL    HW298134   6.113   2.213   9.607
32704SOL     OW98135   7.340   3.085  10.898
32704SOL    HW198136   7.431   3.046  10.885
32704SOL    HW298137   7.348   3.181  10.922
32705SOL     OW98138   6.650   3.209  10.650
32705SOL    HW198139   6.570   3.186  10.705
32705SOL    HW298140   6.733   3.183  10.699
32706SOL     OW98141   7.178   3.491  10.935
32706SOL    HW198142   7.205   3.525  10.845
32706SOL    HW298143   7.257   3.453  10.981
32707SOL     OW98144   6.697   3.057  10.410
32707SOL    HW198145   6.657   3.101  10.491
32707SOL    HW298146   6.656   3.094  10.327
32708SOL     OW98147   7.224   2.961  10.389
32708SOL    HW198148   7.229   3.042  10.448
32708SOL    HW298149   7.138   2.963  10.338
32709SOL     OW98150   6.501   1.951  10.712
32709SOL    HW198151   6.526   1.931  10.617
32709SOL    HW298152   6.573   2.007  10.754
32710SOL     OW98153   6.566   2.978  11.029
32710SOL    HW198154   6.467   2.984  11.039
32710SOL    HW298155   6.589   2.898  10.973
32711SOL     OW98156   6.291   2.912   9.678
32711SOL    HW198157   6.277   2.919   9.777
32711SOL    HW298158   6.375   2.861   9.660
32712SOL     OW98159   5.996   2.675  10.561
32712SOL    HW198160   6.082   2.687  10.611
32712SOL    HW298161   5.954   2.588  10.588
32713SOL     OW98162   6.860   2.248  10.572
32713SOL    HW198163   6.881   2.322  10.636
32713SOL    HW298164   6.771   2.265  10.529
32714SOL     OW98165   5.650   3.426  10.641
32714SOL    HW198166   5.604   3.508  10.607
32714SOL    HW298167   5.748   3.445  10.650
32715SOL     OW98168   5.953   2.962   9.811
32715SOL    HW198169   5.946   3.045   9.755
32715SOL    HW298170   5.957   2.882   9.751
32716SOL     OW98171   6.152   2.399  10.175
32716SOL    HW198172   6.164   2.465  10.101
32716SOL    HW298173   6.198   2.433  10.258
32717SOL     OW98174   6.838   3.210   9.698
32717SOL    HW198175   6.888   3.287   9.738
32717SOL    HW298176   6.743   3.212   9.730
32718SOL     OW98177   6.858   3.307  10.452
32718SOL    HW198178   6.905   3.320  10.539
32718SOL    HW298179   6.792   3.233  10.461
32719SOL     OW98180   7.168   2.501   9.782
32719SOL    HW198181   7.137   2.562   9.855
32719SOL    HW298182   7.218   2.553   9.713
32720SOL     OW98183   5.940   3.372  10.639
32720SOL    HW198184   5.919   3.328  10.552
32720SOL    HW298185   6.037   3.398  10.642
32721SOL     OW98186   5.988   2.613  10.908
32721SOL    HW198187   6.056   2.668  10.861
32721SOL    HW298188   6.028   2.525  10.935
32722SOL     OW98189   7.173   2.641  10.980
32722SOL    HW198190   7.081   2.679  10.975
32722SOL    HW298191   7.233   2.688  10.915
32723SOL     OW98192   6.599   1.967  11.080
32723SOL    HW198193   6.605   2.052  11.028
32723SOL    HW298194   6.631   1.891  11.023
32724SOL     OW98195   6.090   1.912  11.050
32724SOL    HW198196   6.048   1.855  10.980
32724SOL    HW298197   6.024   1.981  11.082
32725SOL     OW98198   6.159   2.732  10.339
32725SOL    HW198199   6.203   2.821  10.330
32725SOL    HW298200   6.096   2.732  10.416
32726SOL     OW98201   6.946   2.724  10.355
32726SOL    HW198202   6.871   2.724  10.289
32726SOL    HW298203   6.983   2.632  10.364
32727SOL     OW98204   6.795   2.387   9.585
32727SOL    HW198205   6.808   2.303   9.639
32727SOL    HW298206   6.766   2.461   9.645
32728SOL     OW98207   5.893   2.075  10.541
32728SOL    HW198208   5.870   2.112  10.631
32728SOL    HW298209   5.863   1.980  10.535
32729SOL     OW98210   5.623   3.172  10.592
32729SOL    HW198211   5.676   3.123  10.660
32729SOL    HW298212   5.645   3.270  10.597
32730SOL     OW98213   6.318   2.496  10.374
32730SOL    HW198214   6.377   2.470  10.298
32730SOL    HW298215   6.290   2.592  10.363
32731SOL     OW98216   7.314   2.797  11.164
32731SOL    HW198217   7.268   2.790  11.075
32731SOL    HW298218   7.252   2.841  11.230
32732SOL     OW98219   5.893   1.925   9.928
32732SOL    HW198220   5.882   2.019   9.961
32732SOL    HW298221   5.888   1.862  10.005
32733SOL     OW98222   7.208   2.229   9.684
32733SOL    HW198223   7.210   2.153   9.748
32733SOL    HW298224   7.160   2.306   9.724
32734SOL     OW98225   6.609   2.628  10.276
32734SOL    HW198226   6.624   2.649  10.372
32734SOL    HW298227   6.579   2.533  10.267
32735SOL     OW98228   6.566   3.435  11.010
32735SOL    HW198229   6.546   3.479  10.922
32735SOL    HW298230   6.605   3.344  10.994
32736SOL     OW98231   7.445   3.380  10.915
32736SOL    HW198232   7.459   3.407  10.820
32736SOL    HW298233   7.528   3.402  10.968
32737SOL     OW98234   5.936   2.760  11.114
32737SOL    HW198235   6.012   2.804  11.162
32737SOL    HW298236   5.971   2.713  11.032
32738SOL     OW98237   7.126   2.136   9.435
32738SOL    HW198238   7.065   2.061   9.458
32738SOL    HW298239   7.148   2.188   9.518
32739SOL     OW98240   6.889   2.700   9.352
32739SOL    HW198241   6.923   2.607   9.367
32739SOL    HW298242   6.907   2.727   9.257
32740SOL     OW98243   6.654   3.195  10.159
32740SOL    HW198244   6.661   3.111  10.104
32740SOL    HW298245   6.716   3.264  10.123
32741SOL     OW98246   5.905   2.672  10.259
32741SOL    HW198247   5.998   2.708  10.264
32741SOL    HW298248   5.899   2.587  10.311
32742SOL     OW98249   5.925   2.371  10.316
32742SOL    HW198250   5.873   2.288  10.299
32742SOL    HW298251   6.002   2.376  10.252
32743SOL     OW98252   6.724   2.242  10.988
32743SOL    HW198253   6.679   2.305  11.052
32743SOL    HW298254   6.817   2.273  10.971
32744SOL     OW98255   6.746   2.069  10.787
32744SOL    HW198256   6.746   2.133  10.864
32744SOL    HW298257   6.774   2.117  10.704
32745SOL     OW98258   5.594   3.188   9.510
32745SOL    HW198259   5.501   3.209   9.479
32745SOL    HW298260   5.604   3.089   9.523
32746SOL     OW98261   5.674   3.663  10.237
32746SOL    HW198262   5.632   3.577  10.210
32746SOL    HW298263   5.768   3.666  10.203
32747SOL     OW98264   6.090   3.430  10.220
32747SOL    HW198265   6.156   3.504  10.229
32747SOL    HW298266   6.134   3.351  10.178
32748SOL     OW98267   6.588   2.658  10.548
32748SOL    HW198268   6.629   2.626  10.634
32748SOL    HW298269   6.492   2.631  10.545
32749SOL     OW98270   5.626   2.406  10.424
32749SOL    HW198271   5.711   2.373  10.383
32749SOL    HW298272   5.639   2.421  10.522
32750SOL     OW98273   5.775   2.382  11.032
32750SOL    HW198274   5.834   2.342  10.962
32750SOL    HW298275   5.717   2.453  10.991
32751SOL     OW98276   6.955   2.812  10.970
32751SOL    HW198277   6.994   2.901  10.990
32751SOL    HW298278   6.965   2.792  10.873
32752SOL     OW98279   6.401   2.434   9.635
32752SOL    HW198280   6.408   2.345   9.589
32752SOL    HW298281   6.307   2.468   9.627
32753SOL     OW98282   7.243   2.466  10.516
32753SOL    HW198283   7.205   2.397  10.578
32753SOL    HW298284   7.325   2.430  10.472
32754SOL     OW98285   5.838   3.426  11.054
32754SOL    HW198286   5.808   3.483  11.130
32754SOL    HW298287   5.831   3.329  11.080
32755SOL     OW98288   6.257   2.326  10.579
32755SOL    HW198289   6.223   2.237  10.549
32755SOL    HW298290   6.283   2.380  10.499
32756SOL     OW98291   6.516   3.540  10.775
32756SOL    HW198292   6.492   3.522  10.680
32756SOL    HW298293   6.546   3.634  10.785
32757SOL     OW98294   6.059   2.362   9.501
32757SOL    HW198295   6.120   2.442   9.505
32757SOL    HW298296   5.964   2.393   9.508
32758SOL     OW98297   5.745   2.999  10.776
32758SOL    HW198298   5.767   2.938  10.852
32758SOL    HW298299   5.755   2.950  10.690
32759SOL     OW98300   6.933   2.921  10.544
32759SOL    HW198301   6.957   2.858  10.470
32759SOL    HW298302   6.843   2.961  10.526
32760SOL     OW98303   6.888   2.717   9.619
32760SOL    HW198304   6.802   2.686   9.661
32760SOL    HW298305   6.884   2.703   9.520
32761SOL     OW98306   7.345   3.609  10.464
32761SOL    HW198307   7.406   3.639  10.391
32761SOL    HW298308   7.307   3.520  10.442
32762SOL     OW98309   6.838   3.593  10.438
32762SOL    HW198310   6.922   3.598  10.384
32762SOL    HW298311   6.815   3.497  10.456
32763SOL     OW98312   5.669   3.120  10.332
32763SOL    HW198313   5.664   3.119  10.432
32763SOL    HW298314   5.586   3.079  10.294
32764SOL     OW98315   6.274   3.524  11.026
32764SOL    HW198316   6.218   3.605  11.035
32764SOL    HW298317   6.326   3.528  10.940
32765SOL     OW98318   7.312   1.997   9.833
32765SOL    HW198319   7.385   1.980   9.766
32765SOL    HW298320   7.281   1.910   9.871
32766SOL     OW98321   6.974   3.435   9.787
32766SOL    HW198322   7.041   3.447   9.713
32766SOL    HW298323   6.934   3.524   9.810
32767SOL     OW98324   5.716   3.656  11.161
32767SOL    HW198325   5.675   3.582  11.214
32767SOL    HW298326   5.780   3.707  11.219
32768SOL     OW98327   6.866   2.789   9.982
32768SOL    HW198328   6.926   2.708   9.984
32768SOL    HW298329   6.906   2.858   9.922
32769SOL     OW98330   6.416   3.135  10.732
32769SOL    HW198331   6.411   3.168  10.827
32769SOL    HW298332   6.330   3.154  10.686
32770SOL     OW98333   6.258   3.478   9.464
32770SOL    HW198334   6.267   3.488   9.365
32770SOL    HW298335   6.218   3.389   9.485
32771SOL     OW98336   7.236   3.582  10.704
32771SOL    HW198337   7.289   3.592  10.620
32771SOL    HW298338   7.209   3.672  10.738
32772SOL     OW98339   7.427   2.037  10.273
32772SOL    HW198340   7.466   1.952  10.237
32772SOL    HW298341   7.329   2.039  10.254
32773SOL     OW98342   5.849   2.188  10.030
32773SOL    HW198343   5.770   2.239   9.996
32773SOL    HW298344   5.840   2.173  10.128
32774SOL     OW98345   6.780   3.474   9.341
32774SOL    HW198346   6.786   3.381   9.378
32774SOL    HW298347   6.721   3.474   9.261
32775SOL     OW98348   6.408   2.864  10.682
32775SOL    HW198349   6.448   2.863  10.590
32775SOL    HW298350   6.418   2.956  10.722
32776SOL     OW98351   6.502   2.772   9.601
32776SOL    HW198352   6.565   2.810   9.533
32776SOL    HW298353   6.542   2.689   9.640
32777SOL     OW98354   7.090   3.469   9.354
32777SOL    HW198355   6.998   3.506   9.361
32777SOL    HW298356   7.128   3.489   9.264
32778SOL     OW98357   5.958   3.150  10.800
32778SOL    HW198358   5.945   3.243  10.766
32778SOL    HW298359   5.874   3.098  10.787
32779SOL     OW98360   7.200   3.154  10.599
32779SOL    HW198361   7.260   3.157  10.679
32779SOL    HW298362   7.125   3.218  10.612
32780SOL     OW98363   6.625   2.960  10.006
32780SOL    HW198364   6.555   2.913  10.060
32780SOL    HW298365   6.684   2.892   9.963
32781SOL     OW98366   6.600   2.098  10.281
32781SOL    HW198367   6.592   2.062  10.188
32781SOL    HW298368   6.598   2.022  10.346
32782SOL     OW98369   6.176   3.349   9.801
32782SOL    HW198370   6.218   3.291   9.731
32782SOL    HW298371   6.132   3.428   9.757
32783SOL     OW98372   7.295   2.247  10.691
32783SOL    HW198373   7.368   2.316  10.695
32783SOL    HW298374   7.323   2.172  10.632
32784SOL     OW98375   5.841   3.210   9.600
32784SOL    HW198376   5.745   3.211   9.573
32784SOL    HW298377   5.853   3.263   9.684
32785SOL     OW98378   5.691   2.875  11.036
32785SOL    HW198379   5.614   2.842  11.090
32785SOL    HW298380   5.776   2.845  11.078
32786SOL     OW98381   6.258   2.065  10.799
32786SOL    HW198382   6.348   2.049  10.759
32786SOL    HW298383   6.266   2.070  10.898
32787SOL     OW98384   5.661   2.207   9.343
32787SOL    HW198385   5.569   2.179   9.314
32787SOL    HW298386   5.692   2.284   9.287
32788SOL     OW98387   7.026   2.718  10.708
32788SOL    HW198388   6.969   2.770  10.645
32788SOL    HW298389   7.122   2.730  10.684
32789SOL     OW98390   5.658   2.028   9.628
32789SOL    HW198391   5.641   2.111   9.574
32789SOL    HW298392   5.748   1.991   9.606
32790SOL     OW98393   6.769   3.197   9.429
32790SOL    HW198394   6.670   3.186   9.431
32790SOL    HW298395   6.803   3.212   9.522
32791SOL     OW98396   6.199   2.704  10.741
32791SOL    HW198397   6.255   2.785  10.724
32791SOL    HW298398   6.258   2.624  10.744
32792SOL     OW98399   7.079   3.629  10.269
32792SOL    HW198400   7.112   3.693  10.200
32792SOL    HW298401   7.145   3.623  10.344
32793SOL     OW98402   6.302   2.427  11.018
32793SOL    HW198403   6.321   2.492  11.092
32793SOL    HW298404   6.362   2.347  11.027
32794SOL     OW98405   7.036   3.082  10.943
32794SOL    HW198406   7.027   3.072  11.042
32794SOL    HW298407   7.132   3.075  10.917
32795SOL     OW98408   5.976   3.603  10.870
32795SOL    HW198409   5.885   3.644  10.868
32795SOL    HW298410   5.969   3.509  10.902
32796SOL     OW98411   7.260   2.745  10.564
32796SOL    HW198412   7.233   2.656  10.527
32796SOL    HW298413   7.261   2.813  10.491
32797SOL     OW98414   6.811   2.187   9.759
32797SOL    HW198415   6.876   2.113   9.748
32797SOL    HW298416   6.831   2.237   9.843
32798SOL     OW98417   6.180   2.607   9.962
32798SOL    HW198418   6.230   2.692   9.943
32798SOL    HW298419   6.092   2.609   9.914
32799SOL     OW98420   7.363   2.204  10.952
32799SOL    HW198421   7.346   2.235  10.858
32799SOL    HW298422   7.279   2.167  10.990
32800SOL     OW98423   7.316   2.796  10.827
32800SOL    HW198424   7.354   2.887  10.842
32800SOL    HW298425   7.308   2.779  10.728
32801SOL     OW98426   6.445   3.236   9.326
32801SOL    HW198427   6.399   3.251   9.414
32801SOL    HW298428   6.489   3.321   9.296
32802SOL     OW98429   6.247   3.652  10.263
32802SOL    HW198430   6.201   3.740  10.250
32802SOL    HW298431   6.346   3.664  10.256
32803SOL     OW98432   6.445   2.818  10.171
32803SOL    HW198433   6.499   2.749  10.219
32803SOL    HW298434   6.413   2.887  10.237
32804SOL     OW98435   6.669   2.846   9.397
32804SOL    HW198436   6.646   2.899   9.315
32804SOL    HW298437   6.750   2.790   9.378
32805SOL     OW98438   7.447   3.431  10.161
32805SOL    HW198439   7.376   3.419  10.091
32805SOL    HW298440   7.448   3.352  10.221
32806SOL     OW98441   5.807   3.176  11.154
32806SOL    HW198442   5.742   3.103  11.133
32806SOL    HW298443   5.811   3.190  11.252
32807SOL     OW98444   5.665   3.102   9.963
32807SOL    HW198445   5.664   3.055  10.051
32807SOL    HW298446   5.747   3.074   9.912
32808SOL     OW98447   6.258   3.253  10.934
32808SOL    HW198448   6.180   3.203  10.972
32808SOL    HW298449   6.255   3.348  10.965
32809SOL     OW98450   7.410   2.054  10.537
32809SOL    HW198451   7.406   1.964  10.581
32809SOL    HW298452   7.413   2.043  10.438
32810SOL     OW98453   6.014   2.286   9.830
32810SOL    HW198454   6.044   2.214   9.768
32810SOL    HW298455   5.975   2.246   9.913
32811SOL     OW98456   7.291   3.349  10.414
32811SOL    HW198457   7.198   3.324  10.387
32811SOL    HW298458   7.317   3.299  10.496
32812SOL     OW98459   5.903   2.409  10.590
32812SOL    HW198460   5.941   2.350  10.662
32812SOL    HW298461   5.943   2.383  10.502
32813SOL     OW98462   6.398   3.448   9.997
32813SOL    HW198463   6.430   3.458   9.903
32813SOL    HW298464   6.319   3.386   9.999
32814SOL     OW98465   7.010   2.076  10.422
32814SOL    HW198466   7.062   2.011  10.477
32814SOL    HW298467   6.961   2.139  10.483
32815SOL     OW98468   6.587   1.896  10.464
32815SOL    HW198469   6.524   1.824  10.433
32815SOL    HW298470   6.680   1.860  10.464
32816SOL     OW98471   6.356   3.192   9.611
32816SOL    HW198472   6.310   3.105   9.628
32816SOL    HW298473   6.447   3.189   9.652
32817SOL     OW98474   6.204   3.429  10.594
32817SOL    HW198475   6.199   3.511  10.651
32817SOL    HW298476   6.293   3.426  10.549
32818SOL     OW98477   6.938   1.914   9.478
32818SOL    HW198478   6.973   1.873   9.394
32818SOL    HW298479   6.848   1.876   9.498
32819SOL     OW98480   6.886   2.315  10.001
32819SOL    HW198481   6.827   2.395  10.005
32819SOL    HW298482   6.901   2.280  10.094
32820SOL     OW98483   7.179   2.083  10.192
32820SOL    HW198484   7.095   2.082  10.246
32820SOL    HW298485   7.181   2.166  10.136
32821SOL     OW98486   5.625   2.939   9.610
32821SOL    HW198487   5.724   2.928   9.601
32821SOL    HW298488   5.585   2.853   9.642
32822SOL     OW98489   6.461   3.508   9.647
32822SOL    HW198490   6.384   3.473   9.593
32822SOL    HW298491   6.429   3.579   9.709
32823SOL     OW98492   5.816   2.490  11.285
32823SOL    HW198493   5.723   2.488  11.322
32823SOL    HW298494   5.817   2.451  11.193
32824SOL     OW98495   5.811   2.137  12.168
32824SOL    HW198496   5.846   2.120  12.260
32824SOL    HW298497   5.723   2.092  12.156
32825SOL     OW98498   5.605   2.230  11.819
32825SOL    HW198499   5.523   2.273  11.858
32825SOL    HW298500   5.577   2.157  11.756
32826SOL     OW98501   6.155   3.137  12.337
32826SOL    HW198502   6.062   3.130  12.300
32826SOL    HW298503   6.166   3.226  12.381
32827SOL     OW98504   7.141   3.373  11.875
32827SOL    HW198505   7.084   3.357  11.956
32827SOL    HW298506   7.082   3.383  11.795
32828SOL     OW98507   6.721   2.565  11.889
32828SOL    HW198508   6.778   2.643  11.864
32828SOL    HW298509   6.661   2.591  11.965
32829SOL     OW98510   7.341   2.469  11.403
32829SOL    HW198511   7.329   2.456  11.304
32829SOL    HW298512   7.311   2.388  11.452
32830SOL     OW98513   6.354   3.006  12.195
32830SOL    HW198514   6.276   3.023  12.255
32830SOL    HW298515   6.388   3.093  12.159
32831SOL     OW98516   6.271   2.874  11.837
32831SOL    HW198517   6.340   2.858  11.907
32831SOL    HW298518   6.198   2.931  11.875
32832SOL     OW98519   5.921   3.297  12.233
32832SOL    HW198520   5.843   3.266  12.180
32832SOL    HW298521   5.979   3.355  12.176
32833SOL     OW98522   7.046   3.367  12.511
32833SOL    HW198523   7.070   3.461  12.537
32833SOL    HW298524   7.030   3.313  12.593
32834SOL     OW98525   6.024   2.254  12.671
32834SOL    HW198526   6.106   2.198  12.680
32834SOL    HW298527   5.943   2.196  12.675
32835SOL     OW98528   7.189   2.309  11.909
32835SOL    HW198529   7.115   2.355  11.859
32835SOL    HW298530   7.240   2.377  11.962
32836SOL     OW98531   5.817   3.575  11.655
32836SOL    HW198532   5.851   3.652  11.709
32836SOL    HW298533   5.861   3.575  11.565
32837SOL     OW98534   5.816   3.296  11.710
32837SOL    HW198535   5.790   3.392  11.710
32837SOL    HW298536   5.745   3.242  11.755
32838SOL     OW98537   5.826   2.953  12.058
32838SOL    HW198538   5.840   2.869  12.110
32838SOL    HW298539   5.771   3.017  12.113
32839SOL     OW98540   6.206   3.648  12.611
32839SOL    HW198541   6.114   3.631  12.646
32839SOL    HW298542   6.234   3.740  12.637
32840SOL     OW98543   6.192   2.826  11.295
32840SOL    HW198544   6.199   2.910  11.241
32840SOL    HW298545   6.238   2.839  11.383
32841SOL     OW98546   7.180   1.976  12.652
32841SOL    HW198547   7.162   2.043  12.580
32841SOL    HW298548   7.177   2.022  12.741
32842SOL     OW98549   5.708   2.505  11.735
32842SOL    HW198550   5.663   2.417  11.752
32842SOL    HW298551   5.707   2.559  11.819
32843SOL     OW98552   7.428   3.629  11.531
32843SOL    HW198553   7.482   3.600  11.611
32843SOL    HW298554   7.458   3.719  11.502
32844SOL     OW98555   5.613   3.458  11.289
32844SOL    HW198556   5.594   3.362  11.310
32844SOL    HW298557   5.580   3.516  11.364
32845SOL     OW98558   7.275   2.784  11.784
32845SOL    HW198559   7.370   2.755  11.792
32845SOL    HW298560   7.267   2.849  11.709
32846SOL     OW98561   7.227   2.970  11.604
32846SOL    HW198562   7.313   2.972  11.552
32846SOL    HW298563   7.241   3.017  11.692
32847SOL     OW98564   5.699   2.599  12.769
32847SOL    HW198565   5.787   2.586  12.814
32847SOL    HW298566   5.686   2.696  12.747
32848SOL     OW98567   6.199   3.227  11.898
32848SOL    HW198568   6.150   3.140  11.907
32848SOL    HW298569   6.176   3.270  11.811
32849SOL     OW98570   6.879   3.090  12.595
32849SOL    HW198571   6.916   3.017  12.537
32849SOL    HW298572   6.931   3.095  12.680
32850SOL     OW98573   6.395   1.866  11.674
32850SOL    HW198574   6.435   1.957  11.665
32850SOL    HW298575   6.295   1.874  11.680
32851SOL     OW98576   5.783   2.838  12.436
32851SOL    HW198577   5.872   2.793  12.422
32851SOL    HW298578   5.710   2.773  12.417
32852SOL     OW98579   7.111   2.861  11.362
32852SOL    HW198580   7.048   2.785  11.375
32852SOL    HW298581   7.159   2.879  11.448
32853SOL     OW98582   7.052   3.279  12.125
32853SOL    HW198583   6.993   3.285  12.205
32853SOL    HW298584   7.037   3.191  12.079
32854SOL     OW98585   7.253   3.576  11.744
32854SOL    HW198586   7.212   3.553  11.656
32854SOL    HW298587   7.235   3.502  11.809
32855SOL     OW98588   6.184   2.591  11.442
32855SOL    HW198589   6.208   2.660  11.374
32855SOL    HW298590   6.106   2.624  11.496
32856SOL     OW98591   6.867   2.207  12.116
32856SOL    HW198592   6.781   2.157  12.103
32856SOL    HW298593   6.929   2.153  12.172
32857SOL     OW98594   7.162   3.524  11.479
32857SOL    HW198595   7.251   3.570  11.482
32857SOL    HW298596   7.141   3.500  11.384
32858SOL     OW98597   6.393   2.467  12.637
32858SOL    HW198598   6.346   2.464  12.726
32858SOL    HW298599   6.342   2.412  12.571
32859SOL     OW98600   6.559   2.752  12.744
32859SOL    HW198601   6.605   2.668  12.715
32859SOL    HW298602   6.503   2.786  12.669
32860SOL     OW98603   6.577   2.272  12.414
32860SOL    HW198604   6.500   2.306  12.468
32860SOL    HW298605   6.543   2.221  12.335
32861SOL     OW98606   6.627   2.563  11.601
32861SOL    HW198607   6.653   2.559  11.697
32861SOL    HW298608   6.542   2.512  11.587
32862SOL     OW98609   5.662   2.673  11.961
32862SOL    HW198610   5.761   2.661  11.970
32862SOL    HW298611   5.638   2.768  11.982
32863SOL     OW98612   5.716   3.683  12.743
32863SOL    HW198613   5.706   3.668  12.842
32863SOL    HW298614   5.630   3.719  12.707
32864SOL     OW98615   6.451   2.210  11.367
32864SOL    HW198616   6.510   2.273  11.318
32864SOL    HW298617   6.470   2.116  11.338
32865SOL     OW98618   6.948   3.006  11.717
32865SOL    HW198619   7.031   2.977  11.669
32865SOL    HW298620   6.899   3.073  11.661
32866SOL     OW98621   6.136   2.058  12.057
32866SOL    HW198622   6.131   2.053  12.157
32866SOL    HW298623   6.138   2.154  12.028
32867SOL     OW98624   6.594   3.318  11.649
32867SOL    HW198625   6.548   3.390  11.597
32867SOL    HW298626   6.590   3.338  11.747
32868SOL     OW98627   5.937   3.663  12.025
32868SOL    HW198628   5.987   3.577  12.031
32868SOL    HW298629   6.002   3.740  12.022
32869SOL     OW98630   7.381   2.928  12.045
32869SOL    HW198631   7.319   2.913  11.969
32869SOL    HW298632   7.329   2.939  12.130
32870SOL     OW98633   6.813   3.412  12.678
32870SOL    HW198634   6.819   3.335  12.742
32870SOL    HW298635   6.761   3.386  12.598
32871SOL     OW98636   5.907   2.805  11.414
32871SOL    HW198637   5.989   2.844  11.372
32871SOL    HW298638   5.880   2.723  11.365
32872SOL     OW98639   7.044   2.597  11.900
32872SOL    HW198640   7.039   2.532  11.975
32872SOL    HW298641   7.124   2.656  11.913
32873SOL     OW98642   6.697   3.638  11.409
32873SOL    HW198643   6.637   3.576  11.459
32873SOL    HW298644   6.728   3.594  11.324
32874SOL     OW98645   5.788   2.147  12.670
32874SOL    HW198646   5.708   2.207  12.657
32874SOL    HW298647   5.778   2.098  12.756
32875SOL     OW98648   7.218   3.239  11.253
32875SOL    HW198649   7.186   3.333  11.243
32875SOL    HW298650   7.142   3.176  11.241
32876SOL     OW98651   6.050   3.605  11.495
32876SOL    HW198652   6.083   3.644  11.581
32876SOL    HW298653   6.126   3.598  11.430
32877SOL     OW98654   6.986   1.969  11.598
32877SOL    HW198655   6.962   1.932  11.508
32877SOL    HW298656   7.085   1.985  11.602
32878SOL     OW98657   5.835   3.647  12.413
32878SOL    HW198658   5.892   3.582  12.463
32878SOL    HW298659   5.819   3.614  12.320
32879SOL     OW98660   6.526   3.560  12.076
32879SOL    HW198661   6.606   3.503  12.097
32879SOL    HW298662   6.477   3.520  11.999
32880SOL     OW98663   5.968   2.562  11.652
32880SOL    HW198664   6.013   2.472  11.649
32880SOL    HW298665   5.874   2.551  11.685
32881SOL     OW98666   6.200   1.984  11.289
32881SOL    HW198667   6.298   1.962  11.296
32881SOL    HW298668   6.169   1.967  11.196
32882SOL     OW98669   6.474   3.376  12.367
32882SOL    HW198670   6.451   3.351  12.273
32882SOL    HW298671   6.535   3.307  12.406
32883SOL     OW98672   6.937   2.452  12.605
32883SOL    HW198673   6.965   2.409  12.690
32883SOL    HW298674   6.962   2.548  12.606
32884SOL     OW98675   6.389   3.264  12.096
32884SOL    HW198676   6.479   3.278  12.054
32884SOL    HW298677   6.318   3.266  12.025
32885SOL     OW98678   6.508   2.365  12.071
32885SOL    HW198679   6.483   2.356  11.975
32885SOL    HW298680   6.556   2.283  12.102
32886SOL     OW98681   6.125   1.926  11.684
32886SOL    HW198682   6.044   1.927  11.742
32886SOL    HW298683   6.128   2.009  11.629
32887SOL     OW98684   7.020   3.050  11.213
32887SOL    HW198685   7.052   2.974  11.270
32887SOL    HW298686   6.928   3.077  11.243
32888SOL     OW98687   5.883   1.897  11.343
32888SOL    HW198688   5.932   1.981  11.322
32888SOL    HW298689   5.945   1.832  11.388
32889SOL     OW98690   6.521   2.098  11.652
32889SOL    HW198691   6.473   2.139  11.574
32889SOL    HW298692   6.620   2.096  11.633
32890SOL     OW98693   6.662   2.545  12.636
32890SOL    HW198694   6.582   2.484  12.639
32890SOL    HW298695   6.743   2.492  12.612
32891SOL     OW98696   6.813   3.432  11.965
32891SOL    HW198697   6.834   3.506  11.900
32891SOL    HW298698   6.881   3.432  12.038
32892SOL     OW98699   6.045   3.014  11.913
32892SOL    HW198700   5.974   2.987  11.978
32892SOL    HW298701   6.019   2.986  11.820
32893SOL     OW98702   6.857   3.659  11.763
32893SOL    HW198703   6.901   3.723  11.699
32893SOL    HW298704   6.807   3.711  11.833
32894SOL     OW98705   6.618   2.411  11.188
32894SOL    HW198706   6.577   2.493  11.149
32894SOL    HW298707   6.682   2.437  11.261
32895SOL     OW98708   5.664   2.418  12.558
32895SOL    HW198709   5.756   2.417  12.517
32895SOL    HW298710   5.658   2.492  12.625
32896SOL     OW98711   6.147   2.084  12.319
32896SOL    HW198712   6.185   2.000  12.356
32896SOL    HW298713   6.059   2.103  12.363
32897SOL     OW98714   6.452   2.316  11.814
32897SOL    HW198715   6.420   2.388  11.752
32897SOL    HW298716   6.476   2.235  11.761
32898SOL     OW98717   6.603   1.901  11.925
32898SOL    HW198718   6.531   1.906  11.856
32898SOL    HW298719   6.579   1.832  11.994
32899SOL     OW98720   7.015   3.035  12.039
32899SOL    HW198721   6.960   2.951  12.032
32899SOL    HW298722   7.041   3.064  11.947
32900SOL     OW98723   7.052   2.452  12.164
32900SOL    HW198724   7.022   2.357  12.171
32900SOL    HW298725   7.125   2.468  12.230
32901SOL     OW98726   7.443   2.695  11.549
32901SOL    HW198727   7.485   2.631  11.613
32901SOL    HW298728   7.405   2.644  11.471
32902SOL     OW98729   6.074   3.247  11.346
32902SOL    HW198730   5.987   3.232  11.393
32902SOL    HW298731   6.057   3.273  11.251
32903SOL     OW98732   7.250   3.142  11.829
32903SOL    HW198733   7.349   3.150  11.843
32903SOL    HW298734   7.205   3.226  11.860
32904SOL     OW98735   6.976   2.437  11.250
32904SOL    HW198736   6.922   2.416  11.331
32904SOL    HW298737   7.067   2.396  11.259
32905SOL     OW98738   6.113   2.118  11.500
32905SOL    HW198739   6.140   2.059  11.425
32905SOL    HW298740   6.113   2.213  11.469
32906SOL     OW98741   7.340   3.085  12.760
32906SOL    HW198742   7.431   3.046  12.747
32906SOL    HW298743   7.348   3.181  12.784
32907SOL     OW98744   6.650   3.209  12.512
32907SOL    HW198745   6.570   3.186  12.567
32907SOL    HW298746   6.733   3.183  12.561
32908SOL     OW98747   6.697   3.057  12.272
32908SOL    HW198748   6.657   3.101  12.353
32908SOL    HW298749   6.656   3.094  12.189
32909SOL     OW98750   7.224   2.961  12.251
32909SOL    HW198751   7.229   3.042  12.310
32909SOL    HW298752   7.138   2.963  12.200
32910SOL     OW98753   6.501   1.951  12.574
32910SOL    HW198754   6.526   1.931  12.479
32910SOL    HW298755   6.573   2.007  12.616
32911SOL     OW98756   6.291   2.912  11.540
32911SOL    HW198757   6.277   2.919  11.639
32911SOL    HW298758   6.375   2.861  11.522
32912SOL     OW98759   5.996   2.675  12.423
32912SOL    HW198760   6.082   2.687  12.473
32912SOL    HW298761   5.954   2.588  12.450
32913SOL     OW98762   6.860   2.248  12.434
32913SOL    HW198763   6.881   2.322  12.498
32913SOL    HW298764   6.771   2.265  12.391
32914SOL     OW98765   5.650   3.426  12.503
32914SOL    HW198766   5.604   3.508  12.469
32914SOL    HW298767   5.748   3.445  12.512
32915SOL     OW98768   5.953   2.962  11.673
32915SOL    HW198769   5.946   3.045  11.617
32915SOL    HW298770   5.957   2.882  11.613
32916SOL     OW98771   6.152   2.399  12.037
32916SOL    HW198772   6.164   2.465  11.963
32916SOL    HW298773   6.198   2.433  12.120
32917SOL     OW98774   6.838   3.210  11.560
32917SOL    HW198775   6.888   3.287  11.600
32917SOL    HW298776   6.743   3.212  11.592
32918SOL     OW98777   6.858   3.307  12.314
32918SOL    HW198778   6.905   3.320  12.401
32918SOL    HW298779   6.792   3.233  12.323
32919SOL     OW98780   7.168   2.501  11.644
32919SOL    HW198781   7.137   2.562  11.717
32919SOL    HW298782   7.218   2.553  11.575
32920SOL     OW98783   5.940   3.372  12.501
32920SOL    HW198784   5.919   3.328  12.414
32920SOL    HW298785   6.037   3.398  12.504
32921SOL     OW98786   5.988   2.613  12.770
32921SOL    HW198787   6.056   2.668  12.723
32921SOL    HW298788   6.028   2.525  12.797
32922SOL     OW98789   7.173   2.641  12.842
32922SOL    HW198790   7.081   2.679  12.837
32922SOL    HW298791   7.233   2.688  12.777
32923SOL     OW98792   6.159   2.732  12.201
32923SOL    HW198793   6.203   2.821  12.192
32923SOL    HW298794   6.096   2.732  12.278
32924SOL     OW98795   6.946   2.724  12.217
32924SOL    HW198796   6.871   2.724  12.151
32924SOL    HW298797   6.983   2.632  12.226
32925SOL     OW98798   6.795   2.387  11.447
32925SOL    HW198799   6.808   2.303  11.501
32925SOL    HW298800   6.766   2.461  11.507
32926SOL     OW98801   5.893   2.075  12.403
32926SOL    HW198802   5.870   2.112  12.493
32926SOL    HW298803   5.863   1.980  12.397
32927SOL     OW98804   5.623   3.172  12.454
32927SOL    HW198805   5.676   3.123  12.522
32927SOL    HW298806   5.645   3.270  12.459
32928SOL     OW98807   6.318   2.496  12.236
32928SOL    HW198808   6.377   2.470  12.160
32928SOL    HW298809   6.290   2.592  12.225
32929SOL     OW98810   5.893   1.925  11.790
32929SOL    HW198811   5.882   2.019  11.823
32929SOL    HW298812   5.888   1.862  11.867
32930SOL     OW98813   7.208   2.229  11.546
32930SOL    HW198814   7.210   2.153  11.610
32930SOL    HW298815   7.160   2.306  11.586
32931SOL     OW98816   6.609   2.628  12.138
32931SOL    HW198817   6.624   2.649  12.234
32931SOL    HW298818   6.579   2.533  12.129
32932SOL     OW98819   7.126   2.136  11.297
32932SOL    HW198820   7.065   2.061  11.320
32932SOL    HW298821   7.148   2.188  11.380
32933SOL     OW98822   6.889   2.700  11.214
32933SOL    HW198823   6.923   2.607  11.229
32933SOL    HW298824   6.907   2.727  11.119
32934SOL     OW98825   6.654   3.195  12.021
32934SOL    HW198826   6.661   3.111  11.966
32934SOL    HW298827   6.716   3.264  11.985
32935SOL     OW98828   5.905   2.672  12.121
32935SOL    HW198829   5.998   2.708  12.126
32935SOL    HW298830   5.899   2.587  12.173
32936SOL     OW98831   5.925   2.371  12.178
32936SOL    HW198832   5.873   2.288  12.161
32936SOL    HW298833   6.002   2.376  12.114
32937SOL     OW98834   6.746   2.069  12.649
32937SOL    HW198835   6.746   2.133  12.726
32937SOL    HW298836   6.774   2.117  12.566
32938SOL     OW98837   5.594   3.188  11.372
32938SOL    HW198838   5.501   3.209  11.341
32938SOL    HW298839   5.604   3.089  11.385
32939SOL     OW98840   5.674   3.663  12.099
32939SOL    HW198841   5.632   3.577  12.072
32939SOL    HW298842   5.768   3.666  12.065
32940SOL     OW98843   6.090   3.430  12.082
32940SOL    HW198844   6.156   3.504  12.091
32940SOL    HW298845   6.134   3.351  12.040
32941SOL     OW98846   6.588   2.658  12.410
32941SOL    HW198847   6.629   2.626  12.496
32941SOL    HW298848   6.492   2.631  12.407
32942SOL     OW98849   5.626   2.406  12.286
32942SOL    HW198850   5.711   2.373  12.245
32942SOL    HW298851   5.639   2.421  12.384
32943SOL     OW98852   6.401   2.434  11.497
32943SOL    HW198853   6.408   2.345  11.451
32943SOL    HW298854   6.307   2.468  11.489
32944SOL     OW98855   7.243   2.466  12.378
32944SOL    HW198856   7.205   2.397  12.440
32944SOL    HW298857   7.325   2.430  12.334
32945SOL     OW98858   5.838   3.426  12.916
32945SOL    HW198859   5.808   3.483  12.992
32945SOL    HW298860   5.831   3.329  12.942
32946SOL     OW98861   6.257   2.326  12.441
32946SOL    HW198862   6.223   2.237  12.411
32946SOL    HW298863   6.283   2.380  12.361
32947SOL     OW98864   6.516   3.540  12.637
32947SOL    HW198865   6.492   3.522  12.542
32947SOL    HW298866   6.546   3.634  12.647
32948SOL     OW98867   6.059   2.362  11.363
32948SOL    HW198868   6.120   2.442  11.367
32948SOL    HW298869   5.964   2.393  11.370
32949SOL     OW98870   5.745   2.999  12.638
32949SOL    HW198871   5.767   2.938  12.714
32949SOL    HW298872   5.755   2.950  12.552
32950SOL     OW98873   6.933   2.921  12.406
32950SOL    HW198874   6.957   2.858  12.332
32950SOL    HW298875   6.843   2.961  12.388
32951SOL     OW98876   6.888   2.717  11.481
32951SOL    HW198877   6.802   2.686  11.523
32951SOL    HW298878   6.884   2.703  11.382
32952SOL     OW98879   7.345   3.609  12.326
32952SOL    HW198880   7.406   3.639  12.253
32952SOL    HW298881   7.307   3.520  12.304
32953SOL     OW98882   6.838   3.593  12.300
32953SOL    HW198883   6.922   3.598  12.246
32953SOL    HW298884   6.815   3.497  12.318
32954SOL     OW98885   5.669   3.120  12.194
32954SOL    HW198886   5.664   3.119  12.294
32954SOL    HW298887   5.586   3.079  12.156
32955SOL     OW98888   7.312   1.997  11.695
32955SOL    HW198889   7.385   1.980  11.628
32955SOL    HW298890   7.281   1.910  11.733
32956SOL     OW98891   6.974   3.435  11.649
32956SOL    HW198892   7.041   3.447  11.575
32956SOL    HW298893   6.934   3.524  11.672
32957SOL     OW98894   6.866   2.789  11.844
32957SOL    HW198895   6.926   2.708  11.846
32957SOL    HW298896   6.906   2.858  11.784
32958SOL     OW98897   6.416   3.135  12.594
32958SOL    HW198898   6.411   3.168  12.689
32958SOL    HW298899   6.330   3.154  12.548
32959SOL     OW98900   6.258   3.478  11.326
32959SOL    HW198901   6.267   3.488  11.227
32959SOL    HW298902   6.218   3.389  11.347
32960SOL     OW98903   7.236   3.582  12.566
32960SOL    HW198904   7.289   3.592  12.482
32960SOL    HW298905   7.209   3.672  12.600
32961SOL     OW98906   7.427   2.037  12.135
32961SOL    HW198907   7.466   1.952  12.099
32961SOL    HW298908   7.329   2.039  12.116
32962SOL     OW98909   5.849   2.188  11.892
32962SOL    HW198910   5.770   2.239  11.858
32962SOL    HW298911   5.840   2.173  11.990
32963SOL     OW98912   6.780   3.474  11.203
32963SOL    HW198913   6.786   3.381  11.240
32963SOL    HW298914   6.721   3.474  11.123
32964SOL     OW98915   6.408   2.864  12.544
32964SOL    HW198916   6.448   2.863  12.452
32964SOL    HW298917   6.418   2.956  12.584
32965SOL     OW98918   6.502   2.772  11.463
32965SOL    HW198919   6.565   2.810  11.395
32965SOL    HW298920   6.542   2.689  11.502
32966SOL     OW98921   7.090   3.469  11.216
32966SOL    HW198922   6.998   3.506  11.223
32966SOL    HW298923   7.128   3.489  11.126
32967SOL     OW98924   5.958   3.150  12.662
32967SOL    HW198925   5.945   3.243  12.628
32967SOL    HW298926   5.874   3.098  12.649
32968SOL     OW98927   7.200   3.154  12.461
32968SOL    HW198928   7.260   3.157  12.541
32968SOL    HW298929   7.125   3.218  12.474
32969SOL     OW98930   6.625   2.960  11.868
32969SOL    HW198931   6.555   2.913  11.922
32969SOL    HW298932   6.684   2.892  11.825
32970SOL     OW98933   6.600   2.098  12.143
32970SOL    HW198934   6.592   2.062  12.050
32970SOL    HW298935   6.598   2.022  12.208
32971SOL     OW98936   6.176   3.349  11.663
32971SOL    HW198937   6.218   3.291  11.593
32971SOL    HW298938   6.132   3.428  11.619
32972SOL     OW98939   7.295   2.247  12.553
32972SOL    HW198940   7.368   2.316  12.557
32972SOL    HW298941   7.323   2.172  12.494
32973SOL     OW98942   5.841   3.210  11.462
32973SOL    HW198943   5.745   3.211  11.435
32973SOL    HW298944   5.853   3.263  11.546
32974SOL     OW98945   5.691   2.875  12.898
32974SOL    HW198946   5.614   2.842  12.952
32974SOL    HW298947   5.776   2.845  12.940
32975SOL     OW98948   6.258   2.065  12.661
32975SOL    HW198949   6.348   2.049  12.621
32975SOL    HW298950   6.266   2.070  12.760
32976SOL     OW98951   5.661   2.207  11.205
32976SOL    HW198952   5.569   2.179  11.176
32976SOL    HW298953   5.692   2.284  11.149
32977SOL     OW98954   7.026   2.718  12.570
32977SOL    HW198955   6.969   2.770  12.507
32977SOL    HW298956   7.122   2.730  12.546
32978SOL     OW98957   5.658   2.028  11.490
32978SOL    HW198958   5.641   2.111  11.436
32978SOL    HW298959   5.748   1.991  11.468
32979SOL     OW98960   6.769   3.197  11.291
32979SOL    HW198961   6.670   3.186  11.293
32979SOL    HW298962   6.803   3.212  11.384
32980SOL     OW98963   6.199   2.704  12.603
32980SOL    HW198964   6.255   2.785  12.586
32980SOL    HW298965   6.258   2.624  12.606
32981SOL     OW98966   7.079   3.629  12.131
32981SOL    HW198967   7.112   3.693  12.062
32981SOL    HW298968   7.145   3.623  12.206
32982SOL     OW98969   6.302   2.427  12.880
32982SOL    HW198970   6.321   2.492  12.954
32982SOL    HW298971   6.362   2.347  12.889
32983SOL     OW98972   5.976   3.603  12.732
32983SOL    HW198973   5.885   3.644  12.730
32983SOL    HW298974   5.969   3.509  12.764
32984SOL     OW98975   7.260   2.745  12.426
32984SOL    HW198976   7.233   2.656  12.389
32984SOL    HW298977   7.261   2.813  12.353
32985SOL     OW98978   6.811   2.187  11.621
32985SOL    HW198979   6.876   2.113  11.610
32985SOL    HW298980   6.831   2.237  11.705
32986SOL     OW98981   6.180   2.607  11.824
32986SOL    HW198982   6.230   2.692  11.805
32986SOL    HW298983   6.092   2.609  11.776
32987SOL     OW98984   7.363   2.204  12.814
32987SOL    HW198985   7.346   2.235  12.720
32987SOL    HW298986   7.279   2.167  12.852
32988SOL     OW98987   7.316   2.796  12.689
32988SOL    HW198988   7.354   2.887  12.704
32988SOL    HW298989   7.308   2.779  12.590
32989SOL     OW98990   6.445   3.236  11.188
32989SOL    HW198991   6.399   3.251  11.276
32989SOL    HW298992   6.489   3.321  11.158
32990SOL     OW98993   6.247   3.652  12.125
32990SOL    HW198994   6.201   3.740  12.112
32990SOL    HW298995   6.346   3.664  12.118
32991SOL     OW98996   6.445   2.818  12.033
32991SOL    HW198997   6.499   2.749  12.081
32991SOL    HW298998   6.413   2.887  12.099
32992SOL     OW98999   6.669   2.846  11.259
32992SOL    HW199000   6.646   2.899  11.177
32992SOL    HW299001   6.750   2.790  11.240
32993SOL     OW99002   7.447   3.431  12.023
32993SOL    HW199003   7.376   3.419  11.953
32993SOL    HW299004   7.448   3.352  12.083
32994SOL     OW99005   5.665   3.102  11.825
32994SOL    HW199006   5.664   3.055  11.913
32994SOL    HW299007   5.747   3.074  11.774
32995SOL     OW99008   6.258   3.253  12.796
32995SOL    HW199009   6.180   3.203  12.834
32995SOL    HW299010   6.255   3.348  12.827
32996SOL     OW99011   7.410   2.054  12.399
32996SOL    HW199012   7.406   1.964  12.443
32996SOL    HW299013   7.413   2.043  12.300
32997SOL     OW99014   6.014   2.286  11.692
32997SOL    HW199015   6.044   2.214  11.630
32997SOL    HW299016   5.975   2.246  11.775
32998SOL     OW99017   7.291   3.349  12.276
32998SOL    HW199018   7.198   3.324  12.249
32998SOL    HW299019   7.317   3.299  12.358
32999SOL     OW99020   5.903   2.409  12.452
32999SOL    HW199021   5.941   2.350  12.524
32999SOL    HW299022   5.943   2.383  12.364
33000SOL     OW99023   6.398   3.448  11.859
33000SOL    HW199024   6.430   3.458  11.765
33000SOL    HW299025   6.319   3.386  11.861
33001SOL     OW99026   7.010   2.076  12.284
33001SOL    HW199027   7.062   2.011  12.339
33001SOL    HW299028   6.961   2.139  12.345
33002SOL     OW99029   6.587   1.896  12.326
33002SOL    HW199030   6.524   1.824  12.295
33002SOL    HW299031   6.680   1.860  12.326
33003SOL     OW99032   6.356   3.192  11.473
33003SOL    HW199033   6.310   3.105  11.490
33003SOL    HW299034   6.447   3.189  11.514
33004SOL     OW99035   6.204   3.429  12.456
33004SOL    HW199036   6.199   3.511  12.513
33004SOL    HW299037   6.293   3.426  12.411
33005SOL     OW99038   6.938   1.914  11.340
33005SOL    HW199039   6.973   1.873  11.256
33005SOL    HW299040   6.848   1.876  11.360
33006SOL     OW99041   6.886   2.315  11.863
33006SOL    HW199042   6.827   2.395  11.867
33006SOL    HW299043   6.901   2.280  11.956
33007SOL     OW99044   7.179   2.083  12.054
33007SOL    HW199045   7.095   2.082  12.108
33007SOL    HW299046   7.181   2.166  11.998
33008SOL     OW99047   5.625   2.939  11.472
33008SOL    HW199048   5.724   2.928  11.463
33008SOL    HW299049   5.585   2.853  11.504
33009SOL     OW99050   6.461   3.508  11.509
33009SOL    HW199051   6.384   3.473  11.455
33009SOL    HW299052   6.429   3.579  11.571
33010SOL     OW99053   5.816   4.352   0.113
33010SOL    HW199054   5.723   4.350   0.150
33010SOL    HW299055   5.817   4.313   0.021
33011SOL     OW99056   5.811   3.999   0.996
33011SOL    HW199057   5.846   3.982   1.088
33011SOL    HW299058   5.723   3.954   0.984
33012SOL     OW99059   5.605   4.092   0.647
33012SOL    HW199060   5.523   4.135   0.686
33012SOL    HW299061   5.577   4.019   0.584
33013SOL     OW99062   6.155   4.999   1.165
33013SOL    HW199063   6.062   4.992   1.128
33013SOL    HW299064   6.166   5.088   1.209
33014SOL     OW99065   7.141   5.235   0.703
33014SOL    HW199066   7.084   5.219   0.784
33014SOL    HW299067   7.082   5.245   0.623
33015SOL     OW99068   6.721   4.427   0.717
33015SOL    HW199069   6.778   4.505   0.692
33015SOL    HW299070   6.661   4.453   0.793
33016SOL     OW99071   7.341   4.331   0.231
33016SOL    HW199072   7.329   4.318   0.132
33016SOL    HW299073   7.311   4.250   0.280
33017SOL     OW99074   6.354   4.868   1.023
33017SOL    HW199075   6.276   4.885   1.083
33017SOL    HW299076   6.388   4.955   0.987
33018SOL     OW99077   6.436   4.522   1.823
33018SOL    HW199078   6.432   4.598   1.888
33018SOL    HW299079   6.458   4.558   1.732
33019SOL     OW99080   6.271   4.736   0.665
33019SOL    HW199081   6.340   4.720   0.735
33019SOL    HW299082   6.198   4.793   0.703
33020SOL     OW99083   6.272   4.885   1.803
33020SOL    HW199084   6.332   4.964   1.817
33020SOL    HW299085   6.186   4.916   1.762
33021SOL     OW99086   5.921   5.159   1.061
33021SOL    HW199087   5.843   5.128   1.008
33021SOL    HW299088   5.979   5.217   1.004
33022SOL     OW99089   7.046   5.229   1.339
33022SOL    HW199090   7.070   5.323   1.365
33022SOL    HW299091   7.030   5.175   1.421
33023SOL     OW99092   6.024   4.116   1.499
33023SOL    HW199093   6.106   4.060   1.508
33023SOL    HW299094   5.943   4.058   1.503
33024SOL     OW99095   7.189   4.171   0.737
33024SOL    HW199096   7.115   4.217   0.687
33024SOL    HW299097   7.240   4.239   0.790
33025SOL     OW99098   5.817   5.437   0.483
33025SOL    HW199099   5.851   5.514   0.537
33025SOL    HW299100   5.861   5.437   0.393
33026SOL     OW99101   6.713   5.065   1.690
33026SOL    HW199102   6.760   5.065   1.778
33026SOL    HW299103   6.665   4.978   1.679
33027SOL     OW99104   5.816   5.158   0.538
33027SOL    HW199105   5.790   5.254   0.538
33027SOL    HW299106   5.745   5.104   0.583
33028SOL     OW99107   5.826   4.815   0.886
33028SOL    HW199108   5.840   4.731   0.938
33028SOL    HW299109   5.771   4.879   0.941
33029SOL     OW99110   6.206   5.510   1.439
33029SOL    HW199111   6.114   5.493   1.474
33029SOL    HW299112   6.234   5.602   1.465
33030SOL     OW99113   6.192   4.688   0.123
33030SOL    HW199114   6.199   4.772   0.069
33030SOL    HW299115   6.238   4.701   0.211
33031SOL     OW99116   7.180   3.838   1.480
33031SOL    HW199117   7.162   3.905   1.408
33031SOL    HW299118   7.177   3.884   1.569
33032SOL     OW99119   5.708   4.367   0.563
33032SOL    HW199120   5.663   4.279   0.580
33032SOL    HW299121   5.707   4.421   0.647
33033SOL     OW99122   7.428   5.491   0.359
33033SOL    HW199123   7.482   5.462   0.439
33033SOL    HW299124   7.458   5.581   0.330
33034SOL     OW99125   5.613   5.320   0.117
33034SOL    HW199126   5.594   5.224   0.138
33034SOL    HW299127   5.580   5.378   0.192
33035SOL     OW99128   7.275   4.646   0.612
33035SOL    HW199129   7.370   4.617   0.620
33035SOL    HW299130   7.267   4.711   0.537
33036SOL     OW99131   7.227   4.832   0.432
33036SOL    HW199132   7.313   4.834   0.380
33036SOL    HW299133   7.241   4.879   0.520
33037SOL     OW99134   5.699   4.461   1.597
33037SOL    HW199135   5.787   4.448   1.642
33037SOL    HW299136   5.686   4.558   1.575
33038SOL     OW99137   6.199   5.089   0.726
33038SOL    HW199138   6.150   5.002   0.735
33038SOL    HW299139   6.176   5.132   0.639
33039SOL     OW99140   6.879   4.952   1.423
33039SOL    HW199141   6.916   4.879   1.365
33039SOL    HW299142   6.931   4.957   1.508
33040SOL     OW99143   6.395   3.728   0.502
33040SOL    HW199144   6.435   3.819   0.493
33040SOL    HW299145   6.295   3.736   0.508
33041SOL     OW99146   5.783   4.700   1.264
33041SOL    HW199147   5.872   4.655   1.250
33041SOL    HW299148   5.710   4.635   1.245
33042SOL     OW99149   7.111   4.723   0.190
33042SOL    HW199150   7.048   4.647   0.203
33042SOL    HW299151   7.159   4.741   0.276
33043SOL     OW99152   6.773   5.516   1.616
33043SOL    HW199153   6.797   5.576   1.540
33043SOL    HW299154   6.780   5.421   1.586
33044SOL     OW99155   5.903   3.975   1.801
33044SOL    HW199156   5.974   4.046   1.807
33044SOL    HW299157   5.815   4.014   1.829
33045SOL     OW99158   7.052   5.141   0.953
33045SOL    HW199159   6.993   5.147   1.033
33045SOL    HW299160   7.037   5.053   0.907
33046SOL     OW99161   7.253   5.438   0.572
33046SOL    HW199162   7.212   5.415   0.484
33046SOL    HW299163   7.235   5.364   0.637
33047SOL     OW99164   6.184   4.453   0.270
33047SOL    HW199165   6.208   4.522   0.202
33047SOL    HW299166   6.106   4.486   0.324
33048SOL     OW99167   6.867   4.069   0.944
33048SOL    HW199168   6.781   4.019   0.931
33048SOL    HW299169   6.929   4.015   1.000
33049SOL     OW99170   7.162   5.386   0.307
33049SOL    HW199171   7.251   5.432   0.310
33049SOL    HW299172   7.141   5.362   0.212
33050SOL     OW99173   6.393   4.329   1.465
33050SOL    HW199174   6.346   4.326   1.554
33050SOL    HW299175   6.342   4.274   1.399
33051SOL     OW99176   6.980   4.193   1.674
33051SOL    HW199177   6.960   4.236   1.762
33051SOL    HW299178   7.058   4.131   1.683
33052SOL     OW99179   6.559   4.614   1.572
33052SOL    HW199180   6.605   4.530   1.543
33052SOL    HW299181   6.503   4.648   1.497
33053SOL     OW99182   6.577   4.134   1.242
33053SOL    HW199183   6.500   4.168   1.296
33053SOL    HW299184   6.543   4.083   1.163
33054SOL     OW99185   6.627   4.425   0.429
33054SOL    HW199186   6.653   4.421   0.525
33054SOL    HW299187   6.542   4.374   0.415
33055SOL     OW99188   5.662   4.535   0.789
33055SOL    HW199189   5.761   4.523   0.798
33055SOL    HW299190   5.638   4.630   0.810
33056SOL     OW99191   5.716   5.545   1.571
33056SOL    HW199192   5.706   5.530   1.670
33056SOL    HW299193   5.630   5.581   1.535
33057SOL     OW99194   6.451   4.072   0.195
33057SOL    HW199195   6.510   4.135   0.146
33057SOL    HW299196   6.470   3.978   0.166
33058SOL     OW99197   7.305   4.309   1.831
33058SOL    HW199198   7.279   4.398   1.795
33058SOL    HW299199   7.303   4.241   1.758
33059SOL     OW99200   6.948   4.868   0.545
33059SOL    HW199201   7.031   4.839   0.497
33059SOL    HW299202   6.899   4.935   0.489
33060SOL     OW99203   6.136   3.920   0.885
33060SOL    HW199204   6.131   3.915   0.985
33060SOL    HW299205   6.138   4.016   0.856
33061SOL     OW99206   6.594   5.180   0.477
33061SOL    HW199207   6.548   5.252   0.425
33061SOL    HW299208   6.590   5.200   0.575
33062SOL     OW99209   5.937   5.525   0.853
33062SOL    HW199210   5.987   5.439   0.859
33062SOL    HW299211   6.002   5.602   0.850
33063SOL     OW99212   7.381   4.790   0.873
33063SOL    HW199213   7.319   4.775   0.797
33063SOL    HW299214   7.329   4.801   0.958
33064SOL     OW99215   6.813   5.274   1.506
33064SOL    HW199216   6.819   5.197   1.570
33064SOL    HW299217   6.761   5.248   1.426
33065SOL     OW99218   5.907   4.667   0.242
33065SOL    HW199219   5.989   4.706   0.200
33065SOL    HW299220   5.880   4.585   0.193
33066SOL     OW99221   7.044   4.459   0.728
33066SOL    HW199222   7.039   4.394   0.803
33066SOL    HW299223   7.124   4.518   0.741
33067SOL     OW99224   6.047   4.990   1.727
33067SOL    HW199225   5.997   4.991   1.641
33067SOL    HW299226   5.984   4.972   1.803
33068SOL     OW99227   6.697   5.500   0.237
33068SOL    HW199228   6.637   5.438   0.287
33068SOL    HW299229   6.728   5.456   0.152
33069SOL     OW99230   5.788   4.009   1.498
33069SOL    HW199231   5.708   4.069   1.485
33069SOL    HW299232   5.778   3.960   1.584
33070SOL     OW99233   7.218   5.101   0.081
33070SOL    HW199234   7.186   5.195   0.071
33070SOL    HW299235   7.142   5.038   0.069
33071SOL     OW99236   6.050   5.467   0.323
33071SOL    HW199237   6.083   5.506   0.409
33071SOL    HW299238   6.126   5.460   0.258
33072SOL     OW99239   6.986   3.831   0.426
33072SOL    HW199240   6.962   3.794   0.336
33072SOL    HW299241   7.085   3.847   0.430
33073SOL     OW99242   5.835   5.509   1.241
33073SOL    HW199243   5.892   5.444   1.291
33073SOL    HW299244   5.819   5.476   1.148
33074SOL     OW99245   6.526   5.422   0.904
33074SOL    HW199246   6.606   5.365   0.925
33074SOL    HW299247   6.477   5.382   0.827
33075SOL     OW99248   5.968   4.424   0.480
33075SOL    HW199249   6.013   4.334   0.477
33075SOL    HW299250   5.874   4.413   0.513
33076SOL     OW99251   7.133   3.946   1.729
33076SOL    HW199252   7.128   3.983   1.821
33076SOL    HW299253   7.061   3.877   1.717
33077SOL     OW99254   6.200   3.846   0.117
33077SOL    HW199255   6.298   3.824   0.124
33077SOL    HW299256   6.169   3.829   0.024
33078SOL     OW99257   6.367   3.988   1.749
33078SOL    HW199258   6.434   3.927   1.792
33078SOL    HW299259   6.294   4.007   1.814
33079SOL     OW99260   6.474   5.238   1.195
33079SOL    HW199261   6.451   5.213   1.101
33079SOL    HW299262   6.535   5.169   1.234
33080SOL     OW99263   6.937   4.314   1.433
33080SOL    HW199264   6.965   4.271   1.518
33080SOL    HW299265   6.962   4.410   1.434
33081SOL     OW99266   6.389   5.126   0.924
33081SOL    HW199267   6.479   5.140   0.882
33081SOL    HW299268   6.318   5.128   0.853
33082SOL     OW99269   6.508   4.227   0.899
33082SOL    HW199270   6.483   4.218   0.803
33082SOL    HW299271   6.556   4.145   0.930
33083SOL     OW99272   6.125   3.788   0.512
33083SOL    HW199273   6.044   3.789   0.570
33083SOL    HW299274   6.128   3.871   0.457
33084SOL     OW99275   7.020   4.912   0.041
33084SOL    HW199276   7.052   4.836   0.098
33084SOL    HW299277   6.928   4.939   0.071
33085SOL     OW99278   5.883   3.759   0.171
33085SOL    HW199279   5.932   3.843   0.150
33085SOL    HW299280   5.945   3.694   0.216
33086SOL     OW99281   6.521   3.960   0.480
33086SOL    HW199282   6.473   4.001   0.402
33086SOL    HW299283   6.620   3.958   0.461
33087SOL     OW99284   6.662   4.407   1.464
33087SOL    HW199285   6.582   4.346   1.467
33087SOL    HW299286   6.743   4.354   1.440
33088SOL     OW99287   6.813   5.294   0.793
33088SOL    HW199288   6.834   5.368   0.728
33088SOL    HW299289   6.881   5.294   0.866
33089SOL     OW99290   6.045   4.876   0.741
33089SOL    HW199291   5.974   4.849   0.806
33089SOL    HW299292   6.019   4.848   0.648
33090SOL     OW99293   6.857   5.521   0.591
33090SOL    HW199294   6.901   5.585   0.527
33090SOL    HW299295   6.807   5.573   0.661
33091SOL     OW99296   6.618   4.273   0.016
33091SOL    HW199297   6.577   4.355  -0.023
33091SOL    HW299298   6.682   4.299   0.089
33092SOL     OW99299   5.664   4.280   1.386
33092SOL    HW199300   5.756   4.279   1.345
33092SOL    HW299301   5.658   4.354   1.453
33093SOL     OW99302   6.147   3.946   1.147
33093SOL    HW199303   6.185   3.862   1.184
33093SOL    HW299304   6.059   3.965   1.191
33094SOL     OW99305   6.452   4.178   0.642
33094SOL    HW199306   6.420   4.250   0.580
33094SOL    HW299307   6.476   4.097   0.589
33095SOL     OW99308   6.603   3.763   0.753
33095SOL    HW199309   6.531   3.768   0.684
33095SOL    HW299310   6.579   3.694   0.822
33096SOL     OW99311   7.015   4.897   0.867
33096SOL    HW199312   6.960   4.813   0.860
33096SOL    HW299313   7.041   4.926   0.775
33097SOL     OW99314   7.052   4.314   0.992
33097SOL    HW199315   7.022   4.219   0.999
33097SOL    HW299316   7.125   4.330   1.058
33098SOL     OW99317   7.443   4.557   0.377
33098SOL    HW199318   7.485   4.493   0.441
33098SOL    HW299319   7.405   4.506   0.299
33099SOL     OW99320   6.074   5.109   0.174
33099SOL    HW199321   5.987   5.094   0.221
33099SOL    HW299322   6.057   5.135   0.079
33100SOL     OW99323   7.250   5.004   0.657
33100SOL    HW199324   7.349   5.012   0.671
33100SOL    HW299325   7.205   5.088   0.688
33101SOL     OW99326   6.976   4.299   0.078
33101SOL    HW199327   6.922   4.278   0.159
33101SOL    HW299328   7.067   4.258   0.087
33102SOL     OW99329   6.113   3.980   0.328
33102SOL    HW199330   6.140   3.921   0.253
33102SOL    HW299331   6.113   4.075   0.297
33103SOL     OW99332   7.340   4.947   1.588
33103SOL    HW199333   7.431   4.908   1.575
33103SOL    HW299334   7.348   5.043   1.612
33104SOL     OW99335   6.650   5.071   1.340
33104SOL    HW199336   6.570   5.048   1.395
33104SOL    HW299337   6.733   5.045   1.389
33105SOL     OW99338   7.178   5.353   1.625
33105SOL    HW199339   7.205   5.387   1.535
33105SOL    HW299340   7.257   5.315   1.671
33106SOL     OW99341   6.697   4.919   1.100
33106SOL    HW199342   6.657   4.963   1.181
33106SOL    HW299343   6.656   4.956   1.017
33107SOL     OW99344   7.224   4.823   1.079
33107SOL    HW199345   7.229   4.904   1.138
33107SOL    HW299346   7.138   4.825   1.028
33108SOL     OW99347   6.501   3.813   1.402
33108SOL    HW199348   6.526   3.793   1.307
33108SOL    HW299349   6.573   3.869   1.444
33109SOL     OW99350   6.566   4.840   1.719
33109SOL    HW199351   6.467   4.846   1.729
33109SOL    HW299352   6.589   4.760   1.663
33110SOL     OW99353   6.291   4.774   0.368
33110SOL    HW199354   6.277   4.781   0.467
33110SOL    HW299355   6.375   4.723   0.350
33111SOL     OW99356   5.996   4.537   1.251
33111SOL    HW199357   6.082   4.549   1.301
33111SOL    HW299358   5.954   4.450   1.278
33112SOL     OW99359   6.860   4.110   1.262
33112SOL    HW199360   6.881   4.184   1.326
33112SOL    HW299361   6.771   4.127   1.219
33113SOL     OW99362   5.650   5.288   1.331
33113SOL    HW199363   5.604   5.370   1.297
33113SOL    HW299364   5.748   5.307   1.340
33114SOL     OW99365   5.953   4.824   0.501
33114SOL    HW199366   5.946   4.907   0.445
33114SOL    HW299367   5.957   4.744   0.441
33115SOL     OW99368   6.152   4.261   0.865
33115SOL    HW199369   6.164   4.327   0.791
33115SOL    HW299370   6.198   4.295   0.948
33116SOL     OW99371   6.838   5.072   0.388
33116SOL    HW199372   6.888   5.149   0.428
33116SOL    HW299373   6.743   5.074   0.420
33117SOL     OW99374   6.858   5.169   1.142
33117SOL    HW199375   6.905   5.182   1.229
33117SOL    HW299376   6.792   5.095   1.151
33118SOL     OW99377   7.168   4.363   0.472
33118SOL    HW199378   7.137   4.424   0.545
33118SOL    HW299379   7.218   4.415   0.403
33119SOL     OW99380   5.940   5.234   1.329
33119SOL    HW199381   5.919   5.190   1.242
33119SOL    HW299382   6.037   5.260   1.332
33120SOL     OW99383   5.988   4.475   1.598
33120SOL    HW199384   6.056   4.530   1.551
33120SOL    HW299385   6.028   4.387   1.625
33121SOL     OW99386   7.173   4.503   1.670
33121SOL    HW199387   7.081   4.541   1.665
33121SOL    HW299388   7.233   4.550   1.605
33122SOL     OW99389   6.599   3.829   1.770
33122SOL    HW199390   6.605   3.914   1.718
33122SOL    HW299391   6.631   3.753   1.713
33123SOL     OW99392   6.090   3.774   1.740
33123SOL    HW199393   6.048   3.717   1.670
33123SOL    HW299394   6.024   3.843   1.772
33124SOL     OW99395   6.159   4.594   1.029
33124SOL    HW199396   6.203   4.683   1.020
33124SOL    HW299397   6.096   4.594   1.106
33125SOL     OW99398   6.946   4.586   1.045
33125SOL    HW199399   6.871   4.586   0.979
33125SOL    HW299400   6.983   4.494   1.054
33126SOL     OW99401   6.795   4.249   0.275
33126SOL    HW199402   6.808   4.165   0.329
33126SOL    HW299403   6.766   4.323   0.335
33127SOL     OW99404   5.893   3.937   1.231
33127SOL    HW199405   5.870   3.974   1.321
33127SOL    HW299406   5.863   3.842   1.225
33128SOL     OW99407   5.623   5.034   1.282
33128SOL    HW199408   5.676   4.985   1.350
33128SOL    HW299409   5.645   5.132   1.287
33129SOL     OW99410   6.318   4.358   1.064
33129SOL    HW199411   6.377   4.332   0.988
33129SOL    HW299412   6.290   4.454   1.053
33130SOL     OW99413   7.314   4.659   1.854
33130SOL    HW199414   7.268   4.652   1.765
33130SOL    HW299415   7.252   4.703   1.920
33131SOL     OW99416   5.893   3.787   0.618
33131SOL    HW199417   5.882   3.881   0.651
33131SOL    HW299418   5.888   3.724   0.695
33132SOL     OW99419   7.208   4.091   0.374
33132SOL    HW199420   7.210   4.015   0.438
33132SOL    HW299421   7.160   4.168   0.414
33133SOL     OW99422   6.609   4.490   0.966
33133SOL    HW199423   6.624   4.511   1.062
33133SOL    HW299424   6.579   4.395   0.957
33134SOL     OW99425   6.566   5.297   1.700
33134SOL    HW199426   6.546   5.341   1.612
33134SOL    HW299427   6.605   5.206   1.684
33135SOL     OW99428   7.445   5.242   1.605
33135SOL    HW199429   7.459   5.269   1.510
33135SOL    HW299430   7.528   5.264   1.658
33136SOL     OW99431   5.936   4.622   1.804
33136SOL    HW199432   6.012   4.666   1.852
33136SOL    HW299433   5.971   4.575   1.722
33137SOL     OW99434   7.126   3.998   0.125
33137SOL    HW199435   7.065   3.923   0.148
33137SOL    HW299436   7.148   4.050   0.208
33138SOL     OW99437   6.889   4.562   0.042
33138SOL    HW199438   6.923   4.469   0.057
33138SOL    HW299439   6.907   4.589  -0.053
33139SOL     OW99440   6.654   5.057   0.849
33139SOL    HW199441   6.661   4.973   0.794
33139SOL    HW299442   6.716   5.126   0.813
33140SOL     OW99443   5.905   4.534   0.949
33140SOL    HW199444   5.998   4.570   0.954
33140SOL    HW299445   5.899   4.449   1.001
33141SOL     OW99446   5.925   4.233   1.006
33141SOL    HW199447   5.873   4.150   0.989
33141SOL    HW299448   6.002   4.238   0.942
33142SOL     OW99449   6.724   4.104   1.678
33142SOL    HW199450   6.679   4.167   1.742
33142SOL    HW299451   6.817   4.135   1.661
33143SOL     OW99452   6.746   3.931   1.477
33143SOL    HW199453   6.746   3.995   1.554
33143SOL    HW299454   6.774   3.979   1.394
33144SOL     OW99455   5.594   5.050   0.200
33144SOL    HW199456   5.501   5.071   0.169
33144SOL    HW299457   5.604   4.951   0.213
33145SOL     OW99458   5.674   5.525   0.927
33145SOL    HW199459   5.632   5.439   0.900
33145SOL    HW299460   5.768   5.528   0.893
33146SOL     OW99461   6.090   5.292   0.910
33146SOL    HW199462   6.156   5.366   0.919
33146SOL    HW299463   6.134   5.213   0.868
33147SOL     OW99464   6.588   4.520   1.238
33147SOL    HW199465   6.629   4.488   1.324
33147SOL    HW299466   6.492   4.493   1.235
33148SOL     OW99467   5.626   4.268   1.114
33148SOL    HW199468   5.711   4.235   1.073
33148SOL    HW299469   5.639   4.283   1.212
33149SOL     OW99470   5.775   4.244   1.722
33149SOL    HW199471   5.834   4.204   1.652
33149SOL    HW299472   5.717   4.315   1.681
33150SOL     OW99473   6.955   4.674   1.660
33150SOL    HW199474   6.994   4.763   1.680
33150SOL    HW299475   6.965   4.654   1.563
33151SOL     OW99476   6.401   4.296   0.325
33151SOL    HW199477   6.408   4.207   0.279
33151SOL    HW299478   6.307   4.330   0.317
33152SOL     OW99479   7.243   4.328   1.206
33152SOL    HW199480   7.205   4.259   1.268
33152SOL    HW299481   7.325   4.292   1.162
33153SOL     OW99482   5.838   5.288   1.744
33153SOL    HW199483   5.808   5.345   1.820
33153SOL    HW299484   5.831   5.191   1.770
33154SOL     OW99485   6.257   4.188   1.269
33154SOL    HW199486   6.223   4.099   1.239
33154SOL    HW299487   6.283   4.242   1.189
33155SOL     OW99488   6.516   5.402   1.465
33155SOL    HW199489   6.492   5.384   1.370
33155SOL    HW299490   6.546   5.496   1.475
33156SOL     OW99491   6.059   4.224   0.191
33156SOL    HW199492   6.120   4.304   0.195
33156SOL    HW299493   5.964   4.255   0.198
33157SOL     OW99494   5.745   4.861   1.466
33157SOL    HW199495   5.767   4.800   1.542
33157SOL    HW299496   5.755   4.812   1.380
33158SOL     OW99497   6.933   4.783   1.234
33158SOL    HW199498   6.957   4.720   1.160
33158SOL    HW299499   6.843   4.823   1.216
33159SOL     OW99500   6.888   4.579   0.309
33159SOL    HW199501   6.802   4.548   0.351
33159SOL    HW299502   6.884   4.565   0.210
33160SOL     OW99503   7.345   5.471   1.154
33160SOL    HW199504   7.406   5.501   1.081
33160SOL    HW299505   7.307   5.382   1.132
33161SOL     OW99506   6.838   5.455   1.128
33161SOL    HW199507   6.922   5.460   1.074
33161SOL    HW299508   6.815   5.359   1.146
33162SOL     OW99509   5.669   4.982   1.022
33162SOL    HW199510   5.664   4.981   1.122
33162SOL    HW299511   5.586   4.941   0.984
33163SOL     OW99512   6.274   5.386   1.716
33163SOL    HW199513   6.218   5.467   1.725
33163SOL    HW299514   6.326   5.390   1.630
33164SOL     OW99515   6.489   3.810   0.133
33164SOL    HW199516   6.540   3.811   0.047
33164SOL    HW299517   6.545   3.768   0.204
33165SOL     OW99518   7.312   3.859   0.523
33165SOL    HW199519   7.385   3.842   0.456
33165SOL    HW299520   7.281   3.772   0.561
33166SOL     OW99521   6.974   5.297   0.477
33166SOL    HW199522   7.041   5.309   0.403
33166SOL    HW299523   6.934   5.386   0.500
33167SOL     OW99524   5.716   5.518   1.851
33167SOL    HW199525   5.675   5.444   1.904
33167SOL    HW299526   5.780   5.569   1.909
33168SOL     OW99527   6.866   4.651   0.672
33168SOL    HW199528   6.926   4.570   0.674
33168SOL    HW299529   6.906   4.720   0.612
33169SOL     OW99530   6.416   4.997   1.422
33169SOL    HW199531   6.411   5.030   1.517
33169SOL    HW299532   6.330   5.016   1.376
33170SOL     OW99533   6.258   5.340   0.154
33170SOL    HW199534   6.267   5.350   0.055
33170SOL    HW299535   6.218   5.251   0.175
33171SOL     OW99536   7.236   5.444   1.394
33171SOL    HW199537   7.289   5.454   1.310
33171SOL    HW299538   7.209   5.534   1.428
33172SOL     OW99539   7.427   3.899   0.963
33172SOL    HW199540   7.466   3.814   0.927
33172SOL    HW299541   7.329   3.901   0.944
33173SOL     OW99542   5.849   4.050   0.720
33173SOL    HW199543   5.770   4.101   0.686
33173SOL    HW299544   5.840   4.035   0.818
33174SOL     OW99545   6.780   5.336   0.031
33174SOL    HW199546   6.786   5.243   0.068
33174SOL    HW299547   6.721   5.336  -0.049
33175SOL     OW99548   6.408   4.726   1.372
33175SOL    HW199549   6.448   4.725   1.280
33175SOL    HW299550   6.418   4.818   1.412
33176SOL     OW99551   6.502   4.634   0.291
33176SOL    HW199552   6.565   4.672   0.223
33176SOL    HW299553   6.542   4.551   0.330
33177SOL     OW99554   7.090   5.331   0.044
33177SOL    HW199555   6.998   5.368   0.051
33177SOL    HW299556   7.128   5.351  -0.046
33178SOL     OW99557   5.958   5.012   1.490
33178SOL    HW199558   5.945   5.105   1.456
33178SOL    HW299559   5.874   4.960   1.477
33179SOL     OW99560   7.200   5.016   1.289
33179SOL    HW199561   7.260   5.019   1.369
33179SOL    HW299562   7.125   5.080   1.302
33180SOL     OW99563   6.625   4.822   0.696
33180SOL    HW199564   6.555   4.775   0.750
33180SOL    HW299565   6.684   4.754   0.653
33181SOL     OW99566   6.600   3.960   0.971
33181SOL    HW199567   6.592   3.924   0.878
33181SOL    HW299568   6.598   3.884   1.036
33182SOL     OW99569   6.176   5.211   0.491
33182SOL    HW199570   6.218   5.153   0.421
33182SOL    HW299571   6.132   5.290   0.447
33183SOL     OW99572   7.295   4.109   1.381
33183SOL    HW199573   7.368   4.178   1.385
33183SOL    HW299574   7.323   4.034   1.322
33184SOL     OW99575   5.841   5.072   0.290
33184SOL    HW199576   5.745   5.073   0.263
33184SOL    HW299577   5.853   5.125   0.374
33185SOL     OW99578   5.691   4.737   1.726
33185SOL    HW199579   5.614   4.704   1.780
33185SOL    HW299580   5.776   4.707   1.768
33186SOL     OW99581   6.258   3.927   1.489
33186SOL    HW199582   6.348   3.911   1.449
33186SOL    HW299583   6.266   3.932   1.588
33187SOL     OW99584   7.026   4.580   1.398
33187SOL    HW199585   6.969   4.632   1.335
33187SOL    HW299586   7.122   4.592   1.374
33188SOL     OW99587   5.658   3.890   0.318
33188SOL    HW199588   5.641   3.973   0.264
33188SOL    HW299589   5.748   3.853   0.296
33189SOL     OW99590   6.769   5.059   0.119
33189SOL    HW199591   6.670   5.048   0.121
33189SOL    HW299592   6.803   5.074   0.212
33190SOL     OW99593   6.199   4.566   1.431
33190SOL    HW199594   6.255   4.647   1.414
33190SOL    HW299595   6.258   4.486   1.434
33191SOL     OW99596   7.079   5.491   0.959
33191SOL    HW199597   7.112   5.555   0.890
33191SOL    HW299598   7.145   5.485   1.034
33192SOL     OW99599   6.302   4.289   1.708
33192SOL    HW199600   6.321   4.354   1.782
33192SOL    HW299601   6.362   4.209   1.717
33193SOL     OW99602   7.036   4.944   1.633
33193SOL    HW199603   7.027   4.934   1.732
33193SOL    HW299604   7.132   4.937   1.607
33194SOL     OW99605   5.976   5.465   1.560
33194SOL    HW199606   5.885   5.506   1.558
33194SOL    HW299607   5.969   5.371   1.592
33195SOL     OW99608   7.260   4.607   1.254
33195SOL    HW199609   7.233   4.518   1.217
33195SOL    HW299610   7.261   4.675   1.181
33196SOL     OW99611   6.811   4.049   0.449
33196SOL    HW199612   6.876   3.975   0.438
33196SOL    HW299613   6.831   4.099   0.533
33197SOL     OW99614   6.180   4.469   0.652
33197SOL    HW199615   6.230   4.554   0.633
33197SOL    HW299616   6.092   4.471   0.604
33198SOL     OW99617   7.363   4.066   1.642
33198SOL    HW199618   7.346   4.097   1.548
33198SOL    HW299619   7.279   4.029   1.680
33199SOL     OW99620   7.316   4.658   1.517
33199SOL    HW199621   7.354   4.749   1.532
33199SOL    HW299622   7.308   4.641   1.418
33200SOL     OW99623   6.445   5.098   0.016
33200SOL    HW199624   6.399   5.113   0.104
33200SOL    HW299625   6.489   5.183  -0.014
33201SOL     OW99626   6.247   5.514   0.953
33201SOL    HW199627   6.201   5.602   0.940
33201SOL    HW299628   6.346   5.526   0.946
33202SOL     OW99629   6.445   4.680   0.861
33202SOL    HW199630   6.499   4.611   0.909
33202SOL    HW299631   6.413   4.749   0.927
33203SOL     OW99632   6.669   4.708   0.087
33203SOL    HW199633   6.646   4.761   0.005
33203SOL    HW299634   6.750   4.652   0.068
33204SOL     OW99635   7.447   5.293   0.851
33204SOL    HW199636   7.376   5.281   0.781
33204SOL    HW299637   7.448   5.214   0.911
33205SOL     OW99638   5.807   5.038   1.844
33205SOL    HW199639   5.742   4.965   1.823
33205SOL    HW299640   5.811   5.052   1.942
33206SOL     OW99641   5.665   4.964   0.653
33206SOL    HW199642   5.664   4.917   0.741
33206SOL    HW299643   5.747   4.936   0.602
33207SOL     OW99644   6.258   5.115   1.624
33207SOL    HW199645   6.180   5.065   1.662
33207SOL    HW299646   6.255   5.210   1.655
33208SOL     OW99647   7.410   3.916   1.227
33208SOL    HW199648   7.406   3.826   1.271
33208SOL    HW299649   7.413   3.905   1.128
33209SOL     OW99650   6.014   4.148   0.520
33209SOL    HW199651   6.044   4.076   0.458
33209SOL    HW299652   5.975   4.108   0.603
33210SOL     OW99653   7.291   5.211   1.104
33210SOL    HW199654   7.198   5.186   1.077
33210SOL    HW299655   7.317   5.161   1.186
33211SOL     OW99656   5.903   4.271   1.280
33211SOL    HW199657   5.941   4.212   1.352
33211SOL    HW299658   5.943   4.245   1.192
33212SOL     OW99659   6.398   5.310   0.687
33212SOL    HW199660   6.430   5.320   0.593
33212SOL    HW299661   6.319   5.248   0.689
33213SOL     OW99662   7.010   3.938   1.112
33213SOL    HW199663   7.062   3.873   1.167
33213SOL    HW299664   6.961   4.001   1.173
33214SOL     OW99665   6.587   3.758   1.154
33214SOL    HW199666   6.524   3.686   1.123
33214SOL    HW299667   6.680   3.722   1.154
33215SOL     OW99668   6.356   5.054   0.301
33215SOL    HW199669   6.310   4.967   0.318
33215SOL    HW299670   6.447   5.051   0.342
33216SOL     OW99671   6.204   5.291   1.284
33216SOL    HW199672   6.199   5.373   1.341
33216SOL    HW299673   6.293   5.288   1.239
33217SOL     OW99674   6.938   3.776   0.168
33217SOL    HW199675   6.973   3.735   0.084
33217SOL    HW299676   6.848   3.738   0.188
33218SOL     OW99677   6.886   4.177   0.691
33218SOL    HW199678   6.827   4.257   0.695
33218SOL    HW299679   6.901   4.142   0.784
33219SOL     OW99680   7.179   3.945   0.882
33219SOL    HW199681   7.095   3.944   0.936
33219SOL    HW299682   7.181   4.028   0.826
33220SOL     OW99683   5.625   4.801   0.300
33220SOL    HW199684   5.724   4.790   0.291
33220SOL    HW299685   5.585   4.715   0.332
33221SOL     OW99686   6.461   5.370   0.337
33221SOL    HW199687   6.384   5.335   0.283
33221SOL    HW299688   6.429   5.441   0.399
33222SOL     OW99689   5.816   4.352   1.975
33222SOL    HW199690   5.723   4.350   2.012
33222SOL    HW299691   5.817   4.313   1.883
33223SOL     OW99692   5.811   3.999   2.858
33223SOL    HW199693   5.846   3.982   2.950
33223SOL    HW299694   5.723   3.954   2.846
33224SOL     OW99695   5.605   4.092   2.509
33224SOL    HW199696   5.523   4.135   2.548
33224SOL    HW299697   5.577   4.019   2.446
33225SOL     OW99698   6.155   4.999   3.027
33225SOL    HW199699   6.062   4.992   2.990
33225SOL    HW299700   6.166   5.088   3.071
33226SOL     OW99701   7.141   5.235   2.565
33226SOL    HW199702   7.084   5.219   2.646
33226SOL    HW299703   7.082   5.245   2.485
33227SOL     OW99704   6.721   4.427   2.579
33227SOL    HW199705   6.778   4.505   2.554
33227SOL    HW299706   6.661   4.453   2.655
33228SOL     OW99707   7.341   4.331   2.093
33228SOL    HW199708   7.329   4.318   1.994
33228SOL    HW299709   7.311   4.250   2.142
33229SOL     OW99710   6.354   4.868   2.885
33229SOL    HW199711   6.276   4.885   2.945
33229SOL    HW299712   6.388   4.955   2.849
33230SOL     OW99713   6.436   4.522   3.685
33230SOL    HW199714   6.432   4.598   3.750
33230SOL    HW299715   6.458   4.558   3.594
33231SOL     OW99716   6.271   4.736   2.527
33231SOL    HW199717   6.340   4.720   2.597
33231SOL    HW299718   6.198   4.793   2.565
33232SOL     OW99719   6.272   4.885   3.665
33232SOL    HW199720   6.332   4.964   3.679
33232SOL    HW299721   6.186   4.916   3.624
33233SOL     OW99722   5.921   5.159   2.923
33233SOL    HW199723   5.843   5.128   2.870
33233SOL    HW299724   5.979   5.217   2.866
33234SOL     OW99725   7.046   5.229   3.201
33234SOL    HW199726   7.070   5.323   3.227
33234SOL    HW299727   7.030   5.175   3.283
33235SOL     OW99728   6.024   4.116   3.361
33235SOL    HW199729   6.106   4.060   3.370
33235SOL    HW299730   5.943   4.058   3.365
33236SOL     OW99731   7.189   4.171   2.599
33236SOL    HW199732   7.115   4.217   2.549
33236SOL    HW299733   7.240   4.239   2.652
33237SOL     OW99734   5.817   5.437   2.345
33237SOL    HW199735   5.851   5.514   2.399
33237SOL    HW299736   5.861   5.437   2.255
33238SOL     OW99737   6.713   5.065   3.552
33238SOL    HW199738   6.760   5.065   3.640
33238SOL    HW299739   6.665   4.978   3.541
33239SOL     OW99740   5.816   5.158   2.400
33239SOL    HW199741   5.790   5.254   2.400
33239SOL    HW299742   5.745   5.104   2.445
33240SOL     OW99743   5.826   4.815   2.748
33240SOL    HW199744   5.840   4.731   2.800
33240SOL    HW299745   5.771   4.879   2.803
33241SOL     OW99746   6.206   5.510   3.301
33241SOL    HW199747   6.114   5.493   3.336
33241SOL    HW299748   6.234   5.602   3.327
33242SOL     OW99749   6.192   4.688   1.985
33242SOL    HW199750   6.199   4.772   1.931
33242SOL    HW299751   6.238   4.701   2.073
33243SOL     OW99752   7.180   3.838   3.342
33243SOL    HW199753   7.162   3.905   3.270
33243SOL    HW299754   7.177   3.884   3.431
33244SOL     OW99755   5.708   4.367   2.425
33244SOL    HW199756   5.663   4.279   2.442
33244SOL    HW299757   5.707   4.421   2.509
33245SOL     OW99758   7.428   5.491   2.221
33245SOL    HW199759   7.482   5.462   2.301
33245SOL    HW299760   7.458   5.581   2.192
33246SOL     OW99761   5.613   5.320   1.979
33246SOL    HW199762   5.594   5.224   2.000
33246SOL    HW299763   5.580   5.378   2.054
33247SOL     OW99764   7.275   4.646   2.474
33247SOL    HW199765   7.370   4.617   2.482
33247SOL    HW299766   7.267   4.711   2.399
33248SOL     OW99767   7.227   4.832   2.294
33248SOL    HW199768   7.313   4.834   2.242
33248SOL    HW299769   7.241   4.879   2.382
33249SOL     OW99770   5.699   4.461   3.459
33249SOL    HW199771   5.787   4.448   3.504
33249SOL    HW299772   5.686   4.558   3.437
33250SOL     OW99773   6.199   5.089   2.588
33250SOL    HW199774   6.150   5.002   2.597
33250SOL    HW299775   6.176   5.132   2.501
33251SOL     OW99776   6.879   4.952   3.285
33251SOL    HW199777   6.916   4.879   3.227
33251SOL    HW299778   6.931   4.957   3.370
33252SOL     OW99779   6.395   3.728   2.364
33252SOL    HW199780   6.435   3.819   2.355
33252SOL    HW299781   6.295   3.736   2.370
33253SOL     OW99782   5.783   4.700   3.126
33253SOL    HW199783   5.872   4.655   3.112
33253SOL    HW299784   5.710   4.635   3.107
33254SOL     OW99785   7.111   4.723   2.052
33254SOL    HW199786   7.048   4.647   2.065
33254SOL    HW299787   7.159   4.741   2.138
33255SOL     OW99788   6.773   5.516   3.478
33255SOL    HW199789   6.797   5.576   3.402
33255SOL    HW299790   6.780   5.421   3.448
33256SOL     OW99791   5.903   3.975   3.663
33256SOL    HW199792   5.974   4.046   3.669
33256SOL    HW299793   5.815   4.014   3.691
33257SOL     OW99794   7.052   5.141   2.815
33257SOL    HW199795   6.993   5.147   2.895
33257SOL    HW299796   7.037   5.053   2.769
33258SOL     OW99797   7.253   5.438   2.434
33258SOL    HW199798   7.212   5.415   2.346
33258SOL    HW299799   7.235   5.364   2.499
33259SOL     OW99800   6.184   4.453   2.132
33259SOL    HW199801   6.208   4.522   2.064
33259SOL    HW299802   6.106   4.486   2.186
33260SOL     OW99803   6.867   4.069   2.806
33260SOL    HW199804   6.781   4.019   2.793
33260SOL    HW299805   6.929   4.015   2.862
33261SOL     OW99806   7.162   5.386   2.169
33261SOL    HW199807   7.251   5.432   2.172
33261SOL    HW299808   7.141   5.362   2.074
33262SOL     OW99809   6.393   4.329   3.327
33262SOL    HW199810   6.346   4.326   3.416
33262SOL    HW299811   6.342   4.274   3.261
33263SOL     OW99812   6.980   4.193   3.536
33263SOL    HW199813   6.960   4.236   3.624
33263SOL    HW299814   7.058   4.131   3.545
33264SOL     OW99815   6.559   4.614   3.434
33264SOL    HW199816   6.605   4.530   3.405
33264SOL    HW299817   6.503   4.648   3.359
33265SOL     OW99818   6.577   4.134   3.104
33265SOL    HW199819   6.500   4.168   3.158
33265SOL    HW299820   6.543   4.083   3.025
33266SOL     OW99821   6.627   4.425   2.291
33266SOL    HW199822   6.653   4.421   2.387
33266SOL    HW299823   6.542   4.374   2.277
33267SOL     OW99824   5.662   4.535   2.651
33267SOL    HW199825   5.761   4.523   2.660
33267SOL    HW299826   5.638   4.630   2.672
33268SOL     OW99827   5.716   5.545   3.433
33268SOL    HW199828   5.706   5.530   3.532
33268SOL    HW299829   5.630   5.581   3.397
33269SOL     OW99830   6.451   4.072   2.057
33269SOL    HW199831   6.510   4.135   2.008
33269SOL    HW299832   6.470   3.978   2.028
33270SOL     OW99833   7.305   4.309   3.693
33270SOL    HW199834   7.279   4.398   3.657
33270SOL    HW299835   7.303   4.241   3.620
33271SOL     OW99836   6.948   4.868   2.407
33271SOL    HW199837   7.031   4.839   2.359
33271SOL    HW299838   6.899   4.935   2.351
33272SOL     OW99839   6.136   3.920   2.747
33272SOL    HW199840   6.131   3.915   2.847
33272SOL    HW299841   6.138   4.016   2.718
33273SOL     OW99842   6.594   5.180   2.339
33273SOL    HW199843   6.548   5.252   2.287
33273SOL    HW299844   6.590   5.200   2.437
33274SOL     OW99845   5.937   5.525   2.715
33274SOL    HW199846   5.987   5.439   2.721
33274SOL    HW299847   6.002   5.602   2.712
33275SOL     OW99848   7.381   4.790   2.735
33275SOL    HW199849   7.319   4.775   2.659
33275SOL    HW299850   7.329   4.801   2.820
33276SOL     OW99851   6.813   5.274   3.368
33276SOL    HW199852   6.819   5.197   3.432
33276SOL    HW299853   6.761   5.248   3.288
33277SOL     OW99854   5.907   4.667   2.104
33277SOL    HW199855   5.989   4.706   2.062
33277SOL    HW299856   5.880   4.585   2.055
33278SOL     OW99857   7.044   4.459   2.590
33278SOL    HW199858   7.039   4.394   2.665
33278SOL    HW299859   7.124   4.518   2.603
33279SOL     OW99860   6.047   4.990   3.589
33279SOL    HW199861   5.997   4.991   3.503
33279SOL    HW299862   5.984   4.972   3.665
33280SOL     OW99863   6.697   5.500   2.099
33280SOL    HW199864   6.637   5.438   2.149
33280SOL    HW299865   6.728   5.456   2.014
33281SOL     OW99866   5.788   4.009   3.360
33281SOL    HW199867   5.708   4.069   3.347
33281SOL    HW299868   5.778   3.960   3.446
33282SOL     OW99869   7.218   5.101   1.943
33282SOL    HW199870   7.186   5.195   1.933
33282SOL    HW299871   7.142   5.038   1.931
33283SOL     OW99872   6.050   5.467   2.185
33283SOL    HW199873   6.083   5.506   2.271
33283SOL    HW299874   6.126   5.460   2.120
33284SOL     OW99875   6.986   3.831   2.288
33284SOL    HW199876   6.962   3.794   2.198
33284SOL    HW299877   7.085   3.847   2.292
33285SOL     OW99878   5.835   5.509   3.103
33285SOL    HW199879   5.892   5.444   3.153
33285SOL    HW299880   5.819   5.476   3.010
33286SOL     OW99881   6.526   5.422   2.766
33286SOL    HW199882   6.606   5.365   2.787
33286SOL    HW299883   6.477   5.382   2.689
33287SOL     OW99884   5.968   4.424   2.342
33287SOL    HW199885   6.013   4.334   2.339
33287SOL    HW299886   5.874   4.413   2.375
33288SOL     OW99887   7.133   3.946   3.591
33288SOL    HW199888   7.128   3.983   3.683
33288SOL    HW299889   7.061   3.877   3.579
33289SOL     OW99890   6.200   3.846   1.979
33289SOL    HW199891   6.298   3.824   1.986
33289SOL    HW299892   6.169   3.829   1.886
33290SOL     OW99893   6.367   3.988   3.611
33290SOL    HW199894   6.434   3.927   3.654
33290SOL    HW299895   6.294   4.007   3.676
33291SOL     OW99896   6.474   5.238   3.057
33291SOL    HW199897   6.451   5.213   2.963
33291SOL    HW299898   6.535   5.169   3.096
33292SOL     OW99899   6.937   4.314   3.295
33292SOL    HW199900   6.965   4.271   3.380
33292SOL    HW299901   6.962   4.410   3.296
33293SOL     OW99902   6.389   5.126   2.786
33293SOL    HW199903   6.479   5.140   2.744
33293SOL    HW299904   6.318   5.128   2.715
33294SOL     OW99905   6.508   4.227   2.761
33294SOL    HW199906   6.483   4.218   2.665
33294SOL    HW299907   6.556   4.145   2.792
33295SOL     OW99908   6.125   3.788   2.374
33295SOL    HW199909   6.044   3.789   2.432
33295SOL    HW299910   6.128   3.871   2.319
33296SOL     OW99911   7.020   4.912   1.903
33296SOL    HW199912   7.052   4.836   1.960
33296SOL    HW299913   6.928   4.939   1.933
33297SOL     OW99914   5.883   3.759   2.033
33297SOL    HW199915   5.932   3.843   2.012
33297SOL    HW299916   5.945   3.694   2.078
33298SOL     OW99917   6.521   3.960   2.342
33298SOL    HW199918   6.473   4.001   2.264
33298SOL    HW299919   6.620   3.958   2.323
33299SOL     OW99920   6.662   4.407   3.326
33299SOL    HW199921   6.582   4.346   3.329
33299SOL    HW299922   6.743   4.354   3.302
33300SOL     OW99923   6.813   5.294   2.655
33300SOL    HW199924   6.834   5.368   2.590
33300SOL    HW299925   6.881   5.294   2.728
33301SOL     OW99926   6.045   4.876   2.603
33301SOL    HW199927   5.974   4.849   2.668
33301SOL    HW299928   6.019   4.848   2.510
33302SOL     OW99929   6.857   5.521   2.453
33302SOL    HW199930   6.901   5.585   2.389
33302SOL    HW299931   6.807   5.573   2.523
33303SOL     OW99932   6.618   4.273   1.878
33303SOL    HW199933   6.577   4.355   1.839
33303SOL    HW299934   6.682   4.299   1.951
33304SOL     OW99935   5.664   4.280   3.248
33304SOL    HW199936   5.756   4.279   3.207
33304SOL    HW299937   5.658   4.354   3.315
33305SOL     OW99938   6.147   3.946   3.009
33305SOL    HW199939   6.185   3.862   3.046
33305SOL    HW299940   6.059   3.965   3.053
33306SOL     OW99941   6.452   4.178   2.504
33306SOL    HW199942   6.420   4.250   2.442
33306SOL    HW299943   6.476   4.097   2.451
33307SOL     OW99944   6.603   3.763   2.615
33307SOL    HW199945   6.531   3.768   2.546
33307SOL    HW299946   6.579   3.694   2.684
33308SOL     OW99947   7.015   4.897   2.729
33308SOL    HW199948   6.960   4.813   2.722
33308SOL    HW299949   7.041   4.926   2.637
33309SOL     OW99950   7.052   4.314   2.854
33309SOL    HW199951   7.022   4.219   2.861
33309SOL    HW299952   7.125   4.330   2.920
33310SOL     OW99953   7.443   4.557   2.239
33310SOL    HW199954   7.485   4.493   2.303
33310SOL    HW299955   7.405   4.506   2.161
33311SOL     OW99956   6.074   5.109   2.036
33311SOL    HW199957   5.987   5.094   2.083
33311SOL    HW299958   6.057   5.135   1.941
33312SOL     OW99959   7.250   5.004   2.519
33312SOL    HW199960   7.349   5.012   2.533
33312SOL    HW299961   7.205   5.088   2.550
33313SOL     OW99962   6.976   4.299   1.940
33313SOL    HW199963   6.922   4.278   2.021
33313SOL    HW299964   7.067   4.258   1.949
33314SOL     OW99965   6.113   3.980   2.190
33314SOL    HW199966   6.140   3.921   2.115
33314SOL    HW299967   6.113   4.075   2.159
33315SOL     OW99968   7.340   4.947   3.450
33315SOL    HW199969   7.431   4.908   3.437
33315SOL    HW299970   7.348   5.043   3.474
33316SOL     OW99971   6.650   5.071   3.202
33316SOL    HW199972   6.570   5.048   3.257
33316SOL    HW299973   6.733   5.045   3.251
33317SOL     OW99974   7.178   5.353   3.487
33317SOL    HW199975   7.205   5.387   3.397
33317SOL    HW299976   7.257   5.315   3.533
33318SOL     OW99977   6.697   4.919   2.962
33318SOL    HW199978   6.657   4.963   3.043
33318SOL    HW299979   6.656   4.956   2.879
33319SOL     OW99980   7.224   4.823   2.941
33319SOL    HW199981   7.229   4.904   3.000
33319SOL    HW299982   7.138   4.825   2.890
33320SOL     OW99983   6.501   3.813   3.264
33320SOL    HW199984   6.526   3.793   3.169
33320SOL    HW299985   6.573   3.869   3.306
33321SOL     OW99986   6.566   4.840   3.581
33321SOL    HW199987   6.467   4.846   3.591
33321SOL    HW299988   6.589   4.760   3.525
33322SOL     OW99989   6.291   4.774   2.230
33322SOL    HW199990   6.277   4.781   2.329
33322SOL    HW299991   6.375   4.723   2.212
33323SOL     OW99992   5.996   4.537   3.113
33323SOL    HW199993   6.082   4.549   3.163
33323SOL    HW299994   5.954   4.450   3.140
33324SOL     OW99995   6.860   4.110   3.124
33324SOL    HW199996   6.881   4.184   3.188
33324SOL    HW299997   6.771   4.127   3.081
33325SOL     OW99998   5.650   5.288   3.193
33325SOL    HW199999   5.604   5.370   3.159
33325SOL    HW2    0   5.748   5.307   3.202
33326SOL     OW    1   5.953   4.824   2.363
33326SOL    HW1    2   5.946   4.907   2.307
33326SOL    HW2    3   5.957   4.744   2.303
33327SOL     OW    4   6.152   4.261   2.727
33327SOL    HW1    5   6.164   4.327   2.653
33327SOL    HW2    6   6.198   4.295   2.810
33328SOL     OW    7   6.838   5.072   2.250
33328SOL    HW1    8   6.888   5.149   2.290
33328SOL    HW2    9   6.743   5.074   2.282
33329SOL     OW   10   6.858   5.169   3.004
33329SOL    HW1   11   6.905   5.182   3.091
33329SOL    HW2   12   6.792   5.095   3.013
33330SOL     OW   13   7.168   4.363   2.334
33330SOL    HW1   14   7.137   4.424   2.407
33330SOL    HW2   15   7.218   4.415   2.265
33331SOL     OW   16   5.940   5.234   3.191
33331SOL    HW1   17   5.919   5.190   3.104
33331SOL    HW2   18   6.037   5.260   3.194
33332SOL     OW   19   5.988   4.475   3.460
33332SOL    HW1   20   6.056   4.530   3.413
33332SOL    HW2   21   6.028   4.387   3.487
33333SOL     OW   22   7.173   4.503   3.532
33333SOL    HW1   23   7.081   4.541   3.527
33333SOL    HW2   24   7.233   4.550   3.467
33334SOL     OW   25   6.599   3.829   3.632
33334SOL    HW1   26   6.605   3.914   3.580
33334SOL    HW2   27   6.631   3.753   3.575
33335SOL     OW   28   6.090   3.774   3.602
33335SOL    HW1   29   6.048   3.717   3.532
33335SOL    HW2   30   6.024   3.843   3.634
33336SOL     OW   31   6.159   4.594   2.891
33336SOL    HW1   32   6.203   4.683   2.882
33336SOL    HW2   33   6.096   4.594   2.968
33337SOL     OW   34   6.946   4.586   2.907
33337SOL    HW1   35   6.871   4.586   2.841
33337SOL    HW2   36   6.983   4.494   2.916
33338SOL     OW   37   6.795   4.249   2.137
33338SOL    HW1   38   6.808   4.165   2.191
33338SOL    HW2   39   6.766   4.323   2.197
33339SOL     OW   40   5.893   3.937   3.093
33339SOL    HW1   41   5.870   3.974   3.183
33339SOL    HW2   42   5.863   3.842   3.087
33340SOL     OW   43   5.623   5.034   3.144
33340SOL    HW1   44   5.676   4.985   3.212
33340SOL    HW2   45   5.645   5.132   3.149
33341SOL     OW   46   6.318   4.358   2.926
33341SOL    HW1   47   6.377   4.332   2.850
33341SOL    HW2   48   6.290   4.454   2.915
33342SOL     OW   49   7.314   4.659   3.716
33342SOL    HW1   50   7.268   4.652   3.627
33342SOL    HW2   51   7.252   4.703   3.782
33343SOL     OW   52   5.893   3.787   2.480
33343SOL    HW1   53   5.882   3.881   2.513
33343SOL    HW2   54   5.888   3.724   2.557
33344SOL     OW   55   7.208   4.091   2.236
33344SOL    HW1   56   7.210   4.015   2.300
33344SOL    HW2   57   7.160   4.168   2.276
33345SOL     OW   58   6.609   4.490   2.828
33345SOL    HW1   59   6.624   4.511   2.924
33345SOL    HW2   60   6.579   4.395   2.819
33346SOL     OW   61   6.566   5.297   3.562
33346SOL    HW1   62   6.546   5.341   3.474
33346SOL    HW2   63   6.605   5.206   3.546
33347SOL     OW   64   7.445   5.242   3.467
33347SOL    HW1   65   7.459   5.269   3.372
33347SOL    HW2   66   7.528   5.264   3.520
33348SOL     OW   67   5.936   4.622   3.666
33348SOL    HW1   68   6.012   4.666   3.714
33348SOL    HW2   69   5.971   4.575   3.584
33349SOL     OW   70   7.126   3.998   1.987
33349SOL    HW1   71   7.065   3.923   2.010
33349SOL    HW2   72   7.148   4.050   2.070
33350SOL     OW   73   6.889   4.562   1.904
33350SOL    HW1   74   6.923   4.469   1.919
33350SOL    HW2   75   6.907   4.589   1.809
33351SOL     OW   76   6.654   5.057   2.711
33351SOL    HW1   77   6.661   4.973   2.656
33351SOL    HW2   78   6.716   5.126   2.675
33352SOL     OW   79   5.905   4.534   2.811
33352SOL    HW1   80   5.998   4.570   2.816
33352SOL    HW2   81   5.899   4.449   2.863
33353SOL     OW   82   5.925   4.233   2.868
33353SOL    HW1   83   5.873   4.150   2.851
33353SOL    HW2   84   6.002   4.238   2.804
33354SOL     OW   85   6.724   4.104   3.540
33354SOL    HW1   86   6.679   4.167   3.604
33354SOL    HW2   87   6.817   4.135   3.523
33355SOL     OW   88   6.746   3.931   3.339
33355SOL    HW1   89   6.746   3.995   3.416
33355SOL    HW2   90   6.774   3.979   3.256
33356SOL     OW   91   5.594   5.050   2.062
33356SOL    HW1   92   5.501   5.071   2.031
33356SOL    HW2   93   5.604   4.951   2.075
33357SOL     OW   94   5.674   5.525   2.789
33357SOL    HW1   95   5.632   5.439   2.762
33357SOL    HW2   96   5.768   5.528   2.755
33358SOL     OW   97   6.090   5.292   2.772
33358SOL    HW1   98   6.156   5.366   2.781
33358SOL    HW2   99   6.134   5.213   2.730
33359SOL     OW  100   6.588   4.520   3.100
33359SOL    HW1  101   6.629   4.488   3.186
33359SOL    HW2  102   6.492   4.493   3.097
33360SOL     OW  103   5.626   4.268   2.976
33360SOL    HW1  104   5.711   4.235   2.935
33360SOL    HW2  105   5.639   4.283   3.074
33361SOL     OW  106   5.775   4.244   3.584
33361SOL    HW1  107   5.834   4.204   3.514
33361SOL    HW2  108   5.717   4.315   3.543
33362SOL     OW  109   6.955   4.674   3.522
33362SOL    HW1  110   6.994   4.763   3.542
33362SOL    HW2  111   6.965   4.654   3.425
33363SOL     OW  112   6.401   4.296   2.187
33363SOL    HW1  113   6.408   4.207   2.141
33363SOL    HW2  114   6.307   4.330   2.179
33364SOL     OW  115   7.243   4.328   3.068
33364SOL    HW1  116   7.205   4.259   3.130
33364SOL    HW2  117   7.325   4.292   3.024
33365SOL     OW  118   5.838   5.288   3.606
33365SOL    HW1  119   5.808   5.345   3.682
33365SOL    HW2  120   5.831   5.191   3.632
33366SOL     OW  121   6.257   4.188   3.131
33366SOL    HW1  122   6.223   4.099   3.101
33366SOL    HW2  123   6.283   4.242   3.051
33367SOL     OW  124   6.516   5.402   3.327
33367SOL    HW1  125   6.492   5.384   3.232
33367SOL    HW2  126   6.546   5.496   3.337
33368SOL     OW  127   6.059   4.224   2.053
33368SOL    HW1  128   6.120   4.304   2.057
33368SOL    HW2  129   5.964   4.255   2.060
33369SOL     OW  130   5.745   4.861   3.328
33369SOL    HW1  131   5.767   4.800   3.404
33369SOL    HW2  132   5.755   4.812   3.242
33370SOL     OW  133   6.933   4.783   3.096
33370SOL    HW1  134   6.957   4.720   3.022
33370SOL    HW2  135   6.843   4.823   3.078
33371SOL     OW  136   6.888   4.579   2.171
33371SOL    HW1  137   6.802   4.548   2.213
33371SOL    HW2  138   6.884   4.565   2.072
33372SOL     OW  139   7.345   5.471   3.016
33372SOL    HW1  140   7.406   5.501   2.943
33372SOL    HW2  141   7.307   5.382   2.994
33373SOL     OW  142   6.838   5.455   2.990
33373SOL    HW1  143   6.922   5.460   2.936
33373SOL    HW2  144   6.815   5.359   3.008
33374SOL     OW  145   5.669   4.982   2.884
33374SOL    HW1  146   5.664   4.981   2.984
33374SOL    HW2  147   5.586   4.941   2.846
33375SOL     OW  148   6.274   5.386   3.578
33375SOL    HW1  149   6.218   5.467   3.587
33375SOL    HW2  150   6.326   5.390   3.492
33376SOL     OW  151   7.312   3.859   2.385
33376SOL    HW1  152   7.385   3.842   2.318
33376SOL    HW2  153   7.281   3.772   2.423
33377SOL     OW  154   6.974   5.297   2.339
33377SOL    HW1  155   7.041   5.309   2.265
33377SOL    HW2  156   6.934   5.386   2.362
33378SOL     OW  157   5.716   5.518   3.713
33378SOL    HW1  158   5.675   5.444   3.766
33378SOL    HW2  159   5.780   5.569   3.771
33379SOL     OW  160   6.866   4.651   2.534
33379SOL    HW1  161   6.926   4.570   2.536
33379SOL    HW2  162   6.906   4.720   2.474
33380SOL     OW  163   6.416   4.997   3.284
33380SOL    HW1  164   6.411   5.030   3.379
33380SOL    HW2  165   6.330   5.016   3.238
33381SOL     OW  166   6.258   5.340   2.016
33381SOL    HW1  167   6.267   5.350   1.917
33381SOL    HW2  168   6.218   5.251   2.037
33382SOL     OW  169   7.236   5.444   3.256
33382SOL    HW1  170   7.289   5.454   3.172
33382SOL    HW2  171   7.209   5.534   3.290
33383SOL     OW  172   7.427   3.899   2.825
33383SOL    HW1  173   7.466   3.814   2.789
33383SOL    HW2  174   7.329   3.901   2.806
33384SOL     OW  175   5.849   4.050   2.582
33384SOL    HW1  176   5.770   4.101   2.548
33384SOL    HW2  177   5.840   4.035   2.680
33385SOL     OW  178   6.780   5.336   1.893
33385SOL    HW1  179   6.786   5.243   1.930
33385SOL    HW2  180   6.721   5.336   1.813
33386SOL     OW  181   6.408   4.726   3.234
33386SOL    HW1  182   6.448   4.725   3.142
33386SOL    HW2  183   6.418   4.818   3.274
33387SOL     OW  184   6.502   4.634   2.153
33387SOL    HW1  185   6.565   4.672   2.085
33387SOL    HW2  186   6.542   4.551   2.192
33388SOL     OW  187   7.090   5.331   1.906
33388SOL    HW1  188   6.998   5.368   1.913
33388SOL    HW2  189   7.128   5.351   1.816
33389SOL     OW  190   5.958   5.012   3.352
33389SOL    HW1  191   5.945   5.105   3.318
33389SOL    HW2  192   5.874   4.960   3.339
33390SOL     OW  193   7.200   5.016   3.151
33390SOL    HW1  194   7.260   5.019   3.231
33390SOL    HW2  195   7.125   5.080   3.164
33391SOL     OW  196   6.625   4.822   2.558
33391SOL    HW1  197   6.555   4.775   2.612
33391SOL    HW2  198   6.684   4.754   2.515
33392SOL     OW  199   6.600   3.960   2.833
33392SOL    HW1  200   6.592   3.924   2.740
33392SOL    HW2  201   6.598   3.884   2.898
33393SOL     OW  202   6.176   5.211   2.353
33393SOL    HW1  203   6.218   5.153   2.283
33393SOL    HW2  204   6.132   5.290   2.309
33394SOL     OW  205   7.295   4.109   3.243
33394SOL    HW1  206   7.368   4.178   3.247
33394SOL    HW2  207   7.323   4.034   3.184
33395SOL     OW  208   5.841   5.072   2.152
33395SOL    HW1  209   5.745   5.073   2.125
33395SOL    HW2  210   5.853   5.125   2.236
33396SOL     OW  211   5.691   4.737   3.588
33396SOL    HW1  212   5.614   4.704   3.642
33396SOL    HW2  213   5.776   4.707   3.630
33397SOL     OW  214   6.258   3.927   3.351
33397SOL    HW1  215   6.348   3.911   3.311
33397SOL    HW2  216   6.266   3.932   3.450
33398SOL     OW  217   5.661   4.069   1.895
33398SOL    HW1  218   5.569   4.041   1.866
33398SOL    HW2  219   5.692   4.146   1.839
33399SOL     OW  220   7.026   4.580   3.260
33399SOL    HW1  221   6.969   4.632   3.197
33399SOL    HW2  222   7.122   4.592   3.236
33400SOL     OW  223   5.658   3.890   2.180
33400SOL    HW1  224   5.641   3.973   2.126
33400SOL    HW2  225   5.748   3.853   2.158
33401SOL     OW  226   6.769   5.059   1.981
33401SOL    HW1  227   6.670   5.048   1.983
33401SOL    HW2  228   6.803   5.074   2.074
33402SOL     OW  229   6.199   4.566   3.293
33402SOL    HW1  230   6.255   4.647   3.276
33402SOL    HW2  231   6.258   4.486   3.296
33403SOL     OW  232   7.079   5.491   2.821
33403SOL    HW1  233   7.112   5.555   2.752
33403SOL    HW2  234   7.145   5.485   2.896
33404SOL     OW  235   6.302   4.289   3.570
33404SOL    HW1  236   6.321   4.354   3.644
33404SOL    HW2  237   6.362   4.209   3.579
33405SOL     OW  238   7.036   4.944   3.495
33405SOL    HW1  239   7.027   4.934   3.594
33405SOL    HW2  240   7.132   4.937   3.469
33406SOL     OW  241   5.976   5.465   3.422
33406SOL    HW1  242   5.885   5.506   3.420
33406SOL    HW2  243   5.969   5.371   3.454
33407SOL     OW  244   7.260   4.607   3.116
33407SOL    HW1  245   7.233   4.518   3.079
33407SOL    HW2  246   7.261   4.675   3.043
33408SOL     OW  247   6.811   4.049   2.311
33408SOL    HW1  248   6.876   3.975   2.300
33408SOL    HW2  249   6.831   4.099   2.395
33409SOL     OW  250   6.180   4.469   2.514
33409SOL    HW1  251   6.230   4.554   2.495
33409SOL    HW2  252   6.092   4.471   2.466
33410SOL     OW  253   7.363   4.066   3.504
33410SOL    HW1  254   7.346   4.097   3.410
33410SOL    HW2  255   7.279   4.029   3.542
33411SOL     OW  256   7.316   4.658   3.379
33411SOL    HW1  257   7.354   4.749   3.394
33411SOL    HW2  258   7.308   4.641   3.280
33412SOL     OW  259   6.445   5.098   1.878
33412SOL    HW1  260   6.399   5.113   1.966
33412SOL    HW2  261   6.489   5.183   1.848
33413SOL     OW  262   6.247   5.514   2.815
33413SOL    HW1  263   6.201   5.602   2.802
33413SOL    HW2  264   6.346   5.526   2.808
33414SOL     OW  265   6.445   4.680   2.723
33414SOL    HW1  266   6.499   4.611   2.771
33414SOL    HW2  267   6.413   4.749   2.789
33415SOL     OW  268   6.669   4.708   1.949
33415SOL    HW1  269   6.646   4.761   1.867
33415SOL    HW2  270   6.750   4.652   1.930
33416SOL     OW  271   7.447   5.293   2.713
33416SOL    HW1  272   7.376   5.281   2.643
33416SOL    HW2  273   7.448   5.214   2.773
33417SOL     OW  274   5.807   5.038   3.706
33417SOL    HW1  275   5.742   4.965   3.685
33417SOL    HW2  276   5.811   5.052   3.804
33418SOL     OW  277   5.665   4.964   2.515
33418SOL    HW1  278   5.664   4.917   2.603
33418SOL    HW2  279   5.747   4.936   2.464
33419SOL     OW  280   6.258   5.115   3.486
33419SOL    HW1  281   6.180   5.065   3.524
33419SOL    HW2  282   6.255   5.210   3.517
33420SOL     OW  283   7.410   3.916   3.089
33420SOL    HW1  284   7.406   3.826   3.133
33420SOL    HW2  285   7.413   3.905   2.990
33421SOL     OW  286   6.014   4.148   2.382
33421SOL    HW1  287   6.044   4.076   2.320
33421SOL    HW2  288   5.975   4.108   2.465
33422SOL     OW  289   7.291   5.211   2.966
33422SOL    HW1  290   7.198   5.186   2.939
33422SOL    HW2  291   7.317   5.161   3.048
33423SOL     OW  292   5.903   4.271   3.142
33423SOL    HW1  293   5.941   4.212   3.214
33423SOL    HW2  294   5.943   4.245   3.054
33424SOL     OW  295   6.398   5.310   2.549
33424SOL    HW1  296   6.430   5.320   2.455
33424SOL    HW2  297   6.319   5.248   2.551
33425SOL     OW  298   7.010   3.938   2.974
33425SOL    HW1  299   7.062   3.873   3.029
33425SOL    HW2  300   6.961   4.001   3.035
33426SOL     OW  301   6.587   3.758   3.016
33426SOL    HW1  302   6.524   3.686   2.985
33426SOL    HW2  303   6.680   3.722   3.016
33427SOL     OW  304   6.356   5.054   2.163
33427SOL    HW1  305   6.310   4.967   2.180
33427SOL    HW2  306   6.447   5.051   2.204
33428SOL     OW  307   6.204   5.291   3.146
33428SOL    HW1  308   6.199   5.373   3.203
33428SOL    HW2  309   6.293   5.288   3.101
33429SOL     OW  310   6.938   3.776   2.030
33429SOL    HW1  311   6.973   3.735   1.946
33429SOL    HW2  312   6.848   3.738   2.050
33430SOL     OW  313   6.886   4.177   2.553
33430SOL    HW1  314   6.827   4.257   2.557
33430SOL    HW2  315   6.901   4.142   2.646
33431SOL     OW  316   7.179   3.945   2.744
33431SOL    HW1  317   7.095   3.944   2.798
33431SOL    HW2  318   7.181   4.028   2.688
33432SOL     OW  319   5.625   4.801   2.162
33432SOL    HW1  320   5.724   4.790   2.153
33432SOL    HW2  321   5.585   4.715   2.194
33433SOL     OW  322   6.461   5.370   2.199
33433SOL    HW1  323   6.384   5.335   2.145
33433SOL    HW2  324   6.429   5.441   2.261
33434SOL     OW  325   5.816   4.352   3.837
33434SOL    HW1  326   5.723   4.350   3.874
33434SOL    HW2  327   5.817   4.313   3.745
33435SOL     OW  328   5.811   3.999   4.720
33435SOL    HW1  329   5.846   3.982   4.812
33435SOL    HW2  330   5.723   3.954   4.708
33436SOL     OW  331   5.605   4.092   4.371
33436SOL    HW1  332   5.523   4.135   4.410
33436SOL    HW2  333   5.577   4.019   4.308
33437SOL     OW  334   6.155   4.999   4.889
33437SOL    HW1  335   6.062   4.992   4.852
33437SOL    HW2  336   6.166   5.088   4.933
33438SOL     OW  337   7.141   5.235   4.427
33438SOL    HW1  338   7.084   5.219   4.508
33438SOL    HW2  339   7.082   5.245   4.347
33439SOL     OW  340   6.721   4.427   4.441
33439SOL    HW1  341   6.778   4.505   4.416
33439SOL    HW2  342   6.661   4.453   4.517
33440SOL     OW  343   7.341   4.331   3.955
33440SOL    HW1  344   7.329   4.318   3.856
33440SOL    HW2  345   7.311   4.250   4.004
33441SOL     OW  346   6.354   4.868   4.747
33441SOL    HW1  347   6.276   4.885   4.807
33441SOL    HW2  348   6.388   4.955   4.711
33442SOL     OW  349   6.436   4.522   5.547
33442SOL    HW1  350   6.432   4.598   5.612
33442SOL    HW2  351   6.458   4.558   5.456
33443SOL     OW  352   6.271   4.736   4.389
33443SOL    HW1  353   6.340   4.720   4.459
33443SOL    HW2  354   6.198   4.793   4.427
33444SOL     OW  355   6.272   4.885   5.527
33444SOL    HW1  356   6.332   4.964   5.541
33444SOL    HW2  357   6.186   4.916   5.486
33445SOL     OW  358   5.921   5.159   4.785
33445SOL    HW1  359   5.843   5.128   4.732
33445SOL    HW2  360   5.979   5.217   4.728
33446SOL     OW  361   7.046   5.229   5.063
33446SOL    HW1  362   7.070   5.323   5.089
33446SOL    HW2  363   7.030   5.175   5.145
33447SOL     OW  364   6.024   4.116   5.223
33447SOL    HW1  365   6.106   4.060   5.232
33447SOL    HW2  366   5.943   4.058   5.227
33448SOL     OW  367   7.189   4.171   4.461
33448SOL    HW1  368   7.115   4.217   4.411
33448SOL    HW2  369   7.240   4.239   4.514
33449SOL     OW  370   5.817   5.437   4.207
33449SOL    HW1  371   5.851   5.514   4.261
33449SOL    HW2  372   5.861   5.437   4.117
33450SOL     OW  373   6.713   5.065   5.414
33450SOL    HW1  374   6.760   5.065   5.502
33450SOL    HW2  375   6.665   4.978   5.403
33451SOL     OW  376   5.816   5.158   4.262
33451SOL    HW1  377   5.790   5.254   4.262
33451SOL    HW2  378   5.745   5.104   4.307
33452SOL     OW  379   5.826   4.815   4.610
33452SOL    HW1  380   5.840   4.731   4.662
33452SOL    HW2  381   5.771   4.879   4.665
33453SOL     OW  382   6.206   5.510   5.163
33453SOL    HW1  383   6.114   5.493   5.198
33453SOL    HW2  384   6.234   5.602   5.189
33454SOL     OW  385   6.192   4.688   3.847
33454SOL    HW1  386   6.199   4.772   3.793
33454SOL    HW2  387   6.238   4.701   3.935
33455SOL     OW  388   7.180   3.838   5.204
33455SOL    HW1  389   7.162   3.905   5.132
33455SOL    HW2  390   7.177   3.884   5.293
33456SOL     OW  391   5.708   4.367   4.287
33456SOL    HW1  392   5.663   4.279   4.304
33456SOL    HW2  393   5.707   4.421   4.371
33457SOL     OW  394   7.428   5.491   4.083
33457SOL    HW1  395   7.482   5.462   4.163
33457SOL    HW2  396   7.458   5.581   4.054
33458SOL     OW  397   5.613   5.320   3.841
33458SOL    HW1  398   5.594   5.224   3.862
33458SOL    HW2  399   5.580   5.378   3.916
33459SOL     OW  400   7.275   4.646   4.336
33459SOL    HW1  401   7.370   4.617   4.344
33459SOL    HW2  402   7.267   4.711   4.261
33460SOL     OW  403   7.227   4.832   4.156
33460SOL    HW1  404   7.313   4.834   4.104
33460SOL    HW2  405   7.241   4.879   4.244
33461SOL     OW  406   5.699   4.461   5.321
33461SOL    HW1  407   5.787   4.448   5.366
33461SOL    HW2  408   5.686   4.558   5.299
33462SOL     OW  409   6.199   5.089   4.450
33462SOL    HW1  410   6.150   5.002   4.459
33462SOL    HW2  411   6.176   5.132   4.363
33463SOL     OW  412   6.879   4.952   5.147
33463SOL    HW1  413   6.916   4.879   5.089
33463SOL    HW2  414   6.931   4.957   5.232
33464SOL     OW  415   6.395   3.728   4.226
33464SOL    HW1  416   6.435   3.819   4.217
33464SOL    HW2  417   6.295   3.736   4.232
33465SOL     OW  418   5.783   4.700   4.988
33465SOL    HW1  419   5.872   4.655   4.974
33465SOL    HW2  420   5.710   4.635   4.969
33466SOL     OW  421   7.111   4.723   3.914
33466SOL    HW1  422   7.048   4.647   3.927
33466SOL    HW2  423   7.159   4.741   4.000
33467SOL     OW  424   6.773   5.516   5.340
33467SOL    HW1  425   6.797   5.576   5.264
33467SOL    HW2  426   6.780   5.421   5.310
33468SOL     OW  427   5.903   3.975   5.525
33468SOL    HW1  428   5.974   4.046   5.531
33468SOL    HW2  429   5.815   4.014   5.553
33469SOL     OW  430   7.052   5.141   4.677
33469SOL    HW1  431   6.993   5.147   4.757
33469SOL    HW2  432   7.037   5.053   4.631
33470SOL     OW  433   7.253   5.438   4.296
33470SOL    HW1  434   7.212   5.415   4.208
33470SOL    HW2  435   7.235   5.364   4.361
33471SOL     OW  436   6.184   4.453   3.994
33471SOL    HW1  437   6.208   4.522   3.926
33471SOL    HW2  438   6.106   4.486   4.048
33472SOL     OW  439   6.867   4.069   4.668
33472SOL    HW1  440   6.781   4.019   4.655
33472SOL    HW2  441   6.929   4.015   4.724
33473SOL     OW  442   7.162   5.386   4.031
33473SOL    HW1  443   7.251   5.432   4.034
33473SOL    HW2  444   7.141   5.362   3.936
33474SOL     OW  445   6.393   4.329   5.189
33474SOL    HW1  446   6.346   4.326   5.278
33474SOL    HW2  447   6.342   4.274   5.123
33475SOL     OW  448   6.980   4.193   5.398
33475SOL    HW1  449   6.960   4.236   5.486
33475SOL    HW2  450   7.058   4.131   5.407
33476SOL     OW  451   6.559   4.614   5.296
33476SOL    HW1  452   6.605   4.530   5.267
33476SOL    HW2  453   6.503   4.648   5.221
33477SOL     OW  454   6.577   4.134   4.966
33477SOL    HW1  455   6.500   4.168   5.020
33477SOL    HW2  456   6.543   4.083   4.887
33478SOL     OW  457   6.627   4.425   4.153
33478SOL    HW1  458   6.653   4.421   4.249
33478SOL    HW2  459   6.542   4.374   4.139
33479SOL     OW  460   5.662   4.535   4.513
33479SOL    HW1  461   5.761   4.523   4.522
33479SOL    HW2  462   5.638   4.630   4.534
33480SOL     OW  463   5.716   5.545   5.295
33480SOL    HW1  464   5.706   5.530   5.394
33480SOL    HW2  465   5.630   5.581   5.259
33481SOL     OW  466   6.451   4.072   3.919
33481SOL    HW1  467   6.510   4.135   3.870
33481SOL    HW2  468   6.470   3.978   3.890
33482SOL     OW  469   7.305   4.309   5.555
33482SOL    HW1  470   7.279   4.398   5.519
33482SOL    HW2  471   7.303   4.241   5.482
33483SOL     OW  472   6.948   4.868   4.269
33483SOL    HW1  473   7.031   4.839   4.221
33483SOL    HW2  474   6.899   4.935   4.213
33484SOL     OW  475   6.136   3.920   4.609
33484SOL    HW1  476   6.131   3.915   4.709
33484SOL    HW2  477   6.138   4.016   4.580
33485SOL     OW  478   6.594   5.180   4.201
33485SOL    HW1  479   6.548   5.252   4.149
33485SOL    HW2  480   6.590   5.200   4.299
33486SOL     OW  481   5.937   5.525   4.577
33486SOL    HW1  482   5.987   5.439   4.583
33486SOL    HW2  483   6.002   5.602   4.574
33487SOL     OW  484   7.381   4.790   4.597
33487SOL    HW1  485   7.319   4.775   4.521
33487SOL    HW2  486   7.329   4.801   4.682
33488SOL     OW  487   6.813   5.274   5.230
33488SOL    HW1  488   6.819   5.197   5.294
33488SOL    HW2  489   6.761   5.248   5.150
33489SOL     OW  490   5.907   4.667   3.966
33489SOL    HW1  491   5.989   4.706   3.924
33489SOL    HW2  492   5.880   4.585   3.917
33490SOL     OW  493   7.044   4.459   4.452
33490SOL    HW1  494   7.039   4.394   4.527
33490SOL    HW2  495   7.124   4.518   4.465
33491SOL     OW  496   6.047   4.990   5.451
33491SOL    HW1  497   5.997   4.991   5.365
33491SOL    HW2  498   5.984   4.972   5.527
33492SOL     OW  499   6.697   5.500   3.961
33492SOL    HW1  500   6.637   5.438   4.011
33492SOL    HW2  501   6.728   5.456   3.876
33493SOL     OW  502   5.788   4.009   5.222
33493SOL    HW1  503   5.708   4.069   5.209
33493SOL    HW2  504   5.778   3.960   5.308
33494SOL     OW  505   7.218   5.101   3.805
33494SOL    HW1  506   7.186   5.195   3.795
33494SOL    HW2  507   7.142   5.038   3.793
33495SOL     OW  508   6.050   5.467   4.047
33495SOL    HW1  509   6.083   5.506   4.133
33495SOL    HW2  510   6.126   5.460   3.982
33496SOL     OW  511   6.986   3.831   4.150
33496SOL    HW1  512   6.962   3.794   4.060
33496SOL    HW2  513   7.085   3.847   4.154
33497SOL     OW  514   5.835   5.509   4.965
33497SOL    HW1  515   5.892   5.444   5.015
33497SOL    HW2  516   5.819   5.476   4.872
33498SOL     OW  517   6.526   5.422   4.628
33498SOL    HW1  518   6.606   5.365   4.649
33498SOL    HW2  519   6.477   5.382   4.551
33499SOL     OW  520   5.968   4.424   4.204
33499SOL    HW1  521   6.013   4.334   4.201
33499SOL    HW2  522   5.874   4.413   4.237
33500SOL     OW  523   7.133   3.946   5.453
33500SOL    HW1  524   7.128   3.983   5.545
33500SOL    HW2  525   7.061   3.877   5.441
33501SOL     OW  526   6.200   3.846   3.841
33501SOL    HW1  527   6.298   3.824   3.848
33501SOL    HW2  528   6.169   3.829   3.748
33502SOL     OW  529   6.367   3.988   5.473
33502SOL    HW1  530   6.434   3.927   5.516
33502SOL    HW2  531   6.294   4.007   5.538
33503SOL     OW  532   6.474   5.238   4.919
33503SOL    HW1  533   6.451   5.213   4.825
33503SOL    HW2  534   6.535   5.169   4.958
33504SOL     OW  535   6.937   4.314   5.157
33504SOL    HW1  536   6.965   4.271   5.242
33504SOL    HW2  537   6.962   4.410   5.158
33505SOL     OW  538   6.389   5.126   4.648
33505SOL    HW1  539   6.479   5.140   4.606
33505SOL    HW2  540   6.318   5.128   4.577
33506SOL     OW  541   6.508   4.227   4.623
33506SOL    HW1  542   6.483   4.218   4.527
33506SOL    HW2  543   6.556   4.145   4.654
33507SOL     OW  544   6.125   3.788   4.236
33507SOL    HW1  545   6.044   3.789   4.294
33507SOL    HW2  546   6.128   3.871   4.181
33508SOL     OW  547   7.020   4.912   3.765
33508SOL    HW1  548   7.052   4.836   3.822
33508SOL    HW2  549   6.928   4.939   3.795
33509SOL     OW  550   5.883   3.759   3.895
33509SOL    HW1  551   5.932   3.843   3.874
33509SOL    HW2  552   5.945   3.694   3.940
33510SOL     OW  553   6.521   3.960   4.204
33510SOL    HW1  554   6.473   4.001   4.126
33510SOL    HW2  555   6.620   3.958   4.185
33511SOL     OW  556   6.662   4.407   5.188
33511SOL    HW1  557   6.582   4.346   5.191
33511SOL    HW2  558   6.743   4.354   5.164
33512SOL     OW  559   6.813   5.294   4.517
33512SOL    HW1  560   6.834   5.368   4.452
33512SOL    HW2  561   6.881   5.294   4.590
33513SOL     OW  562   6.045   4.876   4.465
33513SOL    HW1  563   5.974   4.849   4.530
33513SOL    HW2  564   6.019   4.848   4.372
33514SOL     OW  565   6.857   5.521   4.315
33514SOL    HW1  566   6.901   5.585   4.251
33514SOL    HW2  567   6.807   5.573   4.385
33515SOL     OW  568   6.618   4.273   3.740
33515SOL    HW1  569   6.577   4.355   3.701
33515SOL    HW2  570   6.682   4.299   3.813
33516SOL     OW  571   5.664   4.280   5.110
33516SOL    HW1  572   5.756   4.279   5.069
33516SOL    HW2  573   5.658   4.354   5.177
33517SOL     OW  574   6.147   3.946   4.871
33517SOL    HW1  575   6.185   3.862   4.908
33517SOL    HW2  576   6.059   3.965   4.915
33518SOL     OW  577   6.452   4.178   4.366
33518SOL    HW1  578   6.420   4.250   4.304
33518SOL    HW2  579   6.476   4.097   4.313
33519SOL     OW  580   6.603   3.763   4.477
33519SOL    HW1  581   6.531   3.768   4.408
33519SOL    HW2  582   6.579   3.694   4.546
33520SOL     OW  583   7.015   4.897   4.591
33520SOL    HW1  584   6.960   4.813   4.584
33520SOL    HW2  585   7.041   4.926   4.499
33521SOL     OW  586   7.052   4.314   4.716
33521SOL    HW1  587   7.022   4.219   4.723
33521SOL    HW2  588   7.125   4.330   4.782
33522SOL     OW  589   7.443   4.557   4.101
33522SOL    HW1  590   7.485   4.493   4.165
33522SOL    HW2  591   7.405   4.506   4.023
33523SOL     OW  592   6.074   5.109   3.898
33523SOL    HW1  593   5.987   5.094   3.945
33523SOL    HW2  594   6.057   5.135   3.803
33524SOL     OW  595   7.250   5.004   4.381
33524SOL    HW1  596   7.349   5.012   4.395
33524SOL    HW2  597   7.205   5.088   4.412
33525SOL     OW  598   6.976   4.299   3.802
33525SOL    HW1  599   6.922   4.278   3.883
33525SOL    HW2  600   7.067   4.258   3.811
33526SOL     OW  601   6.113   3.980   4.052
33526SOL    HW1  602   6.140   3.921   3.977
33526SOL    HW2  603   6.113   4.075   4.021
33527SOL     OW  604   7.340   4.947   5.312
33527SOL    HW1  605   7.431   4.908   5.299
33527SOL    HW2  606   7.348   5.043   5.336
33528SOL     OW  607   6.650   5.071   5.064
33528SOL    HW1  608   6.570   5.048   5.119
33528SOL    HW2  609   6.733   5.045   5.113
33529SOL     OW  610   7.178   5.353   5.349
33529SOL    HW1  611   7.205   5.387   5.259
33529SOL    HW2  612   7.257   5.315   5.395
33530SOL     OW  613   6.697   4.919   4.824
33530SOL    HW1  614   6.657   4.963   4.905
33530SOL    HW2  615   6.656   4.956   4.741
33531SOL     OW  616   7.224   4.823   4.803
33531SOL    HW1  617   7.229   4.904   4.862
33531SOL    HW2  618   7.138   4.825   4.752
33532SOL     OW  619   6.501   3.813   5.126
33532SOL    HW1  620   6.526   3.793   5.031
33532SOL    HW2  621   6.573   3.869   5.168
33533SOL     OW  622   6.566   4.840   5.443
33533SOL    HW1  623   6.467   4.846   5.453
33533SOL    HW2  624   6.589   4.760   5.387
33534SOL     OW  625   6.291   4.774   4.092
33534SOL    HW1  626   6.277   4.781   4.191
33534SOL    HW2  627   6.375   4.723   4.074
33535SOL     OW  628   5.996   4.537   4.975
33535SOL    HW1  629   6.082   4.549   5.025
33535SOL    HW2  630   5.954   4.450   5.002
33536SOL     OW  631   6.860   4.110   4.986
33536SOL    HW1  632   6.881   4.184   5.050
33536SOL    HW2  633   6.771   4.127   4.943
33537SOL     OW  634   5.650   5.288   5.055
33537SOL    HW1  635   5.604   5.370   5.021
33537SOL    HW2  636   5.748   5.307   5.064
33538SOL     OW  637   5.953   4.824   4.225
33538SOL    HW1  638   5.946   4.907   4.169
33538SOL    HW2  639   5.957   4.744   4.165
33539SOL     OW  640   6.152   4.261   4.589
33539SOL    HW1  641   6.164   4.327   4.515
33539SOL    HW2  642   6.198   4.295   4.672
33540SOL     OW  643   6.838   5.072   4.112
33540SOL    HW1  644   6.888   5.149   4.152
33540SOL    HW2  645   6.743   5.074   4.144
33541SOL     OW  646   6.858   5.169   4.866
33541SOL    HW1  647   6.905   5.182   4.953
33541SOL    HW2  648   6.792   5.095   4.875
33542SOL     OW  649   7.168   4.363   4.196
33542SOL    HW1  650   7.137   4.424   4.269
33542SOL    HW2  651   7.218   4.415   4.127
33543SOL     OW  652   5.940   5.234   5.053
33543SOL    HW1  653   5.919   5.190   4.966
33543SOL    HW2  654   6.037   5.260   5.056
33544SOL     OW  655   5.988   4.475   5.322
33544SOL    HW1  656   6.056   4.530   5.275
33544SOL    HW2  657   6.028   4.387   5.349
33545SOL     OW  658   7.173   4.503   5.394
33545SOL    HW1  659   7.081   4.541   5.389
33545SOL    HW2  660   7.233   4.550   5.329
33546SOL     OW  661   6.599   3.829   5.494
33546SOL    HW1  662   6.605   3.914   5.442
33546SOL    HW2  663   6.631   3.753   5.437
33547SOL     OW  664   6.090   3.774   5.464
33547SOL    HW1  665   6.048   3.717   5.394
33547SOL    HW2  666   6.024   3.843   5.496
33548SOL     OW  667   6.159   4.594   4.753
33548SOL    HW1  668   6.203   4.683   4.744
33548SOL    HW2  669   6.096   4.594   4.830
33549SOL     OW  670   6.946   4.586   4.769
33549SOL    HW1  671   6.871   4.586   4.703
33549SOL    HW2  672   6.983   4.494   4.778
33550SOL     OW  673   6.795   4.249   3.999
33550SOL    HW1  674   6.808   4.165   4.053
33550SOL    HW2  675   6.766   4.323   4.059
33551SOL     OW  676   5.893   3.937   4.955
33551SOL    HW1  677   5.870   3.974   5.045
33551SOL    HW2  678   5.863   3.842   4.949
33552SOL     OW  679   5.623   5.034   5.006
33552SOL    HW1  680   5.676   4.985   5.074
33552SOL    HW2  681   5.645   5.132   5.011
33553SOL     OW  682   6.318   4.358   4.788
33553SOL    HW1  683   6.377   4.332   4.712
33553SOL    HW2  684   6.290   4.454   4.777
33554SOL     OW  685   7.314   4.659   5.578
33554SOL    HW1  686   7.268   4.652   5.489
33554SOL    HW2  687   7.252   4.703   5.644
33555SOL     OW  688   5.893   3.787   4.342
33555SOL    HW1  689   5.882   3.881   4.375
33555SOL    HW2  690   5.888   3.724   4.419
33556SOL     OW  691   7.208   4.091   4.098
33556SOL    HW1  692   7.210   4.015   4.162
33556SOL    HW2  693   7.160   4.168   4.138
33557SOL     OW  694   6.609   4.490   4.690
33557SOL    HW1  695   6.624   4.511   4.786
33557SOL    HW2  696   6.579   4.395   4.681
33558SOL     OW  697   6.566   5.297   5.424
33558SOL    HW1  698   6.546   5.341   5.336
33558SOL    HW2  699   6.605   5.206   5.408
33559SOL     OW  700   7.445   5.242   5.329
33559SOL    HW1  701   7.459   5.269   5.234
33559SOL    HW2  702   7.528   5.264   5.382
33560SOL     OW  703   5.936   4.622   5.528
33560SOL    HW1  704   6.012   4.666   5.576
33560SOL    HW2  705   5.971   4.575   5.446
33561SOL     OW  706   7.126   3.998   3.849
33561SOL    HW1  707   7.065   3.923   3.872
33561SOL    HW2  708   7.148   4.050   3.932
33562SOL     OW  709   6.889   4.562   3.766
33562SOL    HW1  710   6.923   4.469   3.781
33562SOL    HW2  711   6.907   4.589   3.671
33563SOL     OW  712   6.654   5.057   4.573
33563SOL    HW1  713   6.661   4.973   4.518
33563SOL    HW2  714   6.716   5.126   4.537
33564SOL     OW  715   5.905   4.534   4.673
33564SOL    HW1  716   5.998   4.570   4.678
33564SOL    HW2  717   5.899   4.449   4.725
33565SOL     OW  718   5.925   4.233   4.730
33565SOL    HW1  719   5.873   4.150   4.713
33565SOL    HW2  720   6.002   4.238   4.666
33566SOL     OW  721   6.724   4.104   5.402
33566SOL    HW1  722   6.679   4.167   5.466
33566SOL    HW2  723   6.817   4.135   5.385
33567SOL     OW  724   6.746   3.931   5.201
33567SOL    HW1  725   6.746   3.995   5.278
33567SOL    HW2  726   6.774   3.979   5.118
33568SOL     OW  727   5.594   5.050   3.924
33568SOL    HW1  728   5.501   5.071   3.893
33568SOL    HW2  729   5.604   4.951   3.937
33569SOL     OW  730   5.674   5.525   4.651
33569SOL    HW1  731   5.632   5.439   4.624
33569SOL    HW2  732   5.768   5.528   4.617
33570SOL     OW  733   6.090   5.292   4.634
33570SOL    HW1  734   6.156   5.366   4.643
33570SOL    HW2  735   6.134   5.213   4.592
33571SOL     OW  736   6.588   4.520   4.962
33571SOL    HW1  737   6.629   4.488   5.048
33571SOL    HW2  738   6.492   4.493   4.959
33572SOL     OW  739   5.626   4.268   4.838
33572SOL    HW1  740   5.711   4.235   4.797
33572SOL    HW2  741   5.639   4.283   4.936
33573SOL     OW  742   5.775   4.244   5.446
33573SOL    HW1  743   5.834   4.204   5.376
33573SOL    HW2  744   5.717   4.315   5.405
33574SOL     OW  745   6.955   4.674   5.384
33574SOL    HW1  746   6.994   4.763   5.404
33574SOL    HW2  747   6.965   4.654   5.287
33575SOL     OW  748   6.401   4.296   4.049
33575SOL    HW1  749   6.408   4.207   4.003
33575SOL    HW2  750   6.307   4.330   4.041
33576SOL     OW  751   7.243   4.328   4.930
33576SOL    HW1  752   7.205   4.259   4.992
33576SOL    HW2  753   7.325   4.292   4.886
33577SOL     OW  754   5.838   5.288   5.468
33577SOL    HW1  755   5.808   5.345   5.544
33577SOL    HW2  756   5.831   5.191   5.494
33578SOL     OW  757   6.257   4.188   4.993
33578SOL    HW1  758   6.223   4.099   4.963
33578SOL    HW2  759   6.283   4.242   4.913
33579SOL     OW  760   6.516   5.402   5.189
33579SOL    HW1  761   6.492   5.384   5.094
33579SOL    HW2  762   6.546   5.496   5.199
33580SOL     OW  763   6.059   4.224   3.915
33580SOL    HW1  764   6.120   4.304   3.919
33580SOL    HW2  765   5.964   4.255   3.922
33581SOL     OW  766   5.745   4.861   5.190
33581SOL    HW1  767   5.767   4.800   5.266
33581SOL    HW2  768   5.755   4.812   5.104
33582SOL     OW  769   6.933   4.783   4.958
33582SOL    HW1  770   6.957   4.720   4.884
33582SOL    HW2  771   6.843   4.823   4.940
33583SOL     OW  772   6.888   4.579   4.033
33583SOL    HW1  773   6.802   4.548   4.075
33583SOL    HW2  774   6.884   4.565   3.934
33584SOL     OW  775   7.345   5.471   4.878
33584SOL    HW1  776   7.406   5.501   4.805
33584SOL    HW2  777   7.307   5.382   4.856
33585SOL     OW  778   6.838   5.455   4.852
33585SOL    HW1  779   6.922   5.460   4.798
33585SOL    HW2  780   6.815   5.359   4.870
33586SOL     OW  781   5.669   4.982   4.746
33586SOL    HW1  782   5.664   4.981   4.846
33586SOL    HW2  783   5.586   4.941   4.708
33587SOL     OW  784   6.274   5.386   5.440
33587SOL    HW1  785   6.218   5.467   5.449
33587SOL    HW2  786   6.326   5.390   5.354
33588SOL     OW  787   7.312   3.859   4.247
33588SOL    HW1  788   7.385   3.842   4.180
33588SOL    HW2  789   7.281   3.772   4.285
33589SOL     OW  790   6.974   5.297   4.201
33589SOL    HW1  791   7.041   5.309   4.127
33589SOL    HW2  792   6.934   5.386   4.224
33590SOL     OW  793   5.716   5.518   5.575
33590SOL    HW1  794   5.675   5.444   5.628
33590SOL    HW2  795   5.780   5.569   5.633
33591SOL     OW  796   6.866   4.651   4.396
33591SOL    HW1  797   6.926   4.570   4.398
33591SOL    HW2  798   6.906   4.720   4.336
33592SOL     OW  799   6.416   4.997   5.146
33592SOL    HW1  800   6.411   5.030   5.241
33592SOL    HW2  801   6.330   5.016   5.100
33593SOL     OW  802   6.258   5.340   3.878
33593SOL    HW1  803   6.267   5.350   3.779
33593SOL    HW2  804   6.218   5.251   3.899
33594SOL     OW  805   7.236   5.444   5.118
33594SOL    HW1  806   7.289   5.454   5.034
33594SOL    HW2  807   7.209   5.534   5.152
33595SOL     OW  808   7.427   3.899   4.687
33595SOL    HW1  809   7.466   3.814   4.651
33595SOL    HW2  810   7.329   3.901   4.668
33596SOL     OW  811   5.849   4.050   4.444
33596SOL    HW1  812   5.770   4.101   4.410
33596SOL    HW2  813   5.840   4.035   4.542
33597SOL     OW  814   6.780   5.336   3.755
33597SOL    HW1  815   6.786   5.243   3.792
33597SOL    HW2  816   6.721   5.336   3.675
33598SOL     OW  817   6.408   4.726   5.096
33598SOL    HW1  818   6.448   4.725   5.004
33598SOL    HW2  819   6.418   4.818   5.136
33599SOL     OW  820   6.502   4.634   4.015
33599SOL    HW1  821   6.565   4.672   3.947
33599SOL    HW2  822   6.542   4.551   4.054
33600SOL     OW  823   7.090   5.331   3.768
33600SOL    HW1  824   6.998   5.368   3.775
33600SOL    HW2  825   7.128   5.351   3.678
33601SOL     OW  826   5.958   5.012   5.214
33601SOL    HW1  827   5.945   5.105   5.180
33601SOL    HW2  828   5.874   4.960   5.201
33602SOL     OW  829   7.200   5.016   5.013
33602SOL    HW1  830   7.260   5.019   5.093
33602SOL    HW2  831   7.125   5.080   5.026
33603SOL     OW  832   6.625   4.822   4.420
33603SOL    HW1  833   6.555   4.775   4.474
33603SOL    HW2  834   6.684   4.754   4.377
33604SOL     OW  835   6.600   3.960   4.695
33604SOL    HW1  836   6.592   3.924   4.602
33604SOL    HW2  837   6.598   3.884   4.760
33605SOL     OW  838   6.176   5.211   4.215
33605SOL    HW1  839   6.218   5.153   4.145
33605SOL    HW2  840   6.132   5.290   4.171
33606SOL     OW  841   7.295   4.109   5.105
33606SOL    HW1  842   7.368   4.178   5.109
33606SOL    HW2  843   7.323   4.034   5.046
33607SOL     OW  844   5.841   5.072   4.014
33607SOL    HW1  845   5.745   5.073   3.987
33607SOL    HW2  846   5.853   5.125   4.098
33608SOL     OW  847   5.691   4.737   5.450
33608SOL    HW1  848   5.614   4.704   5.504
33608SOL    HW2  849   5.776   4.707   5.492
33609SOL     OW  850   6.258   3.927   5.213
33609SOL    HW1  851   6.348   3.911   5.173
33609SOL    HW2  852   6.266   3.932   5.312
33610SOL     OW  853   5.661   4.069   3.757
33610SOL    HW1  854   5.569   4.041   3.728
33610SOL    HW2  855   5.692   4.146   3.701
33611SOL     OW  856   7.026   4.580   5.122
33611SOL    HW1  857   6.969   4.632   5.059
33611SOL    HW2  858   7.122   4.592   5.098
33612SOL     OW  859   5.658   3.890   4.042
33612SOL    HW1  860   5.641   3.973   3.988
33612SOL    HW2  861   5.748   3.853   4.020
33613SOL     OW  862   6.769   5.059   3.843
33613SOL    HW1  863   6.670   5.048   3.845
33613SOL    HW2  864   6.803   5.074   3.936
33614SOL     OW  865   6.199   4.566   5.155
33614SOL    HW1  866   6.255   4.647   5.138
33614SOL    HW2  867   6.258   4.486   5.158
33615SOL     OW  868   7.079   5.491   4.683
33615SOL    HW1  869   7.112   5.555   4.614
33615SOL    HW2  870   7.145   5.485   4.758
33616SOL     OW  871   6.302   4.289   5.432
33616SOL    HW1  872   6.321   4.354   5.506
33616SOL    HW2  873   6.362   4.209   5.441
33617SOL     OW  874   7.036   4.944   5.357
33617SOL    HW1  875   7.027   4.934   5.456
33617SOL    HW2  876   7.132   4.937   5.331
33618SOL     OW  877   5.976   5.465   5.284
33618SOL    HW1  878   5.885   5.506   5.282
33618SOL    HW2  879   5.969   5.371   5.316
33619SOL     OW  880   7.260   4.607   4.978
33619SOL    HW1  881   7.233   4.518   4.941
33619SOL    HW2  882   7.261   4.675   4.905
33620SOL     OW  883   6.811   4.049   4.173
33620SOL    HW1  884   6.876   3.975   4.162
33620SOL    HW2  885   6.831   4.099   4.257
33621SOL     OW  886   6.180   4.469   4.376
33621SOL    HW1  887   6.230   4.554   4.357
33621SOL    HW2  888   6.092   4.471   4.328
33622SOL     OW  889   7.363   4.066   5.366
33622SOL    HW1  890   7.346   4.097   5.272
33622SOL    HW2  891   7.279   4.029   5.404
33623SOL     OW  892   7.316   4.658   5.241
33623SOL    HW1  893   7.354   4.749   5.256
33623SOL    HW2  894   7.308   4.641   5.142
33624SOL     OW  895   6.445   5.098   3.740
33624SOL    HW1  896   6.399   5.113   3.828
33624SOL    HW2  897   6.489   5.183   3.710
33625SOL     OW  898   6.247   5.514   4.677
33625SOL    HW1  899   6.201   5.602   4.664
33625SOL    HW2  900   6.346   5.526   4.670
33626SOL     OW  901   6.445   4.680   4.585
33626SOL    HW1  902   6.499   4.611   4.633
33626SOL    HW2  903   6.413   4.749   4.651
33627SOL     OW  904   6.669   4.708   3.811
33627SOL    HW1  905   6.646   4.761   3.729
33627SOL    HW2  906   6.750   4.652   3.792
33628SOL     OW  907   7.447   5.293   4.575
33628SOL    HW1  908   7.376   5.281   4.505
33628SOL    HW2  909   7.448   5.214   4.635
33629SOL     OW  910   5.807   5.038   5.568
33629SOL    HW1  911   5.742   4.965   5.547
33629SOL    HW2  912   5.811   5.052   5.666
33630SOL     OW  913   5.665   4.964   4.377
33630SOL    HW1  914   5.664   4.917   4.465
33630SOL    HW2  915   5.747   4.936   4.326
33631SOL     OW  916   6.258   5.115   5.348
33631SOL    HW1  917   6.180   5.065   5.386
33631SOL    HW2  918   6.255   5.210   5.379
33632SOL     OW  919   7.410   3.916   4.951
33632SOL    HW1  920   7.406   3.826   4.995
33632SOL    HW2  921   7.413   3.905   4.852
33633SOL     OW  922   6.014   4.148   4.244
33633SOL    HW1  923   6.044   4.076   4.182
33633SOL    HW2  924   5.975   4.108   4.327
33634SOL     OW  925   7.291   5.211   4.828
33634SOL    HW1  926   7.198   5.186   4.801
33634SOL    HW2  927   7.317   5.161   4.910
33635SOL     OW  928   5.903   4.271   5.004
33635SOL    HW1  929   5.941   4.212   5.076
33635SOL    HW2  930   5.943   4.245   4.916
33636SOL     OW  931   6.398   5.310   4.411
33636SOL    HW1  932   6.430   5.320   4.317
33636SOL    HW2  933   6.319   5.248   4.413
33637SOL     OW  934   7.010   3.938   4.836
33637SOL    HW1  935   7.062   3.873   4.891
33637SOL    HW2  936   6.961   4.001   4.897
33638SOL     OW  937   6.587   3.758   4.878
33638SOL    HW1  938   6.524   3.686   4.847
33638SOL    HW2  939   6.680   3.722   4.878
33639SOL     OW  940   6.356   5.054   4.025
33639SOL    HW1  941   6.310   4.967   4.042
33639SOL    HW2  942   6.447   5.051   4.066
33640SOL     OW  943   6.204   5.291   5.008
33640SOL    HW1  944   6.199   5.373   5.065
33640SOL    HW2  945   6.293   5.288   4.963
33641SOL     OW  946   6.938   3.776   3.892
33641SOL    HW1  947   6.973   3.735   3.808
33641SOL    HW2  948   6.848   3.738   3.912
33642SOL     OW  949   6.886   4.177   4.415
33642SOL    HW1  950   6.827   4.257   4.419
33642SOL    HW2  951   6.901   4.142   4.508
33643SOL     OW  952   7.179   3.945   4.606
33643SOL    HW1  953   7.095   3.944   4.660
33643SOL    HW2  954   7.181   4.028   4.550
33644SOL     OW  955   5.625   4.801   4.024
33644SOL    HW1  956   5.724   4.790   4.015
33644SOL    HW2  957   5.585   4.715   4.056
33645SOL     OW  958   6.461   5.370   4.061
33645SOL    HW1  959   6.384   5.335   4.007
33645SOL    HW2  960   6.429   5.441   4.123
33646SOL     OW  961   5.816   4.352   5.699
33646SOL    HW1  962   5.723   4.350   5.736
33646SOL    HW2  963   5.817   4.313   5.607
33647SOL     OW  964   5.811   3.999   6.582
33647SOL    HW1  965   5.846   3.982   6.674
33647SOL    HW2  966   5.723   3.954   6.570
33648SOL     OW  967   5.605   4.092   6.233
33648SOL    HW1  968   5.523   4.135   6.272
33648SOL    HW2  969   5.577   4.019   6.170
33649SOL     OW  970   6.155   4.999   6.751
33649SOL    HW1  971   6.062   4.992   6.714
33649SOL    HW2  972   6.166   5.088   6.795
33650SOL     OW  973   7.141   5.235   6.289
33650SOL    HW1  974   7.084   5.219   6.370
33650SOL    HW2  975   7.082   5.245   6.209
33651SOL     OW  976   6.721   4.427   6.303
33651SOL    HW1  977   6.778   4.505   6.278
33651SOL    HW2  978   6.661   4.453   6.379
33652SOL     OW  979   7.341   4.331   5.817
33652SOL    HW1  980   7.329   4.318   5.718
33652SOL    HW2  981   7.311   4.250   5.866
33653SOL     OW  982   6.354   4.868   6.609
33653SOL    HW1  983   6.276   4.885   6.669
33653SOL    HW2  984   6.388   4.955   6.573
33654SOL     OW  985   6.436   4.522   7.409
33654SOL    HW1  986   6.432   4.598   7.474
33654SOL    HW2  987   6.458   4.558   7.318
33655SOL     OW  988   6.271   4.736   6.251
33655SOL    HW1  989   6.340   4.720   6.321
33655SOL    HW2  990   6.198   4.793   6.289
33656SOL     OW  991   6.272   4.885   7.389
33656SOL    HW1  992   6.332   4.964   7.403
33656SOL    HW2  993   6.186   4.916   7.348
33657SOL     OW  994   5.921   5.159   6.647
33657SOL    HW1  995   5.843   5.128   6.594
33657SOL    HW2  996   5.979   5.217   6.590
33658SOL     OW  997   7.046   5.229   6.925
33658SOL    HW1  998   7.070   5.323   6.951
33658SOL    HW2  999   7.030   5.175   7.007
33659SOL     OW 1000   6.024   4.116   7.085
33659SOL    HW1 1001   6.106   4.060   7.094
33659SOL    HW2 1002   5.943   4.058   7.089
33660SOL     OW 1003   7.189   4.171   6.323
33660SOL    HW1 1004   7.115   4.217   6.273
33660SOL    HW2 1005   7.240   4.239   6.376
33661SOL     OW 1006   5.817   5.437   6.069
33661SOL    HW1 1007   5.851   5.514   6.123
33661SOL    HW2 1008   5.861   5.437   5.979
33662SOL     OW 1009   6.713   5.065   7.276
33662SOL    HW1 1010   6.760   5.065   7.364
33662SOL    HW2 1011   6.665   4.978   7.265
33663SOL     OW 1012   5.816   5.158   6.124
33663SOL    HW1 1013   5.790   5.254   6.124
33663SOL    HW2 1014   5.745   5.104   6.169
33664SOL     OW 1015   5.826   4.815   6.472
33664SOL    HW1 1016   5.840   4.731   6.524
33664SOL    HW2 1017   5.771   4.879   6.527
33665SOL     OW 1018   6.206   5.510   7.025
33665SOL    HW1 1019   6.114   5.493   7.060
33665SOL    HW2 1020   6.234   5.602   7.051
33666SOL     OW 1021   6.192   4.688   5.709
33666SOL    HW1 1022   6.199   4.772   5.655
33666SOL    HW2 1023   6.238   4.701   5.797
33667SOL     OW 1024   7.180   3.838   7.066
33667SOL    HW1 1025   7.162   3.905   6.994
33667SOL    HW2 1026   7.177   3.884   7.155
33668SOL     OW 1027   5.708   4.367   6.149
33668SOL    HW1 1028   5.663   4.279   6.166
33668SOL    HW2 1029   5.707   4.421   6.233
33669SOL     OW 1030   7.428   5.491   5.945
33669SOL    HW1 1031   7.482   5.462   6.025
33669SOL    HW2 1032   7.458   5.581   5.916
33670SOL     OW 1033   5.613   5.320   5.703
33670SOL    HW1 1034   5.594   5.224   5.724
33670SOL    HW2 1035   5.580   5.378   5.778
33671SOL     OW 1036   7.275   4.646   6.198
33671SOL    HW1 1037   7.370   4.617   6.206
33671SOL    HW2 1038   7.267   4.711   6.123
33672SOL     OW 1039   7.227   4.832   6.018
33672SOL    HW1 1040   7.313   4.834   5.966
33672SOL    HW2 1041   7.241   4.879   6.106
33673SOL     OW 1042   5.699   4.461   7.183
33673SOL    HW1 1043   5.787   4.448   7.228
33673SOL    HW2 1044   5.686   4.558   7.161
33674SOL     OW 1045   6.199   5.089   6.312
33674SOL    HW1 1046   6.150   5.002   6.321
33674SOL    HW2 1047   6.176   5.132   6.225
33675SOL     OW 1048   6.879   4.952   7.009
33675SOL    HW1 1049   6.916   4.879   6.951
33675SOL    HW2 1050   6.931   4.957   7.094
33676SOL     OW 1051   6.395   3.728   6.088
33676SOL    HW1 1052   6.435   3.819   6.079
33676SOL    HW2 1053   6.295   3.736   6.094
33677SOL     OW 1054   5.783   4.700   6.850
33677SOL    HW1 1055   5.872   4.655   6.836
33677SOL    HW2 1056   5.710   4.635   6.831
33678SOL     OW 1057   7.111   4.723   5.776
33678SOL    HW1 1058   7.048   4.647   5.789
33678SOL    HW2 1059   7.159   4.741   5.862
33679SOL     OW 1060   6.773   5.516   7.202
33679SOL    HW1 1061   6.797   5.576   7.126
33679SOL    HW2 1062   6.780   5.421   7.172
33680SOL     OW 1063   5.903   3.975   7.387
33680SOL    HW1 1064   5.974   4.046   7.393
33680SOL    HW2 1065   5.815   4.014   7.415
33681SOL     OW 1066   7.052   5.141   6.539
33681SOL    HW1 1067   6.993   5.147   6.619
33681SOL    HW2 1068   7.037   5.053   6.493
33682SOL     OW 1069   7.253   5.438   6.158
33682SOL    HW1 1070   7.212   5.415   6.070
33682SOL    HW2 1071   7.235   5.364   6.223
33683SOL     OW 1072   6.184   4.453   5.856
33683SOL    HW1 1073   6.208   4.522   5.788
33683SOL    HW2 1074   6.106   4.486   5.910
33684SOL     OW 1075   6.867   4.069   6.530
33684SOL    HW1 1076   6.781   4.019   6.517
33684SOL    HW2 1077   6.929   4.015   6.586
33685SOL     OW 1078   7.162   5.386   5.893
33685SOL    HW1 1079   7.251   5.432   5.896
33685SOL    HW2 1080   7.141   5.362   5.798
33686SOL     OW 1081   6.393   4.329   7.051
33686SOL    HW1 1082   6.346   4.326   7.140
33686SOL    HW2 1083   6.342   4.274   6.985
33687SOL     OW 1084   6.980   4.193   7.260
33687SOL    HW1 1085   6.960   4.236   7.348
33687SOL    HW2 1086   7.058   4.131   7.269
33688SOL     OW 1087   6.559   4.614   7.158
33688SOL    HW1 1088   6.605   4.530   7.129
33688SOL    HW2 1089   6.503   4.648   7.083
33689SOL     OW 1090   6.577   4.134   6.828
33689SOL    HW1 1091   6.500   4.168   6.882
33689SOL    HW2 1092   6.543   4.083   6.749
33690SOL     OW 1093   6.627   4.425   6.015
33690SOL    HW1 1094   6.653   4.421   6.111
33690SOL    HW2 1095   6.542   4.374   6.001
33691SOL     OW 1096   5.662   4.535   6.375
33691SOL    HW1 1097   5.761   4.523   6.384
33691SOL    HW2 1098   5.638   4.630   6.396
33692SOL     OW 1099   5.716   5.545   7.157
33692SOL    HW1 1100   5.706   5.530   7.256
33692SOL    HW2 1101   5.630   5.581   7.121
33693SOL     OW 1102   6.451   4.072   5.781
33693SOL    HW1 1103   6.510   4.135   5.732
33693SOL    HW2 1104   6.470   3.978   5.752
33694SOL     OW 1105   7.305   4.309   7.417
33694SOL    HW1 1106   7.279   4.398   7.381
33694SOL    HW2 1107   7.303   4.241   7.344
33695SOL     OW 1108   6.948   4.868   6.131
33695SOL    HW1 1109   7.031   4.839   6.083
33695SOL    HW2 1110   6.899   4.935   6.075
33696SOL     OW 1111   6.136   3.920   6.471
33696SOL    HW1 1112   6.131   3.915   6.571
33696SOL    HW2 1113   6.138   4.016   6.442
33697SOL     OW 1114   6.594   5.180   6.063
33697SOL    HW1 1115   6.548   5.252   6.011
33697SOL    HW2 1116   6.590   5.200   6.161
33698SOL     OW 1117   5.937   5.525   6.439
33698SOL    HW1 1118   5.987   5.439   6.445
33698SOL    HW2 1119   6.002   5.602   6.436
33699SOL     OW 1120   7.381   4.790   6.459
33699SOL    HW1 1121   7.319   4.775   6.383
33699SOL    HW2 1122   7.329   4.801   6.544
33700SOL     OW 1123   6.813   5.274   7.092
33700SOL    HW1 1124   6.819   5.197   7.156
33700SOL    HW2 1125   6.761   5.248   7.012
33701SOL     OW 1126   5.907   4.667   5.828
33701SOL    HW1 1127   5.989   4.706   5.786
33701SOL    HW2 1128   5.880   4.585   5.779
33702SOL     OW 1129   7.044   4.459   6.314
33702SOL    HW1 1130   7.039   4.394   6.389
33702SOL    HW2 1131   7.124   4.518   6.327
33703SOL     OW 1132   6.047   4.990   7.313
33703SOL    HW1 1133   5.997   4.991   7.227
33703SOL    HW2 1134   5.984   4.972   7.389
33704SOL     OW 1135   6.697   5.500   5.823
33704SOL    HW1 1136   6.637   5.438   5.873
33704SOL    HW2 1137   6.728   5.456   5.738
33705SOL     OW 1138   5.788   4.009   7.084
33705SOL    HW1 1139   5.708   4.069   7.071
33705SOL    HW2 1140   5.778   3.960   7.170
33706SOL     OW 1141   7.218   5.101   5.667
33706SOL    HW1 1142   7.186   5.195   5.657
33706SOL    HW2 1143   7.142   5.038   5.655
33707SOL     OW 1144   6.050   5.467   5.909
33707SOL    HW1 1145   6.083   5.506   5.995
33707SOL    HW2 1146   6.126   5.460   5.844
33708SOL     OW 1147   6.986   3.831   6.012
33708SOL    HW1 1148   6.962   3.794   5.922
33708SOL    HW2 1149   7.085   3.847   6.016
33709SOL     OW 1150   5.835   5.509   6.827
33709SOL    HW1 1151   5.892   5.444   6.877
33709SOL    HW2 1152   5.819   5.476   6.734
33710SOL     OW 1153   6.526   5.422   6.490
33710SOL    HW1 1154   6.606   5.365   6.511
33710SOL    HW2 1155   6.477   5.382   6.413
33711SOL     OW 1156   5.968   4.424   6.066
33711SOL    HW1 1157   6.013   4.334   6.063
33711SOL    HW2 1158   5.874   4.413   6.099
33712SOL     OW 1159   7.133   3.946   7.315
33712SOL    HW1 1160   7.128   3.983   7.407
33712SOL    HW2 1161   7.061   3.877   7.303
33713SOL     OW 1162   6.200   3.846   5.703
33713SOL    HW1 1163   6.298   3.824   5.710
33713SOL    HW2 1164   6.169   3.829   5.610
33714SOL     OW 1165   6.367   3.988   7.335
33714SOL    HW1 1166   6.434   3.927   7.378
33714SOL    HW2 1167   6.294   4.007   7.400
33715SOL     OW 1168   6.474   5.238   6.781
33715SOL    HW1 1169   6.451   5.213   6.687
33715SOL    HW2 1170   6.535   5.169   6.820
33716SOL     OW 1171   6.937   4.314   7.019
33716SOL    HW1 1172   6.965   4.271   7.104
33716SOL    HW2 1173   6.962   4.410   7.020
33717SOL     OW 1174   6.389   5.126   6.510
33717SOL    HW1 1175   6.479   5.140   6.468
33717SOL    HW2 1176   6.318   5.128   6.439
33718SOL     OW 1177   6.508   4.227   6.485
33718SOL    HW1 1178   6.483   4.218   6.389
33718SOL    HW2 1179   6.556   4.145   6.516
33719SOL     OW 1180   6.125   3.788   6.098
33719SOL    HW1 1181   6.044   3.789   6.156
33719SOL    HW2 1182   6.128   3.871   6.043
33720SOL     OW 1183   7.020   4.912   5.627
33720SOL    HW1 1184   7.052   4.836   5.684
33720SOL    HW2 1185   6.928   4.939   5.657
33721SOL     OW 1186   5.883   3.759   5.757
33721SOL    HW1 1187   5.932   3.843   5.736
33721SOL    HW2 1188   5.945   3.694   5.802
33722SOL     OW 1189   6.521   3.960   6.066
33722SOL    HW1 1190   6.473   4.001   5.988
33722SOL    HW2 1191   6.620   3.958   6.047
33723SOL     OW 1192   6.662   4.407   7.050
33723SOL    HW1 1193   6.582   4.346   7.053
33723SOL    HW2 1194   6.743   4.354   7.026
33724SOL     OW 1195   6.813   5.294   6.379
33724SOL    HW1 1196   6.834   5.368   6.314
33724SOL    HW2 1197   6.881   5.294   6.452
33725SOL     OW 1198   6.045   4.876   6.327
33725SOL    HW1 1199   5.974   4.849   6.392
33725SOL    HW2 1200   6.019   4.848   6.234
33726SOL     OW 1201   6.857   5.521   6.177
33726SOL    HW1 1202   6.901   5.585   6.113
33726SOL    HW2 1203   6.807   5.573   6.247
33727SOL     OW 1204   6.618   4.273   5.602
33727SOL    HW1 1205   6.577   4.355   5.563
33727SOL    HW2 1206   6.682   4.299   5.675
33728SOL     OW 1207   5.664   4.280   6.972
33728SOL    HW1 1208   5.756   4.279   6.931
33728SOL    HW2 1209   5.658   4.354   7.039
33729SOL     OW 1210   6.147   3.946   6.733
33729SOL    HW1 1211   6.185   3.862   6.770
33729SOL    HW2 1212   6.059   3.965   6.777
33730SOL     OW 1213   6.452   4.178   6.228
33730SOL    HW1 1214   6.420   4.250   6.166
33730SOL    HW2 1215   6.476   4.097   6.175
33731SOL     OW 1216   6.603   3.763   6.339
33731SOL    HW1 1217   6.531   3.768   6.270
33731SOL    HW2 1218   6.579   3.694   6.408
33732SOL     OW 1219   7.015   4.897   6.453
33732SOL    HW1 1220   6.960   4.813   6.446
33732SOL    HW2 1221   7.041   4.926   6.361
33733SOL     OW 1222   7.052   4.314   6.578
33733SOL    HW1 1223   7.022   4.219   6.585
33733SOL    HW2 1224   7.125   4.330   6.644
33734SOL     OW 1225   7.443   4.557   5.963
33734SOL    HW1 1226   7.485   4.493   6.027
33734SOL    HW2 1227   7.405   4.506   5.885
33735SOL     OW 1228   6.074   5.109   5.760
33735SOL    HW1 1229   5.987   5.094   5.807
33735SOL    HW2 1230   6.057   5.135   5.665
33736SOL     OW 1231   7.250   5.004   6.243
33736SOL    HW1 1232   7.349   5.012   6.257
33736SOL    HW2 1233   7.205   5.088   6.274
33737SOL     OW 1234   6.976   4.299   5.664
33737SOL    HW1 1235   6.922   4.278   5.745
33737SOL    HW2 1236   7.067   4.258   5.673
33738SOL     OW 1237   6.113   3.980   5.914
33738SOL    HW1 1238   6.140   3.921   5.839
33738SOL    HW2 1239   6.113   4.075   5.883
33739SOL     OW 1240   7.340   4.947   7.174
33739SOL    HW1 1241   7.431   4.908   7.161
33739SOL    HW2 1242   7.348   5.043   7.198
33740SOL     OW 1243   6.650   5.071   6.926
33740SOL    HW1 1244   6.570   5.048   6.981
33740SOL    HW2 1245   6.733   5.045   6.975
33741SOL     OW 1246   7.178   5.353   7.211
33741SOL    HW1 1247   7.205   5.387   7.121
33741SOL    HW2 1248   7.257   5.315   7.257
33742SOL     OW 1249   6.697   4.919   6.686
33742SOL    HW1 1250   6.657   4.963   6.767
33742SOL    HW2 1251   6.656   4.956   6.603
33743SOL     OW 1252   7.224   4.823   6.665
33743SOL    HW1 1253   7.229   4.904   6.724
33743SOL    HW2 1254   7.138   4.825   6.614
33744SOL     OW 1255   6.501   3.813   6.988
33744SOL    HW1 1256   6.526   3.793   6.893
33744SOL    HW2 1257   6.573   3.869   7.030
33745SOL     OW 1258   6.566   4.840   7.305
33745SOL    HW1 1259   6.467   4.846   7.315
33745SOL    HW2 1260   6.589   4.760   7.249
33746SOL     OW 1261   6.291   4.774   5.954
33746SOL    HW1 1262   6.277   4.781   6.053
33746SOL    HW2 1263   6.375   4.723   5.936
33747SOL     OW 1264   5.996   4.537   6.837
33747SOL    HW1 1265   6.082   4.549   6.887
33747SOL    HW2 1266   5.954   4.450   6.864
33748SOL     OW 1267   6.860   4.110   6.848
33748SOL    HW1 1268   6.881   4.184   6.912
33748SOL    HW2 1269   6.771   4.127   6.805
33749SOL     OW 1270   5.650   5.288   6.917
33749SOL    HW1 1271   5.604   5.370   6.883
33749SOL    HW2 1272   5.748   5.307   6.926
33750SOL     OW 1273   5.953   4.824   6.087
33750SOL    HW1 1274   5.946   4.907   6.031
33750SOL    HW2 1275   5.957   4.744   6.027
33751SOL     OW 1276   6.152   4.261   6.451
33751SOL    HW1 1277   6.164   4.327   6.377
33751SOL    HW2 1278   6.198   4.295   6.534
33752SOL     OW 1279   6.838   5.072   5.974
33752SOL    HW1 1280   6.888   5.149   6.014
33752SOL    HW2 1281   6.743   5.074   6.006
33753SOL     OW 1282   6.858   5.169   6.728
33753SOL    HW1 1283   6.905   5.182   6.815
33753SOL    HW2 1284   6.792   5.095   6.737
33754SOL     OW 1285   7.168   4.363   6.058
33754SOL    HW1 1286   7.137   4.424   6.131
33754SOL    HW2 1287   7.218   4.415   5.989
33755SOL     OW 1288   5.940   5.234   6.915
33755SOL    HW1 1289   5.919   5.190   6.828
33755SOL    HW2 1290   6.037   5.260   6.918
33756SOL     OW 1291   5.988   4.475   7.184
33756SOL    HW1 1292   6.056   4.530   7.137
33756SOL    HW2 1293   6.028   4.387   7.211
33757SOL     OW 1294   7.173   4.503   7.256
33757SOL    HW1 1295   7.081   4.541   7.251
33757SOL    HW2 1296   7.233   4.550   7.191
33758SOL     OW 1297   6.599   3.829   7.356
33758SOL    HW1 1298   6.605   3.914   7.304
33758SOL    HW2 1299   6.631   3.753   7.299
33759SOL     OW 1300   6.090   3.774   7.326
33759SOL    HW1 1301   6.048   3.717   7.256
33759SOL    HW2 1302   6.024   3.843   7.358
33760SOL     OW 1303   6.159   4.594   6.615
33760SOL    HW1 1304   6.203   4.683   6.606
33760SOL    HW2 1305   6.096   4.594   6.692
33761SOL     OW 1306   6.946   4.586   6.631
33761SOL    HW1 1307   6.871   4.586   6.565
33761SOL    HW2 1308   6.983   4.494   6.640
33762SOL     OW 1309   6.795   4.249   5.861
33762SOL    HW1 1310   6.808   4.165   5.915
33762SOL    HW2 1311   6.766   4.323   5.921
33763SOL     OW 1312   5.893   3.937   6.817
33763SOL    HW1 1313   5.870   3.974   6.907
33763SOL    HW2 1314   5.863   3.842   6.811
33764SOL     OW 1315   5.623   5.034   6.868
33764SOL    HW1 1316   5.676   4.985   6.936
33764SOL    HW2 1317   5.645   5.132   6.873
33765SOL     OW 1318   6.318   4.358   6.650
33765SOL    HW1 1319   6.377   4.332   6.574
33765SOL    HW2 1320   6.290   4.454   6.639
33766SOL     OW 1321   7.314   4.659   7.440
33766SOL    HW1 1322   7.268   4.652   7.351
33766SOL    HW2 1323   7.252   4.703   7.506
33767SOL     OW 1324   5.893   3.787   6.204
33767SOL    HW1 1325   5.882   3.881   6.237
33767SOL    HW2 1326   5.888   3.724   6.281
33768SOL     OW 1327   7.208   4.091   5.960
33768SOL    HW1 1328   7.210   4.015   6.024
33768SOL    HW2 1329   7.160   4.168   6.000
33769SOL     OW 1330   6.609   4.490   6.552
33769SOL    HW1 1331   6.624   4.511   6.648
33769SOL    HW2 1332   6.579   4.395   6.543
33770SOL     OW 1333   6.566   5.297   7.286
33770SOL    HW1 1334   6.546   5.341   7.198
33770SOL    HW2 1335   6.605   5.206   7.270
33771SOL     OW 1336   7.445   5.242   7.191
33771SOL    HW1 1337   7.459   5.269   7.096
33771SOL    HW2 1338   7.528   5.264   7.244
33772SOL     OW 1339   5.936   4.622   7.390
33772SOL    HW1 1340   6.012   4.666   7.438
33772SOL    HW2 1341   5.971   4.575   7.308
33773SOL     OW 1342   7.126   3.998   5.711
33773SOL    HW1 1343   7.065   3.923   5.734
33773SOL    HW2 1344   7.148   4.050   5.794
33774SOL     OW 1345   6.889   4.562   5.628
33774SOL    HW1 1346   6.923   4.469   5.643
33774SOL    HW2 1347   6.907   4.589   5.533
33775SOL     OW 1348   6.654   5.057   6.435
33775SOL    HW1 1349   6.661   4.973   6.380
33775SOL    HW2 1350   6.716   5.126   6.399
33776SOL     OW 1351   5.905   4.534   6.535
33776SOL    HW1 1352   5.998   4.570   6.540
33776SOL    HW2 1353   5.899   4.449   6.587
33777SOL     OW 1354   5.925   4.233   6.592
33777SOL    HW1 1355   5.873   4.150   6.575
33777SOL    HW2 1356   6.002   4.238   6.528
33778SOL     OW 1357   6.724   4.104   7.264
33778SOL    HW1 1358   6.679   4.167   7.328
33778SOL    HW2 1359   6.817   4.135   7.247
33779SOL     OW 1360   6.746   3.931   7.063
33779SOL    HW1 1361   6.746   3.995   7.140
33779SOL    HW2 1362   6.774   3.979   6.980
33780SOL     OW 1363   5.594   5.050   5.786
33780SOL    HW1 1364   5.501   5.071   5.755
33780SOL    HW2 1365   5.604   4.951   5.799
33781SOL     OW 1366   5.674   5.525   6.513
33781SOL    HW1 1367   5.632   5.439   6.486
33781SOL    HW2 1368   5.768   5.528   6.479
33782SOL     OW 1369   6.090   5.292   6.496
33782SOL    HW1 1370   6.156   5.366   6.505
33782SOL    HW2 1371   6.134   5.213   6.454
33783SOL     OW 1372   6.588   4.520   6.824
33783SOL    HW1 1373   6.629   4.488   6.910
33783SOL    HW2 1374   6.492   4.493   6.821
33784SOL     OW 1375   5.626   4.268   6.700
33784SOL    HW1 1376   5.711   4.235   6.659
33784SOL    HW2 1377   5.639   4.283   6.798
33785SOL     OW 1378   5.775   4.244   7.308
33785SOL    HW1 1379   5.834   4.204   7.238
33785SOL    HW2 1380   5.717   4.315   7.267
33786SOL     OW 1381   6.955   4.674   7.246
33786SOL    HW1 1382   6.994   4.763   7.266
33786SOL    HW2 1383   6.965   4.654   7.149
33787SOL     OW 1384   6.401   4.296   5.911
33787SOL    HW1 1385   6.408   4.207   5.865
33787SOL    HW2 1386   6.307   4.330   5.903
33788SOL     OW 1387   7.243   4.328   6.792
33788SOL    HW1 1388   7.205   4.259   6.854
33788SOL    HW2 1389   7.325   4.292   6.748
33789SOL     OW 1390   5.838   5.288   7.330
33789SOL    HW1 1391   5.808   5.345   7.406
33789SOL    HW2 1392   5.831   5.191   7.356
33790SOL     OW 1393   6.257   4.188   6.855
33790SOL    HW1 1394   6.223   4.099   6.825
33790SOL    HW2 1395   6.283   4.242   6.775
33791SOL     OW 1396   6.516   5.402   7.051
33791SOL    HW1 1397   6.492   5.384   6.956
33791SOL    HW2 1398   6.546   5.496   7.061
33792SOL     OW 1399   6.059   4.224   5.777
33792SOL    HW1 1400   6.120   4.304   5.781
33792SOL    HW2 1401   5.964   4.255   5.784
33793SOL     OW 1402   5.745   4.861   7.052
33793SOL    HW1 1403   5.767   4.800   7.128
33793SOL    HW2 1404   5.755   4.812   6.966
33794SOL     OW 1405   6.933   4.783   6.820
33794SOL    HW1 1406   6.957   4.720   6.746
33794SOL    HW2 1407   6.843   4.823   6.802
33795SOL     OW 1408   6.888   4.579   5.895
33795SOL    HW1 1409   6.802   4.548   5.937
33795SOL    HW2 1410   6.884   4.565   5.796
33796SOL     OW 1411   7.345   5.471   6.740
33796SOL    HW1 1412   7.406   5.501   6.667
33796SOL    HW2 1413   7.307   5.382   6.718
33797SOL     OW 1414   6.838   5.455   6.714
33797SOL    HW1 1415   6.922   5.460   6.660
33797SOL    HW2 1416   6.815   5.359   6.732
33798SOL     OW 1417   5.669   4.982   6.608
33798SOL    HW1 1418   5.664   4.981   6.708
33798SOL    HW2 1419   5.586   4.941   6.570
33799SOL     OW 1420   6.274   5.386   7.302
33799SOL    HW1 1421   6.218   5.467   7.311
33799SOL    HW2 1422   6.326   5.390   7.216
33800SOL     OW 1423   7.312   3.859   6.109
33800SOL    HW1 1424   7.385   3.842   6.042
33800SOL    HW2 1425   7.281   3.772   6.147
33801SOL     OW 1426   6.974   5.297   6.063
33801SOL    HW1 1427   7.041   5.309   5.989
33801SOL    HW2 1428   6.934   5.386   6.086
33802SOL     OW 1429   5.716   5.518   7.437
33802SOL    HW1 1430   5.675   5.444   7.490
33802SOL    HW2 1431   5.780   5.569   7.495
33803SOL     OW 1432   6.866   4.651   6.258
33803SOL    HW1 1433   6.926   4.570   6.260
33803SOL    HW2 1434   6.906   4.720   6.198
33804SOL     OW 1435   6.416   4.997   7.008
33804SOL    HW1 1436   6.411   5.030   7.103
33804SOL    HW2 1437   6.330   5.016   6.962
33805SOL     OW 1438   6.258   5.340   5.740
33805SOL    HW1 1439   6.267   5.350   5.641
33805SOL    HW2 1440   6.218   5.251   5.761
33806SOL     OW 1441   7.236   5.444   6.980
33806SOL    HW1 1442   7.289   5.454   6.896
33806SOL    HW2 1443   7.209   5.534   7.014
33807SOL     OW 1444   7.427   3.899   6.549
33807SOL    HW1 1445   7.466   3.814   6.513
33807SOL    HW2 1446   7.329   3.901   6.530
33808SOL     OW 1447   5.849   4.050   6.306
33808SOL    HW1 1448   5.770   4.101   6.272
33808SOL    HW2 1449   5.840   4.035   6.404
33809SOL     OW 1450   6.780   5.336   5.617
33809SOL    HW1 1451   6.786   5.243   5.654
33809SOL    HW2 1452   6.721   5.336   5.537
33810SOL     OW 1453   6.408   4.726   6.958
33810SOL    HW1 1454   6.448   4.725   6.866
33810SOL    HW2 1455   6.418   4.818   6.998
33811SOL     OW 1456   6.502   4.634   5.877
33811SOL    HW1 1457   6.565   4.672   5.809
33811SOL    HW2 1458   6.542   4.551   5.916
33812SOL     OW 1459   7.090   5.331   5.630
33812SOL    HW1 1460   6.998   5.368   5.637
33812SOL    HW2 1461   7.128   5.351   5.540
33813SOL     OW 1462   5.958   5.012   7.076
33813SOL    HW1 1463   5.945   5.105   7.042
33813SOL    HW2 1464   5.874   4.960   7.063
33814SOL     OW 1465   7.200   5.016   6.875
33814SOL    HW1 1466   7.260   5.019   6.955
33814SOL    HW2 1467   7.125   5.080   6.888
33815SOL     OW 1468   6.625   4.822   6.282
33815SOL    HW1 1469   6.555   4.775   6.336
33815SOL    HW2 1470   6.684   4.754   6.239
33816SOL     OW 1471   6.600   3.960   6.557
33816SOL    HW1 1472   6.592   3.924   6.464
33816SOL    HW2 1473   6.598   3.884   6.622
33817SOL     OW 1474   6.176   5.211   6.077
33817SOL    HW1 1475   6.218   5.153   6.007
33817SOL    HW2 1476   6.132   5.290   6.033
33818SOL     OW 1477   7.295   4.109   6.967
33818SOL    HW1 1478   7.368   4.178   6.971
33818SOL    HW2 1479   7.323   4.034   6.908
33819SOL     OW 1480   5.841   5.072   5.876
33819SOL    HW1 1481   5.745   5.073   5.849
33819SOL    HW2 1482   5.853   5.125   5.960
33820SOL     OW 1483   5.691   4.737   7.312
33820SOL    HW1 1484   5.614   4.704   7.366
33820SOL    HW2 1485   5.776   4.707   7.354
33821SOL     OW 1486   6.258   3.927   7.075
33821SOL    HW1 1487   6.348   3.911   7.035
33821SOL    HW2 1488   6.266   3.932   7.174
33822SOL     OW 1489   5.661   4.069   5.619
33822SOL    HW1 1490   5.569   4.041   5.590
33822SOL    HW2 1491   5.692   4.146   5.563
33823SOL     OW 1492   7.026   4.580   6.984
33823SOL    HW1 1493   6.969   4.632   6.921
33823SOL    HW2 1494   7.122   4.592   6.960
33824SOL     OW 1495   5.658   3.890   5.904
33824SOL    HW1 1496   5.641   3.973   5.850
33824SOL    HW2 1497   5.748   3.853   5.882
33825SOL     OW 1498   6.769   5.059   5.705
33825SOL    HW1 1499   6.670   5.048   5.707
33825SOL    HW2 1500   6.803   5.074   5.798
33826SOL     OW 1501   6.199   4.566   7.017
33826SOL    HW1 1502   6.255   4.647   7.000
33826SOL    HW2 1503   6.258   4.486   7.020
33827SOL     OW 1504   7.079   5.491   6.545
33827SOL    HW1 1505   7.112   5.555   6.476
33827SOL    HW2 1506   7.145   5.485   6.620
33828SOL     OW 1507   6.302   4.289   7.294
33828SOL    HW1 1508   6.321   4.354   7.368
33828SOL    HW2 1509   6.362   4.209   7.303
33829SOL     OW 1510   7.036   4.944   7.219
33829SOL    HW1 1511   7.027   4.934   7.318
33829SOL    HW2 1512   7.132   4.937   7.193
33830SOL     OW 1513   5.976   5.465   7.146
33830SOL    HW1 1514   5.885   5.506   7.144
33830SOL    HW2 1515   5.969   5.371   7.178
33831SOL     OW 1516   7.260   4.607   6.840
33831SOL    HW1 1517   7.233   4.518   6.803
33831SOL    HW2 1518   7.261   4.675   6.767
33832SOL     OW 1519   6.811   4.049   6.035
33832SOL    HW1 1520   6.876   3.975   6.024
33832SOL    HW2 1521   6.831   4.099   6.119
33833SOL     OW 1522   6.180   4.469   6.238
33833SOL    HW1 1523   6.230   4.554   6.219
33833SOL    HW2 1524   6.092   4.471   6.190
33834SOL     OW 1525   7.363   4.066   7.228
33834SOL    HW1 1526   7.346   4.097   7.134
33834SOL    HW2 1527   7.279   4.029   7.266
33835SOL     OW 1528   7.316   4.658   7.103
33835SOL    HW1 1529   7.354   4.749   7.118
33835SOL    HW2 1530   7.308   4.641   7.004
33836SOL     OW 1531   6.445   5.098   5.602
33836SOL    HW1 1532   6.399   5.113   5.690
33836SOL    HW2 1533   6.489   5.183   5.572
33837SOL     OW 1534   6.247   5.514   6.539
33837SOL    HW1 1535   6.201   5.602   6.526
33837SOL    HW2 1536   6.346   5.526   6.532
33838SOL     OW 1537   6.445   4.680   6.447
33838SOL    HW1 1538   6.499   4.611   6.495
33838SOL    HW2 1539   6.413   4.749   6.513
33839SOL     OW 1540   6.669   4.708   5.673
33839SOL    HW1 1541   6.646   4.761   5.591
33839SOL    HW2 1542   6.750   4.652   5.654
33840SOL     OW 1543   7.447   5.293   6.437
33840SOL    HW1 1544   7.376   5.281   6.367
33840SOL    HW2 1545   7.448   5.214   6.497
33841SOL     OW 1546   5.807   5.038   7.430
33841SOL    HW1 1547   5.742   4.965   7.409
33841SOL    HW2 1548   5.811   5.052   7.528
33842SOL     OW 1549   5.665   4.964   6.239
33842SOL    HW1 1550   5.664   4.917   6.327
33842SOL    HW2 1551   5.747   4.936   6.188
33843SOL     OW 1552   6.258   5.115   7.210
33843SOL    HW1 1553   6.180   5.065   7.248
33843SOL    HW2 1554   6.255   5.210   7.241
33844SOL     OW 1555   7.410   3.916   6.813
33844SOL    HW1 1556   7.406   3.826   6.857
33844SOL    HW2 1557   7.413   3.905   6.714
33845SOL     OW 1558   6.014   4.148   6.106
33845SOL    HW1 1559   6.044   4.076   6.044
33845SOL    HW2 1560   5.975   4.108   6.189
33846SOL     OW 1561   7.291   5.211   6.690
33846SOL    HW1 1562   7.198   5.186   6.663
33846SOL    HW2 1563   7.317   5.161   6.772
33847SOL     OW 1564   5.903   4.271   6.866
33847SOL    HW1 1565   5.941   4.212   6.938
33847SOL    HW2 1566   5.943   4.245   6.778
33848SOL     OW 1567   6.398   5.310   6.273
33848SOL    HW1 1568   6.430   5.320   6.179
33848SOL    HW2 1569   6.319   5.248   6.275
33849SOL     OW 1570   7.010   3.938   6.698
33849SOL    HW1 1571   7.062   3.873   6.753
33849SOL    HW2 1572   6.961   4.001   6.759
33850SOL     OW 1573   6.587   3.758   6.740
33850SOL    HW1 1574   6.524   3.686   6.709
33850SOL    HW2 1575   6.680   3.722   6.740
33851SOL     OW 1576   6.356   5.054   5.887
33851SOL    HW1 1577   6.310   4.967   5.904
33851SOL    HW2 1578   6.447   5.051   5.928
33852SOL     OW 1579   6.204   5.291   6.870
33852SOL    HW1 1580   6.199   5.373   6.927
33852SOL    HW2 1581   6.293   5.288   6.825
33853SOL     OW 1582   6.938   3.776   5.754
33853SOL    HW1 1583   6.973   3.735   5.670
33853SOL    HW2 1584   6.848   3.738   5.774
33854SOL     OW 1585   6.886   4.177   6.277
33854SOL    HW1 1586   6.827   4.257   6.281
33854SOL    HW2 1587   6.901   4.142   6.370
33855SOL     OW 1588   7.179   3.945   6.468
33855SOL    HW1 1589   7.095   3.944   6.522
33855SOL    HW2 1590   7.181   4.028   6.412
33856SOL     OW 1591   5.625   4.801   5.886
33856SOL    HW1 1592   5.724   4.790   5.877
33856SOL    HW2 1593   5.585   4.715   5.918
33857SOL     OW 1594   6.461   5.370   5.923
33857SOL    HW1 1595   6.384   5.335   5.869
33857SOL    HW2 1596   6.429   5.441   5.985
33858SOL     OW 1597   5.816   4.352   7.561
33858SOL    HW1 1598   5.723   4.350   7.598
33858SOL    HW2 1599   5.817   4.313   7.469
33859SOL     OW 1600   5.811   3.999   8.444
33859SOL    HW1 1601   5.846   3.982   8.536
33859SOL    HW2 1602   5.723   3.954   8.432
33860SOL     OW 1603   5.605   4.092   8.095
33860SOL    HW1 1604   5.523   4.135   8.134
33860SOL    HW2 1605   5.577   4.019   8.032
33861SOL     OW 1606   6.155   4.999   8.613
33861SOL    HW1 1607   6.062   4.992   8.576
33861SOL    HW2 1608   6.166   5.088   8.657
33862SOL     OW 1609   7.141   5.235   8.151
33862SOL    HW1 1610   7.084   5.219   8.232
33862SOL    HW2 1611   7.082   5.245   8.071
33863SOL     OW 1612   6.721   4.427   8.165
33863SOL    HW1 1613   6.778   4.505   8.140
33863SOL    HW2 1614   6.661   4.453   8.241
33864SOL     OW 1615   7.341   4.331   7.679
33864SOL    HW1 1616   7.329   4.318   7.580
33864SOL    HW2 1617   7.311   4.250   7.728
33865SOL     OW 1618   6.354   4.868   8.471
33865SOL    HW1 1619   6.276   4.885   8.531
33865SOL    HW2 1620   6.388   4.955   8.435
33866SOL     OW 1621   6.436   4.522   9.271
33866SOL    HW1 1622   6.432   4.598   9.336
33866SOL    HW2 1623   6.458   4.558   9.180
33867SOL     OW 1624   6.271   4.736   8.113
33867SOL    HW1 1625   6.340   4.720   8.183
33867SOL    HW2 1626   6.198   4.793   8.151
33868SOL     OW 1627   6.272   4.885   9.251
33868SOL    HW1 1628   6.332   4.964   9.265
33868SOL    HW2 1629   6.186   4.916   9.210
33869SOL     OW 1630   5.921   5.159   8.509
33869SOL    HW1 1631   5.843   5.128   8.456
33869SOL    HW2 1632   5.979   5.217   8.452
33870SOL     OW 1633   7.046   5.229   8.787
33870SOL    HW1 1634   7.070   5.323   8.813
33870SOL    HW2 1635   7.030   5.175   8.869
33871SOL     OW 1636   6.024   4.116   8.947
33871SOL    HW1 1637   6.106   4.060   8.956
33871SOL    HW2 1638   5.943   4.058   8.951
33872SOL     OW 1639   7.189   4.171   8.185
33872SOL    HW1 1640   7.115   4.217   8.135
33872SOL    HW2 1641   7.240   4.239   8.238
33873SOL     OW 1642   5.817   5.437   7.931
33873SOL    HW1 1643   5.851   5.514   7.985
33873SOL    HW2 1644   5.861   5.437   7.841
33874SOL     OW 1645   6.713   5.065   9.138
33874SOL    HW1 1646   6.760   5.065   9.226
33874SOL    HW2 1647   6.665   4.978   9.127
33875SOL     OW 1648   5.816   5.158   7.986
33875SOL    HW1 1649   5.790   5.254   7.986
33875SOL    HW2 1650   5.745   5.104   8.031
33876SOL     OW 1651   5.826   4.815   8.334
33876SOL    HW1 1652   5.840   4.731   8.386
33876SOL    HW2 1653   5.771   4.879   8.389
33877SOL     OW 1654   6.206   5.510   8.887
33877SOL    HW1 1655   6.114   5.493   8.922
33877SOL    HW2 1656   6.234   5.602   8.913
33878SOL     OW 1657   6.192   4.688   7.571
33878SOL    HW1 1658   6.199   4.772   7.517
33878SOL    HW2 1659   6.238   4.701   7.659
33879SOL     OW 1660   7.180   3.838   8.928
33879SOL    HW1 1661   7.162   3.905   8.856
33879SOL    HW2 1662   7.177   3.884   9.017
33880SOL     OW 1663   5.708   4.367   8.011
33880SOL    HW1 1664   5.663   4.279   8.028
33880SOL    HW2 1665   5.707   4.421   8.095
33881SOL     OW 1666   7.428   5.491   7.807
33881SOL    HW1 1667   7.482   5.462   7.887
33881SOL    HW2 1668   7.458   5.581   7.778
33882SOL     OW 1669   5.613   5.320   7.565
33882SOL    HW1 1670   5.594   5.224   7.586
33882SOL    HW2 1671   5.580   5.378   7.640
33883SOL     OW 1672   7.275   4.646   8.060
33883SOL    HW1 1673   7.370   4.617   8.068
33883SOL    HW2 1674   7.267   4.711   7.985
33884SOL     OW 1675   7.227   4.832   7.880
33884SOL    HW1 1676   7.313   4.834   7.828
33884SOL    HW2 1677   7.241   4.879   7.968
33885SOL     OW 1678   5.699   4.461   9.045
33885SOL    HW1 1679   5.787   4.448   9.090
33885SOL    HW2 1680   5.686   4.558   9.023
33886SOL     OW 1681   6.199   5.089   8.174
33886SOL    HW1 1682   6.150   5.002   8.183
33886SOL    HW2 1683   6.176   5.132   8.087
33887SOL     OW 1684   6.879   4.952   8.871
33887SOL    HW1 1685   6.916   4.879   8.813
33887SOL    HW2 1686   6.931   4.957   8.956
33888SOL     OW 1687   6.395   3.728   7.950
33888SOL    HW1 1688   6.435   3.819   7.941
33888SOL    HW2 1689   6.295   3.736   7.956
33889SOL     OW 1690   5.783   4.700   8.712
33889SOL    HW1 1691   5.872   4.655   8.698
33889SOL    HW2 1692   5.710   4.635   8.693
33890SOL     OW 1693   7.111   4.723   7.638
33890SOL    HW1 1694   7.048   4.647   7.651
33890SOL    HW2 1695   7.159   4.741   7.724
33891SOL     OW 1696   6.773   5.516   9.064
33891SOL    HW1 1697   6.797   5.576   8.988
33891SOL    HW2 1698   6.780   5.421   9.034
33892SOL     OW 1699   5.903   3.975   9.249
33892SOL    HW1 1700   5.974   4.046   9.255
33892SOL    HW2 1701   5.815   4.014   9.277
33893SOL     OW 1702   7.052   5.141   8.401
33893SOL    HW1 1703   6.993   5.147   8.481
33893SOL    HW2 1704   7.037   5.053   8.355
33894SOL     OW 1705   7.253   5.438   8.020
33894SOL    HW1 1706   7.212   5.415   7.932
33894SOL    HW2 1707   7.235   5.364   8.085
33895SOL     OW 1708   6.184   4.453   7.718
33895SOL    HW1 1709   6.208   4.522   7.650
33895SOL    HW2 1710   6.106   4.486   7.772
33896SOL     OW 1711   6.867   4.069   8.392
33896SOL    HW1 1712   6.781   4.019   8.379
33896SOL    HW2 1713   6.929   4.015   8.448
33897SOL     OW 1714   7.162   5.386   7.755
33897SOL    HW1 1715   7.251   5.432   7.758
33897SOL    HW2 1716   7.141   5.362   7.660
33898SOL     OW 1717   6.393   4.329   8.913
33898SOL    HW1 1718   6.346   4.326   9.002
33898SOL    HW2 1719   6.342   4.274   8.847
33899SOL     OW 1720   6.980   4.193   9.122
33899SOL    HW1 1721   6.960   4.236   9.210
33899SOL    HW2 1722   7.058   4.131   9.131
33900SOL     OW 1723   6.559   4.614   9.020
33900SOL    HW1 1724   6.605   4.530   8.991
33900SOL    HW2 1725   6.503   4.648   8.945
33901SOL     OW 1726   6.577   4.134   8.690
33901SOL    HW1 1727   6.500   4.168   8.744
33901SOL    HW2 1728   6.543   4.083   8.611
33902SOL     OW 1729   6.627   4.425   7.877
33902SOL    HW1 1730   6.653   4.421   7.973
33902SOL    HW2 1731   6.542   4.374   7.863
33903SOL     OW 1732   5.662   4.535   8.237
33903SOL    HW1 1733   5.761   4.523   8.246
33903SOL    HW2 1734   5.638   4.630   8.258
33904SOL     OW 1735   5.716   5.545   9.019
33904SOL    HW1 1736   5.706   5.530   9.118
33904SOL    HW2 1737   5.630   5.581   8.983
33905SOL     OW 1738   6.451   4.072   7.643
33905SOL    HW1 1739   6.510   4.135   7.594
33905SOL    HW2 1740   6.470   3.978   7.614
33906SOL     OW 1741   7.305   4.309   9.279
33906SOL    HW1 1742   7.279   4.398   9.243
33906SOL    HW2 1743   7.303   4.241   9.206
33907SOL     OW 1744   6.948   4.868   7.993
33907SOL    HW1 1745   7.031   4.839   7.945
33907SOL    HW2 1746   6.899   4.935   7.937
33908SOL     OW 1747   6.136   3.920   8.333
33908SOL    HW1 1748   6.131   3.915   8.433
33908SOL    HW2 1749   6.138   4.016   8.304
33909SOL     OW 1750   6.594   5.180   7.925
33909SOL    HW1 1751   6.548   5.252   7.873
33909SOL    HW2 1752   6.590   5.200   8.023
33910SOL     OW 1753   5.937   5.525   8.301
33910SOL    HW1 1754   5.987   5.439   8.307
33910SOL    HW2 1755   6.002   5.602   8.298
33911SOL     OW 1756   7.381   4.790   8.321
33911SOL    HW1 1757   7.319   4.775   8.245
33911SOL    HW2 1758   7.329   4.801   8.406
33912SOL     OW 1759   6.813   5.274   8.954
33912SOL    HW1 1760   6.819   5.197   9.018
33912SOL    HW2 1761   6.761   5.248   8.874
33913SOL     OW 1762   5.907   4.667   7.690
33913SOL    HW1 1763   5.989   4.706   7.648
33913SOL    HW2 1764   5.880   4.585   7.641
33914SOL     OW 1765   7.044   4.459   8.176
33914SOL    HW1 1766   7.039   4.394   8.251
33914SOL    HW2 1767   7.124   4.518   8.189
33915SOL     OW 1768   6.047   4.990   9.175
33915SOL    HW1 1769   5.997   4.991   9.089
33915SOL    HW2 1770   5.984   4.972   9.251
33916SOL     OW 1771   6.697   5.500   7.685
33916SOL    HW1 1772   6.637   5.438   7.735
33916SOL    HW2 1773   6.728   5.456   7.600
33917SOL     OW 1774   5.788   4.009   8.946
33917SOL    HW1 1775   5.708   4.069   8.933
33917SOL    HW2 1776   5.778   3.960   9.032
33918SOL     OW 1777   7.218   5.101   7.529
33918SOL    HW1 1778   7.186   5.195   7.519
33918SOL    HW2 1779   7.142   5.038   7.517
33919SOL     OW 1780   6.050   5.467   7.771
33919SOL    HW1 1781   6.083   5.506   7.857
33919SOL    HW2 1782   6.126   5.460   7.706
33920SOL     OW 1783   6.986   3.831   7.874
33920SOL    HW1 1784   6.962   3.794   7.784
33920SOL    HW2 1785   7.085   3.847   7.878
33921SOL     OW 1786   5.835   5.509   8.689
33921SOL    HW1 1787   5.892   5.444   8.739
33921SOL    HW2 1788   5.819   5.476   8.596
33922SOL     OW 1789   6.526   5.422   8.352
33922SOL    HW1 1790   6.606   5.365   8.373
33922SOL    HW2 1791   6.477   5.382   8.275
33923SOL     OW 1792   5.968   4.424   7.928
33923SOL    HW1 1793   6.013   4.334   7.925
33923SOL    HW2 1794   5.874   4.413   7.961
33924SOL     OW 1795   7.133   3.946   9.177
33924SOL    HW1 1796   7.128   3.983   9.269
33924SOL    HW2 1797   7.061   3.877   9.165
33925SOL     OW 1798   6.200   3.846   7.565
33925SOL    HW1 1799   6.298   3.824   7.572
33925SOL    HW2 1800   6.169   3.829   7.472
33926SOL     OW 1801   6.367   3.988   9.197
33926SOL    HW1 1802   6.434   3.927   9.240
33926SOL    HW2 1803   6.294   4.007   9.262
33927SOL     OW 1804   6.474   5.238   8.643
33927SOL    HW1 1805   6.451   5.213   8.549
33927SOL    HW2 1806   6.535   5.169   8.682
33928SOL     OW 1807   6.937   4.314   8.881
33928SOL    HW1 1808   6.965   4.271   8.966
33928SOL    HW2 1809   6.962   4.410   8.882
33929SOL     OW 1810   6.389   5.126   8.372
33929SOL    HW1 1811   6.479   5.140   8.330
33929SOL    HW2 1812   6.318   5.128   8.301
33930SOL     OW 1813   6.508   4.227   8.347
33930SOL    HW1 1814   6.483   4.218   8.251
33930SOL    HW2 1815   6.556   4.145   8.378
33931SOL     OW 1816   6.125   3.788   7.960
33931SOL    HW1 1817   6.044   3.789   8.018
33931SOL    HW2 1818   6.128   3.871   7.905
33932SOL     OW 1819   7.020   4.912   7.489
33932SOL    HW1 1820   7.052   4.836   7.546
33932SOL    HW2 1821   6.928   4.939   7.519
33933SOL     OW 1822   5.883   3.759   7.619
33933SOL    HW1 1823   5.932   3.843   7.598
33933SOL    HW2 1824   5.945   3.694   7.664
33934SOL     OW 1825   6.521   3.960   7.928
33934SOL    HW1 1826   6.473   4.001   7.850
33934SOL    HW2 1827   6.620   3.958   7.909
33935SOL     OW 1828   6.662   4.407   8.912
33935SOL    HW1 1829   6.582   4.346   8.915
33935SOL    HW2 1830   6.743   4.354   8.888
33936SOL     OW 1831   6.813   5.294   8.241
33936SOL    HW1 1832   6.834   5.368   8.176
33936SOL    HW2 1833   6.881   5.294   8.314
33937SOL     OW 1834   6.045   4.876   8.189
33937SOL    HW1 1835   5.974   4.849   8.254
33937SOL    HW2 1836   6.019   4.848   8.096
33938SOL     OW 1837   6.857   5.521   8.039
33938SOL    HW1 1838   6.901   5.585   7.975
33938SOL    HW2 1839   6.807   5.573   8.109
33939SOL     OW 1840   6.618   4.273   7.464
33939SOL    HW1 1841   6.577   4.355   7.425
33939SOL    HW2 1842   6.682   4.299   7.537
33940SOL     OW 1843   5.664   4.280   8.834
33940SOL    HW1 1844   5.756   4.279   8.793
33940SOL    HW2 1845   5.658   4.354   8.901
33941SOL     OW 1846   6.147   3.946   8.595
33941SOL    HW1 1847   6.185   3.862   8.632
33941SOL    HW2 1848   6.059   3.965   8.639
33942SOL     OW 1849   6.452   4.178   8.090
33942SOL    HW1 1850   6.420   4.250   8.028
33942SOL    HW2 1851   6.476   4.097   8.037
33943SOL     OW 1852   6.603   3.763   8.201
33943SOL    HW1 1853   6.531   3.768   8.132
33943SOL    HW2 1854   6.579   3.694   8.270
33944SOL     OW 1855   7.015   4.897   8.315
33944SOL    HW1 1856   6.960   4.813   8.308
33944SOL    HW2 1857   7.041   4.926   8.223
33945SOL     OW 1858   7.052   4.314   8.440
33945SOL    HW1 1859   7.022   4.219   8.447
33945SOL    HW2 1860   7.125   4.330   8.506
33946SOL     OW 1861   7.443   4.557   7.825
33946SOL    HW1 1862   7.485   4.493   7.889
33946SOL    HW2 1863   7.405   4.506   7.747
33947SOL     OW 1864   6.074   5.109   7.622
33947SOL    HW1 1865   5.987   5.094   7.669
33947SOL    HW2 1866   6.057   5.135   7.527
33948SOL     OW 1867   7.250   5.004   8.105
33948SOL    HW1 1868   7.349   5.012   8.119
33948SOL    HW2 1869   7.205   5.088   8.136
33949SOL     OW 1870   6.976   4.299   7.526
33949SOL    HW1 1871   6.922   4.278   7.607
33949SOL    HW2 1872   7.067   4.258   7.535
33950SOL     OW 1873   6.113   3.980   7.776
33950SOL    HW1 1874   6.140   3.921   7.701
33950SOL    HW2 1875   6.113   4.075   7.745
33951SOL     OW 1876   7.340   4.947   9.036
33951SOL    HW1 1877   7.431   4.908   9.023
33951SOL    HW2 1878   7.348   5.043   9.060
33952SOL     OW 1879   6.650   5.071   8.788
33952SOL    HW1 1880   6.570   5.048   8.843
33952SOL    HW2 1881   6.733   5.045   8.837
33953SOL     OW 1882   7.178   5.353   9.073
33953SOL    HW1 1883   7.205   5.387   8.983
33953SOL    HW2 1884   7.257   5.315   9.119
33954SOL     OW 1885   6.697   4.919   8.548
33954SOL    HW1 1886   6.657   4.963   8.629
33954SOL    HW2 1887   6.656   4.956   8.465
33955SOL     OW 1888   7.224   4.823   8.527
33955SOL    HW1 1889   7.229   4.904   8.586
33955SOL    HW2 1890   7.138   4.825   8.476
33956SOL     OW 1891   6.501   3.813   8.850
33956SOL    HW1 1892   6.526   3.793   8.755
33956SOL    HW2 1893   6.573   3.869   8.892
33957SOL     OW 1894   6.566   4.840   9.167
33957SOL    HW1 1895   6.467   4.846   9.177
33957SOL    HW2 1896   6.589   4.760   9.111
33958SOL     OW 1897   6.291   4.774   7.816
33958SOL    HW1 1898   6.277   4.781   7.915
33958SOL    HW2 1899   6.375   4.723   7.798
33959SOL     OW 1900   5.996   4.537   8.699
33959SOL    HW1 1901   6.082   4.549   8.749
33959SOL    HW2 1902   5.954   4.450   8.726
33960SOL     OW 1903   6.860   4.110   8.710
33960SOL    HW1 1904   6.881   4.184   8.774
33960SOL    HW2 1905   6.771   4.127   8.667
33961SOL     OW 1906   5.650   5.288   8.779
33961SOL    HW1 1907   5.604   5.370   8.745
33961SOL    HW2 1908   5.748   5.307   8.788
33962SOL     OW 1909   5.953   4.824   7.949
33962SOL    HW1 1910   5.946   4.907   7.893
33962SOL    HW2 1911   5.957   4.744   7.889
33963SOL     OW 1912   6.152   4.261   8.313
33963SOL    HW1 1913   6.164   4.327   8.239
33963SOL    HW2 1914   6.198   4.295   8.396
33964SOL     OW 1915   6.838   5.072   7.836
33964SOL    HW1 1916   6.888   5.149   7.876
33964SOL    HW2 1917   6.743   5.074   7.868
33965SOL     OW 1918   6.858   5.169   8.590
33965SOL    HW1 1919   6.905   5.182   8.677
33965SOL    HW2 1920   6.792   5.095   8.599
33966SOL     OW 1921   7.168   4.363   7.920
33966SOL    HW1 1922   7.137   4.424   7.993
33966SOL    HW2 1923   7.218   4.415   7.851
33967SOL     OW 1924   5.940   5.234   8.777
33967SOL    HW1 1925   5.919   5.190   8.690
33967SOL    HW2 1926   6.037   5.260   8.780
33968SOL     OW 1927   5.988   4.475   9.046
33968SOL    HW1 1928   6.056   4.530   8.999
33968SOL    HW2 1929   6.028   4.387   9.073
33969SOL     OW 1930   7.173   4.503   9.118
33969SOL    HW1 1931   7.081   4.541   9.113
33969SOL    HW2 1932   7.233   4.550   9.053
33970SOL     OW 1933   6.599   3.829   9.218
33970SOL    HW1 1934   6.605   3.914   9.166
33970SOL    HW2 1935   6.631   3.753   9.161
33971SOL     OW 1936   6.090   3.774   9.188
33971SOL    HW1 1937   6.048   3.717   9.118
33971SOL    HW2 1938   6.024   3.843   9.220
33972SOL     OW 1939   6.159   4.594   8.477
33972SOL    HW1 1940   6.203   4.683   8.468
33972SOL    HW2 1941   6.096   4.594   8.554
33973SOL     OW 1942   6.946   4.586   8.493
33973SOL    HW1 1943   6.871   4.586   8.427
33973SOL    HW2 1944   6.983   4.494   8.502
33974SOL     OW 1945   6.795   4.249   7.723
33974SOL    HW1 1946   6.808   4.165   7.777
33974SOL    HW2 1947   6.766   4.323   7.783
33975SOL     OW 1948   5.893   3.937   8.679
33975SOL    HW1 1949   5.870   3.974   8.769
33975SOL    HW2 1950   5.863   3.842   8.673
33976SOL     OW 1951   5.623   5.034   8.730
33976SOL    HW1 1952   5.676   4.985   8.798
33976SOL    HW2 1953   5.645   5.132   8.735
33977SOL     OW 1954   6.318   4.358   8.512
33977SOL    HW1 1955   6.377   4.332   8.436
33977SOL    HW2 1956   6.290   4.454   8.501
33978SOL     OW 1957   7.314   4.659   9.302
33978SOL    HW1 1958   7.268   4.652   9.213
33978SOL    HW2 1959   7.252   4.703   9.368
33979SOL     OW 1960   5.893   3.787   8.066
33979SOL    HW1 1961   5.882   3.881   8.099
33979SOL    HW2 1962   5.888   3.724   8.143
33980SOL     OW 1963   7.208   4.091   7.822
33980SOL    HW1 1964   7.210   4.015   7.886
33980SOL    HW2 1965   7.160   4.168   7.862
33981SOL     OW 1966   6.609   4.490   8.414
33981SOL    HW1 1967   6.624   4.511   8.510
33981SOL    HW2 1968   6.579   4.395   8.405
33982SOL     OW 1969   6.566   5.297   9.148
33982SOL    HW1 1970   6.546   5.341   9.060
33982SOL    HW2 1971   6.605   5.206   9.132
33983SOL     OW 1972   7.445   5.242   9.053
33983SOL    HW1 1973   7.459   5.269   8.958
33983SOL    HW2 1974   7.528   5.264   9.106
33984SOL     OW 1975   5.936   4.622   9.252
33984SOL    HW1 1976   6.012   4.666   9.300
33984SOL    HW2 1977   5.971   4.575   9.170
33985SOL     OW 1978   7.126   3.998   7.573
33985SOL    HW1 1979   7.065   3.923   7.596
33985SOL    HW2 1980   7.148   4.050   7.656
33986SOL     OW 1981   6.889   4.562   7.490
33986SOL    HW1 1982   6.923   4.469   7.505
33986SOL    HW2 1983   6.907   4.589   7.395
33987SOL     OW 1984   6.654   5.057   8.297
33987SOL    HW1 1985   6.661   4.973   8.242
33987SOL    HW2 1986   6.716   5.126   8.261
33988SOL     OW 1987   5.905   4.534   8.397
33988SOL    HW1 1988   5.998   4.570   8.402
33988SOL    HW2 1989   5.899   4.449   8.449
33989SOL     OW 1990   5.925   4.233   8.454
33989SOL    HW1 1991   5.873   4.150   8.437
33989SOL    HW2 1992   6.002   4.238   8.390
33990SOL     OW 1993   6.724   4.104   9.126
33990SOL    HW1 1994   6.679   4.167   9.190
33990SOL    HW2 1995   6.817   4.135   9.109
33991SOL     OW 1996   6.746   3.931   8.925
33991SOL    HW1 1997   6.746   3.995   9.002
33991SOL    HW2 1998   6.774   3.979   8.842
33992SOL     OW 1999   5.594   5.050   7.648
33992SOL    HW1 2000   5.501   5.071   7.617
33992SOL    HW2 2001   5.604   4.951   7.661
33993SOL     OW 2002   5.674   5.525   8.375
33993SOL    HW1 2003   5.632   5.439   8.348
33993SOL    HW2 2004   5.768   5.528   8.341
33994SOL     OW 2005   6.090   5.292   8.358
33994SOL    HW1 2006   6.156   5.366   8.367
33994SOL    HW2 2007   6.134   5.213   8.316
33995SOL     OW 2008   6.588   4.520   8.686
33995SOL    HW1 2009   6.629   4.488   8.772
33995SOL    HW2 2010   6.492   4.493   8.683
33996SOL     OW 2011   5.626   4.268   8.562
33996SOL    HW1 2012   5.711   4.235   8.521
33996SOL    HW2 2013   5.639   4.283   8.660
33997SOL     OW 2014   5.775   4.244   9.170
33997SOL    HW1 2015   5.834   4.204   9.100
33997SOL    HW2 2016   5.717   4.315   9.129
33998SOL     OW 2017   6.955   4.674   9.108
33998SOL    HW1 2018   6.994   4.763   9.128
33998SOL    HW2 2019   6.965   4.654   9.011
33999SOL     OW 2020   6.401   4.296   7.773
33999SOL    HW1 2021   6.408   4.207   7.727
33999SOL    HW2 2022   6.307   4.330   7.765
34000SOL     OW 2023   7.243   4.328   8.654
34000SOL    HW1 2024   7.205   4.259   8.716
34000SOL    HW2 2025   7.325   4.292   8.610
34001SOL     OW 2026   5.838   5.288   9.192
34001SOL    HW1 2027   5.808   5.345   9.268
34001SOL    HW2 2028   5.831   5.191   9.218
34002SOL     OW 2029   6.257   4.188   8.717
34002SOL    HW1 2030   6.223   4.099   8.687
34002SOL    HW2 2031   6.283   4.242   8.637
34003SOL     OW 2032   6.516   5.402   8.913
34003SOL    HW1 2033   6.492   5.384   8.818
34003SOL    HW2 2034   6.546   5.496   8.923
34004SOL     OW 2035   6.059   4.224   7.639
34004SOL    HW1 2036   6.120   4.304   7.643
34004SOL    HW2 2037   5.964   4.255   7.646
34005SOL     OW 2038   5.745   4.861   8.914
34005SOL    HW1 2039   5.767   4.800   8.990
34005SOL    HW2 2040   5.755   4.812   8.828
34006SOL     OW 2041   6.933   4.783   8.682
34006SOL    HW1 2042   6.957   4.720   8.608
34006SOL    HW2 2043   6.843   4.823   8.664
34007SOL     OW 2044   6.888   4.579   7.757
34007SOL    HW1 2045   6.802   4.548   7.799
34007SOL    HW2 2046   6.884   4.565   7.658
34008SOL     OW 2047   7.345   5.471   8.602
34008SOL    HW1 2048   7.406   5.501   8.529
34008SOL    HW2 2049   7.307   5.382   8.580
34009SOL     OW 2050   6.838   5.455   8.576
34009SOL    HW1 2051   6.922   5.460   8.522
34009SOL    HW2 2052   6.815   5.359   8.594
34010SOL     OW 2053   5.669   4.982   8.470
34010SOL    HW1 2054   5.664   4.981   8.570
34010SOL    HW2 2055   5.586   4.941   8.432
34011SOL     OW 2056   6.274   5.386   9.164
34011SOL    HW1 2057   6.218   5.467   9.173
34011SOL    HW2 2058   6.326   5.390   9.078
34012SOL     OW 2059   7.312   3.859   7.971
34012SOL    HW1 2060   7.385   3.842   7.904
34012SOL    HW2 2061   7.281   3.772   8.009
34013SOL     OW 2062   6.974   5.297   7.925
34013SOL    HW1 2063   7.041   5.309   7.851
34013SOL    HW2 2064   6.934   5.386   7.948
34014SOL     OW 2065   5.716   5.518   9.299
34014SOL    HW1 2066   5.675   5.444   9.352
34014SOL    HW2 2067   5.780   5.569   9.357
34015SOL     OW 2068   6.866   4.651   8.120
34015SOL    HW1 2069   6.926   4.570   8.122
34015SOL    HW2 2070   6.906   4.720   8.060
34016SOL     OW 2071   6.416   4.997   8.870
34016SOL    HW1 2072   6.411   5.030   8.965
34016SOL    HW2 2073   6.330   5.016   8.824
34017SOL     OW 2074   6.258   5.340   7.602
34017SOL    HW1 2075   6.267   5.350   7.503
34017SOL    HW2 2076   6.218   5.251   7.623
34018SOL     OW 2077   7.236   5.444   8.842
34018SOL    HW1 2078   7.289   5.454   8.758
34018SOL    HW2 2079   7.209   5.534   8.876
34019SOL     OW 2080   7.427   3.899   8.411
34019SOL    HW1 2081   7.466   3.814   8.375
34019SOL    HW2 2082   7.329   3.901   8.392
34020SOL     OW 2083   5.849   4.050   8.168
34020SOL    HW1 2084   5.770   4.101   8.134
34020SOL    HW2 2085   5.840   4.035   8.266
34021SOL     OW 2086   6.780   5.336   7.479
34021SOL    HW1 2087   6.786   5.243   7.516
34021SOL    HW2 2088   6.721   5.336   7.399
34022SOL     OW 2089   6.408   4.726   8.820
34022SOL    HW1 2090   6.448   4.725   8.728
34022SOL    HW2 2091   6.418   4.818   8.860
34023SOL     OW 2092   6.502   4.634   7.739
34023SOL    HW1 2093   6.565   4.672   7.671
34023SOL    HW2 2094   6.542   4.551   7.778
34024SOL     OW 2095   7.090   5.331   7.492
34024SOL    HW1 2096   6.998   5.368   7.499
34024SOL    HW2 2097   7.128   5.351   7.402
34025SOL     OW 2098   5.958   5.012   8.938
34025SOL    HW1 2099   5.945   5.105   8.904
34025SOL    HW2 2100   5.874   4.960   8.925
34026SOL     OW 2101   7.200   5.016   8.737
34026SOL    HW1 2102   7.260   5.019   8.817
34026SOL    HW2 2103   7.125   5.080   8.750
34027SOL     OW 2104   6.625   4.822   8.144
34027SOL    HW1 2105   6.555   4.775   8.198
34027SOL    HW2 2106   6.684   4.754   8.101
34028SOL     OW 2107   6.600   3.960   8.419
34028SOL    HW1 2108   6.592   3.924   8.326
34028SOL    HW2 2109   6.598   3.884   8.484
34029SOL     OW 2110   6.176   5.211   7.939
34029SOL    HW1 2111   6.218   5.153   7.869
34029SOL    HW2 2112   6.132   5.290   7.895
34030SOL     OW 2113   7.295   4.109   8.829
34030SOL    HW1 2114   7.368   4.178   8.833
34030SOL    HW2 2115   7.323   4.034   8.770
34031SOL     OW 2116   5.841   5.072   7.738
34031SOL    HW1 2117   5.745   5.073   7.711
34031SOL    HW2 2118   5.853   5.125   7.822
34032SOL     OW 2119   5.691   4.737   9.174
34032SOL    HW1 2120   5.614   4.704   9.228
34032SOL    HW2 2121   5.776   4.707   9.216
34033SOL     OW 2122   6.258   3.927   8.937
34033SOL    HW1 2123   6.348   3.911   8.897
34033SOL    HW2 2124   6.266   3.932   9.036
34034SOL     OW 2125   5.661   4.069   7.481
34034SOL    HW1 2126   5.569   4.041   7.452
34034SOL    HW2 2127   5.692   4.146   7.425
34035SOL     OW 2128   7.026   4.580   8.846
34035SOL    HW1 2129   6.969   4.632   8.783
34035SOL    HW2 2130   7.122   4.592   8.822
34036SOL     OW 2131   5.658   3.890   7.766
34036SOL    HW1 2132   5.641   3.973   7.712
34036SOL    HW2 2133   5.748   3.853   7.744
34037SOL     OW 2134   6.769   5.059   7.567
34037SOL    HW1 2135   6.670   5.048   7.569
34037SOL    HW2 2136   6.803   5.074   7.660
34038SOL     OW 2137   6.199   4.566   8.879
34038SOL    HW1 2138   6.255   4.647   8.862
34038SOL    HW2 2139   6.258   4.486   8.882
34039SOL     OW 2140   7.079   5.491   8.407
34039SOL    HW1 2141   7.112   5.555   8.338
34039SOL    HW2 2142   7.145   5.485   8.482
34040SOL     OW 2143   6.302   4.289   9.156
34040SOL    HW1 2144   6.321   4.354   9.230
34040SOL    HW2 2145   6.362   4.209   9.165
34041SOL     OW 2146   7.036   4.944   9.081
34041SOL    HW1 2147   7.027   4.934   9.180
34041SOL    HW2 2148   7.132   4.937   9.055
34042SOL     OW 2149   5.976   5.465   9.008
34042SOL    HW1 2150   5.885   5.506   9.006
34042SOL    HW2 2151   5.969   5.371   9.040
34043SOL     OW 2152   7.260   4.607   8.702
34043SOL    HW1 2153   7.233   4.518   8.665
34043SOL    HW2 2154   7.261   4.675   8.629
34044SOL     OW 2155   6.811   4.049   7.897
34044SOL    HW1 2156   6.876   3.975   7.886
34044SOL    HW2 2157   6.831   4.099   7.981
34045SOL     OW 2158   6.180   4.469   8.100
34045SOL    HW1 2159   6.230   4.554   8.081
34045SOL    HW2 2160   6.092   4.471   8.052
34046SOL     OW 2161   7.363   4.066   9.090
34046SOL    HW1 2162   7.346   4.097   8.996
34046SOL    HW2 2163   7.279   4.029   9.128
34047SOL     OW 2164   7.316   4.658   8.965
34047SOL    HW1 2165   7.354   4.749   8.980
34047SOL    HW2 2166   7.308   4.641   8.866
34048SOL     OW 2167   6.445   5.098   7.464
34048SOL    HW1 2168   6.399   5.113   7.552
34048SOL    HW2 2169   6.489   5.183   7.434
34049SOL     OW 2170   6.247   5.514   8.401
34049SOL    HW1 2171   6.201   5.602   8.388
34049SOL    HW2 2172   6.346   5.526   8.394
34050SOL     OW 2173   6.445   4.680   8.309
34050SOL    HW1 2174   6.499   4.611   8.357
34050SOL    HW2 2175   6.413   4.749   8.375
34051SOL     OW 2176   6.669   4.708   7.535
34051SOL    HW1 2177   6.646   4.761   7.453
34051SOL    HW2 2178   6.750   4.652   7.516
34052SOL     OW 2179   7.447   5.293   8.299
34052SOL    HW1 2180   7.376   5.281   8.229
34052SOL    HW2 2181   7.448   5.214   8.359
34053SOL     OW 2182   5.807   5.038   9.292
34053SOL    HW1 2183   5.742   4.965   9.271
34053SOL    HW2 2184   5.811   5.052   9.390
34054SOL     OW 2185   5.665   4.964   8.101
34054SOL    HW1 2186   5.664   4.917   8.189
34054SOL    HW2 2187   5.747   4.936   8.050
34055SOL     OW 2188   6.258   5.115   9.072
34055SOL    HW1 2189   6.180   5.065   9.110
34055SOL    HW2 2190   6.255   5.210   9.103
34056SOL     OW 2191   7.410   3.916   8.675
34056SOL    HW1 2192   7.406   3.826   8.719
34056SOL    HW2 2193   7.413   3.905   8.576
34057SOL     OW 2194   6.014   4.148   7.968
34057SOL    HW1 2195   6.044   4.076   7.906
34057SOL    HW2 2196   5.975   4.108   8.051
34058SOL     OW 2197   7.291   5.211   8.552
34058SOL    HW1 2198   7.198   5.186   8.525
34058SOL    HW2 2199   7.317   5.161   8.634
34059SOL     OW 2200   5.903   4.271   8.728
34059SOL    HW1 2201   5.941   4.212   8.800
34059SOL    HW2 2202   5.943   4.245   8.640
34060SOL     OW 2203   6.398   5.310   8.135
34060SOL    HW1 2204   6.430   5.320   8.041
34060SOL    HW2 2205   6.319   5.248   8.137
34061SOL     OW 2206   7.010   3.938   8.560
34061SOL    HW1 2207   7.062   3.873   8.615
34061SOL    HW2 2208   6.961   4.001   8.621
34062SOL     OW 2209   6.587   3.758   8.602
34062SOL    HW1 2210   6.524   3.686   8.571
34062SOL    HW2 2211   6.680   3.722   8.602
34063SOL     OW 2212   6.356   5.054   7.749
34063SOL    HW1 2213   6.310   4.967   7.766
34063SOL    HW2 2214   6.447   5.051   7.790
34064SOL     OW 2215   6.204   5.291   8.732
34064SOL    HW1 2216   6.199   5.373   8.789
34064SOL    HW2 2217   6.293   5.288   8.687
34065SOL     OW 2218   6.938   3.776   7.616
34065SOL    HW1 2219   6.973   3.735   7.532
34065SOL    HW2 2220   6.848   3.738   7.636
34066SOL     OW 2221   6.886   4.177   8.139
34066SOL    HW1 2222   6.827   4.257   8.143
34066SOL    HW2 2223   6.901   4.142   8.232
34067SOL     OW 2224   7.179   3.945   8.330
34067SOL    HW1 2225   7.095   3.944   8.384
34067SOL    HW2 2226   7.181   4.028   8.274
34068SOL     OW 2227   5.625   4.801   7.748
34068SOL    HW1 2228   5.724   4.790   7.739
34068SOL    HW2 2229   5.585   4.715   7.780
34069SOL     OW 2230   6.461   5.370   7.785
34069SOL    HW1 2231   6.384   5.335   7.731
34069SOL    HW2 2232   6.429   5.441   7.847
34070SOL     OW 2233   5.816   4.352   9.423
34070SOL    HW1 2234   5.723   4.350   9.460
34070SOL    HW2 2235   5.817   4.313   9.331
34071SOL     OW 2236   5.811   3.999  10.306
34071SOL    HW1 2237   5.846   3.982  10.398
34071SOL    HW2 2238   5.723   3.954  10.294
34072SOL     OW 2239   5.605   4.092   9.957
34072SOL    HW1 2240   5.523   4.135   9.996
34072SOL    HW2 2241   5.577   4.019   9.894
34073SOL     OW 2242   6.155   4.999  10.475
34073SOL    HW1 2243   6.062   4.992  10.438
34073SOL    HW2 2244   6.166   5.088  10.519
34074SOL     OW 2245   7.141   5.235  10.013
34074SOL    HW1 2246   7.084   5.219  10.094
34074SOL    HW2 2247   7.082   5.245   9.933
34075SOL     OW 2248   6.721   4.427  10.027
34075SOL    HW1 2249   6.778   4.505  10.002
34075SOL    HW2 2250   6.661   4.453  10.103
34076SOL     OW 2251   7.341   4.331   9.541
34076SOL    HW1 2252   7.329   4.318   9.442
34076SOL    HW2 2253   7.311   4.250   9.590
34077SOL     OW 2254   6.354   4.868  10.333
34077SOL    HW1 2255   6.276   4.885  10.393
34077SOL    HW2 2256   6.388   4.955  10.297
34078SOL     OW 2257   6.436   4.522  11.133
34078SOL    HW1 2258   6.432   4.598  11.198
34078SOL    HW2 2259   6.458   4.558  11.042
34079SOL     OW 2260   6.271   4.736   9.975
34079SOL    HW1 2261   6.340   4.720  10.045
34079SOL    HW2 2262   6.198   4.793  10.013
34080SOL     OW 2263   6.272   4.885  11.113
34080SOL    HW1 2264   6.332   4.964  11.127
34080SOL    HW2 2265   6.186   4.916  11.072
34081SOL     OW 2266   5.921   5.159  10.371
34081SOL    HW1 2267   5.843   5.128  10.318
34081SOL    HW2 2268   5.979   5.217  10.314
34082SOL     OW 2269   7.046   5.229  10.649
34082SOL    HW1 2270   7.070   5.323  10.675
34082SOL    HW2 2271   7.030   5.175  10.731
34083SOL     OW 2272   6.024   4.116  10.809
34083SOL    HW1 2273   6.106   4.060  10.818
34083SOL    HW2 2274   5.943   4.058  10.813
34084SOL     OW 2275   7.189   4.171  10.047
34084SOL    HW1 2276   7.115   4.217   9.997
34084SOL    HW2 2277   7.240   4.239  10.100
34085SOL     OW 2278   5.817   5.437   9.793
34085SOL    HW1 2279   5.851   5.514   9.847
34085SOL    HW2 2280   5.861   5.437   9.703
34086SOL     OW 2281   6.713   5.065  11.000
34086SOL    HW1 2282   6.760   5.065  11.088
34086SOL    HW2 2283   6.665   4.978  10.989
34087SOL     OW 2284   5.816   5.158   9.848
34087SOL    HW1 2285   5.790   5.254   9.848
34087SOL    HW2 2286   5.745   5.104   9.893
34088SOL     OW 2287   5.826   4.815  10.196
34088SOL    HW1 2288   5.840   4.731  10.248
34088SOL    HW2 2289   5.771   4.879  10.251
34089SOL     OW 2290   6.206   5.510  10.749
34089SOL    HW1 2291   6.114   5.493  10.784
34089SOL    HW2 2292   6.234   5.602  10.775
34090SOL     OW 2293   6.192   4.688   9.433
34090SOL    HW1 2294   6.199   4.772   9.379
34090SOL    HW2 2295   6.238   4.701   9.521
34091SOL     OW 2296   7.180   3.838  10.790
34091SOL    HW1 2297   7.162   3.905  10.718
34091SOL    HW2 2298   7.177   3.884  10.879
34092SOL     OW 2299   5.708   4.367   9.873
34092SOL    HW1 2300   5.663   4.279   9.890
34092SOL    HW2 2301   5.707   4.421   9.957
34093SOL     OW 2302   7.428   5.491   9.669
34093SOL    HW1 2303   7.482   5.462   9.749
34093SOL    HW2 2304   7.458   5.581   9.640
34094SOL     OW 2305   5.613   5.320   9.427
34094SOL    HW1 2306   5.594   5.224   9.448
34094SOL    HW2 2307   5.580   5.378   9.502
34095SOL     OW 2308   7.275   4.646   9.922
34095SOL    HW1 2309   7.370   4.617   9.930
34095SOL    HW2 2310   7.267   4.711   9.847
34096SOL     OW 2311   7.227   4.832   9.742
34096SOL    HW1 2312   7.313   4.834   9.690
34096SOL    HW2 2313   7.241   4.879   9.830
34097SOL     OW 2314   5.699   4.461  10.907
34097SOL    HW1 2315   5.787   4.448  10.952
34097SOL    HW2 2316   5.686   4.558  10.885
34098SOL     OW 2317   6.199   5.089  10.036
34098SOL    HW1 2318   6.150   5.002  10.045
34098SOL    HW2 2319   6.176   5.132   9.949
34099SOL     OW 2320   6.879   4.952  10.733
34099SOL    HW1 2321   6.916   4.879  10.675
34099SOL    HW2 2322   6.931   4.957  10.818
34100SOL     OW 2323   6.395   3.728   9.812
34100SOL    HW1 2324   6.435   3.819   9.803
34100SOL    HW2 2325   6.295   3.736   9.818
34101SOL     OW 2326   5.783   4.700  10.574
34101SOL    HW1 2327   5.872   4.655  10.560
34101SOL    HW2 2328   5.710   4.635  10.555
34102SOL     OW 2329   7.111   4.723   9.500
34102SOL    HW1 2330   7.048   4.647   9.513
34102SOL    HW2 2331   7.159   4.741   9.586
34103SOL     OW 2332   6.773   5.516  10.926
34103SOL    HW1 2333   6.797   5.576  10.850
34103SOL    HW2 2334   6.780   5.421  10.896
34104SOL     OW 2335   5.903   3.975  11.111
34104SOL    HW1 2336   5.974   4.046  11.117
34104SOL    HW2 2337   5.815   4.014  11.139
34105SOL     OW 2338   7.052   5.141  10.263
34105SOL    HW1 2339   6.993   5.147  10.343
34105SOL    HW2 2340   7.037   5.053  10.217
34106SOL     OW 2341   7.253   5.438   9.882
34106SOL    HW1 2342   7.212   5.415   9.794
34106SOL    HW2 2343   7.235   5.364   9.947
34107SOL     OW 2344   6.184   4.453   9.580
34107SOL    HW1 2345   6.208   4.522   9.512
34107SOL    HW2 2346   6.106   4.486   9.634
34108SOL     OW 2347   6.867   4.069  10.254
34108SOL    HW1 2348   6.781   4.019  10.241
34108SOL    HW2 2349   6.929   4.015  10.310
34109SOL     OW 2350   7.162   5.386   9.617
34109SOL    HW1 2351   7.251   5.432   9.620
34109SOL    HW2 2352   7.141   5.362   9.522
34110SOL     OW 2353   6.393   4.329  10.775
34110SOL    HW1 2354   6.346   4.326  10.864
34110SOL    HW2 2355   6.342   4.274  10.709
34111SOL     OW 2356   6.980   4.193  10.984
34111SOL    HW1 2357   6.960   4.236  11.072
34111SOL    HW2 2358   7.058   4.131  10.993
34112SOL     OW 2359   6.559   4.614  10.882
34112SOL    HW1 2360   6.605   4.530  10.853
34112SOL    HW2 2361   6.503   4.648  10.807
34113SOL     OW 2362   6.577   4.134  10.552
34113SOL    HW1 2363   6.500   4.168  10.606
34113SOL    HW2 2364   6.543   4.083  10.473
34114SOL     OW 2365   6.627   4.425   9.739
34114SOL    HW1 2366   6.653   4.421   9.835
34114SOL    HW2 2367   6.542   4.374   9.725
34115SOL     OW 2368   5.662   4.535  10.099
34115SOL    HW1 2369   5.761   4.523  10.108
34115SOL    HW2 2370   5.638   4.630  10.120
34116SOL     OW 2371   5.716   5.545  10.881
34116SOL    HW1 2372   5.706   5.530  10.980
34116SOL    HW2 2373   5.630   5.581  10.845
34117SOL     OW 2374   6.451   4.072   9.505
34117SOL    HW1 2375   6.510   4.135   9.456
34117SOL    HW2 2376   6.470   3.978   9.476
34118SOL     OW 2377   7.305   4.309  11.141
34118SOL    HW1 2378   7.279   4.398  11.105
34118SOL    HW2 2379   7.303   4.241  11.068
34119SOL     OW 2380   6.948   4.868   9.855
34119SOL    HW1 2381   7.031   4.839   9.807
34119SOL    HW2 2382   6.899   4.935   9.799
34120SOL     OW 2383   6.136   3.920  10.195
34120SOL    HW1 2384   6.131   3.915  10.295
34120SOL    HW2 2385   6.138   4.016  10.166
34121SOL     OW 2386   6.594   5.180   9.787
34121SOL    HW1 2387   6.548   5.252   9.735
34121SOL    HW2 2388   6.590   5.200   9.885
34122SOL     OW 2389   5.937   5.525  10.163
34122SOL    HW1 2390   5.987   5.439  10.169
34122SOL    HW2 2391   6.002   5.602  10.160
34123SOL     OW 2392   7.381   4.790  10.183
34123SOL    HW1 2393   7.319   4.775  10.107
34123SOL    HW2 2394   7.329   4.801  10.268
34124SOL     OW 2395   6.813   5.274  10.816
34124SOL    HW1 2396   6.819   5.197  10.880
34124SOL    HW2 2397   6.761   5.248  10.736
34125SOL     OW 2398   5.907   4.667   9.552
34125SOL    HW1 2399   5.989   4.706   9.510
34125SOL    HW2 2400   5.880   4.585   9.503
34126SOL     OW 2401   7.044   4.459  10.038
34126SOL    HW1 2402   7.039   4.394  10.113
34126SOL    HW2 2403   7.124   4.518  10.051
34127SOL     OW 2404   6.047   4.990  11.037
34127SOL    HW1 2405   5.997   4.991  10.951
34127SOL    HW2 2406   5.984   4.972  11.113
34128SOL     OW 2407   6.697   5.500   9.547
34128SOL    HW1 2408   6.637   5.438   9.597
34128SOL    HW2 2409   6.728   5.456   9.462
34129SOL     OW 2410   5.788   4.009  10.808
34129SOL    HW1 2411   5.708   4.069  10.795
34129SOL    HW2 2412   5.778   3.960  10.894
34130SOL     OW 2413   7.218   5.101   9.391
34130SOL    HW1 2414   7.186   5.195   9.381
34130SOL    HW2 2415   7.142   5.038   9.379
34131SOL     OW 2416   6.050   5.467   9.633
34131SOL    HW1 2417   6.083   5.506   9.719
34131SOL    HW2 2418   6.126   5.460   9.568
34132SOL     OW 2419   6.986   3.831   9.736
34132SOL    HW1 2420   6.962   3.794   9.646
34132SOL    HW2 2421   7.085   3.847   9.740
34133SOL     OW 2422   5.835   5.509  10.551
34133SOL    HW1 2423   5.892   5.444  10.601
34133SOL    HW2 2424   5.819   5.476  10.458
34134SOL     OW 2425   6.526   5.422  10.214
34134SOL    HW1 2426   6.606   5.365  10.235
34134SOL    HW2 2427   6.477   5.382  10.137
34135SOL     OW 2428   5.968   4.424   9.790
34135SOL    HW1 2429   6.013   4.334   9.787
34135SOL    HW2 2430   5.874   4.413   9.823
34136SOL     OW 2431   7.133   3.946  11.039
34136SOL    HW1 2432   7.128   3.983  11.131
34136SOL    HW2 2433   7.061   3.877  11.027
34137SOL     OW 2434   6.200   3.846   9.427
34137SOL    HW1 2435   6.298   3.824   9.434
34137SOL    HW2 2436   6.169   3.829   9.334
34138SOL     OW 2437   6.367   3.988  11.059
34138SOL    HW1 2438   6.434   3.927  11.102
34138SOL    HW2 2439   6.294   4.007  11.124
34139SOL     OW 2440   6.474   5.238  10.505
34139SOL    HW1 2441   6.451   5.213  10.411
34139SOL    HW2 2442   6.535   5.169  10.544
34140SOL     OW 2443   6.937   4.314  10.743
34140SOL    HW1 2444   6.965   4.271  10.828
34140SOL    HW2 2445   6.962   4.410  10.744
34141SOL     OW 2446   6.389   5.126  10.234
34141SOL    HW1 2447   6.479   5.140  10.192
34141SOL    HW2 2448   6.318   5.128  10.163
34142SOL     OW 2449   6.508   4.227  10.209
34142SOL    HW1 2450   6.483   4.218  10.113
34142SOL    HW2 2451   6.556   4.145  10.240
34143SOL     OW 2452   6.125   3.788   9.822
34143SOL    HW1 2453   6.044   3.789   9.880
34143SOL    HW2 2454   6.128   3.871   9.767
34144SOL     OW 2455   7.020   4.912   9.351
34144SOL    HW1 2456   7.052   4.836   9.408
34144SOL    HW2 2457   6.928   4.939   9.381
34145SOL     OW 2458   5.883   3.759   9.481
34145SOL    HW1 2459   5.932   3.843   9.460
34145SOL    HW2 2460   5.945   3.694   9.526
34146SOL     OW 2461   6.521   3.960   9.790
34146SOL    HW1 2462   6.473   4.001   9.712
34146SOL    HW2 2463   6.620   3.958   9.771
34147SOL     OW 2464   6.662   4.407  10.774
34147SOL    HW1 2465   6.582   4.346  10.777
34147SOL    HW2 2466   6.743   4.354  10.750
34148SOL     OW 2467   6.813   5.294  10.103
34148SOL    HW1 2468   6.834   5.368  10.038
34148SOL    HW2 2469   6.881   5.294  10.176
34149SOL     OW 2470   6.045   4.876  10.051
34149SOL    HW1 2471   5.974   4.849  10.116
34149SOL    HW2 2472   6.019   4.848   9.958
34150SOL     OW 2473   6.857   5.521   9.901
34150SOL    HW1 2474   6.901   5.585   9.837
34150SOL    HW2 2475   6.807   5.573   9.971
34151SOL     OW 2476   6.618   4.273   9.326
34151SOL    HW1 2477   6.577   4.355   9.287
34151SOL    HW2 2478   6.682   4.299   9.399
34152SOL     OW 2479   5.664   4.280  10.696
34152SOL    HW1 2480   5.756   4.279  10.655
34152SOL    HW2 2481   5.658   4.354  10.763
34153SOL     OW 2482   6.147   3.946  10.457
34153SOL    HW1 2483   6.185   3.862  10.494
34153SOL    HW2 2484   6.059   3.965  10.501
34154SOL     OW 2485   6.452   4.178   9.952
34154SOL    HW1 2486   6.420   4.250   9.890
34154SOL    HW2 2487   6.476   4.097   9.899
34155SOL     OW 2488   6.603   3.763  10.063
34155SOL    HW1 2489   6.531   3.768   9.994
34155SOL    HW2 2490   6.579   3.694  10.132
34156SOL     OW 2491   7.015   4.897  10.177
34156SOL    HW1 2492   6.960   4.813  10.170
34156SOL    HW2 2493   7.041   4.926  10.085
34157SOL     OW 2494   7.052   4.314  10.302
34157SOL    HW1 2495   7.022   4.219  10.309
34157SOL    HW2 2496   7.125   4.330  10.368
34158SOL     OW 2497   7.443   4.557   9.687
34158SOL    HW1 2498   7.485   4.493   9.751
34158SOL    HW2 2499   7.405   4.506   9.609
34159SOL     OW 2500   6.074   5.109   9.484
34159SOL    HW1 2501   5.987   5.094   9.531
34159SOL    HW2 2502   6.057   5.135   9.389
34160SOL     OW 2503   7.250   5.004   9.967
34160SOL    HW1 2504   7.349   5.012   9.981
34160SOL    HW2 2505   7.205   5.088   9.998
34161SOL     OW 2506   6.976   4.299   9.388
34161SOL    HW1 2507   6.922   4.278   9.469
34161SOL    HW2 2508   7.067   4.258   9.397
34162SOL     OW 2509   6.113   3.980   9.638
34162SOL    HW1 2510   6.140   3.921   9.563
34162SOL    HW2 2511   6.113   4.075   9.607
34163SOL     OW 2512   7.340   4.947  10.898
34163SOL    HW1 2513   7.431   4.908  10.885
34163SOL    HW2 2514   7.348   5.043  10.922
34164SOL     OW 2515   6.650   5.071  10.650
34164SOL    HW1 2516   6.570   5.048  10.705
34164SOL    HW2 2517   6.733   5.045  10.699
34165SOL     OW 2518   7.178   5.353  10.935
34165SOL    HW1 2519   7.205   5.387  10.845
34165SOL    HW2 2520   7.257   5.315  10.981
34166SOL     OW 2521   6.697   4.919  10.410
34166SOL    HW1 2522   6.657   4.963  10.491
34166SOL    HW2 2523   6.656   4.956  10.327
34167SOL     OW 2524   7.224   4.823  10.389
34167SOL    HW1 2525   7.229   4.904  10.448
34167SOL    HW2 2526   7.138   4.825  10.338
34168SOL     OW 2527   6.501   3.813  10.712
34168SOL    HW1 2528   6.526   3.793  10.617
34168SOL    HW2 2529   6.573   3.869  10.754
34169SOL     OW 2530   6.566   4.840  11.029
34169SOL    HW1 2531   6.467   4.846  11.039
34169SOL    HW2 2532   6.589   4.760  10.973
34170SOL     OW 2533   6.291   4.774   9.678
34170SOL    HW1 2534   6.277   4.781   9.777
34170SOL    HW2 2535   6.375   4.723   9.660
34171SOL     OW 2536   5.996   4.537  10.561
34171SOL    HW1 2537   6.082   4.549  10.611
34171SOL    HW2 2538   5.954   4.450  10.588
34172SOL     OW 2539   6.860   4.110  10.572
34172SOL    HW1 2540   6.881   4.184  10.636
34172SOL    HW2 2541   6.771   4.127  10.529
34173SOL     OW 2542   5.650   5.288  10.641
34173SOL    HW1 2543   5.604   5.370  10.607
34173SOL    HW2 2544   5.748   5.307  10.650
34174SOL     OW 2545   5.953   4.824   9.811
34174SOL    HW1 2546   5.946   4.907   9.755
34174SOL    HW2 2547   5.957   4.744   9.751
34175SOL     OW 2548   6.152   4.261  10.175
34175SOL    HW1 2549   6.164   4.327  10.101
34175SOL    HW2 2550   6.198   4.295  10.258
34176SOL     OW 2551   6.838   5.072   9.698
34176SOL    HW1 2552   6.888   5.149   9.738
34176SOL    HW2 2553   6.743   5.074   9.730
34177SOL     OW 2554   6.858   5.169  10.452
34177SOL    HW1 2555   6.905   5.182  10.539
34177SOL    HW2 2556   6.792   5.095  10.461
34178SOL     OW 2557   7.168   4.363   9.782
34178SOL    HW1 2558   7.137   4.424   9.855
34178SOL    HW2 2559   7.218   4.415   9.713
34179SOL     OW 2560   5.940   5.234  10.639
34179SOL    HW1 2561   5.919   5.190  10.552
34179SOL    HW2 2562   6.037   5.260  10.642
34180SOL     OW 2563   5.988   4.475  10.908
34180SOL    HW1 2564   6.056   4.530  10.861
34180SOL    HW2 2565   6.028   4.387  10.935
34181SOL     OW 2566   7.173   4.503  10.980
34181SOL    HW1 2567   7.081   4.541  10.975
34181SOL    HW2 2568   7.233   4.550  10.915
34182SOL     OW 2569   6.599   3.829  11.080
34182SOL    HW1 2570   6.605   3.914  11.028
34182SOL    HW2 2571   6.631   3.753  11.023
34183SOL     OW 2572   6.090   3.774  11.050
34183SOL    HW1 2573   6.048   3.717  10.980
34183SOL    HW2 2574   6.024   3.843  11.082
34184SOL     OW 2575   6.159   4.594  10.339
34184SOL    HW1 2576   6.203   4.683  10.330
34184SOL    HW2 2577   6.096   4.594  10.416
34185SOL     OW 2578   6.946   4.586  10.355
34185SOL    HW1 2579   6.871   4.586  10.289
34185SOL    HW2 2580   6.983   4.494  10.364
34186SOL     OW 2581   6.795   4.249   9.585
34186SOL    HW1 2582   6.808   4.165   9.639
34186SOL    HW2 2583   6.766   4.323   9.645
34187SOL     OW 2584   5.893   3.937  10.541
34187SOL    HW1 2585   5.870   3.974  10.631
34187SOL    HW2 2586   5.863   3.842  10.535
34188SOL     OW 2587   5.623   5.034  10.592
34188SOL    HW1 2588   5.676   4.985  10.660
34188SOL    HW2 2589   5.645   5.132  10.597
34189SOL     OW 2590   6.318   4.358  10.374
34189SOL    HW1 2591   6.377   4.332  10.298
34189SOL    HW2 2592   6.290   4.454  10.363
34190SOL     OW 2593   7.314   4.659  11.164
34190SOL    HW1 2594   7.268   4.652  11.075
34190SOL    HW2 2595   7.252   4.703  11.230
34191SOL     OW 2596   5.893   3.787   9.928
34191SOL    HW1 2597   5.882   3.881   9.961
34191SOL    HW2 2598   5.888   3.724  10.005
34192SOL     OW 2599   7.208   4.091   9.684
34192SOL    HW1 2600   7.210   4.015   9.748
34192SOL    HW2 2601   7.160   4.168   9.724
34193SOL     OW 2602   6.609   4.490  10.276
34193SOL    HW1 2603   6.624   4.511  10.372
34193SOL    HW2 2604   6.579   4.395  10.267
34194SOL     OW 2605   6.566   5.297  11.010
34194SOL    HW1 2606   6.546   5.341  10.922
34194SOL    HW2 2607   6.605   5.206  10.994
34195SOL     OW 2608   7.445   5.242  10.915
34195SOL    HW1 2609   7.459   5.269  10.820
34195SOL    HW2 2610   7.528   5.264  10.968
34196SOL     OW 2611   5.936   4.622  11.114
34196SOL    HW1 2612   6.012   4.666  11.162
34196SOL    HW2 2613   5.971   4.575  11.032
34197SOL     OW 2614   7.126   3.998   9.435
34197SOL    HW1 2615   7.065   3.923   9.458
34197SOL    HW2 2616   7.148   4.050   9.518
34198SOL     OW 2617   6.889   4.562   9.352
34198SOL    HW1 2618   6.923   4.469   9.367
34198SOL    HW2 2619   6.907   4.589   9.257
34199SOL     OW 2620   6.654   5.057  10.159
34199SOL    HW1 2621   6.661   4.973  10.104
34199SOL    HW2 2622   6.716   5.126  10.123
34200SOL     OW 2623   5.905   4.534  10.259
34200SOL    HW1 2624   5.998   4.570  10.264
34200SOL    HW2 2625   5.899   4.449  10.311
34201SOL     OW 2626   5.925   4.233  10.316
34201SOL    HW1 2627   5.873   4.150  10.299
34201SOL    HW2 2628   6.002   4.238  10.252
34202SOL     OW 2629   6.724   4.104  10.988
34202SOL    HW1 2630   6.679   4.167  11.052
34202SOL    HW2 2631   6.817   4.135  10.971
34203SOL     OW 2632   6.746   3.931  10.787
34203SOL    HW1 2633   6.746   3.995  10.864
34203SOL    HW2 2634   6.774   3.979  10.704
34204SOL     OW 2635   5.594   5.050   9.510
34204SOL    HW1 2636   5.501   5.071   9.479
34204SOL    HW2 2637   5.604   4.951   9.523
34205SOL     OW 2638   5.674   5.525  10.237
34205SOL    HW1 2639   5.632   5.439  10.210
34205SOL    HW2 2640   5.768   5.528  10.203
34206SOL     OW 2641   6.090   5.292  10.220
34206SOL    HW1 2642   6.156   5.366  10.229
34206SOL    HW2 2643   6.134   5.213  10.178
34207SOL     OW 2644   6.588   4.520  10.548
34207SOL    HW1 2645   6.629   4.488  10.634
34207SOL    HW2 2646   6.492   4.493  10.545
34208SOL     OW 2647   5.626   4.268  10.424
34208SOL    HW1 2648   5.711   4.235  10.383
34208SOL    HW2 2649   5.639   4.283  10.522
34209SOL     OW 2650   5.775   4.244  11.032
34209SOL    HW1 2651   5.834   4.204  10.962
34209SOL    HW2 2652   5.717   4.315  10.991
34210SOL     OW 2653   6.955   4.674  10.970
34210SOL    HW1 2654   6.994   4.763  10.990
34210SOL    HW2 2655   6.965   4.654  10.873
34211SOL     OW 2656   6.401   4.296   9.635
34211SOL    HW1 2657   6.408   4.207   9.589
34211SOL    HW2 2658   6.307   4.330   9.627
34212SOL     OW 2659   7.243   4.328  10.516
34212SOL    HW1 2660   7.205   4.259  10.578
34212SOL    HW2 2661   7.325   4.292  10.472
34213SOL     OW 2662   5.838   5.288  11.054
34213SOL    HW1 2663   5.808   5.345  11.130
34213SOL    HW2 2664   5.831   5.191  11.080
34214SOL     OW 2665   6.257   4.188  10.579
34214SOL    HW1 2666   6.223   4.099  10.549
34214SOL    HW2 2667   6.283   4.242  10.499
34215SOL     OW 2668   6.516   5.402  10.775
34215SOL    HW1 2669   6.492   5.384  10.680
34215SOL    HW2 2670   6.546   5.496  10.785
34216SOL     OW 2671   6.059   4.224   9.501
34216SOL    HW1 2672   6.120   4.304   9.505
34216SOL    HW2 2673   5.964   4.255   9.508
34217SOL     OW 2674   5.745   4.861  10.776
34217SOL    HW1 2675   5.767   4.800  10.852
34217SOL    HW2 2676   5.755   4.812  10.690
34218SOL     OW 2677   6.933   4.783  10.544
34218SOL    HW1 2678   6.957   4.720  10.470
34218SOL    HW2 2679   6.843   4.823  10.526
34219SOL     OW 2680   6.888   4.579   9.619
34219SOL    HW1 2681   6.802   4.548   9.661
34219SOL    HW2 2682   6.884   4.565   9.520
34220SOL     OW 2683   7.345   5.471  10.464
34220SOL    HW1 2684   7.406   5.501  10.391
34220SOL    HW2 2685   7.307   5.382  10.442
34221SOL     OW 2686   6.838   5.455  10.438
34221SOL    HW1 2687   6.922   5.460  10.384
34221SOL    HW2 2688   6.815   5.359  10.456
34222SOL     OW 2689   5.669   4.982  10.332
34222SOL    HW1 2690   5.664   4.981  10.432
34222SOL    HW2 2691   5.586   4.941  10.294
34223SOL     OW 2692   6.274   5.386  11.026
34223SOL    HW1 2693   6.218   5.467  11.035
34223SOL    HW2 2694   6.326   5.390  10.940
34224SOL     OW 2695   7.312   3.859   9.833
34224SOL    HW1 2696   7.385   3.842   9.766
34224SOL    HW2 2697   7.281   3.772   9.871
34225SOL     OW 2698   6.974   5.297   9.787
34225SOL    HW1 2699   7.041   5.309   9.713
34225SOL    HW2 2700   6.934   5.386   9.810
34226SOL     OW 2701   5.716   5.518  11.161
34226SOL    HW1 2702   5.675   5.444  11.214
34226SOL    HW2 2703   5.780   5.569  11.219
34227SOL     OW 2704   6.866   4.651   9.982
34227SOL    HW1 2705   6.926   4.570   9.984
34227SOL    HW2 2706   6.906   4.720   9.922
34228SOL     OW 2707   6.416   4.997  10.732
34228SOL    HW1 2708   6.411   5.030  10.827
34228SOL    HW2 2709   6.330   5.016  10.686
34229SOL     OW 2710   6.258   5.340   9.464
34229SOL    HW1 2711   6.267   5.350   9.365
34229SOL    HW2 2712   6.218   5.251   9.485
34230SOL     OW 2713   7.236   5.444  10.704
34230SOL    HW1 2714   7.289   5.454  10.620
34230SOL    HW2 2715   7.209   5.534  10.738
34231SOL     OW 2716   7.427   3.899  10.273
34231SOL    HW1 2717   7.466   3.814  10.237
34231SOL    HW2 2718   7.329   3.901  10.254
34232SOL     OW 2719   5.849   4.050  10.030
34232SOL    HW1 2720   5.770   4.101   9.996
34232SOL    HW2 2721   5.840   4.035  10.128
34233SOL     OW 2722   6.780   5.336   9.341
34233SOL    HW1 2723   6.786   5.243   9.378
34233SOL    HW2 2724   6.721   5.336   9.261
34234SOL     OW 2725   6.408   4.726  10.682
34234SOL    HW1 2726   6.448   4.725  10.590
34234SOL    HW2 2727   6.418   4.818  10.722
34235SOL     OW 2728   6.502   4.634   9.601
34235SOL    HW1 2729   6.565   4.672   9.533
34235SOL    HW2 2730   6.542   4.551   9.640
34236SOL     OW 2731   7.090   5.331   9.354
34236SOL    HW1 2732   6.998   5.368   9.361
34236SOL    HW2 2733   7.128   5.351   9.264
34237SOL     OW 2734   5.958   5.012  10.800
34237SOL    HW1 2735   5.945   5.105  10.766
34237SOL    HW2 2736   5.874   4.960  10.787
34238SOL     OW 2737   7.200   5.016  10.599
34238SOL    HW1 2738   7.260   5.019  10.679
34238SOL    HW2 2739   7.125   5.080  10.612
34239SOL     OW 2740   6.625   4.822  10.006
34239SOL    HW1 2741   6.555   4.775  10.060
34239SOL    HW2 2742   6.684   4.754   9.963
34240SOL     OW 2743   6.600   3.960  10.281
34240SOL    HW1 2744   6.592   3.924  10.188
34240SOL    HW2 2745   6.598   3.884  10.346
34241SOL     OW 2746   6.176   5.211   9.801
34241SOL    HW1 2747   6.218   5.153   9.731
34241SOL    HW2 2748   6.132   5.290   9.757
34242SOL     OW 2749   7.295   4.109  10.691
34242SOL    HW1 2750   7.368   4.178  10.695
34242SOL    HW2 2751   7.323   4.034  10.632
34243SOL     OW 2752   5.841   5.072   9.600
34243SOL    HW1 2753   5.745   5.073   9.573
34243SOL    HW2 2754   5.853   5.125   9.684
34244SOL     OW 2755   5.691   4.737  11.036
34244SOL    HW1 2756   5.614   4.704  11.090
34244SOL    HW2 2757   5.776   4.707  11.078
34245SOL     OW 2758   6.258   3.927  10.799
34245SOL    HW1 2759   6.348   3.911  10.759
34245SOL    HW2 2760   6.266   3.932  10.898
34246SOL     OW 2761   5.661   4.069   9.343
34246SOL    HW1 2762   5.569   4.041   9.314
34246SOL    HW2 2763   5.692   4.146   9.287
34247SOL     OW 2764   7.026   4.580  10.708
34247SOL    HW1 2765   6.969   4.632  10.645
34247SOL    HW2 2766   7.122   4.592  10.684
34248SOL     OW 2767   5.658   3.890   9.628
34248SOL    HW1 2768   5.641   3.973   9.574
34248SOL    HW2 2769   5.748   3.853   9.606
34249SOL     OW 2770   6.769   5.059   9.429
34249SOL    HW1 2771   6.670   5.048   9.431
34249SOL    HW2 2772   6.803   5.074   9.522
34250SOL     OW 2773   6.199   4.566  10.741
34250SOL    HW1 2774   6.255   4.647  10.724
34250SOL    HW2 2775   6.258   4.486  10.744
34251SOL     OW 2776   7.079   5.491  10.269
34251SOL    HW1 2777   7.112   5.555  10.200
34251SOL    HW2 2778   7.145   5.485  10.344
34252SOL     OW 2779   6.302   4.289  11.018
34252SOL    HW1 2780   6.321   4.354  11.092
34252SOL    HW2 2781   6.362   4.209  11.027
34253SOL     OW 2782   7.036   4.944  10.943
34253SOL    HW1 2783   7.027   4.934  11.042
34253SOL    HW2 2784   7.132   4.937  10.917
34254SOL     OW 2785   5.976   5.465  10.870
34254SOL    HW1 2786   5.885   5.506  10.868
34254SOL    HW2 2787   5.969   5.371  10.902
34255SOL     OW 2788   7.260   4.607  10.564
34255SOL    HW1 2789   7.233   4.518  10.527
34255SOL    HW2 2790   7.261   4.675  10.491
34256SOL     OW 2791   6.811   4.049   9.759
34256SOL    HW1 2792   6.876   3.975   9.748
34256SOL    HW2 2793   6.831   4.099   9.843
34257SOL     OW 2794   6.180   4.469   9.962
34257SOL    HW1 2795   6.230   4.554   9.943
34257SOL    HW2 2796   6.092   4.471   9.914
34258SOL     OW 2797   7.363   4.066  10.952
34258SOL    HW1 2798   7.346   4.097  10.858
34258SOL    HW2 2799   7.279   4.029  10.990
34259SOL     OW 2800   7.316   4.658  10.827
34259SOL    HW1 2801   7.354   4.749  10.842
34259SOL    HW2 2802   7.308   4.641  10.728
34260SOL     OW 2803   6.445   5.098   9.326
34260SOL    HW1 2804   6.399   5.113   9.414
34260SOL    HW2 2805   6.489   5.183   9.296
34261SOL     OW 2806   6.247   5.514  10.263
34261SOL    HW1 2807   6.201   5.602  10.250
34261SOL    HW2 2808   6.346   5.526  10.256
34262SOL     OW 2809   6.445   4.680  10.171
34262SOL    HW1 2810   6.499   4.611  10.219
34262SOL    HW2 2811   6.413   4.749  10.237
34263SOL     OW 2812   6.669   4.708   9.397
34263SOL    HW1 2813   6.646   4.761   9.315
34263SOL    HW2 2814   6.750   4.652   9.378
34264SOL     OW 2815   7.447   5.293  10.161
34264SOL    HW1 2816   7.376   5.281  10.091
34264SOL    HW2 2817   7.448   5.214  10.221
34265SOL     OW 2818   5.807   5.038  11.154
34265SOL    HW1 2819   5.742   4.965  11.133
34265SOL    HW2 2820   5.811   5.052  11.252
34266SOL     OW 2821   5.665   4.964   9.963
34266SOL    HW1 2822   5.664   4.917  10.051
34266SOL    HW2 2823   5.747   4.936   9.912
34267SOL     OW 2824   6.258   5.115  10.934
34267SOL    HW1 2825   6.180   5.065  10.972
34267SOL    HW2 2826   6.255   5.210  10.965
34268SOL     OW 2827   7.410   3.916  10.537
34268SOL    HW1 2828   7.406   3.826  10.581
34268SOL    HW2 2829   7.413   3.905  10.438
34269SOL     OW 2830   6.014   4.148   9.830
34269SOL    HW1 2831   6.044   4.076   9.768
34269SOL    HW2 2832   5.975   4.108   9.913
34270SOL     OW 2833   7.291   5.211  10.414
34270SOL    HW1 2834   7.198   5.186  10.387
34270SOL    HW2 2835   7.317   5.161  10.496
34271SOL     OW 2836   5.903   4.271  10.590
34271SOL    HW1 2837   5.941   4.212  10.662
34271SOL    HW2 2838   5.943   4.245  10.502
34272SOL     OW 2839   6.398   5.310   9.997
34272SOL    HW1 2840   6.430   5.320   9.903
34272SOL    HW2 2841   6.319   5.248   9.999
34273SOL     OW 2842   7.010   3.938  10.422
34273SOL    HW1 2843   7.062   3.873  10.477
34273SOL    HW2 2844   6.961   4.001  10.483
34274SOL     OW 2845   6.587   3.758  10.464
34274SOL    HW1 2846   6.524   3.686  10.433
34274SOL    HW2 2847   6.680   3.722  10.464
34275SOL     OW 2848   6.356   5.054   9.611
34275SOL    HW1 2849   6.310   4.967   9.628
34275SOL    HW2 2850   6.447   5.051   9.652
34276SOL     OW 2851   6.204   5.291  10.594
34276SOL    HW1 2852   6.199   5.373  10.651
34276SOL    HW2 2853   6.293   5.288  10.549
34277SOL     OW 2854   6.938   3.776   9.478
34277SOL    HW1 2855   6.973   3.735   9.394
34277SOL    HW2 2856   6.848   3.738   9.498
34278SOL     OW 2857   6.886   4.177  10.001
34278SOL    HW1 2858   6.827   4.257  10.005
34278SOL    HW2 2859   6.901   4.142  10.094
34279SOL     OW 2860   7.179   3.945  10.192
34279SOL    HW1 2861   7.095   3.944  10.246
34279SOL    HW2 2862   7.181   4.028  10.136
34280SOL     OW 2863   5.625   4.801   9.610
34280SOL    HW1 2864   5.724   4.790   9.601
34280SOL    HW2 2865   5.585   4.715   9.642
34281SOL     OW 2866   6.461   5.370   9.647
34281SOL    HW1 2867   6.384   5.335   9.593
34281SOL    HW2 2868   6.429   5.441   9.709
34282SOL     OW 2869   5.816   4.352  11.285
34282SOL    HW1 2870   5.723   4.350  11.322
34282SOL    HW2 2871   5.817   4.313  11.193
34283SOL     OW 2872   5.811   3.999  12.168
34283SOL    HW1 2873   5.846   3.982  12.260
34283SOL    HW2 2874   5.723   3.954  12.156
34284SOL     OW 2875   5.605   4.092  11.819
34284SOL    HW1 2876   5.523   4.135  11.858
34284SOL    HW2 2877   5.577   4.019  11.756
34285SOL     OW 2878   6.155   4.999  12.337
34285SOL    HW1 2879   6.062   4.992  12.300
34285SOL    HW2 2880   6.166   5.088  12.381
34286SOL     OW 2881   7.141   5.235  11.875
34286SOL    HW1 2882   7.084   5.219  11.956
34286SOL    HW2 2883   7.082   5.245  11.795
34287SOL     OW 2884   6.721   4.427  11.889
34287SOL    HW1 2885   6.778   4.505  11.864
34287SOL    HW2 2886   6.661   4.453  11.965
34288SOL     OW 2887   7.341   4.331  11.403
34288SOL    HW1 2888   7.329   4.318  11.304
34288SOL    HW2 2889   7.311   4.250  11.452
34289SOL     OW 2890   6.354   4.868  12.195
34289SOL    HW1 2891   6.276   4.885  12.255
34289SOL    HW2 2892   6.388   4.955  12.159
34290SOL     OW 2893   6.271   4.736  11.837
34290SOL    HW1 2894   6.340   4.720  11.907
34290SOL    HW2 2895   6.198   4.793  11.875
34291SOL     OW 2896   5.921   5.159  12.233
34291SOL    HW1 2897   5.843   5.128  12.180
34291SOL    HW2 2898   5.979   5.217  12.176
34292SOL     OW 2899   7.046   5.229  12.511
34292SOL    HW1 2900   7.070   5.323  12.537
34292SOL    HW2 2901   7.030   5.175  12.593
34293SOL     OW 2902   6.024   4.116  12.671
34293SOL    HW1 2903   6.106   4.060  12.680
34293SOL    HW2 2904   5.943   4.058  12.675
34294SOL     OW 2905   7.189   4.171  11.909
34294SOL    HW1 2906   7.115   4.217  11.859
34294SOL    HW2 2907   7.240   4.239  11.962
34295SOL     OW 2908   5.817   5.437  11.655
34295SOL    HW1 2909   5.851   5.514  11.709
34295SOL    HW2 2910   5.861   5.437  11.565
34296SOL     OW 2911   5.816   5.158  11.710
34296SOL    HW1 2912   5.790   5.254  11.710
34296SOL    HW2 2913   5.745   5.104  11.755
34297SOL     OW 2914   5.826   4.815  12.058
34297SOL    HW1 2915   5.840   4.731  12.110
34297SOL    HW2 2916   5.771   4.879  12.113
34298SOL     OW 2917   6.206   5.510  12.611
34298SOL    HW1 2918   6.114   5.493  12.646
34298SOL    HW2 2919   6.234   5.602  12.637
34299SOL     OW 2920   6.192   4.688  11.295
34299SOL    HW1 2921   6.199   4.772  11.241
34299SOL    HW2 2922   6.238   4.701  11.383
34300SOL     OW 2923   7.180   3.838  12.652
34300SOL    HW1 2924   7.162   3.905  12.580
34300SOL    HW2 2925   7.177   3.884  12.741
34301SOL     OW 2926   5.708   4.367  11.735
34301SOL    HW1 2927   5.663   4.279  11.752
34301SOL    HW2 2928   5.707   4.421  11.819
34302SOL     OW 2929   7.428   5.491  11.531
34302SOL    HW1 2930   7.482   5.462  11.611
34302SOL    HW2 2931   7.458   5.581  11.502
34303SOL     OW 2932   5.613   5.320  11.289
34303SOL    HW1 2933   5.594   5.224  11.310
34303SOL    HW2 2934   5.580   5.378  11.364
34304SOL     OW 2935   7.275   4.646  11.784
34304SOL    HW1 2936   7.370   4.617  11.792
34304SOL    HW2 2937   7.267   4.711  11.709
34305SOL     OW 2938   7.227   4.832  11.604
34305SOL    HW1 2939   7.313   4.834  11.552
34305SOL    HW2 2940   7.241   4.879  11.692
34306SOL     OW 2941   5.699   4.461  12.769
34306SOL    HW1 2942   5.787   4.448  12.814
34306SOL    HW2 2943   5.686   4.558  12.747
34307SOL     OW 2944   6.199   5.089  11.898
34307SOL    HW1 2945   6.150   5.002  11.907
34307SOL    HW2 2946   6.176   5.132  11.811
34308SOL     OW 2947   6.879   4.952  12.595
34308SOL    HW1 2948   6.916   4.879  12.537
34308SOL    HW2 2949   6.931   4.957  12.680
34309SOL     OW 2950   6.395   3.728  11.674
34309SOL    HW1 2951   6.435   3.819  11.665
34309SOL    HW2 2952   6.295   3.736  11.680
34310SOL     OW 2953   5.783   4.700  12.436
34310SOL    HW1 2954   5.872   4.655  12.422
34310SOL    HW2 2955   5.710   4.635  12.417
34311SOL     OW 2956   7.111   4.723  11.362
34311SOL    HW1 2957   7.048   4.647  11.375
34311SOL    HW2 2958   7.159   4.741  11.448
34312SOL     OW 2959   7.052   5.141  12.125
34312SOL    HW1 2960   6.993   5.147  12.205
34312SOL    HW2 2961   7.037   5.053  12.079
34313SOL     OW 2962   7.253   5.438  11.744
34313SOL    HW1 2963   7.212   5.415  11.656
34313SOL    HW2 2964   7.235   5.364  11.809
34314SOL     OW 2965   6.184   4.453  11.442
34314SOL    HW1 2966   6.208   4.522  11.374
34314SOL    HW2 2967   6.106   4.486  11.496
34315SOL     OW 2968   6.867   4.069  12.116
34315SOL    HW1 2969   6.781   4.019  12.103
34315SOL    HW2 2970   6.929   4.015  12.172
34316SOL     OW 2971   7.162   5.386  11.479
34316SOL    HW1 2972   7.251   5.432  11.482
34316SOL    HW2 2973   7.141   5.362  11.384
34317SOL     OW 2974   6.393   4.329  12.637
34317SOL    HW1 2975   6.346   4.326  12.726
34317SOL    HW2 2976   6.342   4.274  12.571
34318SOL     OW 2977   6.559   4.614  12.744
34318SOL    HW1 2978   6.605   4.530  12.715
34318SOL    HW2 2979   6.503   4.648  12.669
34319SOL     OW 2980   6.577   4.134  12.414
34319SOL    HW1 2981   6.500   4.168  12.468
34319SOL    HW2 2982   6.543   4.083  12.335
34320SOL     OW 2983   6.627   4.425  11.601
34320SOL    HW1 2984   6.653   4.421  11.697
34320SOL    HW2 2985   6.542   4.374  11.587
34321SOL     OW 2986   5.662   4.535  11.961
34321SOL    HW1 2987   5.761   4.523  11.970
34321SOL    HW2 2988   5.638   4.630  11.982
34322SOL     OW 2989   5.716   5.545  12.743
34322SOL    HW1 2990   5.706   5.530  12.842
34322SOL    HW2 2991   5.630   5.581  12.707
34323SOL     OW 2992   6.451   4.072  11.367
34323SOL    HW1 2993   6.510   4.135  11.318
34323SOL    HW2 2994   6.470   3.978  11.338
34324SOL     OW 2995   6.948   4.868  11.717
34324SOL    HW1 2996   7.031   4.839  11.669
34324SOL    HW2 2997   6.899   4.935  11.661
34325SOL     OW 2998   6.136   3.920  12.057
34325SOL    HW1 2999   6.131   3.915  12.157
34325SOL    HW2 3000   6.138   4.016  12.028
34326SOL     OW 3001   6.594   5.180  11.649
34326SOL    HW1 3002   6.548   5.252  11.597
34326SOL    HW2 3003   6.590   5.200  11.747
34327SOL     OW 3004   5.937   5.525  12.025
34327SOL    HW1 3005   5.987   5.439  12.031
34327SOL    HW2 3006   6.002   5.602  12.022
34328SOL     OW 3007   7.381   4.790  12.045
34328SOL    HW1 3008   7.319   4.775  11.969
34328SOL    HW2 3009   7.329   4.801  12.130
34329SOL     OW 3010   6.813   5.274  12.678
34329SOL    HW1 3011   6.819   5.197  12.742
34329SOL    HW2 3012   6.761   5.248  12.598
34330SOL     OW 3013   5.907   4.667  11.414
34330SOL    HW1 3014   5.989   4.706  11.372
34330SOL    HW2 3015   5.880   4.585  11.365
34331SOL     OW 3016   7.044   4.459  11.900
34331SOL    HW1 3017   7.039   4.394  11.975
34331SOL    HW2 3018   7.124   4.518  11.913
34332SOL     OW 3019   6.697   5.500  11.409
34332SOL    HW1 3020   6.637   5.438  11.459
34332SOL    HW2 3021   6.728   5.456  11.324
34333SOL     OW 3022   5.788   4.009  12.670
34333SOL    HW1 3023   5.708   4.069  12.657
34333SOL    HW2 3024   5.778   3.960  12.756
34334SOL     OW 3025   7.218   5.101  11.253
34334SOL    HW1 3026   7.186   5.195  11.243
34334SOL    HW2 3027   7.142   5.038  11.241
34335SOL     OW 3028   6.050   5.467  11.495
34335SOL    HW1 3029   6.083   5.506  11.581
34335SOL    HW2 3030   6.126   5.460  11.430
34336SOL     OW 3031   6.986   3.831  11.598
34336SOL    HW1 3032   6.962   3.794  11.508
34336SOL    HW2 3033   7.085   3.847  11.602
34337SOL     OW 3034   5.835   5.509  12.413
34337SOL    HW1 3035   5.892   5.444  12.463
34337SOL    HW2 3036   5.819   5.476  12.320
34338SOL     OW 3037   6.526   5.422  12.076
34338SOL    HW1 3038   6.606   5.365  12.097
34338SOL    HW2 3039   6.477   5.382  11.999
34339SOL     OW 3040   5.968   4.424  11.652
34339SOL    HW1 3041   6.013   4.334  11.649
34339SOL    HW2 3042   5.874   4.413  11.685
34340SOL     OW 3043   6.200   3.846  11.289
34340SOL    HW1 3044   6.298   3.824  11.296
34340SOL    HW2 3045   6.169   3.829  11.196
34341SOL     OW 3046   6.474   5.238  12.367
34341SOL    HW1 3047   6.451   5.213  12.273
34341SOL    HW2 3048   6.535   5.169  12.406
34342SOL     OW 3049   6.937   4.314  12.605
34342SOL    HW1 3050   6.965   4.271  12.690
34342SOL    HW2 3051   6.962   4.410  12.606
34343SOL     OW 3052   6.389   5.126  12.096
34343SOL    HW1 3053   6.479   5.140  12.054
34343SOL    HW2 3054   6.318   5.128  12.025
34344SOL     OW 3055   6.508   4.227  12.071
34344SOL    HW1 3056   6.483   4.218  11.975
34344SOL    HW2 3057   6.556   4.145  12.102
34345SOL     OW 3058   6.125   3.788  11.684
34345SOL    HW1 3059   6.044   3.789  11.742
34345SOL    HW2 3060   6.128   3.871  11.629
34346SOL     OW 3061   7.020   4.912  11.213
34346SOL    HW1 3062   7.052   4.836  11.270
34346SOL    HW2 3063   6.928   4.939  11.243
34347SOL     OW 3064   5.883   3.759  11.343
34347SOL    HW1 3065   5.932   3.843  11.322
34347SOL    HW2 3066   5.945   3.694  11.388
34348SOL     OW 3067   6.521   3.960  11.652
34348SOL    HW1 3068   6.473   4.001  11.574
34348SOL    HW2 3069   6.620   3.958  11.633
34349SOL     OW 3070   6.662   4.407  12.636
34349SOL    HW1 3071   6.582   4.346  12.639
34349SOL    HW2 3072   6.743   4.354  12.612
34350SOL     OW 3073   6.813   5.294  11.965
34350SOL    HW1 3074   6.834   5.368  11.900
34350SOL    HW2 3075   6.881   5.294  12.038
34351SOL     OW 3076   6.045   4.876  11.913
34351SOL    HW1 3077   5.974   4.849  11.978
34351SOL    HW2 3078   6.019   4.848  11.820
34352SOL     OW 3079   6.857   5.521  11.763
34352SOL    HW1 3080   6.901   5.585  11.699
34352SOL    HW2 3081   6.807   5.573  11.833
34353SOL     OW 3082   6.618   4.273  11.188
34353SOL    HW1 3083   6.577   4.355  11.149
34353SOL    HW2 3084   6.682   4.299  11.261
34354SOL     OW 3085   5.664   4.280  12.558
34354SOL    HW1 3086   5.756   4.279  12.517
34354SOL    HW2 3087   5.658   4.354  12.625
34355SOL     OW 3088   6.147   3.946  12.319
34355SOL    HW1 3089   6.185   3.862  12.356
34355SOL    HW2 3090   6.059   3.965  12.363
34356SOL     OW 3091   6.452   4.178  11.814
34356SOL    HW1 3092   6.420   4.250  11.752
34356SOL    HW2 3093   6.476   4.097  11.761
34357SOL     OW 3094   6.603   3.763  11.925
34357SOL    HW1 3095   6.531   3.768  11.856
34357SOL    HW2 3096   6.579   3.694  11.994
34358SOL     OW 3097   7.015   4.897  12.039
34358SOL    HW1 3098   6.960   4.813  12.032
34358SOL    HW2 3099   7.041   4.926  11.947
34359SOL     OW 3100   7.052   4.314  12.164
34359SOL    HW1 3101   7.022   4.219  12.171
34359SOL    HW2 3102   7.125   4.330  12.230
34360SOL     OW 3103   7.443   4.557  11.549
34360SOL    HW1 3104   7.485   4.493  11.613
34360SOL    HW2 3105   7.405   4.506  11.471
34361SOL     OW 3106   6.074   5.109  11.346
34361SOL    HW1 3107   5.987   5.094  11.393
34361SOL    HW2 3108   6.057   5.135  11.251
34362SOL     OW 3109   7.250   5.004  11.829
34362SOL    HW1 3110   7.349   5.012  11.843
34362SOL    HW2 3111   7.205   5.088  11.860
34363SOL     OW 3112   6.976   4.299  11.250
34363SOL    HW1 3113   6.922   4.278  11.331
34363SOL    HW2 3114   7.067   4.258  11.259
34364SOL     OW 3115   6.113   3.980  11.500
34364SOL    HW1 3116   6.140   3.921  11.425
34364SOL    HW2 3117   6.113   4.075  11.469
34365SOL     OW 3118   7.340   4.947  12.760
34365SOL    HW1 3119   7.431   4.908  12.747
34365SOL    HW2 3120   7.348   5.043  12.784
34366SOL     OW 3121   6.650   5.071  12.512
34366SOL    HW1 3122   6.570   5.048  12.567
34366SOL    HW2 3123   6.733   5.045  12.561
34367SOL     OW 3124   6.697   4.919  12.272
34367SOL    HW1 3125   6.657   4.963  12.353
34367SOL    HW2 3126   6.656   4.956  12.189
34368SOL     OW 3127   7.224   4.823  12.251
34368SOL    HW1 3128   7.229   4.904  12.310
34368SOL    HW2 3129   7.138   4.825  12.200
34369SOL     OW 3130   6.501   3.813  12.574
34369SOL    HW1 3131   6.526   3.793  12.479
34369SOL    HW2 3132   6.573   3.869  12.616
34370SOL     OW 3133   6.291   4.774  11.540
34370SOL    HW1 3134   6.277   4.781  11.639
34370SOL    HW2 3135   6.375   4.723  11.522
34371SOL     OW 3136   5.996   4.537  12.423
34371SOL    HW1 3137   6.082   4.549  12.473
34371SOL    HW2 3138   5.954   4.450  12.450
34372SOL     OW 3139   6.860   4.110  12.434
34372SOL    HW1 3140   6.881   4.184  12.498
34372SOL    HW2 3141   6.771   4.127  12.391
34373SOL     OW 3142   5.650   5.288  12.503
34373SOL    HW1 3143   5.604   5.370  12.469
34373SOL    HW2 3144   5.748   5.307  12.512
34374SOL     OW 3145   5.953   4.824  11.673
34374SOL    HW1 3146   5.946   4.907  11.617
34374SOL    HW2 3147   5.957   4.744  11.613
34375SOL     OW 3148   6.152   4.261  12.037
34375SOL    HW1 3149   6.164   4.327  11.963
34375SOL    HW2 3150   6.198   4.295  12.120
34376SOL     OW 3151   6.838   5.072  11.560
34376SOL    HW1 3152   6.888   5.149  11.600
34376SOL    HW2 3153   6.743   5.074  11.592
34377SOL     OW 3154   6.858   5.169  12.314
34377SOL    HW1 3155   6.905   5.182  12.401
34377SOL    HW2 3156   6.792   5.095  12.323
34378SOL     OW 3157   7.168   4.363  11.644
34378SOL    HW1 3158   7.137   4.424  11.717
34378SOL    HW2 3159   7.218   4.415  11.575
34379SOL     OW 3160   5.940   5.234  12.501
34379SOL    HW1 3161   5.919   5.190  12.414
34379SOL    HW2 3162   6.037   5.260  12.504
34380SOL     OW 3163   5.988   4.475  12.770
34380SOL    HW1 3164   6.056   4.530  12.723
34380SOL    HW2 3165   6.028   4.387  12.797
34381SOL     OW 3166   7.173   4.503  12.842
34381SOL    HW1 3167   7.081   4.541  12.837
34381SOL    HW2 3168   7.233   4.550  12.777
34382SOL     OW 3169   6.159   4.594  12.201
34382SOL    HW1 3170   6.203   4.683  12.192
34382SOL    HW2 3171   6.096   4.594  12.278
34383SOL     OW 3172   6.946   4.586  12.217
34383SOL    HW1 3173   6.871   4.586  12.151
34383SOL    HW2 3174   6.983   4.494  12.226
34384SOL     OW 3175   6.795   4.249  11.447
34384SOL    HW1 3176   6.808   4.165  11.501
34384SOL    HW2 3177   6.766   4.323  11.507
34385SOL     OW 3178   5.893   3.937  12.403
34385SOL    HW1 3179   5.870   3.974  12.493
34385SOL    HW2 3180   5.863   3.842  12.397
34386SOL     OW 3181   5.623   5.034  12.454
34386SOL    HW1 3182   5.676   4.985  12.522
34386SOL    HW2 3183   5.645   5.132  12.459
34387SOL     OW 3184   6.318   4.358  12.236
34387SOL    HW1 3185   6.377   4.332  12.160
34387SOL    HW2 3186   6.290   4.454  12.225
34388SOL     OW 3187   5.893   3.787  11.790
34388SOL    HW1 3188   5.882   3.881  11.823
34388SOL    HW2 3189   5.888   3.724  11.867
34389SOL     OW 3190   7.208   4.091  11.546
34389SOL    HW1 3191   7.210   4.015  11.610
34389SOL    HW2 3192   7.160   4.168  11.586
34390SOL     OW 3193   6.609   4.490  12.138
34390SOL    HW1 3194   6.624   4.511  12.234
34390SOL    HW2 3195   6.579   4.395  12.129
34391SOL     OW 3196   7.126   3.998  11.297
34391SOL    HW1 3197   7.065   3.923  11.320
34391SOL    HW2 3198   7.148   4.050  11.380
34392SOL     OW 3199   6.889   4.562  11.214
34392SOL    HW1 3200   6.923   4.469  11.229
34392SOL    HW2 3201   6.907   4.589  11.119
34393SOL     OW 3202   6.654   5.057  12.021
34393SOL    HW1 3203   6.661   4.973  11.966
34393SOL    HW2 3204   6.716   5.126  11.985
34394SOL     OW 3205   5.905   4.534  12.121
34394SOL    HW1 3206   5.998   4.570  12.126
34394SOL    HW2 3207   5.899   4.449  12.173
34395SOL     OW 3208   5.925   4.233  12.178
34395SOL    HW1 3209   5.873   4.150  12.161
34395SOL    HW2 3210   6.002   4.238  12.114
34396SOL     OW 3211   6.746   3.931  12.649
34396SOL    HW1 3212   6.746   3.995  12.726
34396SOL    HW2 3213   6.774   3.979  12.566
34397SOL     OW 3214   5.594   5.050  11.372
34397SOL    HW1 3215   5.501   5.071  11.341
34397SOL    HW2 3216   5.604   4.951  11.385
34398SOL     OW 3217   5.674   5.525  12.099
34398SOL    HW1 3218   5.632   5.439  12.072
34398SOL    HW2 3219   5.768   5.528  12.065
34399SOL     OW 3220   6.090   5.292  12.082
34399SOL    HW1 3221   6.156   5.366  12.091
34399SOL    HW2 3222   6.134   5.213  12.040
34400SOL     OW 3223   6.588   4.520  12.410
34400SOL    HW1 3224   6.629   4.488  12.496
34400SOL    HW2 3225   6.492   4.493  12.407
34401SOL     OW 3226   5.626   4.268  12.286
34401SOL    HW1 3227   5.711   4.235  12.245
34401SOL    HW2 3228   5.639   4.283  12.384
34402SOL     OW 3229   6.401   4.296  11.497
34402SOL    HW1 3230   6.408   4.207  11.451
34402SOL    HW2 3231   6.307   4.330  11.489
34403SOL     OW 3232   7.243   4.328  12.378
34403SOL    HW1 3233   7.205   4.259  12.440
34403SOL    HW2 3234   7.325   4.292  12.334
34404SOL     OW 3235   5.838   5.288  12.916
34404SOL    HW1 3236   5.808   5.345  12.992
34404SOL    HW2 3237   5.831   5.191  12.942
34405SOL     OW 3238   6.257   4.188  12.441
34405SOL    HW1 3239   6.223   4.099  12.411
34405SOL    HW2 3240   6.283   4.242  12.361
34406SOL     OW 3241   6.516   5.402  12.637
34406SOL    HW1 3242   6.492   5.384  12.542
34406SOL    HW2 3243   6.546   5.496  12.647
34407SOL     OW 3244   6.059   4.224  11.363
34407SOL    HW1 3245   6.120   4.304  11.367
34407SOL    HW2 3246   5.964   4.255  11.370
34408SOL     OW 3247   5.745   4.861  12.638
34408SOL    HW1 3248   5.767   4.800  12.714
34408SOL    HW2 3249   5.755   4.812  12.552
34409SOL     OW 3250   6.933   4.783  12.406
34409SOL    HW1 3251   6.957   4.720  12.332
34409SOL    HW2 3252   6.843   4.823  12.388
34410SOL     OW 3253   6.888   4.579  11.481
34410SOL    HW1 3254   6.802   4.548  11.523
34410SOL    HW2 3255   6.884   4.565  11.382
34411SOL     OW 3256   7.345   5.471  12.326
34411SOL    HW1 3257   7.406   5.501  12.253
34411SOL    HW2 3258   7.307   5.382  12.304
34412SOL     OW 3259   6.838   5.455  12.300
34412SOL    HW1 3260   6.922   5.460  12.246
34412SOL    HW2 3261   6.815   5.359  12.318
34413SOL     OW 3262   5.669   4.982  12.194
34413SOL    HW1 3263   5.664   4.981  12.294
34413SOL    HW2 3264   5.586   4.941  12.156
34414SOL     OW 3265   7.312   3.859  11.695
34414SOL    HW1 3266   7.385   3.842  11.628
34414SOL    HW2 3267   7.281   3.772  11.733
34415SOL     OW 3268   6.974   5.297  11.649
34415SOL    HW1 3269   7.041   5.309  11.575
34415SOL    HW2 3270   6.934   5.386  11.672
34416SOL     OW 3271   6.866   4.651  11.844
34416SOL    HW1 3272   6.926   4.570  11.846
34416SOL    HW2 3273   6.906   4.720  11.784
34417SOL     OW 3274   6.416   4.997  12.594
34417SOL    HW1 3275   6.411   5.030  12.689
34417SOL    HW2 3276   6.330   5.016  12.548
34418SOL     OW 3277   6.258   5.340  11.326
34418SOL    HW1 3278   6.267   5.350  11.227
34418SOL    HW2 3279   6.218   5.251  11.347
34419SOL     OW 3280   7.236   5.444  12.566
34419SOL    HW1 3281   7.289   5.454  12.482
34419SOL    HW2 3282   7.209   5.534  12.600
34420SOL     OW 3283   7.427   3.899  12.135
34420SOL    HW1 3284   7.466   3.814  12.099
34420SOL    HW2 3285   7.329   3.901  12.116
34421SOL     OW 3286   5.849   4.050  11.892
34421SOL    HW1 3287   5.770   4.101  11.858
34421SOL    HW2 3288   5.840   4.035  11.990
34422SOL     OW 3289   6.780   5.336  11.203
34422SOL    HW1 3290   6.786   5.243  11.240
34422SOL    HW2 3291   6.721   5.336  11.123
34423SOL     OW 3292   6.408   4.726  12.544
34423SOL    HW1 3293   6.448   4.725  12.452
34423SOL    HW2 3294   6.418   4.818  12.584
34424SOL     OW 3295   6.502   4.634  11.463
34424SOL    HW1 3296   6.565   4.672  11.395
34424SOL    HW2 3297   6.542   4.551  11.502
34425SOL     OW 3298   7.090   5.331  11.216
34425SOL    HW1 3299   6.998   5.368  11.223
34425SOL    HW2 3300   7.128   5.351  11.126
34426SOL     OW 3301   5.958   5.012  12.662
34426SOL    HW1 3302   5.945   5.105  12.628
34426SOL    HW2 3303   5.874   4.960  12.649
34427SOL     OW 3304   7.200   5.016  12.461
34427SOL    HW1 3305   7.260   5.019  12.541
34427SOL    HW2 3306   7.125   5.080  12.474
34428SOL     OW 3307   6.625   4.822  11.868
34428SOL    HW1 3308   6.555   4.775  11.922
34428SOL    HW2 3309   6.684   4.754  11.825
34429SOL     OW 3310   6.600   3.960  12.143
34429SOL    HW1 3311   6.592   3.924  12.050
34429SOL    HW2 3312   6.598   3.884  12.208
34430SOL     OW 3313   6.176   5.211  11.663
34430SOL    HW1 3314   6.218   5.153  11.593
34430SOL    HW2 3315   6.132   5.290  11.619
34431SOL     OW 3316   7.295   4.109  12.553
34431SOL    HW1 3317   7.368   4.178  12.557
34431SOL    HW2 3318   7.323   4.034  12.494
34432SOL     OW 3319   5.841   5.072  11.462
34432SOL    HW1 3320   5.745   5.073  11.435
34432SOL    HW2 3321   5.853   5.125  11.546
34433SOL     OW 3322   5.691   4.737  12.898
34433SOL    HW1 3323   5.614   4.704  12.952
34433SOL    HW2 3324   5.776   4.707  12.940
34434SOL     OW 3325   6.258   3.927  12.661
34434SOL    HW1 3326   6.348   3.911  12.621
34434SOL    HW2 3327   6.266   3.932  12.760
34435SOL     OW 3328   5.661   4.069  11.205
34435SOL    HW1 3329   5.569   4.041  11.176
34435SOL    HW2 3330   5.692   4.146  11.149
34436SOL     OW 3331   7.026   4.580  12.570
34436SOL    HW1 3332   6.969   4.632  12.507
34436SOL    HW2 3333   7.122   4.592  12.546
34437SOL     OW 3334   5.658   3.890  11.490
34437SOL    HW1 3335   5.641   3.973  11.436
34437SOL    HW2 3336   5.748   3.853  11.468
34438SOL     OW 3337   6.769   5.059  11.291
34438SOL    HW1 3338   6.670   5.048  11.293
34438SOL    HW2 3339   6.803   5.074  11.384
34439SOL     OW 3340   6.199   4.566  12.603
34439SOL    HW1 3341   6.255   4.647  12.586
34439SOL    HW2 3342   6.258   4.486  12.606
34440SOL     OW 3343   7.079   5.491  12.131
34440SOL    HW1 3344   7.112   5.555  12.062
34440SOL    HW2 3345   7.145   5.485  12.206
34441SOL     OW 3346   6.302   4.289  12.880
34441SOL    HW1 3347   6.321   4.354  12.954
34441SOL    HW2 3348   6.362   4.209  12.889
34442SOL     OW 3349   5.976   5.465  12.732
34442SOL    HW1 3350   5.885   5.506  12.730
34442SOL    HW2 3351   5.969   5.371  12.764
34443SOL     OW 3352   7.260   4.607  12.426
34443SOL    HW1 3353   7.233   4.518  12.389
34443SOL    HW2 3354   7.261   4.675  12.353
34444SOL     OW 3355   6.811   4.049  11.621
34444SOL    HW1 3356   6.876   3.975  11.610
34444SOL    HW2 3357   6.831   4.099  11.705
34445SOL     OW 3358   6.180   4.469  11.824
34445SOL    HW1 3359   6.230   4.554  11.805
34445SOL    HW2 3360   6.092   4.471  11.776
34446SOL     OW 3361   7.363   4.066  12.814
34446SOL    HW1 3362   7.346   4.097  12.720
34446SOL    HW2 3363   7.279   4.029  12.852
34447SOL     OW 3364   7.316   4.658  12.689
34447SOL    HW1 3365   7.354   4.749  12.704
34447SOL    HW2 3366   7.308   4.641  12.590
34448SOL     OW 3367   6.445   5.098  11.188
34448SOL    HW1 3368   6.399   5.113  11.276
34448SOL    HW2 3369   6.489   5.183  11.158
34449SOL     OW 3370   6.247   5.514  12.125
34449SOL    HW1 3371   6.201   5.602  12.112
34449SOL    HW2 3372   6.346   5.526  12.118
34450SOL     OW 3373   6.445   4.680  12.033
34450SOL    HW1 3374   6.499   4.611  12.081
34450SOL    HW2 3375   6.413   4.749  12.099
34451SOL     OW 3376   6.669   4.708  11.259
34451SOL    HW1 3377   6.646   4.761  11.177
34451SOL    HW2 3378   6.750   4.652  11.240
34452SOL     OW 3379   7.447   5.293  12.023
34452SOL    HW1 3380   7.376   5.281  11.953
34452SOL    HW2 3381   7.448   5.214  12.083
34453SOL     OW 3382   5.665   4.964  11.825
34453SOL    HW1 3383   5.664   4.917  11.913
34453SOL    HW2 3384   5.747   4.936  11.774
34454SOL     OW 3385   6.258   5.115  12.796
34454SOL    HW1 3386   6.180   5.065  12.834
34454SOL    HW2 3387   6.255   5.210  12.827
34455SOL     OW 3388   7.410   3.916  12.399
34455SOL    HW1 3389   7.406   3.826  12.443
34455SOL    HW2 3390   7.413   3.905  12.300
34456SOL     OW 3391   6.014   4.148  11.692
34456SOL    HW1 3392   6.044   4.076  11.630
34456SOL    HW2 3393   5.975   4.108  11.775
34457SOL     OW 3394   7.291   5.211  12.276
34457SOL    HW1 3395   7.198   5.186  12.249
34457SOL    HW2 3396   7.317   5.161  12.358
34458SOL     OW 3397   5.903   4.271  12.452
34458SOL    HW1 3398   5.941   4.212  12.524
34458SOL    HW2 3399   5.943   4.245  12.364
34459SOL     OW 3400   6.398   5.310  11.859
34459SOL    HW1 3401   6.430   5.320  11.765
34459SOL    HW2 3402   6.319   5.248  11.861
34460SOL     OW 3403   7.010   3.938  12.284
34460SOL    HW1 3404   7.062   3.873  12.339
34460SOL    HW2 3405   6.961   4.001  12.345
34461SOL     OW 3406   6.587   3.758  12.326
34461SOL    HW1 3407   6.524   3.686  12.295
34461SOL    HW2 3408   6.680   3.722  12.326
34462SOL     OW 3409   6.356   5.054  11.473
34462SOL    HW1 3410   6.310   4.967  11.490
34462SOL    HW2 3411   6.447   5.051  11.514
34463SOL     OW 3412   6.204   5.291  12.456
34463SOL    HW1 3413   6.199   5.373  12.513
34463SOL    HW2 3414   6.293   5.288  12.411
34464SOL     OW 3415   6.938   3.776  11.340
34464SOL    HW1 3416   6.973   3.735  11.256
34464SOL    HW2 3417   6.848   3.738  11.360
34465SOL     OW 3418   6.886   4.177  11.863
34465SOL    HW1 3419   6.827   4.257  11.867
34465SOL    HW2 3420   6.901   4.142  11.956
34466SOL     OW 3421   7.179   3.945  12.054
34466SOL    HW1 3422   7.095   3.944  12.108
34466SOL    HW2 3423   7.181   4.028  11.998
34467SOL     OW 3424   5.625   4.801  11.472
34467SOL    HW1 3425   5.724   4.790  11.463
34467SOL    HW2 3426   5.585   4.715  11.504
34468SOL     OW 3427   6.461   5.370  11.509
34468SOL    HW1 3428   6.384   5.335  11.455
34468SOL    HW2 3429   6.429   5.441  11.571
34469SOL     OW 3430   5.816   6.214   0.113
34469SOL    HW1 3431   5.723   6.212   0.150
34469SOL    HW2 3432   5.817   6.175   0.021
34470SOL     OW 3433   5.811   5.861   0.996
34470SOL    HW1 3434   5.846   5.844   1.088
34470SOL    HW2 3435   5.723   5.816   0.984
34471SOL     OW 3436   5.605   5.954   0.647
34471SOL    HW1 3437   5.523   5.997   0.686
34471SOL    HW2 3438   5.577   5.881   0.584
34472SOL     OW 3439   6.155   6.861   1.165
34472SOL    HW1 3440   6.062   6.854   1.128
34472SOL    HW2 3441   6.166   6.950   1.209
34473SOL     OW 3442   7.141   7.097   0.703
34473SOL    HW1 3443   7.084   7.081   0.784
34473SOL    HW2 3444   7.082   7.107   0.623
34474SOL     OW 3445   6.721   6.289   0.717
34474SOL    HW1 3446   6.778   6.367   0.692
34474SOL    HW2 3447   6.661   6.315   0.793
34475SOL     OW 3448   7.341   6.193   0.231
34475SOL    HW1 3449   7.329   6.180   0.132
34475SOL    HW2 3450   7.311   6.112   0.280
34476SOL     OW 3451   6.354   6.730   1.023
34476SOL    HW1 3452   6.276   6.747   1.083
34476SOL    HW2 3453   6.388   6.817   0.987
34477SOL     OW 3454   6.436   6.384   1.823
34477SOL    HW1 3455   6.432   6.460   1.888
34477SOL    HW2 3456   6.458   6.420   1.732
34478SOL     OW 3457   6.271   6.598   0.665
34478SOL    HW1 3458   6.340   6.582   0.735
34478SOL    HW2 3459   6.198   6.655   0.703
34479SOL     OW 3460   6.272   6.747   1.803
34479SOL    HW1 3461   6.332   6.826   1.817
34479SOL    HW2 3462   6.186   6.778   1.762
34480SOL     OW 3463   5.921   7.021   1.061
34480SOL    HW1 3464   5.843   6.990   1.008
34480SOL    HW2 3465   5.979   7.079   1.004
34481SOL     OW 3466   7.046   7.091   1.339
34481SOL    HW1 3467   7.070   7.185   1.365
34481SOL    HW2 3468   7.030   7.037   1.421
34482SOL     OW 3469   6.024   5.978   1.499
34482SOL    HW1 3470   6.106   5.922   1.508
34482SOL    HW2 3471   5.943   5.920   1.503
34483SOL     OW 3472   7.189   6.033   0.737
34483SOL    HW1 3473   7.115   6.079   0.687
34483SOL    HW2 3474   7.240   6.101   0.790
34484SOL     OW 3475   5.817   7.299   0.483
34484SOL    HW1 3476   5.851   7.376   0.537
34484SOL    HW2 3477   5.861   7.299   0.393
34485SOL     OW 3478   6.713   6.927   1.690
34485SOL    HW1 3479   6.760   6.927   1.778
34485SOL    HW2 3480   6.665   6.840   1.679
34486SOL     OW 3481   5.816   7.020   0.538
34486SOL    HW1 3482   5.790   7.116   0.538
34486SOL    HW2 3483   5.745   6.966   0.583
34487SOL     OW 3484   5.826   6.677   0.886
34487SOL    HW1 3485   5.840   6.593   0.938
34487SOL    HW2 3486   5.771   6.741   0.941
34488SOL     OW 3487   6.206   7.372   1.439
34488SOL    HW1 3488   6.114   7.355   1.474
34488SOL    HW2 3489   6.234   7.464   1.465
34489SOL     OW 3490   6.192   6.550   0.123
34489SOL    HW1 3491   6.199   6.634   0.069
34489SOL    HW2 3492   6.238   6.563   0.211
34490SOL     OW 3493   7.180   5.700   1.480
34490SOL    HW1 3494   7.162   5.767   1.408
34490SOL    HW2 3495   7.177   5.746   1.569
34491SOL     OW 3496   5.708   6.229   0.563
34491SOL    HW1 3497   5.663   6.141   0.580
34491SOL    HW2 3498   5.707   6.283   0.647
34492SOL     OW 3499   7.428   7.353   0.359
34492SOL    HW1 3500   7.482   7.324   0.439
34492SOL    HW2 3501   7.458   7.443   0.330
34493SOL     OW 3502   5.613   7.182   0.117
34493SOL    HW1 3503   5.594   7.086   0.138
34493SOL    HW2 3504   5.580   7.240   0.192
34494SOL     OW 3505   7.275   6.508   0.612
34494SOL    HW1 3506   7.370   6.479   0.620
34494SOL    HW2 3507   7.267   6.573   0.537
34495SOL     OW 3508   7.227   6.694   0.432
34495SOL    HW1 3509   7.313   6.696   0.380
34495SOL    HW2 3510   7.241   6.741   0.520
34496SOL     OW 3511   5.699   6.323   1.597
34496SOL    HW1 3512   5.787   6.310   1.642
34496SOL    HW2 3513   5.686   6.420   1.575
34497SOL     OW 3514   6.199   6.951   0.726
34497SOL    HW1 3515   6.150   6.864   0.735
34497SOL    HW2 3516   6.176   6.994   0.639
34498SOL     OW 3517   6.879   6.814   1.423
34498SOL    HW1 3518   6.916   6.741   1.365
34498SOL    HW2 3519   6.931   6.819   1.508
34499SOL     OW 3520   6.395   5.590   0.502
34499SOL    HW1 3521   6.435   5.681   0.493
34499SOL    HW2 3522   6.295   5.598   0.508
34500SOL     OW 3523   5.783   6.562   1.264
34500SOL    HW1 3524   5.872   6.517   1.250
34500SOL    HW2 3525   5.710   6.497   1.245
34501SOL     OW 3526   7.111   6.585   0.190
34501SOL    HW1 3527   7.048   6.509   0.203
34501SOL    HW2 3528   7.159   6.603   0.276
34502SOL     OW 3529   6.773   7.378   1.616
34502SOL    HW1 3530   6.797   7.438   1.540
34502SOL    HW2 3531   6.780   7.283   1.586
34503SOL     OW 3532   5.903   5.837   1.801
34503SOL    HW1 3533   5.974   5.908   1.807
34503SOL    HW2 3534   5.815   5.876   1.829
34504SOL     OW 3535   7.052   7.003   0.953
34504SOL    HW1 3536   6.993   7.009   1.033
34504SOL    HW2 3537   7.037   6.915   0.907
34505SOL     OW 3538   7.253   7.300   0.572
34505SOL    HW1 3539   7.212   7.277   0.484
34505SOL    HW2 3540   7.235   7.226   0.637
34506SOL     OW 3541   6.184   6.315   0.270
34506SOL    HW1 3542   6.208   6.384   0.202
34506SOL    HW2 3543   6.106   6.348   0.324
34507SOL     OW 3544   6.867   5.931   0.944
34507SOL    HW1 3545   6.781   5.881   0.931
34507SOL    HW2 3546   6.929   5.877   1.000
34508SOL     OW 3547   7.162   7.248   0.307
34508SOL    HW1 3548   7.251   7.294   0.310
34508SOL    HW2 3549   7.141   7.224   0.212
34509SOL     OW 3550   6.393   6.191   1.465
34509SOL    HW1 3551   6.346   6.188   1.554
34509SOL    HW2 3552   6.342   6.136   1.399
34510SOL     OW 3553   6.980   6.055   1.674
34510SOL    HW1 3554   6.960   6.098   1.762
34510SOL    HW2 3555   7.058   5.993   1.683
34511SOL     OW 3556   6.559   6.476   1.572
34511SOL    HW1 3557   6.605   6.392   1.543
34511SOL    HW2 3558   6.503   6.510   1.497
34512SOL     OW 3559   6.577   5.996   1.242
34512SOL    HW1 3560   6.500   6.030   1.296
34512SOL    HW2 3561   6.543   5.945   1.163
34513SOL     OW 3562   6.627   6.287   0.429
34513SOL    HW1 3563   6.653   6.283   0.525
34513SOL    HW2 3564   6.542   6.236   0.415
34514SOL     OW 3565   5.662   6.397   0.789
34514SOL    HW1 3566   5.761   6.385   0.798
34514SOL    HW2 3567   5.638   6.492   0.810
34515SOL     OW 3568   5.716   7.407   1.571
34515SOL    HW1 3569   5.706   7.392   1.670
34515SOL    HW2 3570   5.630   7.443   1.535
34516SOL     OW 3571   6.451   5.934   0.195
34516SOL    HW1 3572   6.510   5.997   0.146
34516SOL    HW2 3573   6.470   5.840   0.166
34517SOL     OW 3574   7.305   6.171   1.831
34517SOL    HW1 3575   7.279   6.260   1.795
34517SOL    HW2 3576   7.303   6.103   1.758
34518SOL     OW 3577   6.948   6.730   0.545
34518SOL    HW1 3578   7.031   6.701   0.497
34518SOL    HW2 3579   6.899   6.797   0.489
34519SOL     OW 3580   6.136   5.782   0.885
34519SOL    HW1 3581   6.131   5.777   0.985
34519SOL    HW2 3582   6.138   5.878   0.856
34520SOL     OW 3583   6.594   7.042   0.477
34520SOL    HW1 3584   6.548   7.114   0.425
34520SOL    HW2 3585   6.590   7.062   0.575
34521SOL     OW 3586   5.937   7.387   0.853
34521SOL    HW1 3587   5.987   7.301   0.859
34521SOL    HW2 3588   6.002   7.464   0.850
34522SOL     OW 3589   7.381   6.652   0.873
34522SOL    HW1 3590   7.319   6.637   0.797
34522SOL    HW2 3591   7.329   6.663   0.958
34523SOL     OW 3592   6.813   7.136   1.506
34523SOL    HW1 3593   6.819   7.059   1.570
34523SOL    HW2 3594   6.761   7.110   1.426
34524SOL     OW 3595   5.907   6.529   0.242
34524SOL    HW1 3596   5.989   6.568   0.200
34524SOL    HW2 3597   5.880   6.447   0.193
34525SOL     OW 3598   7.044   6.321   0.728
34525SOL    HW1 3599   7.039   6.256   0.803
34525SOL    HW2 3600   7.124   6.380   0.741
34526SOL     OW 3601   6.047   6.852   1.727
34526SOL    HW1 3602   5.997   6.853   1.641
34526SOL    HW2 3603   5.984   6.834   1.803
34527SOL     OW 3604   6.697   7.362   0.237
34527SOL    HW1 3605   6.637   7.300   0.287
34527SOL    HW2 3606   6.728   7.318   0.152
34528SOL     OW 3607   5.788   5.871   1.498
34528SOL    HW1 3608   5.708   5.931   1.485
34528SOL    HW2 3609   5.778   5.822   1.584
34529SOL     OW 3610   7.218   6.963   0.081
34529SOL    HW1 3611   7.186   7.057   0.071
34529SOL    HW2 3612   7.142   6.900   0.069
34530SOL     OW 3613   6.050   7.329   0.323
34530SOL    HW1 3614   6.083   7.368   0.409
34530SOL    HW2 3615   6.126   7.322   0.258
34531SOL     OW 3616   6.986   5.693   0.426
34531SOL    HW1 3617   6.962   5.656   0.336
34531SOL    HW2 3618   7.085   5.709   0.430
34532SOL     OW 3619   5.835   7.371   1.241
34532SOL    HW1 3620   5.892   7.306   1.291
34532SOL    HW2 3621   5.819   7.338   1.148
34533SOL     OW 3622   6.526   7.284   0.904
34533SOL    HW1 3623   6.606   7.227   0.925
34533SOL    HW2 3624   6.477   7.244   0.827
34534SOL     OW 3625   5.968   6.286   0.480
34534SOL    HW1 3626   6.013   6.196   0.477
34534SOL    HW2 3627   5.874   6.275   0.513
34535SOL     OW 3628   7.133   5.808   1.729
34535SOL    HW1 3629   7.128   5.845   1.821
34535SOL    HW2 3630   7.061   5.739   1.717
34536SOL     OW 3631   6.200   5.708   0.117
34536SOL    HW1 3632   6.298   5.686   0.124
34536SOL    HW2 3633   6.169   5.691   0.024
34537SOL     OW 3634   6.367   5.850   1.749
34537SOL    HW1 3635   6.434   5.789   1.792
34537SOL    HW2 3636   6.294   5.869   1.814
34538SOL     OW 3637   6.474   7.100   1.195
34538SOL    HW1 3638   6.451   7.075   1.101
34538SOL    HW2 3639   6.535   7.031   1.234
34539SOL     OW 3640   6.937   6.176   1.433
34539SOL    HW1 3641   6.965   6.133   1.518
34539SOL    HW2 3642   6.962   6.272   1.434
34540SOL     OW 3643   6.389   6.988   0.924
34540SOL    HW1 3644   6.479   7.002   0.882
34540SOL    HW2 3645   6.318   6.990   0.853
34541SOL     OW 3646   6.508   6.089   0.899
34541SOL    HW1 3647   6.483   6.080   0.803
34541SOL    HW2 3648   6.556   6.007   0.930
34542SOL     OW 3649   6.125   5.650   0.512
34542SOL    HW1 3650   6.044   5.651   0.570
34542SOL    HW2 3651   6.128   5.733   0.457
34543SOL     OW 3652   7.020   6.774   0.041
34543SOL    HW1 3653   7.052   6.698   0.098
34543SOL    HW2 3654   6.928   6.801   0.071
34544SOL     OW 3655   5.883   5.621   0.171
34544SOL    HW1 3656   5.932   5.705   0.150
34544SOL    HW2 3657   5.945   5.556   0.216
34545SOL     OW 3658   6.521   5.822   0.480
34545SOL    HW1 3659   6.473   5.863   0.402
34545SOL    HW2 3660   6.620   5.820   0.461
34546SOL     OW 3661   6.662   6.269   1.464
34546SOL    HW1 3662   6.582   6.208   1.467
34546SOL    HW2 3663   6.743   6.216   1.440
34547SOL     OW 3664   6.813   7.156   0.793
34547SOL    HW1 3665   6.834   7.230   0.728
34547SOL    HW2 3666   6.881   7.156   0.866
34548SOL     OW 3667   6.045   6.738   0.741
34548SOL    HW1 3668   5.974   6.711   0.806
34548SOL    HW2 3669   6.019   6.710   0.648
34549SOL     OW 3670   6.857   7.383   0.591
34549SOL    HW1 3671   6.901   7.447   0.527
34549SOL    HW2 3672   6.807   7.435   0.661
34550SOL     OW 3673   6.618   6.135   0.016
34550SOL    HW1 3674   6.577   6.217  -0.023
34550SOL    HW2 3675   6.682   6.161   0.089
34551SOL     OW 3676   5.664   6.142   1.386
34551SOL    HW1 3677   5.756   6.141   1.345
34551SOL    HW2 3678   5.658   6.216   1.453
34552SOL     OW 3679   6.147   5.808   1.147
34552SOL    HW1 3680   6.185   5.724   1.184
34552SOL    HW2 3681   6.059   5.827   1.191
34553SOL     OW 3682   6.452   6.040   0.642
34553SOL    HW1 3683   6.420   6.112   0.580
34553SOL    HW2 3684   6.476   5.959   0.589
34554SOL     OW 3685   6.603   5.625   0.753
34554SOL    HW1 3686   6.531   5.630   0.684
34554SOL    HW2 3687   6.579   5.556   0.822
34555SOL     OW 3688   7.015   6.759   0.867
34555SOL    HW1 3689   6.960   6.675   0.860
34555SOL    HW2 3690   7.041   6.788   0.775
34556SOL     OW 3691   7.052   6.176   0.992
34556SOL    HW1 3692   7.022   6.081   0.999
34556SOL    HW2 3693   7.125   6.192   1.058
34557SOL     OW 3694   7.443   6.419   0.377
34557SOL    HW1 3695   7.485   6.355   0.441
34557SOL    HW2 3696   7.405   6.368   0.299
34558SOL     OW 3697   6.074   6.971   0.174
34558SOL    HW1 3698   5.987   6.956   0.221
34558SOL    HW2 3699   6.057   6.997   0.079
34559SOL     OW 3700   7.250   6.866   0.657
34559SOL    HW1 3701   7.349   6.874   0.671
34559SOL    HW2 3702   7.205   6.950   0.688
34560SOL     OW 3703   6.976   6.161   0.078
34560SOL    HW1 3704   6.922   6.140   0.159
34560SOL    HW2 3705   7.067   6.120   0.087
34561SOL     OW 3706   6.113   5.842   0.328
34561SOL    HW1 3707   6.140   5.783   0.253
34561SOL    HW2 3708   6.113   5.937   0.297
34562SOL     OW 3709   7.340   6.809   1.588
34562SOL    HW1 3710   7.431   6.770   1.575
34562SOL    HW2 3711   7.348   6.905   1.612
34563SOL     OW 3712   6.650   6.933   1.340
34563SOL    HW1 3713   6.570   6.910   1.395
34563SOL    HW2 3714   6.733   6.907   1.389
34564SOL     OW 3715   7.178   7.215   1.625
34564SOL    HW1 3716   7.205   7.249   1.535
34564SOL    HW2 3717   7.257   7.177   1.671
34565SOL     OW 3718   6.697   6.781   1.100
34565SOL    HW1 3719   6.657   6.825   1.181
34565SOL    HW2 3720   6.656   6.818   1.017
34566SOL     OW 3721   7.224   6.685   1.079
34566SOL    HW1 3722   7.229   6.766   1.138
34566SOL    HW2 3723   7.138   6.687   1.028
34567SOL     OW 3724   6.501   5.675   1.402
34567SOL    HW1 3725   6.526   5.655   1.307
34567SOL    HW2 3726   6.573   5.731   1.444
34568SOL     OW 3727   6.566   6.702   1.719
34568SOL    HW1 3728   6.467   6.708   1.729
34568SOL    HW2 3729   6.589   6.622   1.663
34569SOL     OW 3730   6.291   6.636   0.368
34569SOL    HW1 3731   6.277   6.643   0.467
34569SOL    HW2 3732   6.375   6.585   0.350
34570SOL     OW 3733   5.996   6.399   1.251
34570SOL    HW1 3734   6.082   6.411   1.301
34570SOL    HW2 3735   5.954   6.312   1.278
34571SOL     OW 3736   6.860   5.972   1.262
34571SOL    HW1 3737   6.881   6.046   1.326
34571SOL    HW2 3738   6.771   5.989   1.219
34572SOL     OW 3739   5.650   7.150   1.331
34572SOL    HW1 3740   5.604   7.232   1.297
34572SOL    HW2 3741   5.748   7.169   1.340
34573SOL     OW 3742   5.953   6.686   0.501
34573SOL    HW1 3743   5.946   6.769   0.445
34573SOL    HW2 3744   5.957   6.606   0.441
34574SOL     OW 3745   6.152   6.123   0.865
34574SOL    HW1 3746   6.164   6.189   0.791
34574SOL    HW2 3747   6.198   6.157   0.948
34575SOL     OW 3748   6.838   6.934   0.388
34575SOL    HW1 3749   6.888   7.011   0.428
34575SOL    HW2 3750   6.743   6.936   0.420
34576SOL     OW 3751   6.858   7.031   1.142
34576SOL    HW1 3752   6.905   7.044   1.229
34576SOL    HW2 3753   6.792   6.957   1.151
34577SOL     OW 3754   7.168   6.225   0.472
34577SOL    HW1 3755   7.137   6.286   0.545
34577SOL    HW2 3756   7.218   6.277   0.403
34578SOL     OW 3757   5.940   7.096   1.329
34578SOL    HW1 3758   5.919   7.052   1.242
34578SOL    HW2 3759   6.037   7.122   1.332
34579SOL     OW 3760   5.988   6.337   1.598
34579SOL    HW1 3761   6.056   6.392   1.551
34579SOL    HW2 3762   6.028   6.249   1.625
34580SOL     OW 3763   7.173   6.365   1.670
34580SOL    HW1 3764   7.081   6.403   1.665
34580SOL    HW2 3765   7.233   6.412   1.605
34581SOL     OW 3766   6.599   5.691   1.770
34581SOL    HW1 3767   6.605   5.776   1.718
34581SOL    HW2 3768   6.631   5.615   1.713
34582SOL     OW 3769   6.090   5.636   1.740
34582SOL    HW1 3770   6.048   5.579   1.670
34582SOL    HW2 3771   6.024   5.705   1.772
34583SOL     OW 3772   6.159   6.456   1.029
34583SOL    HW1 3773   6.203   6.545   1.020
34583SOL    HW2 3774   6.096   6.456   1.106
34584SOL     OW 3775   6.946   6.448   1.045
34584SOL    HW1 3776   6.871   6.448   0.979
34584SOL    HW2 3777   6.983   6.356   1.054
34585SOL     OW 3778   6.795   6.111   0.275
34585SOL    HW1 3779   6.808   6.027   0.329
34585SOL    HW2 3780   6.766   6.185   0.335
34586SOL     OW 3781   5.893   5.799   1.231
34586SOL    HW1 3782   5.870   5.836   1.321
34586SOL    HW2 3783   5.863   5.704   1.225
34587SOL     OW 3784   5.623   6.896   1.282
34587SOL    HW1 3785   5.676   6.847   1.350
34587SOL    HW2 3786   5.645   6.994   1.287
34588SOL     OW 3787   6.318   6.220   1.064
34588SOL    HW1 3788   6.377   6.194   0.988
34588SOL    HW2 3789   6.290   6.316   1.053
34589SOL     OW 3790   7.314   6.521   1.854
34589SOL    HW1 3791   7.268   6.514   1.765
34589SOL    HW2 3792   7.252   6.565   1.920
34590SOL     OW 3793   5.893   5.649   0.618
34590SOL    HW1 3794   5.882   5.743   0.651
34590SOL    HW2 3795   5.888   5.586   0.695
34591SOL     OW 3796   7.208   5.953   0.374
34591SOL    HW1 3797   7.210   5.877   0.438
34591SOL    HW2 3798   7.160   6.030   0.414
34592SOL     OW 3799   6.609   6.352   0.966
34592SOL    HW1 3800   6.624   6.373   1.062
34592SOL    HW2 3801   6.579   6.257   0.957
34593SOL     OW 3802   6.566   7.159   1.700
34593SOL    HW1 3803   6.546   7.203   1.612
34593SOL    HW2 3804   6.605   7.068   1.684
34594SOL     OW 3805   7.445   7.104   1.605
34594SOL    HW1 3806   7.459   7.131   1.510
34594SOL    HW2 3807   7.528   7.126   1.658
34595SOL     OW 3808   5.936   6.484   1.804
34595SOL    HW1 3809   6.012   6.528   1.852
34595SOL    HW2 3810   5.971   6.437   1.722
34596SOL     OW 3811   7.126   5.860   0.125
34596SOL    HW1 3812   7.065   5.785   0.148
34596SOL    HW2 3813   7.148   5.912   0.208
34597SOL     OW 3814   6.889   6.424   0.042
34597SOL    HW1 3815   6.923   6.331   0.057
34597SOL    HW2 3816   6.907   6.451  -0.053
34598SOL     OW 3817   6.654   6.919   0.849
34598SOL    HW1 3818   6.661   6.835   0.794
34598SOL    HW2 3819   6.716   6.988   0.813
34599SOL     OW 3820   5.905   6.396   0.949
34599SOL    HW1 3821   5.998   6.432   0.954
34599SOL    HW2 3822   5.899   6.311   1.001
34600SOL     OW 3823   5.925   6.095   1.006
34600SOL    HW1 3824   5.873   6.012   0.989
34600SOL    HW2 3825   6.002   6.100   0.942
34601SOL     OW 3826   6.724   5.966   1.678
34601SOL    HW1 3827   6.679   6.029   1.742
34601SOL    HW2 3828   6.817   5.997   1.661
34602SOL     OW 3829   6.746   5.793   1.477
34602SOL    HW1 3830   6.746   5.857   1.554
34602SOL    HW2 3831   6.774   5.841   1.394
34603SOL     OW 3832   5.594   6.912   0.200
34603SOL    HW1 3833   5.501   6.933   0.169
34603SOL    HW2 3834   5.604   6.813   0.213
34604SOL     OW 3835   5.674   7.387   0.927
34604SOL    HW1 3836   5.632   7.301   0.900
34604SOL    HW2 3837   5.768   7.390   0.893
34605SOL     OW 3838   6.090   7.154   0.910
34605SOL    HW1 3839   6.156   7.228   0.919
34605SOL    HW2 3840   6.134   7.075   0.868
34606SOL     OW 3841   6.588   6.382   1.238
34606SOL    HW1 3842   6.629   6.350   1.324
34606SOL    HW2 3843   6.492   6.355   1.235
34607SOL     OW 3844   5.626   6.130   1.114
34607SOL    HW1 3845   5.711   6.097   1.073
34607SOL    HW2 3846   5.639   6.145   1.212
34608SOL     OW 3847   5.775   6.106   1.722
34608SOL    HW1 3848   5.834   6.066   1.652
34608SOL    HW2 3849   5.717   6.177   1.681
34609SOL     OW 3850   6.955   6.536   1.660
34609SOL    HW1 3851   6.994   6.625   1.680
34609SOL    HW2 3852   6.965   6.516   1.563
34610SOL     OW 3853   6.401   6.158   0.325
34610SOL    HW1 3854   6.408   6.069   0.279
34610SOL    HW2 3855   6.307   6.192   0.317
34611SOL     OW 3856   7.243   6.190   1.206
34611SOL    HW1 3857   7.205   6.121   1.268
34611SOL    HW2 3858   7.325   6.154   1.162
34612SOL     OW 3859   5.838   7.150   1.744
34612SOL    HW1 3860   5.808   7.207   1.820
34612SOL    HW2 3861   5.831   7.053   1.770
34613SOL     OW 3862   6.257   6.050   1.269
34613SOL    HW1 3863   6.223   5.961   1.239
34613SOL    HW2 3864   6.283   6.104   1.189
34614SOL     OW 3865   6.516   7.264   1.465
34614SOL    HW1 3866   6.492   7.246   1.370
34614SOL    HW2 3867   6.546   7.358   1.475
34615SOL     OW 3868   6.059   6.086   0.191
34615SOL    HW1 3869   6.120   6.166   0.195
34615SOL    HW2 3870   5.964   6.117   0.198
34616SOL     OW 3871   5.745   6.723   1.466
34616SOL    HW1 3872   5.767   6.662   1.542
34616SOL    HW2 3873   5.755   6.674   1.380
34617SOL     OW 3874   6.933   6.645   1.234
34617SOL    HW1 3875   6.957   6.582   1.160
34617SOL    HW2 3876   6.843   6.685   1.216
34618SOL     OW 3877   6.888   6.441   0.309
34618SOL    HW1 3878   6.802   6.410   0.351
34618SOL    HW2 3879   6.884   6.427   0.210
34619SOL     OW 3880   7.345   7.333   1.154
34619SOL    HW1 3881   7.406   7.363   1.081
34619SOL    HW2 3882   7.307   7.244   1.132
34620SOL     OW 3883   6.838   7.317   1.128
34620SOL    HW1 3884   6.922   7.322   1.074
34620SOL    HW2 3885   6.815   7.221   1.146
34621SOL     OW 3886   5.669   6.844   1.022
34621SOL    HW1 3887   5.664   6.843   1.122
34621SOL    HW2 3888   5.586   6.803   0.984
34622SOL     OW 3889   6.274   7.248   1.716
34622SOL    HW1 3890   6.218   7.329   1.725
34622SOL    HW2 3891   6.326   7.252   1.630
34623SOL     OW 3892   6.489   5.672   0.133
34623SOL    HW1 3893   6.540   5.673   0.047
34623SOL    HW2 3894   6.545   5.630   0.204
34624SOL     OW 3895   7.312   5.721   0.523
34624SOL    HW1 3896   7.385   5.704   0.456
34624SOL    HW2 3897   7.281   5.634   0.561
34625SOL     OW 3898   6.974   7.159   0.477
34625SOL    HW1 3899   7.041   7.171   0.403
34625SOL    HW2 3900   6.934   7.248   0.500
34626SOL     OW 3901   5.716   7.380   1.851
34626SOL    HW1 3902   5.675   7.306   1.904
34626SOL    HW2 3903   5.780   7.431   1.909
34627SOL     OW 3904   6.866   6.513   0.672
34627SOL    HW1 3905   6.926   6.432   0.674
34627SOL    HW2 3906   6.906   6.582   0.612
34628SOL     OW 3907   6.416   6.859   1.422
34628SOL    HW1 3908   6.411   6.892   1.517
34628SOL    HW2 3909   6.330   6.878   1.376
34629SOL     OW 3910   6.258   7.202   0.154
34629SOL    HW1 3911   6.267   7.212   0.055
34629SOL    HW2 3912   6.218   7.113   0.175
34630SOL     OW 3913   7.236   7.306   1.394
34630SOL    HW1 3914   7.289   7.316   1.310
34630SOL    HW2 3915   7.209   7.396   1.428
34631SOL     OW 3916   7.427   5.761   0.963
34631SOL    HW1 3917   7.466   5.676   0.927
34631SOL    HW2 3918   7.329   5.763   0.944
34632SOL     OW 3919   5.849   5.912   0.720
34632SOL    HW1 3920   5.770   5.963   0.686
34632SOL    HW2 3921   5.840   5.897   0.818
34633SOL     OW 3922   6.780   7.198   0.031
34633SOL    HW1 3923   6.786   7.105   0.068
34633SOL    HW2 3924   6.721   7.198  -0.049
34634SOL     OW 3925   6.408   6.588   1.372
34634SOL    HW1 3926   6.448   6.587   1.280
34634SOL    HW2 3927   6.418   6.680   1.412
34635SOL     OW 3928   6.502   6.496   0.291
34635SOL    HW1 3929   6.565   6.534   0.223
34635SOL    HW2 3930   6.542   6.413   0.330
34636SOL     OW 3931   7.090   7.193   0.044
34636SOL    HW1 3932   6.998   7.230   0.051
34636SOL    HW2 3933   7.128   7.213  -0.046
34637SOL     OW 3934   5.958   6.874   1.490
34637SOL    HW1 3935   5.945   6.967   1.456
34637SOL    HW2 3936   5.874   6.822   1.477
34638SOL     OW 3937   7.200   6.878   1.289
34638SOL    HW1 3938   7.260   6.881   1.369
34638SOL    HW2 3939   7.125   6.942   1.302
34639SOL     OW 3940   6.625   6.684   0.696
34639SOL    HW1 3941   6.555   6.637   0.750
34639SOL    HW2 3942   6.684   6.616   0.653
34640SOL     OW 3943   6.600   5.822   0.971
34640SOL    HW1 3944   6.592   5.786   0.878
34640SOL    HW2 3945   6.598   5.746   1.036
34641SOL     OW 3946   6.176   7.073   0.491
34641SOL    HW1 3947   6.218   7.015   0.421
34641SOL    HW2 3948   6.132   7.152   0.447
34642SOL     OW 3949   7.295   5.971   1.381
34642SOL    HW1 3950   7.368   6.040   1.385
34642SOL    HW2 3951   7.323   5.896   1.322
34643SOL     OW 3952   5.841   6.934   0.290
34643SOL    HW1 3953   5.745   6.935   0.263
34643SOL    HW2 3954   5.853   6.987   0.374
34644SOL     OW 3955   5.691   6.599   1.726
34644SOL    HW1 3956   5.614   6.566   1.780
34644SOL    HW2 3957   5.776   6.569   1.768
34645SOL     OW 3958   6.258   5.789   1.489
34645SOL    HW1 3959   6.348   5.773   1.449
34645SOL    HW2 3960   6.266   5.794   1.588
34646SOL     OW 3961   7.026   6.442   1.398
34646SOL    HW1 3962   6.969   6.494   1.335
34646SOL    HW2 3963   7.122   6.454   1.374
34647SOL     OW 3964   5.658   5.752   0.318
34647SOL    HW1 3965   5.641   5.835   0.264
34647SOL    HW2 3966   5.748   5.715   0.296
34648SOL     OW 3967   6.769   6.921   0.119
34648SOL    HW1 3968   6.670   6.910   0.121
34648SOL    HW2 3969   6.803   6.936   0.212
34649SOL     OW 3970   6.199   6.428   1.431
34649SOL    HW1 3971   6.255   6.509   1.414
34649SOL    HW2 3972   6.258   6.348   1.434
34650SOL     OW 3973   7.079   7.353   0.959
34650SOL    HW1 3974   7.112   7.417   0.890
34650SOL    HW2 3975   7.145   7.347   1.034
34651SOL     OW 3976   6.302   6.151   1.708
34651SOL    HW1 3977   6.321   6.216   1.782
34651SOL    HW2 3978   6.362   6.071   1.717
34652SOL     OW 3979   7.036   6.806   1.633
34652SOL    HW1 3980   7.027   6.796   1.732
34652SOL    HW2 3981   7.132   6.799   1.607
34653SOL     OW 3982   5.976   7.327   1.560
34653SOL    HW1 3983   5.885   7.368   1.558
34653SOL    HW2 3984   5.969   7.233   1.592
34654SOL     OW 3985   7.260   6.469   1.254
34654SOL    HW1 3986   7.233   6.380   1.217
34654SOL    HW2 3987   7.261   6.537   1.181
34655SOL     OW 3988   6.811   5.911   0.449
34655SOL    HW1 3989   6.876   5.837   0.438
34655SOL    HW2 3990   6.831   5.961   0.533
34656SOL     OW 3991   6.180   6.331   0.652
34656SOL    HW1 3992   6.230   6.416   0.633
34656SOL    HW2 3993   6.092   6.333   0.604
34657SOL     OW 3994   7.363   5.928   1.642
34657SOL    HW1 3995   7.346   5.959   1.548
34657SOL    HW2 3996   7.279   5.891   1.680
34658SOL     OW 3997   7.316   6.520   1.517
34658SOL    HW1 3998   7.354   6.611   1.532
34658SOL    HW2 3999   7.308   6.503   1.418
34659SOL     OW 4000   6.445   6.960   0.016
34659SOL    HW1 4001   6.399   6.975   0.104
34659SOL    HW2 4002   6.489   7.045  -0.014
34660SOL     OW 4003   6.247   7.376   0.953
34660SOL    HW1 4004   6.201   7.464   0.940
34660SOL    HW2 4005   6.346   7.388   0.946
34661SOL     OW 4006   6.445   6.542   0.861
34661SOL    HW1 4007   6.499   6.473   0.909
34661SOL    HW2 4008   6.413   6.611   0.927
34662SOL     OW 4009   6.669   6.570   0.087
34662SOL    HW1 4010   6.646   6.623   0.005
34662SOL    HW2 4011   6.750   6.514   0.068
34663SOL     OW 4012   7.447   7.155   0.851
34663SOL    HW1 4013   7.376   7.143   0.781
34663SOL    HW2 4014   7.448   7.076   0.911
34664SOL     OW 4015   5.807   6.900   1.844
34664SOL    HW1 4016   5.742   6.827   1.823
34664SOL    HW2 4017   5.811   6.914   1.942
34665SOL     OW 4018   5.665   6.826   0.653
34665SOL    HW1 4019   5.664   6.779   0.741
34665SOL    HW2 4020   5.747   6.798   0.602
34666SOL     OW 4021   6.258   6.977   1.624
34666SOL    HW1 4022   6.180   6.927   1.662
34666SOL    HW2 4023   6.255   7.072   1.655
34667SOL     OW 4024   7.410   5.778   1.227
34667SOL    HW1 4025   7.406   5.688   1.271
34667SOL    HW2 4026   7.413   5.767   1.128
34668SOL     OW 4027   6.014   6.010   0.520
34668SOL    HW1 4028   6.044   5.938   0.458
34668SOL    HW2 4029   5.975   5.970   0.603
34669SOL     OW 4030   7.291   7.073   1.104
34669SOL    HW1 4031   7.198   7.048   1.077
34669SOL    HW2 4032   7.317   7.023   1.186
34670SOL     OW 4033   5.903   6.133   1.280
34670SOL    HW1 4034   5.941   6.074   1.352
34670SOL    HW2 4035   5.943   6.107   1.192
34671SOL     OW 4036   6.398   7.172   0.687
34671SOL    HW1 4037   6.430   7.182   0.593
34671SOL    HW2 4038   6.319   7.110   0.689
34672SOL     OW 4039   7.010   5.800   1.112
34672SOL    HW1 4040   7.062   5.735   1.167
34672SOL    HW2 4041   6.961   5.863   1.173
34673SOL     OW 4042   6.587   5.620   1.154
34673SOL    HW1 4043   6.524   5.548   1.123
34673SOL    HW2 4044   6.680   5.584   1.154
34674SOL     OW 4045   6.356   6.916   0.301
34674SOL    HW1 4046   6.310   6.829   0.318
34674SOL    HW2 4047   6.447   6.913   0.342
34675SOL     OW 4048   6.204   7.153   1.284
34675SOL    HW1 4049   6.199   7.235   1.341
34675SOL    HW2 4050   6.293   7.150   1.239
34676SOL     OW 4051   6.938   5.638   0.168
34676SOL    HW1 4052   6.973   5.597   0.084
34676SOL    HW2 4053   6.848   5.600   0.188
34677SOL     OW 4054   6.886   6.039   0.691
34677SOL    HW1 4055   6.827   6.119   0.695
34677SOL    HW2 4056   6.901   6.004   0.784
34678SOL     OW 4057   7.179   5.807   0.882
34678SOL    HW1 4058   7.095   5.806   0.936
34678SOL    HW2 4059   7.181   5.890   0.826
34679SOL     OW 4060   5.625   6.663   0.300
34679SOL    HW1 4061   5.724   6.652   0.291
34679SOL    HW2 4062   5.585   6.577   0.332
34680SOL     OW 4063   6.461   7.232   0.337
34680SOL    HW1 4064   6.384   7.197   0.283
34680SOL    HW2 4065   6.429   7.303   0.399
34681SOL     OW 4066   5.816   6.214   1.975
34681SOL    HW1 4067   5.723   6.212   2.012
34681SOL    HW2 4068   5.817   6.175   1.883
34682SOL     OW 4069   5.811   5.861   2.858
34682SOL    HW1 4070   5.846   5.844   2.950
34682SOL    HW2 4071   5.723   5.816   2.846
34683SOL     OW 4072   5.605   5.954   2.509
34683SOL    HW1 4073   5.523   5.997   2.548
34683SOL    HW2 4074   5.577   5.881   2.446
34684SOL     OW 4075   6.155   6.861   3.027
34684SOL    HW1 4076   6.062   6.854   2.990
34684SOL    HW2 4077   6.166   6.950   3.071
34685SOL     OW 4078   7.141   7.097   2.565
34685SOL    HW1 4079   7.084   7.081   2.646
34685SOL    HW2 4080   7.082   7.107   2.485
34686SOL     OW 4081   6.721   6.289   2.579
34686SOL    HW1 4082   6.778   6.367   2.554
34686SOL    HW2 4083   6.661   6.315   2.655
34687SOL     OW 4084   7.341   6.193   2.093
34687SOL    HW1 4085   7.329   6.180   1.994
34687SOL    HW2 4086   7.311   6.112   2.142
34688SOL     OW 4087   6.354   6.730   2.885
34688SOL    HW1 4088   6.276   6.747   2.945
34688SOL    HW2 4089   6.388   6.817   2.849
34689SOL     OW 4090   6.436   6.384   3.685
34689SOL    HW1 4091   6.432   6.460   3.750
34689SOL    HW2 4092   6.458   6.420   3.594
34690SOL     OW 4093   6.271   6.598   2.527
34690SOL    HW1 4094   6.340   6.582   2.597
34690SOL    HW2 4095   6.198   6.655   2.565
34691SOL     OW 4096   6.272   6.747   3.665
34691SOL    HW1 4097   6.332   6.826   3.679
34691SOL    HW2 4098   6.186   6.778   3.624
34692SOL     OW 4099   5.921   7.021   2.923
34692SOL    HW1 4100   5.843   6.990   2.870
34692SOL    HW2 4101   5.979   7.079   2.866
34693SOL     OW 4102   7.046   7.091   3.201
34693SOL    HW1 4103   7.070   7.185   3.227
34693SOL    HW2 4104   7.030   7.037   3.283
34694SOL     OW 4105   6.024   5.978   3.361
34694SOL    HW1 4106   6.106   5.922   3.370
34694SOL    HW2 4107   5.943   5.920   3.365
34695SOL     OW 4108   7.189   6.033   2.599
34695SOL    HW1 4109   7.115   6.079   2.549
34695SOL    HW2 4110   7.240   6.101   2.652
34696SOL     OW 4111   5.817   7.299   2.345
34696SOL    HW1 4112   5.851   7.376   2.399
34696SOL    HW2 4113   5.861   7.299   2.255
34697SOL     OW 4114   6.713   6.927   3.552
34697SOL    HW1 4115   6.760   6.927   3.640
34697SOL    HW2 4116   6.665   6.840   3.541
34698SOL     OW 4117   5.816   7.020   2.400
34698SOL    HW1 4118   5.790   7.116   2.400
34698SOL    HW2 4119   5.745   6.966   2.445
34699SOL     OW 4120   5.826   6.677   2.748
34699SOL    HW1 4121   5.840   6.593   2.800
34699SOL    HW2 4122   5.771   6.741   2.803
34700SOL     OW 4123   6.206   7.372   3.301
34700SOL    HW1 4124   6.114   7.355   3.336
34700SOL    HW2 4125   6.234   7.464   3.327
34701SOL     OW 4126   6.192   6.550   1.985
34701SOL    HW1 4127   6.199   6.634   1.931
34701SOL    HW2 4128   6.238   6.563   2.073
34702SOL     OW 4129   7.180   5.700   3.342
34702SOL    HW1 4130   7.162   5.767   3.270
34702SOL    HW2 4131   7.177   5.746   3.431
34703SOL     OW 4132   5.708   6.229   2.425
34703SOL    HW1 4133   5.663   6.141   2.442
34703SOL    HW2 4134   5.707   6.283   2.509
34704SOL     OW 4135   7.428   7.353   2.221
34704SOL    HW1 4136   7.482   7.324   2.301
34704SOL    HW2 4137   7.458   7.443   2.192
34705SOL     OW 4138   5.613   7.182   1.979
34705SOL    HW1 4139   5.594   7.086   2.000
34705SOL    HW2 4140   5.580   7.240   2.054
34706SOL     OW 4141   7.275   6.508   2.474
34706SOL    HW1 4142   7.370   6.479   2.482
34706SOL    HW2 4143   7.267   6.573   2.399
34707SOL     OW 4144   7.227   6.694   2.294
34707SOL    HW1 4145   7.313   6.696   2.242
34707SOL    HW2 4146   7.241   6.741   2.382
34708SOL     OW 4147   5.699   6.323   3.459
34708SOL    HW1 4148   5.787   6.310   3.504
34708SOL    HW2 4149   5.686   6.420   3.437
34709SOL     OW 4150   6.199   6.951   2.588
34709SOL    HW1 4151   6.150   6.864   2.597
34709SOL    HW2 4152   6.176   6.994   2.501
34710SOL     OW 4153   6.879   6.814   3.285
34710SOL    HW1 4154   6.916   6.741   3.227
34710SOL    HW2 4155   6.931   6.819   3.370
34711SOL     OW 4156   6.395   5.590   2.364
34711SOL    HW1 4157   6.435   5.681   2.355
34711SOL    HW2 4158   6.295   5.598   2.370
34712SOL     OW 4159   5.783   6.562   3.126
34712SOL    HW1 4160   5.872   6.517   3.112
34712SOL    HW2 4161   5.710   6.497   3.107
34713SOL     OW 4162   7.111   6.585   2.052
34713SOL    HW1 4163   7.048   6.509   2.065
34713SOL    HW2 4164   7.159   6.603   2.138
34714SOL     OW 4165   6.773   7.378   3.478
34714SOL    HW1 4166   6.797   7.438   3.402
34714SOL    HW2 4167   6.780   7.283   3.448
34715SOL     OW 4168   5.903   5.837   3.663
34715SOL    HW1 4169   5.974   5.908   3.669
34715SOL    HW2 4170   5.815   5.876   3.691
34716SOL     OW 4171   7.052   7.003   2.815
34716SOL    HW1 4172   6.993   7.009   2.895
34716SOL    HW2 4173   7.037   6.915   2.769
34717SOL     OW 4174   7.253   7.300   2.434
34717SOL    HW1 4175   7.212   7.277   2.346
34717SOL    HW2 4176   7.235   7.226   2.499
34718SOL     OW 4177   6.184   6.315   2.132
34718SOL    HW1 4178   6.208   6.384   2.064
34718SOL    HW2 4179   6.106   6.348   2.186
34719SOL     OW 4180   6.867   5.931   2.806
34719SOL    HW1 4181   6.781   5.881   2.793
34719SOL    HW2 4182   6.929   5.877   2.862
34720SOL     OW 4183   7.162   7.248   2.169
34720SOL    HW1 4184   7.251   7.294   2.172
34720SOL    HW2 4185   7.141   7.224   2.074
34721SOL     OW 4186   6.393   6.191   3.327
34721SOL    HW1 4187   6.346   6.188   3.416
34721SOL    HW2 4188   6.342   6.136   3.261
34722SOL     OW 4189   6.980   6.055   3.536
34722SOL    HW1 4190   6.960   6.098   3.624
34722SOL    HW2 4191   7.058   5.993   3.545
34723SOL     OW 4192   6.559   6.476   3.434
34723SOL    HW1 4193   6.605   6.392   3.405
34723SOL    HW2 4194   6.503   6.510   3.359
34724SOL     OW 4195   6.577   5.996   3.104
34724SOL    HW1 4196   6.500   6.030   3.158
34724SOL    HW2 4197   6.543   5.945   3.025
34725SOL     OW 4198   6.627   6.287   2.291
34725SOL    HW1 4199   6.653   6.283   2.387
34725SOL    HW2 4200   6.542   6.236   2.277
34726SOL     OW 4201   5.662   6.397   2.651
34726SOL    HW1 4202   5.761   6.385   2.660
34726SOL    HW2 4203   5.638   6.492   2.672
34727SOL     OW 4204   5.716   7.407   3.433
34727SOL    HW1 4205   5.706   7.392   3.532
34727SOL    HW2 4206   5.630   7.443   3.397
34728SOL     OW 4207   6.451   5.934   2.057
34728SOL    HW1 4208   6.510   5.997   2.008
34728SOL    HW2 4209   6.470   5.840   2.028
34729SOL     OW 4210   7.305   6.171   3.693
34729SOL    HW1 4211   7.279   6.260   3.657
34729SOL    HW2 4212   7.303   6.103   3.620
34730SOL     OW 4213   6.948   6.730   2.407
34730SOL    HW1 4214   7.031   6.701   2.359
34730SOL    HW2 4215   6.899   6.797   2.351
34731SOL     OW 4216   6.136   5.782   2.747
34731SOL    HW1 4217   6.131   5.777   2.847
34731SOL    HW2 4218   6.138   5.878   2.718
34732SOL     OW 4219   6.594   7.042   2.339
34732SOL    HW1 4220   6.548   7.114   2.287
34732SOL    HW2 4221   6.590   7.062   2.437
34733SOL     OW 4222   5.937   7.387   2.715
34733SOL    HW1 4223   5.987   7.301   2.721
34733SOL    HW2 4224   6.002   7.464   2.712
34734SOL     OW 4225   7.381   6.652   2.735
34734SOL    HW1 4226   7.319   6.637   2.659
34734SOL    HW2 4227   7.329   6.663   2.820
34735SOL     OW 4228   6.813   7.136   3.368
34735SOL    HW1 4229   6.819   7.059   3.432
34735SOL    HW2 4230   6.761   7.110   3.288
34736SOL     OW 4231   5.907   6.529   2.104
34736SOL    HW1 4232   5.989   6.568   2.062
34736SOL    HW2 4233   5.880   6.447   2.055
34737SOL     OW 4234   7.044   6.321   2.590
34737SOL    HW1 4235   7.039   6.256   2.665
34737SOL    HW2 4236   7.124   6.380   2.603
34738SOL     OW 4237   6.047   6.852   3.589
34738SOL    HW1 4238   5.997   6.853   3.503
34738SOL    HW2 4239   5.984   6.834   3.665
34739SOL     OW 4240   6.697   7.362   2.099
34739SOL    HW1 4241   6.637   7.300   2.149
34739SOL    HW2 4242   6.728   7.318   2.014
34740SOL     OW 4243   5.788   5.871   3.360
34740SOL    HW1 4244   5.708   5.931   3.347
34740SOL    HW2 4245   5.778   5.822   3.446
34741SOL     OW 4246   7.218   6.963   1.943
34741SOL    HW1 4247   7.186   7.057   1.933
34741SOL    HW2 4248   7.142   6.900   1.931
34742SOL     OW 4249   6.050   7.329   2.185
34742SOL    HW1 4250   6.083   7.368   2.271
34742SOL    HW2 4251   6.126   7.322   2.120
34743SOL     OW 4252   6.986   5.693   2.288
34743SOL    HW1 4253   6.962   5.656   2.198
34743SOL    HW2 4254   7.085   5.709   2.292
34744SOL     OW 4255   5.835   7.371   3.103
34744SOL    HW1 4256   5.892   7.306   3.153
34744SOL    HW2 4257   5.819   7.338   3.010
34745SOL     OW 4258   6.526   7.284   2.766
34745SOL    HW1 4259   6.606   7.227   2.787
34745SOL    HW2 4260   6.477   7.244   2.689
34746SOL     OW 4261   5.968   6.286   2.342
34746SOL    HW1 4262   6.013   6.196   2.339
34746SOL    HW2 4263   5.874   6.275   2.375
34747SOL     OW 4264   7.133   5.808   3.591
34747SOL    HW1 4265   7.128   5.845   3.683
34747SOL    HW2 4266   7.061   5.739   3.579
34748SOL     OW 4267   6.200   5.708   1.979
34748SOL    HW1 4268   6.298   5.686   1.986
34748SOL    HW2 4269   6.169   5.691   1.886
34749SOL     OW 4270   6.367   5.850   3.611
34749SOL    HW1 4271   6.434   5.789   3.654
34749SOL    HW2 4272   6.294   5.869   3.676
34750SOL     OW 4273   6.474   7.100   3.057
34750SOL    HW1 4274   6.451   7.075   2.963
34750SOL    HW2 4275   6.535   7.031   3.096
34751SOL     OW 4276   6.937   6.176   3.295
34751SOL    HW1 4277   6.965   6.133   3.380
34751SOL    HW2 4278   6.962   6.272   3.296
34752SOL     OW 4279   6.389   6.988   2.786
34752SOL    HW1 4280   6.479   7.002   2.744
34752SOL    HW2 4281   6.318   6.990   2.715
34753SOL     OW 4282   6.508   6.089   2.761
34753SOL    HW1 4283   6.483   6.080   2.665
34753SOL    HW2 4284   6.556   6.007   2.792
34754SOL     OW 4285   6.125   5.650   2.374
34754SOL    HW1 4286   6.044   5.651   2.432
34754SOL    HW2 4287   6.128   5.733   2.319
34755SOL     OW 4288   7.020   6.774   1.903
34755SOL    HW1 4289   7.052   6.698   1.960
34755SOL    HW2 4290   6.928   6.801   1.933
34756SOL     OW 4291   5.883   5.621   2.033
34756SOL    HW1 4292   5.932   5.705   2.012
34756SOL    HW2 4293   5.945   5.556   2.078
34757SOL     OW 4294   6.521   5.822   2.342
34757SOL    HW1 4295   6.473   5.863   2.264
34757SOL    HW2 4296   6.620   5.820   2.323
34758SOL     OW 4297   6.662   6.269   3.326
34758SOL    HW1 4298   6.582   6.208   3.329
34758SOL    HW2 4299   6.743   6.216   3.302
34759SOL     OW 4300   6.813   7.156   2.655
34759SOL    HW1 4301   6.834   7.230   2.590
34759SOL    HW2 4302   6.881   7.156   2.728
34760SOL     OW 4303   6.045   6.738   2.603
34760SOL    HW1 4304   5.974   6.711   2.668
34760SOL    HW2 4305   6.019   6.710   2.510
34761SOL     OW 4306   6.857   7.383   2.453
34761SOL    HW1 4307   6.901   7.447   2.389
34761SOL    HW2 4308   6.807   7.435   2.523
34762SOL     OW 4309   6.618   6.135   1.878
34762SOL    HW1 4310   6.577   6.217   1.839
34762SOL    HW2 4311   6.682   6.161   1.951
34763SOL     OW 4312   5.664   6.142   3.248
34763SOL    HW1 4313   5.756   6.141   3.207
34763SOL    HW2 4314   5.658   6.216   3.315
34764SOL     OW 4315   6.147   5.808   3.009
34764SOL    HW1 4316   6.185   5.724   3.046
34764SOL    HW2 4317   6.059   5.827   3.053
34765SOL     OW 4318   6.452   6.040   2.504
34765SOL    HW1 4319   6.420   6.112   2.442
34765SOL    HW2 4320   6.476   5.959   2.451
34766SOL     OW 4321   6.603   5.625   2.615
34766SOL    HW1 4322   6.531   5.630   2.546
34766SOL    HW2 4323   6.579   5.556   2.684
34767SOL     OW 4324   7.015   6.759   2.729
34767SOL    HW1 4325   6.960   6.675   2.722
34767SOL    HW2 4326   7.041   6.788   2.637
34768SOL     OW 4327   7.052   6.176   2.854
34768SOL    HW1 4328   7.022   6.081   2.861
34768SOL    HW2 4329   7.125   6.192   2.920
34769SOL     OW 4330   7.443   6.419   2.239
34769SOL    HW1 4331   7.485   6.355   2.303
34769SOL    HW2 4332   7.405   6.368   2.161
34770SOL     OW 4333   6.074   6.971   2.036
34770SOL    HW1 4334   5.987   6.956   2.083
34770SOL    HW2 4335   6.057   6.997   1.941
34771SOL     OW 4336   7.250   6.866   2.519
34771SOL    HW1 4337   7.349   6.874   2.533
34771SOL    HW2 4338   7.205   6.950   2.550
34772SOL     OW 4339   6.976   6.161   1.940
34772SOL    HW1 4340   6.922   6.140   2.021
34772SOL    HW2 4341   7.067   6.120   1.949
34773SOL     OW 4342   6.113   5.842   2.190
34773SOL    HW1 4343   6.140   5.783   2.115
34773SOL    HW2 4344   6.113   5.937   2.159
34774SOL     OW 4345   7.340   6.809   3.450
34774SOL    HW1 4346   7.431   6.770   3.437
34774SOL    HW2 4347   7.348   6.905   3.474
34775SOL     OW 4348   6.650   6.933   3.202
34775SOL    HW1 4349   6.570   6.910   3.257
34775SOL    HW2 4350   6.733   6.907   3.251
34776SOL     OW 4351   7.178   7.215   3.487
34776SOL    HW1 4352   7.205   7.249   3.397
34776SOL    HW2 4353   7.257   7.177   3.533
34777SOL     OW 4354   6.697   6.781   2.962
34777SOL    HW1 4355   6.657   6.825   3.043
34777SOL    HW2 4356   6.656   6.818   2.879
34778SOL     OW 4357   7.224   6.685   2.941
34778SOL    HW1 4358   7.229   6.766   3.000
34778SOL    HW2 4359   7.138   6.687   2.890
34779SOL     OW 4360   6.501   5.675   3.264
34779SOL    HW1 4361   6.526   5.655   3.169
34779SOL    HW2 4362   6.573   5.731   3.306
34780SOL     OW 4363   6.566   6.702   3.581
34780SOL    HW1 4364   6.467   6.708   3.591
34780SOL    HW2 4365   6.589   6.622   3.525
34781SOL     OW 4366   6.291   6.636   2.230
34781SOL    HW1 4367   6.277   6.643   2.329
34781SOL    HW2 4368   6.375   6.585   2.212
34782SOL     OW 4369   5.996   6.399   3.113
34782SOL    HW1 4370   6.082   6.411   3.163
34782SOL    HW2 4371   5.954   6.312   3.140
34783SOL     OW 4372   6.860   5.972   3.124
34783SOL    HW1 4373   6.881   6.046   3.188
34783SOL    HW2 4374   6.771   5.989   3.081
34784SOL     OW 4375   5.650   7.150   3.193
34784SOL    HW1 4376   5.604   7.232   3.159
34784SOL    HW2 4377   5.748   7.169   3.202
34785SOL     OW 4378   5.953   6.686   2.363
34785SOL    HW1 4379   5.946   6.769   2.307
34785SOL    HW2 4380   5.957   6.606   2.303
34786SOL     OW 4381   6.152   6.123   2.727
34786SOL    HW1 4382   6.164   6.189   2.653
34786SOL    HW2 4383   6.198   6.157   2.810
34787SOL     OW 4384   6.838   6.934   2.250
34787SOL    HW1 4385   6.888   7.011   2.290
34787SOL    HW2 4386   6.743   6.936   2.282
34788SOL     OW 4387   6.858   7.031   3.004
34788SOL    HW1 4388   6.905   7.044   3.091
34788SOL    HW2 4389   6.792   6.957   3.013
34789SOL     OW 4390   7.168   6.225   2.334
34789SOL    HW1 4391   7.137   6.286   2.407
34789SOL    HW2 4392   7.218   6.277   2.265
34790SOL     OW 4393   5.940   7.096   3.191
34790SOL    HW1 4394   5.919   7.052   3.104
34790SOL    HW2 4395   6.037   7.122   3.194
34791SOL     OW 4396   5.988   6.337   3.460
34791SOL    HW1 4397   6.056   6.392   3.413
34791SOL    HW2 4398   6.028   6.249   3.487
34792SOL     OW 4399   7.173   6.365   3.532
34792SOL    HW1 4400   7.081   6.403   3.527
34792SOL    HW2 4401   7.233   6.412   3.467
34793SOL     OW 4402   6.599   5.691   3.632
34793SOL    HW1 4403   6.605   5.776   3.580
34793SOL    HW2 4404   6.631   5.615   3.575
34794SOL     OW 4405   6.090   5.636   3.602
34794SOL    HW1 4406   6.048   5.579   3.532
34794SOL    HW2 4407   6.024   5.705   3.634
34795SOL     OW 4408   6.159   6.456   2.891
34795SOL    HW1 4409   6.203   6.545   2.882
34795SOL    HW2 4410   6.096   6.456   2.968
34796SOL     OW 4411   6.946   6.448   2.907
34796SOL    HW1 4412   6.871   6.448   2.841
34796SOL    HW2 4413   6.983   6.356   2.916
34797SOL     OW 4414   6.795   6.111   2.137
34797SOL    HW1 4415   6.808   6.027   2.191
34797SOL    HW2 4416   6.766   6.185   2.197
34798SOL     OW 4417   5.893   5.799   3.093
34798SOL    HW1 4418   5.870   5.836   3.183
34798SOL    HW2 4419   5.863   5.704   3.087
34799SOL     OW 4420   5.623   6.896   3.144
34799SOL    HW1 4421   5.676   6.847   3.212
34799SOL    HW2 4422   5.645   6.994   3.149
34800SOL     OW 4423   6.318   6.220   2.926
34800SOL    HW1 4424   6.377   6.194   2.850
34800SOL    HW2 4425   6.290   6.316   2.915
34801SOL     OW 4426   7.314   6.521   3.716
34801SOL    HW1 4427   7.268   6.514   3.627
34801SOL    HW2 4428   7.252   6.565   3.782
34802SOL     OW 4429   5.893   5.649   2.480
34802SOL    HW1 4430   5.882   5.743   2.513
34802SOL    HW2 4431   5.888   5.586   2.557
34803SOL     OW 4432   7.208   5.953   2.236
34803SOL    HW1 4433   7.210   5.877   2.300
34803SOL    HW2 4434   7.160   6.030   2.276
34804SOL     OW 4435   6.609   6.352   2.828
34804SOL    HW1 4436   6.624   6.373   2.924
34804SOL    HW2 4437   6.579   6.257   2.819
34805SOL     OW 4438   6.566   7.159   3.562
34805SOL    HW1 4439   6.546   7.203   3.474
34805SOL    HW2 4440   6.605   7.068   3.546
34806SOL     OW 4441   7.445   7.104   3.467
34806SOL    HW1 4442   7.459   7.131   3.372
34806SOL    HW2 4443   7.528   7.126   3.520
34807SOL     OW 4444   5.936   6.484   3.666
34807SOL    HW1 4445   6.012   6.528   3.714
34807SOL    HW2 4446   5.971   6.437   3.584
34808SOL     OW 4447   7.126   5.860   1.987
34808SOL    HW1 4448   7.065   5.785   2.010
34808SOL    HW2 4449   7.148   5.912   2.070
34809SOL     OW 4450   6.889   6.424   1.904
34809SOL    HW1 4451   6.923   6.331   1.919
34809SOL    HW2 4452   6.907   6.451   1.809
34810SOL     OW 4453   6.654   6.919   2.711
34810SOL    HW1 4454   6.661   6.835   2.656
34810SOL    HW2 4455   6.716   6.988   2.675
34811SOL     OW 4456   5.905   6.396   2.811
34811SOL    HW1 4457   5.998   6.432   2.816
34811SOL    HW2 4458   5.899   6.311   2.863
34812SOL     OW 4459   5.925   6.095   2.868
34812SOL    HW1 4460   5.873   6.012   2.851
34812SOL    HW2 4461   6.002   6.100   2.804
34813SOL     OW 4462   6.724   5.966   3.540
34813SOL    HW1 4463   6.679   6.029   3.604
34813SOL    HW2 4464   6.817   5.997   3.523
34814SOL     OW 4465   6.746   5.793   3.339
34814SOL    HW1 4466   6.746   5.857   3.416
34814SOL    HW2 4467   6.774   5.841   3.256
34815SOL     OW 4468   5.594   6.912   2.062
34815SOL    HW1 4469   5.501   6.933   2.031
34815SOL    HW2 4470   5.604   6.813   2.075
34816SOL     OW 4471   5.674   7.387   2.789
34816SOL    HW1 4472   5.632   7.301   2.762
34816SOL    HW2 4473   5.768   7.390   2.755
34817SOL     OW 4474   6.090   7.154   2.772
34817SOL    HW1 4475   6.156   7.228   2.781
34817SOL    HW2 4476   6.134   7.075   2.730
34818SOL     OW 4477   6.588   6.382   3.100
34818SOL    HW1 4478   6.629   6.350   3.186
34818SOL    HW2 4479   6.492   6.355   3.097
34819SOL     OW 4480   5.626   6.130   2.976
34819SOL    HW1 4481   5.711   6.097   2.935
34819SOL    HW2 4482   5.639   6.145   3.074
34820SOL     OW 4483   5.775   6.106   3.584
34820SOL    HW1 4484   5.834   6.066   3.514
34820SOL    HW2 4485   5.717   6.177   3.543
34821SOL     OW 4486   6.955   6.536   3.522
34821SOL    HW1 4487   6.994   6.625   3.542
34821SOL    HW2 4488   6.965   6.516   3.425
34822SOL     OW 4489   6.401   6.158   2.187
34822SOL    HW1 4490   6.408   6.069   2.141
34822SOL    HW2 4491   6.307   6.192   2.179
34823SOL     OW 4492   7.243   6.190   3.068
34823SOL    HW1 4493   7.205   6.121   3.130
34823SOL    HW2 4494   7.325   6.154   3.024
34824SOL     OW 4495   5.838   7.150   3.606
34824SOL    HW1 4496   5.808   7.207   3.682
34824SOL    HW2 4497   5.831   7.053   3.632
34825SOL     OW 4498   6.257   6.050   3.131
34825SOL    HW1 4499   6.223   5.961   3.101
34825SOL    HW2 4500   6.283   6.104   3.051
34826SOL     OW 4501   6.516   7.264   3.327
34826SOL    HW1 4502   6.492   7.246   3.232
34826SOL    HW2 4503   6.546   7.358   3.337
34827SOL     OW 4504   6.059   6.086   2.053
34827SOL    HW1 4505   6.120   6.166   2.057
34827SOL    HW2 4506   5.964   6.117   2.060
34828SOL     OW 4507   5.745   6.723   3.328
34828SOL    HW1 4508   5.767   6.662   3.404
34828SOL    HW2 4509   5.755   6.674   3.242
34829SOL     OW 4510   6.933   6.645   3.096
34829SOL    HW1 4511   6.957   6.582   3.022
34829SOL    HW2 4512   6.843   6.685   3.078
34830SOL     OW 4513   6.888   6.441   2.171
34830SOL    HW1 4514   6.802   6.410   2.213
34830SOL    HW2 4515   6.884   6.427   2.072
34831SOL     OW 4516   7.345   7.333   3.016
34831SOL    HW1 4517   7.406   7.363   2.943
34831SOL    HW2 4518   7.307   7.244   2.994
34832SOL     OW 4519   6.838   7.317   2.990
34832SOL    HW1 4520   6.922   7.322   2.936
34832SOL    HW2 4521   6.815   7.221   3.008
34833SOL     OW 4522   5.669   6.844   2.884
34833SOL    HW1 4523   5.664   6.843   2.984
34833SOL    HW2 4524   5.586   6.803   2.846
34834SOL     OW 4525   6.274   7.248   3.578
34834SOL    HW1 4526   6.218   7.329   3.587
34834SOL    HW2 4527   6.326   7.252   3.492
34835SOL     OW 4528   7.312   5.721   2.385
34835SOL    HW1 4529   7.385   5.704   2.318
34835SOL    HW2 4530   7.281   5.634   2.423
34836SOL     OW 4531   6.974   7.159   2.339
34836SOL    HW1 4532   7.041   7.171   2.265
34836SOL    HW2 4533   6.934   7.248   2.362
34837SOL     OW 4534   5.716   7.380   3.713
34837SOL    HW1 4535   5.675   7.306   3.766
34837SOL    HW2 4536   5.780   7.431   3.771
34838SOL     OW 4537   6.866   6.513   2.534
34838SOL    HW1 4538   6.926   6.432   2.536
34838SOL    HW2 4539   6.906   6.582   2.474
34839SOL     OW 4540   6.416   6.859   3.284
34839SOL    HW1 4541   6.411   6.892   3.379
34839SOL    HW2 4542   6.330   6.878   3.238
34840SOL     OW 4543   6.258   7.202   2.016
34840SOL    HW1 4544   6.267   7.212   1.917
34840SOL    HW2 4545   6.218   7.113   2.037
34841SOL     OW 4546   7.236   7.306   3.256
34841SOL    HW1 4547   7.289   7.316   3.172
34841SOL    HW2 4548   7.209   7.396   3.290
34842SOL     OW 4549   7.427   5.761   2.825
34842SOL    HW1 4550   7.466   5.676   2.789
34842SOL    HW2 4551   7.329   5.763   2.806
34843SOL     OW 4552   5.849   5.912   2.582
34843SOL    HW1 4553   5.770   5.963   2.548
34843SOL    HW2 4554   5.840   5.897   2.680
34844SOL     OW 4555   6.780   7.198   1.893
34844SOL    HW1 4556   6.786   7.105   1.930
34844SOL    HW2 4557   6.721   7.198   1.813
34845SOL     OW 4558   6.408   6.588   3.234
34845SOL    HW1 4559   6.448   6.587   3.142
34845SOL    HW2 4560   6.418   6.680   3.274
34846SOL     OW 4561   6.502   6.496   2.153
34846SOL    HW1 4562   6.565   6.534   2.085
34846SOL    HW2 4563   6.542   6.413   2.192
34847SOL     OW 4564   7.090   7.193   1.906
34847SOL    HW1 4565   6.998   7.230   1.913
34847SOL    HW2 4566   7.128   7.213   1.816
34848SOL     OW 4567   5.958   6.874   3.352
34848SOL    HW1 4568   5.945   6.967   3.318
34848SOL    HW2 4569   5.874   6.822   3.339
34849SOL     OW 4570   7.200   6.878   3.151
34849SOL    HW1 4571   7.260   6.881   3.231
34849SOL    HW2 4572   7.125   6.942   3.164
34850SOL     OW 4573   6.625   6.684   2.558
34850SOL    HW1 4574   6.555   6.637   2.612
34850SOL    HW2 4575   6.684   6.616   2.515
34851SOL     OW 4576   6.600   5.822   2.833
34851SOL    HW1 4577   6.592   5.786   2.740
34851SOL    HW2 4578   6.598   5.746   2.898
34852SOL     OW 4579   6.176   7.073   2.353
34852SOL    HW1 4580   6.218   7.015   2.283
34852SOL    HW2 4581   6.132   7.152   2.309
34853SOL     OW 4582   7.295   5.971   3.243
34853SOL    HW1 4583   7.368   6.040   3.247
34853SOL    HW2 4584   7.323   5.896   3.184
34854SOL     OW 4585   5.841   6.934   2.152
34854SOL    HW1 4586   5.745   6.935   2.125
34854SOL    HW2 4587   5.853   6.987   2.236
34855SOL     OW 4588   5.691   6.599   3.588
34855SOL    HW1 4589   5.614   6.566   3.642
34855SOL    HW2 4590   5.776   6.569   3.630
34856SOL     OW 4591   6.258   5.789   3.351
34856SOL    HW1 4592   6.348   5.773   3.311
34856SOL    HW2 4593   6.266   5.794   3.450
34857SOL     OW 4594   5.661   5.931   1.895
34857SOL    HW1 4595   5.569   5.903   1.866
34857SOL    HW2 4596   5.692   6.008   1.839
34858SOL     OW 4597   7.026   6.442   3.260
34858SOL    HW1 4598   6.969   6.494   3.197
34858SOL    HW2 4599   7.122   6.454   3.236
34859SOL     OW 4600   5.658   5.752   2.180
34859SOL    HW1 4601   5.641   5.835   2.126
34859SOL    HW2 4602   5.748   5.715   2.158
34860SOL     OW 4603   6.769   6.921   1.981
34860SOL    HW1 4604   6.670   6.910   1.983
34860SOL    HW2 4605   6.803   6.936   2.074
34861SOL     OW 4606   6.199   6.428   3.293
34861SOL    HW1 4607   6.255   6.509   3.276
34861SOL    HW2 4608   6.258   6.348   3.296
34862SOL     OW 4609   7.079   7.353   2.821
34862SOL    HW1 4610   7.112   7.417   2.752
34862SOL    HW2 4611   7.145   7.347   2.896
34863SOL     OW 4612   6.302   6.151   3.570
34863SOL    HW1 4613   6.321   6.216   3.644
34863SOL    HW2 4614   6.362   6.071   3.579
34864SOL     OW 4615   7.036   6.806   3.495
34864SOL    HW1 4616   7.027   6.796   3.594
34864SOL    HW2 4617   7.132   6.799   3.469
34865SOL     OW 4618   5.976   7.327   3.422
34865SOL    HW1 4619   5.885   7.368   3.420
34865SOL    HW2 4620   5.969   7.233   3.454
34866SOL     OW 4621   7.260   6.469   3.116
34866SOL    HW1 4622   7.233   6.380   3.079
34866SOL    HW2 4623   7.261   6.537   3.043
34867SOL     OW 4624   6.811   5.911   2.311
34867SOL    HW1 4625   6.876   5.837   2.300
34867SOL    HW2 4626   6.831   5.961   2.395
34868SOL     OW 4627   6.180   6.331   2.514
34868SOL    HW1 4628   6.230   6.416   2.495
34868SOL    HW2 4629   6.092   6.333   2.466
34869SOL     OW 4630   7.363   5.928   3.504
34869SOL    HW1 4631   7.346   5.959   3.410
34869SOL    HW2 4632   7.279   5.891   3.542
34870SOL     OW 4633   7.316   6.520   3.379
34870SOL    HW1 4634   7.354   6.611   3.394
34870SOL    HW2 4635   7.308   6.503   3.280
34871SOL     OW 4636   6.445   6.960   1.878
34871SOL    HW1 4637   6.399   6.975   1.966
34871SOL    HW2 4638   6.489   7.045   1.848
34872SOL     OW 4639   6.247   7.376   2.815
34872SOL    HW1 4640   6.201   7.464   2.802
34872SOL    HW2 4641   6.346   7.388   2.808
34873SOL     OW 4642   6.445   6.542   2.723
34873SOL    HW1 4643   6.499   6.473   2.771
34873SOL    HW2 4644   6.413   6.611   2.789
34874SOL     OW 4645   6.669   6.570   1.949
34874SOL    HW1 4646   6.646   6.623   1.867
34874SOL    HW2 4647   6.750   6.514   1.930
34875SOL     OW 4648   7.447   7.155   2.713
34875SOL    HW1 4649   7.376   7.143   2.643
34875SOL    HW2 4650   7.448   7.076   2.773
34876SOL     OW 4651   5.807   6.900   3.706
34876SOL    HW1 4652   5.742   6.827   3.685
34876SOL    HW2 4653   5.811   6.914   3.804
34877SOL     OW 4654   5.665   6.826   2.515
34877SOL    HW1 4655   5.664   6.779   2.603
34877SOL    HW2 4656   5.747   6.798   2.464
34878SOL     OW 4657   6.258   6.977   3.486
34878SOL    HW1 4658   6.180   6.927   3.524
34878SOL    HW2 4659   6.255   7.072   3.517
34879SOL     OW 4660   7.410   5.778   3.089
34879SOL    HW1 4661   7.406   5.688   3.133
34879SOL    HW2 4662   7.413   5.767   2.990
34880SOL     OW 4663   6.014   6.010   2.382
34880SOL    HW1 4664   6.044   5.938   2.320
34880SOL    HW2 4665   5.975   5.970   2.465
34881SOL     OW 4666   7.291   7.073   2.966
34881SOL    HW1 4667   7.198   7.048   2.939
34881SOL    HW2 4668   7.317   7.023   3.048
34882SOL     OW 4669   5.903   6.133   3.142
34882SOL    HW1 4670   5.941   6.074   3.214
34882SOL    HW2 4671   5.943   6.107   3.054
34883SOL     OW 4672   6.398   7.172   2.549
34883SOL    HW1 4673   6.430   7.182   2.455
34883SOL    HW2 4674   6.319   7.110   2.551
34884SOL     OW 4675   7.010   5.800   2.974
34884SOL    HW1 4676   7.062   5.735   3.029
34884SOL    HW2 4677   6.961   5.863   3.035
34885SOL     OW 4678   6.587   5.620   3.016
34885SOL    HW1 4679   6.524   5.548   2.985
34885SOL    HW2 4680   6.680   5.584   3.016
34886SOL     OW 4681   6.356   6.916   2.163
34886SOL    HW1 4682   6.310   6.829   2.180
34886SOL    HW2 4683   6.447   6.913   2.204
34887SOL     OW 4684   6.204   7.153   3.146
34887SOL    HW1 4685   6.199   7.235   3.203
34887SOL    HW2 4686   6.293   7.150   3.101
34888SOL     OW 4687   6.938   5.638   2.030
34888SOL    HW1 4688   6.973   5.597   1.946
34888SOL    HW2 4689   6.848   5.600   2.050
34889SOL     OW 4690   6.886   6.039   2.553
34889SOL    HW1 4691   6.827   6.119   2.557
34889SOL    HW2 4692   6.901   6.004   2.646
34890SOL     OW 4693   7.179   5.807   2.744
34890SOL    HW1 4694   7.095   5.806   2.798
34890SOL    HW2 4695   7.181   5.890   2.688
34891SOL     OW 4696   5.625   6.663   2.162
34891SOL    HW1 4697   5.724   6.652   2.153
34891SOL    HW2 4698   5.585   6.577   2.194
34892SOL     OW 4699   6.461   7.232   2.199
34892SOL    HW1 4700   6.384   7.197   2.145
34892SOL    HW2 4701   6.429   7.303   2.261
34893SOL     OW 4702   5.816   6.214   3.837
34893SOL    HW1 4703   5.723   6.212   3.874
34893SOL    HW2 4704   5.817   6.175   3.745
34894SOL     OW 4705   5.811   5.861   4.720
34894SOL    HW1 4706   5.846   5.844   4.812
34894SOL    HW2 4707   5.723   5.816   4.708
34895SOL     OW 4708   5.605   5.954   4.371
34895SOL    HW1 4709   5.523   5.997   4.410
34895SOL    HW2 4710   5.577   5.881   4.308
34896SOL     OW 4711   6.155   6.861   4.889
34896SOL    HW1 4712   6.062   6.854   4.852
34896SOL    HW2 4713   6.166   6.950   4.933
34897SOL     OW 4714   7.141   7.097   4.427
34897SOL    HW1 4715   7.084   7.081   4.508
34897SOL    HW2 4716   7.082   7.107   4.347
34898SOL     OW 4717   6.721   6.289   4.441
34898SOL    HW1 4718   6.778   6.367   4.416
34898SOL    HW2 4719   6.661   6.315   4.517
34899SOL     OW 4720   7.341   6.193   3.955
34899SOL    HW1 4721   7.329   6.180   3.856
34899SOL    HW2 4722   7.311   6.112   4.004
34900SOL     OW 4723   6.354   6.730   4.747
34900SOL    HW1 4724   6.276   6.747   4.807
34900SOL    HW2 4725   6.388   6.817   4.711
34901SOL     OW 4726   6.436   6.384   5.547
34901SOL    HW1 4727   6.432   6.460   5.612
34901SOL    HW2 4728   6.458   6.420   5.456
34902SOL     OW 4729   6.271   6.598   4.389
34902SOL    HW1 4730   6.340   6.582   4.459
34902SOL    HW2 4731   6.198   6.655   4.427
34903SOL     OW 4732   6.272   6.747   5.527
34903SOL    HW1 4733   6.332   6.826   5.541
34903SOL    HW2 4734   6.186   6.778   5.486
34904SOL     OW 4735   5.921   7.021   4.785
34904SOL    HW1 4736   5.843   6.990   4.732
34904SOL    HW2 4737   5.979   7.079   4.728
34905SOL     OW 4738   7.046   7.091   5.063
34905SOL    HW1 4739   7.070   7.185   5.089
34905SOL    HW2 4740   7.030   7.037   5.145
34906SOL     OW 4741   6.024   5.978   5.223
34906SOL    HW1 4742   6.106   5.922   5.232
34906SOL    HW2 4743   5.943   5.920   5.227
34907SOL     OW 4744   7.189   6.033   4.461
34907SOL    HW1 4745   7.115   6.079   4.411
34907SOL    HW2 4746   7.240   6.101   4.514
34908SOL     OW 4747   5.817   7.299   4.207
34908SOL    HW1 4748   5.851   7.376   4.261
34908SOL    HW2 4749   5.861   7.299   4.117
34909SOL     OW 4750   6.713   6.927   5.414
34909SOL    HW1 4751   6.760   6.927   5.502
34909SOL    HW2 4752   6.665   6.840   5.403
34910SOL     OW 4753   5.816   7.020   4.262
34910SOL    HW1 4754   5.790   7.116   4.262
34910SOL    HW2 4755   5.745   6.966   4.307
34911SOL     OW 4756   5.826   6.677   4.610
34911SOL    HW1 4757   5.840   6.593   4.662
34911SOL    HW2 4758   5.771   6.741   4.665
34912SOL     OW 4759   6.206   7.372   5.163
34912SOL    HW1 4760   6.114   7.355   5.198
34912SOL    HW2 4761   6.234   7.464   5.189
34913SOL     OW 4762   6.192   6.550   3.847
34913SOL    HW1 4763   6.199   6.634   3.793
34913SOL    HW2 4764   6.238   6.563   3.935
34914SOL     OW 4765   7.180   5.700   5.204
34914SOL    HW1 4766   7.162   5.767   5.132
34914SOL    HW2 4767   7.177   5.746   5.293
34915SOL     OW 4768   5.708   6.229   4.287
34915SOL    HW1 4769   5.663   6.141   4.304
34915SOL    HW2 4770   5.707   6.283   4.371
34916SOL     OW 4771   7.428   7.353   4.083
34916SOL    HW1 4772   7.482   7.324   4.163
34916SOL    HW2 4773   7.458   7.443   4.054
34917SOL     OW 4774   5.613   7.182   3.841
34917SOL    HW1 4775   5.594   7.086   3.862
34917SOL    HW2 4776   5.580   7.240   3.916
34918SOL     OW 4777   7.275   6.508   4.336
34918SOL    HW1 4778   7.370   6.479   4.344
34918SOL    HW2 4779   7.267   6.573   4.261
34919SOL     OW 4780   7.227   6.694   4.156
34919SOL    HW1 4781   7.313   6.696   4.104
34919SOL    HW2 4782   7.241   6.741   4.244
34920SOL     OW 4783   5.699   6.323   5.321
34920SOL    HW1 4784   5.787   6.310   5.366
34920SOL    HW2 4785   5.686   6.420   5.299
34921SOL     OW 4786   6.199   6.951   4.450
34921SOL    HW1 4787   6.150   6.864   4.459
34921SOL    HW2 4788   6.176   6.994   4.363
34922SOL     OW 4789   6.879   6.814   5.147
34922SOL    HW1 4790   6.916   6.741   5.089
34922SOL    HW2 4791   6.931   6.819   5.232
34923SOL     OW 4792   6.395   5.590   4.226
34923SOL    HW1 4793   6.435   5.681   4.217
34923SOL    HW2 4794   6.295   5.598   4.232
34924SOL     OW 4795   5.783   6.562   4.988
34924SOL    HW1 4796   5.872   6.517   4.974
34924SOL    HW2 4797   5.710   6.497   4.969
34925SOL     OW 4798   7.111   6.585   3.914
34925SOL    HW1 4799   7.048   6.509   3.927
34925SOL    HW2 4800   7.159   6.603   4.000
34926SOL     OW 4801   6.773   7.378   5.340
34926SOL    HW1 4802   6.797   7.438   5.264
34926SOL    HW2 4803   6.780   7.283   5.310
34927SOL     OW 4804   5.903   5.837   5.525
34927SOL    HW1 4805   5.974   5.908   5.531
34927SOL    HW2 4806   5.815   5.876   5.553
34928SOL     OW 4807   7.052   7.003   4.677
34928SOL    HW1 4808   6.993   7.009   4.757
34928SOL    HW2 4809   7.037   6.915   4.631
34929SOL     OW 4810   7.253   7.300   4.296
34929SOL    HW1 4811   7.212   7.277   4.208
34929SOL    HW2 4812   7.235   7.226   4.361
34930SOL     OW 4813   6.184   6.315   3.994
34930SOL    HW1 4814   6.208   6.384   3.926
34930SOL    HW2 4815   6.106   6.348   4.048
34931SOL     OW 4816   6.867   5.931   4.668
34931SOL    HW1 4817   6.781   5.881   4.655
34931SOL    HW2 4818   6.929   5.877   4.724
34932SOL     OW 4819   7.162   7.248   4.031
34932SOL    HW1 4820   7.251   7.294   4.034
34932SOL    HW2 4821   7.141   7.224   3.936
34933SOL     OW 4822   6.393   6.191   5.189
34933SOL    HW1 4823   6.346   6.188   5.278
34933SOL    HW2 4824   6.342   6.136   5.123
34934SOL     OW 4825   6.980   6.055   5.398
34934SOL    HW1 4826   6.960   6.098   5.486
34934SOL    HW2 4827   7.058   5.993   5.407
34935SOL     OW 4828   6.559   6.476   5.296
34935SOL    HW1 4829   6.605   6.392   5.267
34935SOL    HW2 4830   6.503   6.510   5.221
34936SOL     OW 4831   6.577   5.996   4.966
34936SOL    HW1 4832   6.500   6.030   5.020
34936SOL    HW2 4833   6.543   5.945   4.887
34937SOL     OW 4834   6.627   6.287   4.153
34937SOL    HW1 4835   6.653   6.283   4.249
34937SOL    HW2 4836   6.542   6.236   4.139
34938SOL     OW 4837   5.662   6.397   4.513
34938SOL    HW1 4838   5.761   6.385   4.522
34938SOL    HW2 4839   5.638   6.492   4.534
34939SOL     OW 4840   5.716   7.407   5.295
34939SOL    HW1 4841   5.706   7.392   5.394
34939SOL    HW2 4842   5.630   7.443   5.259
34940SOL     OW 4843   6.451   5.934   3.919
34940SOL    HW1 4844   6.510   5.997   3.870
34940SOL    HW2 4845   6.470   5.840   3.890
34941SOL     OW 4846   7.305   6.171   5.555
34941SOL    HW1 4847   7.279   6.260   5.519
34941SOL    HW2 4848   7.303   6.103   5.482
34942SOL     OW 4849   6.948   6.730   4.269
34942SOL    HW1 4850   7.031   6.701   4.221
34942SOL    HW2 4851   6.899   6.797   4.213
34943SOL     OW 4852   6.136   5.782   4.609
34943SOL    HW1 4853   6.131   5.777   4.709
34943SOL    HW2 4854   6.138   5.878   4.580
34944SOL     OW 4855   6.594   7.042   4.201
34944SOL    HW1 4856   6.548   7.114   4.149
34944SOL    HW2 4857   6.590   7.062   4.299
34945SOL     OW 4858   5.937   7.387   4.577
34945SOL    HW1 4859   5.987   7.301   4.583
34945SOL    HW2 4860   6.002   7.464   4.574
34946SOL     OW 4861   7.381   6.652   4.597
34946SOL    HW1 4862   7.319   6.637   4.521
34946SOL    HW2 4863   7.329   6.663   4.682
34947SOL     OW 4864   6.813   7.136   5.230
34947SOL    HW1 4865   6.819   7.059   5.294
34947SOL    HW2 4866   6.761   7.110   5.150
34948SOL     OW 4867   5.907   6.529   3.966
34948SOL    HW1 4868   5.989   6.568   3.924
34948SOL    HW2 4869   5.880   6.447   3.917
34949SOL     OW 4870   7.044   6.321   4.452
34949SOL    HW1 4871   7.039   6.256   4.527
34949SOL    HW2 4872   7.124   6.380   4.465
34950SOL     OW 4873   6.047   6.852   5.451
34950SOL    HW1 4874   5.997   6.853   5.365
34950SOL    HW2 4875   5.984   6.834   5.527
34951SOL     OW 4876   6.697   7.362   3.961
34951SOL    HW1 4877   6.637   7.300   4.011
34951SOL    HW2 4878   6.728   7.318   3.876
34952SOL     OW 4879   5.788   5.871   5.222
34952SOL    HW1 4880   5.708   5.931   5.209
34952SOL    HW2 4881   5.778   5.822   5.308
34953SOL     OW 4882   7.218   6.963   3.805
34953SOL    HW1 4883   7.186   7.057   3.795
34953SOL    HW2 4884   7.142   6.900   3.793
34954SOL     OW 4885   6.050   7.329   4.047
34954SOL    HW1 4886   6.083   7.368   4.133
34954SOL    HW2 4887   6.126   7.322   3.982
34955SOL     OW 4888   6.986   5.693   4.150
34955SOL    HW1 4889   6.962   5.656   4.060
34955SOL    HW2 4890   7.085   5.709   4.154
34956SOL     OW 4891   5.835   7.371   4.965
34956SOL    HW1 4892   5.892   7.306   5.015
34956SOL    HW2 4893   5.819   7.338   4.872
34957SOL     OW 4894   6.526   7.284   4.628
34957SOL    HW1 4895   6.606   7.227   4.649
34957SOL    HW2 4896   6.477   7.244   4.551
34958SOL     OW 4897   5.968   6.286   4.204
34958SOL    HW1 4898   6.013   6.196   4.201
34958SOL    HW2 4899   5.874   6.275   4.237
34959SOL     OW 4900   7.133   5.808   5.453
34959SOL    HW1 4901   7.128   5.845   5.545
34959SOL    HW2 4902   7.061   5.739   5.441
34960SOL     OW 4903   6.200   5.708   3.841
34960SOL    HW1 4904   6.298   5.686   3.848
34960SOL    HW2 4905   6.169   5.691   3.748
34961SOL     OW 4906   6.367   5.850   5.473
34961SOL    HW1 4907   6.434   5.789   5.516
34961SOL    HW2 4908   6.294   5.869   5.538
34962SOL     OW 4909   6.474   7.100   4.919
34962SOL    HW1 4910   6.451   7.075   4.825
34962SOL    HW2 4911   6.535   7.031   4.958
34963SOL     OW 4912   6.937   6.176   5.157
34963SOL    HW1 4913   6.965   6.133   5.242
34963SOL    HW2 4914   6.962   6.272   5.158
34964SOL     OW 4915   6.389   6.988   4.648
34964SOL    HW1 4916   6.479   7.002   4.606
34964SOL    HW2 4917   6.318   6.990   4.577
34965SOL     OW 4918   6.508   6.089   4.623
34965SOL    HW1 4919   6.483   6.080   4.527
34965SOL    HW2 4920   6.556   6.007   4.654
34966SOL     OW 4921   6.125   5.650   4.236
34966SOL    HW1 4922   6.044   5.651   4.294
34966SOL    HW2 4923   6.128   5.733   4.181
34967SOL     OW 4924   7.020   6.774   3.765
34967SOL    HW1 4925   7.052   6.698   3.822
34967SOL    HW2 4926   6.928   6.801   3.795
34968SOL     OW 4927   5.883   5.621   3.895
34968SOL    HW1 4928   5.932   5.705   3.874
34968SOL    HW2 4929   5.945   5.556   3.940
34969SOL     OW 4930   6.521   5.822   4.204
34969SOL    HW1 4931   6.473   5.863   4.126
34969SOL    HW2 4932   6.620   5.820   4.185
34970SOL     OW 4933   6.662   6.269   5.188
34970SOL    HW1 4934   6.582   6.208   5.191
34970SOL    HW2 4935   6.743   6.216   5.164
34971SOL     OW 4936   6.813   7.156   4.517
34971SOL    HW1 4937   6.834   7.230   4.452
34971SOL    HW2 4938   6.881   7.156   4.590
34972SOL     OW 4939   6.045   6.738   4.465
34972SOL    HW1 4940   5.974   6.711   4.530
34972SOL    HW2 4941   6.019   6.710   4.372
34973SOL     OW 4942   6.857   7.383   4.315
34973SOL    HW1 4943   6.901   7.447   4.251
34973SOL    HW2 4944   6.807   7.435   4.385
34974SOL     OW 4945   6.618   6.135   3.740
34974SOL    HW1 4946   6.577   6.217   3.701
34974SOL    HW2 4947   6.682   6.161   3.813
34975SOL     OW 4948   5.664   6.142   5.110
34975SOL    HW1 4949   5.756   6.141   5.069
34975SOL    HW2 4950   5.658   6.216   5.177
34976SOL     OW 4951   6.147   5.808   4.871
34976SOL    HW1 4952   6.185   5.724   4.908
34976SOL    HW2 4953   6.059   5.827   4.915
34977SOL     OW 4954   6.452   6.040   4.366
34977SOL    HW1 4955   6.420   6.112   4.304
34977SOL    HW2 4956   6.476   5.959   4.313
34978SOL     OW 4957   6.603   5.625   4.477
34978SOL    HW1 4958   6.531   5.630   4.408
34978SOL    HW2 4959   6.579   5.556   4.546
34979SOL     OW 4960   7.015   6.759   4.591
34979SOL    HW1 4961   6.960   6.675   4.584
34979SOL    HW2 4962   7.041   6.788   4.499
34980SOL     OW 4963   7.052   6.176   4.716
34980SOL    HW1 4964   7.022   6.081   4.723
34980SOL    HW2 4965   7.125   6.192   4.782
34981SOL     OW 4966   7.443   6.419   4.101
34981SOL    HW1 4967   7.485   6.355   4.165
34981SOL    HW2 4968   7.405   6.368   4.023
34982SOL     OW 4969   6.074   6.971   3.898
34982SOL    HW1 4970   5.987   6.956   3.945
34982SOL    HW2 4971   6.057   6.997   3.803
34983SOL     OW 4972   7.250   6.866   4.381
34983SOL    HW1 4973   7.349   6.874   4.395
34983SOL    HW2 4974   7.205   6.950   4.412
34984SOL     OW 4975   6.976   6.161   3.802
34984SOL    HW1 4976   6.922   6.140   3.883
34984SOL    HW2 4977   7.067   6.120   3.811
34985SOL     OW 4978   6.113   5.842   4.052
34985SOL    HW1 4979   6.140   5.783   3.977
34985SOL    HW2 4980   6.113   5.937   4.021
34986SOL     OW 4981   7.340   6.809   5.312
34986SOL    HW1 4982   7.431   6.770   5.299
34986SOL    HW2 4983   7.348   6.905   5.336
34987SOL     OW 4984   6.650   6.933   5.064
34987SOL    HW1 4985   6.570   6.910   5.119
34987SOL    HW2 4986   6.733   6.907   5.113
34988SOL     OW 4987   7.178   7.215   5.349
34988SOL    HW1 4988   7.205   7.249   5.259
34988SOL    HW2 4989   7.257   7.177   5.395
34989SOL     OW 4990   6.697   6.781   4.824
34989SOL    HW1 4991   6.657   6.825   4.905
34989SOL    HW2 4992   6.656   6.818   4.741
34990SOL     OW 4993   7.224   6.685   4.803
34990SOL    HW1 4994   7.229   6.766   4.862
34990SOL    HW2 4995   7.138   6.687   4.752
34991SOL     OW 4996   6.501   5.675   5.126
34991SOL    HW1 4997   6.526   5.655   5.031
34991SOL    HW2 4998   6.573   5.731   5.168
34992SOL     OW 4999   6.566   6.702   5.443
34992SOL    HW1 5000   6.467   6.708   5.453
34992SOL    HW2 5001   6.589   6.622   5.387
34993SOL     OW 5002   6.291   6.636   4.092
34993SOL    HW1 5003   6.277   6.643   4.191
34993SOL    HW2 5004   6.375   6.585   4.074
34994SOL     OW 5005   5.996   6.399   4.975
34994SOL    HW1 5006   6.082   6.411   5.025
34994SOL    HW2 5007   5.954   6.312   5.002
34995SOL     OW 5008   6.860   5.972   4.986
34995SOL    HW1 5009   6.881   6.046   5.050
34995SOL    HW2 5010   6.771   5.989   4.943
34996SOL     OW 5011   5.650   7.150   5.055
34996SOL    HW1 5012   5.604   7.232   5.021
34996SOL    HW2 5013   5.748   7.169   5.064
34997SOL     OW 5014   5.953   6.686   4.225
34997SOL    HW1 5015   5.946   6.769   4.169
34997SOL    HW2 5016   5.957   6.606   4.165
34998SOL     OW 5017   6.152   6.123   4.589
34998SOL    HW1 5018   6.164   6.189   4.515
34998SOL    HW2 5019   6.198   6.157   4.672
34999SOL     OW 5020   6.838   6.934   4.112
34999SOL    HW1 5021   6.888   7.011   4.152
34999SOL    HW2 5022   6.743   6.936   4.144
35000SOL     OW 5023   6.858   7.031   4.866
35000SOL    HW1 5024   6.905   7.044   4.953
35000SOL    HW2 5025   6.792   6.957   4.875
35001SOL     OW 5026   7.168   6.225   4.196
35001SOL    HW1 5027   7.137   6.286   4.269
35001SOL    HW2 5028   7.218   6.277   4.127
35002SOL     OW 5029   5.940   7.096   5.053
35002SOL    HW1 5030   5.919   7.052   4.966
35002SOL    HW2 5031   6.037   7.122   5.056
35003SOL     OW 5032   5.988   6.337   5.322
35003SOL    HW1 5033   6.056   6.392   5.275
35003SOL    HW2 5034   6.028   6.249   5.349
35004SOL     OW 5035   7.173   6.365   5.394
35004SOL    HW1 5036   7.081   6.403   5.389
35004SOL    HW2 5037   7.233   6.412   5.329
35005SOL     OW 5038   6.599   5.691   5.494
35005SOL    HW1 5039   6.605   5.776   5.442
35005SOL    HW2 5040   6.631   5.615   5.437
35006SOL     OW 5041   6.090   5.636   5.464
35006SOL    HW1 5042   6.048   5.579   5.394
35006SOL    HW2 5043   6.024   5.705   5.496
35007SOL     OW 5044   6.159   6.456   4.753
35007SOL    HW1 5045   6.203   6.545   4.744
35007SOL    HW2 5046   6.096   6.456   4.830
35008SOL     OW 5047   6.946   6.448   4.769
35008SOL    HW1 5048   6.871   6.448   4.703
35008SOL    HW2 5049   6.983   6.356   4.778
35009SOL     OW 5050   6.795   6.111   3.999
35009SOL    HW1 5051   6.808   6.027   4.053
35009SOL    HW2 5052   6.766   6.185   4.059
35010SOL     OW 5053   5.893   5.799   4.955
35010SOL    HW1 5054   5.870   5.836   5.045
35010SOL    HW2 5055   5.863   5.704   4.949
35011SOL     OW 5056   5.623   6.896   5.006
35011SOL    HW1 5057   5.676   6.847   5.074
35011SOL    HW2 5058   5.645   6.994   5.011
35012SOL     OW 5059   6.318   6.220   4.788
35012SOL    HW1 5060   6.377   6.194   4.712
35012SOL    HW2 5061   6.290   6.316   4.777
35013SOL     OW 5062   7.314   6.521   5.578
35013SOL    HW1 5063   7.268   6.514   5.489
35013SOL    HW2 5064   7.252   6.565   5.644
35014SOL     OW 5065   5.893   5.649   4.342
35014SOL    HW1 5066   5.882   5.743   4.375
35014SOL    HW2 5067   5.888   5.586   4.419
35015SOL     OW 5068   7.208   5.953   4.098
35015SOL    HW1 5069   7.210   5.877   4.162
35015SOL    HW2 5070   7.160   6.030   4.138
35016SOL     OW 5071   6.609   6.352   4.690
35016SOL    HW1 5072   6.624   6.373   4.786
35016SOL    HW2 5073   6.579   6.257   4.681
35017SOL     OW 5074   6.566   7.159   5.424
35017SOL    HW1 5075   6.546   7.203   5.336
35017SOL    HW2 5076   6.605   7.068   5.408
35018SOL     OW 5077   7.445   7.104   5.329
35018SOL    HW1 5078   7.459   7.131   5.234
35018SOL    HW2 5079   7.528   7.126   5.382
35019SOL     OW 5080   5.936   6.484   5.528
35019SOL    HW1 5081   6.012   6.528   5.576
35019SOL    HW2 5082   5.971   6.437   5.446
35020SOL     OW 5083   7.126   5.860   3.849
35020SOL    HW1 5084   7.065   5.785   3.872
35020SOL    HW2 5085   7.148   5.912   3.932
35021SOL     OW 5086   6.889   6.424   3.766
35021SOL    HW1 5087   6.923   6.331   3.781
35021SOL    HW2 5088   6.907   6.451   3.671
35022SOL     OW 5089   6.654   6.919   4.573
35022SOL    HW1 5090   6.661   6.835   4.518
35022SOL    HW2 5091   6.716   6.988   4.537
35023SOL     OW 5092   5.905   6.396   4.673
35023SOL    HW1 5093   5.998   6.432   4.678
35023SOL    HW2 5094   5.899   6.311   4.725
35024SOL     OW 5095   5.925   6.095   4.730
35024SOL    HW1 5096   5.873   6.012   4.713
35024SOL    HW2 5097   6.002   6.100   4.666
35025SOL     OW 5098   6.724   5.966   5.402
35025SOL    HW1 5099   6.679   6.029   5.466
35025SOL    HW2 5100   6.817   5.997   5.385
35026SOL     OW 5101   6.746   5.793   5.201
35026SOL    HW1 5102   6.746   5.857   5.278
35026SOL    HW2 5103   6.774   5.841   5.118
35027SOL     OW 5104   5.594   6.912   3.924
35027SOL    HW1 5105   5.501   6.933   3.893
35027SOL    HW2 5106   5.604   6.813   3.937
35028SOL     OW 5107   5.674   7.387   4.651
35028SOL    HW1 5108   5.632   7.301   4.624
35028SOL    HW2 5109   5.768   7.390   4.617
35029SOL     OW 5110   6.090   7.154   4.634
35029SOL    HW1 5111   6.156   7.228   4.643
35029SOL    HW2 5112   6.134   7.075   4.592
35030SOL     OW 5113   6.588   6.382   4.962
35030SOL    HW1 5114   6.629   6.350   5.048
35030SOL    HW2 5115   6.492   6.355   4.959
35031SOL     OW 5116   5.626   6.130   4.838
35031SOL    HW1 5117   5.711   6.097   4.797
35031SOL    HW2 5118   5.639   6.145   4.936
35032SOL     OW 5119   5.775   6.106   5.446
35032SOL    HW1 5120   5.834   6.066   5.376
35032SOL    HW2 5121   5.717   6.177   5.405
35033SOL     OW 5122   6.955   6.536   5.384
35033SOL    HW1 5123   6.994   6.625   5.404
35033SOL    HW2 5124   6.965   6.516   5.287
35034SOL     OW 5125   6.401   6.158   4.049
35034SOL    HW1 5126   6.408   6.069   4.003
35034SOL    HW2 5127   6.307   6.192   4.041
35035SOL     OW 5128   7.243   6.190   4.930
35035SOL    HW1 5129   7.205   6.121   4.992
35035SOL    HW2 5130   7.325   6.154   4.886
35036SOL     OW 5131   5.838   7.150   5.468
35036SOL    HW1 5132   5.808   7.207   5.544
35036SOL    HW2 5133   5.831   7.053   5.494
35037SOL     OW 5134   6.257   6.050   4.993
35037SOL    HW1 5135   6.223   5.961   4.963
35037SOL    HW2 5136   6.283   6.104   4.913
35038SOL     OW 5137   6.516   7.264   5.189
35038SOL    HW1 5138   6.492   7.246   5.094
35038SOL    HW2 5139   6.546   7.358   5.199
35039SOL     OW 5140   6.059   6.086   3.915
35039SOL    HW1 5141   6.120   6.166   3.919
35039SOL    HW2 5142   5.964   6.117   3.922
35040SOL     OW 5143   5.745   6.723   5.190
35040SOL    HW1 5144   5.767   6.662   5.266
35040SOL    HW2 5145   5.755   6.674   5.104
35041SOL     OW 5146   6.933   6.645   4.958
35041SOL    HW1 5147   6.957   6.582   4.884
35041SOL    HW2 5148   6.843   6.685   4.940
35042SOL     OW 5149   6.888   6.441   4.033
35042SOL    HW1 5150   6.802   6.410   4.075
35042SOL    HW2 5151   6.884   6.427   3.934
35043SOL     OW 5152   7.345   7.333   4.878
35043SOL    HW1 5153   7.406   7.363   4.805
35043SOL    HW2 5154   7.307   7.244   4.856
35044SOL     OW 5155   6.838   7.317   4.852
35044SOL    HW1 5156   6.922   7.322   4.798
35044SOL    HW2 5157   6.815   7.221   4.870
35045SOL     OW 5158   5.669   6.844   4.746
35045SOL    HW1 5159   5.664   6.843   4.846
35045SOL    HW2 5160   5.586   6.803   4.708
35046SOL     OW 5161   6.274   7.248   5.440
35046SOL    HW1 5162   6.218   7.329   5.449
35046SOL    HW2 5163   6.326   7.252   5.354
35047SOL     OW 5164   7.312   5.721   4.247
35047SOL    HW1 5165   7.385   5.704   4.180
35047SOL    HW2 5166   7.281   5.634   4.285
35048SOL     OW 5167   6.974   7.159   4.201
35048SOL    HW1 5168   7.041   7.171   4.127
35048SOL    HW2 5169   6.934   7.248   4.224
35049SOL     OW 5170   5.716   7.380   5.575
35049SOL    HW1 5171   5.675   7.306   5.628
35049SOL    HW2 5172   5.780   7.431   5.633
35050SOL     OW 5173   6.866   6.513   4.396
35050SOL    HW1 5174   6.926   6.432   4.398
35050SOL    HW2 5175   6.906   6.582   4.336
35051SOL     OW 5176   6.416   6.859   5.146
35051SOL    HW1 5177   6.411   6.892   5.241
35051SOL    HW2 5178   6.330   6.878   5.100
35052SOL     OW 5179   6.258   7.202   3.878
35052SOL    HW1 5180   6.267   7.212   3.779
35052SOL    HW2 5181   6.218   7.113   3.899
35053SOL     OW 5182   7.236   7.306   5.118
35053SOL    HW1 5183   7.289   7.316   5.034
35053SOL    HW2 5184   7.209   7.396   5.152
35054SOL     OW 5185   7.427   5.761   4.687
35054SOL    HW1 5186   7.466   5.676   4.651
35054SOL    HW2 5187   7.329   5.763   4.668
35055SOL     OW 5188   5.849   5.912   4.444
35055SOL    HW1 5189   5.770   5.963   4.410
35055SOL    HW2 5190   5.840   5.897   4.542
35056SOL     OW 5191   6.780   7.198   3.755
35056SOL    HW1 5192   6.786   7.105   3.792
35056SOL    HW2 5193   6.721   7.198   3.675
35057SOL     OW 5194   6.408   6.588   5.096
35057SOL    HW1 5195   6.448   6.587   5.004
35057SOL    HW2 5196   6.418   6.680   5.136
35058SOL     OW 5197   6.502   6.496   4.015
35058SOL    HW1 5198   6.565   6.534   3.947
35058SOL    HW2 5199   6.542   6.413   4.054
35059SOL     OW 5200   7.090   7.193   3.768
35059SOL    HW1 5201   6.998   7.230   3.775
35059SOL    HW2 5202   7.128   7.213   3.678
35060SOL     OW 5203   5.958   6.874   5.214
35060SOL    HW1 5204   5.945   6.967   5.180
35060SOL    HW2 5205   5.874   6.822   5.201
35061SOL     OW 5206   7.200   6.878   5.013
35061SOL    HW1 5207   7.260   6.881   5.093
35061SOL    HW2 5208   7.125   6.942   5.026
35062SOL     OW 5209   6.625   6.684   4.420
35062SOL    HW1 5210   6.555   6.637   4.474
35062SOL    HW2 5211   6.684   6.616   4.377
35063SOL     OW 5212   6.600   5.822   4.695
35063SOL    HW1 5213   6.592   5.786   4.602
35063SOL    HW2 5214   6.598   5.746   4.760
35064SOL     OW 5215   6.176   7.073   4.215
35064SOL    HW1 5216   6.218   7.015   4.145
35064SOL    HW2 5217   6.132   7.152   4.171
35065SOL     OW 5218   7.295   5.971   5.105
35065SOL    HW1 5219   7.368   6.040   5.109
35065SOL    HW2 5220   7.323   5.896   5.046
35066SOL     OW 5221   5.841   6.934   4.014
35066SOL    HW1 5222   5.745   6.935   3.987
35066SOL    HW2 5223   5.853   6.987   4.098
35067SOL     OW 5224   5.691   6.599   5.450
35067SOL    HW1 5225   5.614   6.566   5.504
35067SOL    HW2 5226   5.776   6.569   5.492
35068SOL     OW 5227   6.258   5.789   5.213
35068SOL    HW1 5228   6.348   5.773   5.173
35068SOL    HW2 5229   6.266   5.794   5.312
35069SOL     OW 5230   5.661   5.931   3.757
35069SOL    HW1 5231   5.569   5.903   3.728
35069SOL    HW2 5232   5.692   6.008   3.701
35070SOL     OW 5233   7.026   6.442   5.122
35070SOL    HW1 5234   6.969   6.494   5.059
35070SOL    HW2 5235   7.122   6.454   5.098
35071SOL     OW 5236   5.658   5.752   4.042
35071SOL    HW1 5237   5.641   5.835   3.988
35071SOL    HW2 5238   5.748   5.715   4.020
35072SOL     OW 5239   6.769   6.921   3.843
35072SOL    HW1 5240   6.670   6.910   3.845
35072SOL    HW2 5241   6.803   6.936   3.936
35073SOL     OW 5242   6.199   6.428   5.155
35073SOL    HW1 5243   6.255   6.509   5.138
35073SOL    HW2 5244   6.258   6.348   5.158
35074SOL     OW 5245   7.079   7.353   4.683
35074SOL    HW1 5246   7.112   7.417   4.614
35074SOL    HW2 5247   7.145   7.347   4.758
35075SOL     OW 5248   6.302   6.151   5.432
35075SOL    HW1 5249   6.321   6.216   5.506
35075SOL    HW2 5250   6.362   6.071   5.441
35076SOL     OW 5251   7.036   6.806   5.357
35076SOL    HW1 5252   7.027   6.796   5.456
35076SOL    HW2 5253   7.132   6.799   5.331
35077SOL     OW 5254   5.976   7.327   5.284
35077SOL    HW1 5255   5.885   7.368   5.282
35077SOL    HW2 5256   5.969   7.233   5.316
35078SOL     OW 5257   7.260   6.469   4.978
35078SOL    HW1 5258   7.233   6.380   4.941
35078SOL    HW2 5259   7.261   6.537   4.905
35079SOL     OW 5260   6.811   5.911   4.173
35079SOL    HW1 5261   6.876   5.837   4.162
35079SOL    HW2 5262   6.831   5.961   4.257
35080SOL     OW 5263   6.180   6.331   4.376
35080SOL    HW1 5264   6.230   6.416   4.357
35080SOL    HW2 5265   6.092   6.333   4.328
35081SOL     OW 5266   7.363   5.928   5.366
35081SOL    HW1 5267   7.346   5.959   5.272
35081SOL    HW2 5268   7.279   5.891   5.404
35082SOL     OW 5269   7.316   6.520   5.241
35082SOL    HW1 5270   7.354   6.611   5.256
35082SOL    HW2 5271   7.308   6.503   5.142
35083SOL     OW 5272   6.445   6.960   3.740
35083SOL    HW1 5273   6.399   6.975   3.828
35083SOL    HW2 5274   6.489   7.045   3.710
35084SOL     OW 5275   6.247   7.376   4.677
35084SOL    HW1 5276   6.201   7.464   4.664
35084SOL    HW2 5277   6.346   7.388   4.670
35085SOL     OW 5278   6.445   6.542   4.585
35085SOL    HW1 5279   6.499   6.473   4.633
35085SOL    HW2 5280   6.413   6.611   4.651
35086SOL     OW 5281   6.669   6.570   3.811
35086SOL    HW1 5282   6.646   6.623   3.729
35086SOL    HW2 5283   6.750   6.514   3.792
35087SOL     OW 5284   7.447   7.155   4.575
35087SOL    HW1 5285   7.376   7.143   4.505
35087SOL    HW2 5286   7.448   7.076   4.635
35088SOL     OW 5287   5.807   6.900   5.568
35088SOL    HW1 5288   5.742   6.827   5.547
35088SOL    HW2 5289   5.811   6.914   5.666
35089SOL     OW 5290   5.665   6.826   4.377
35089SOL    HW1 5291   5.664   6.779   4.465
35089SOL    HW2 5292   5.747   6.798   4.326
35090SOL     OW 5293   6.258   6.977   5.348
35090SOL    HW1 5294   6.180   6.927   5.386
35090SOL    HW2 5295   6.255   7.072   5.379
35091SOL     OW 5296   7.410   5.778   4.951
35091SOL    HW1 5297   7.406   5.688   4.995
35091SOL    HW2 5298   7.413   5.767   4.852
35092SOL     OW 5299   6.014   6.010   4.244
35092SOL    HW1 5300   6.044   5.938   4.182
35092SOL    HW2 5301   5.975   5.970   4.327
35093SOL     OW 5302   7.291   7.073   4.828
35093SOL    HW1 5303   7.198   7.048   4.801
35093SOL    HW2 5304   7.317   7.023   4.910
35094SOL     OW 5305   5.903   6.133   5.004
35094SOL    HW1 5306   5.941   6.074   5.076
35094SOL    HW2 5307   5.943   6.107   4.916
35095SOL     OW 5308   6.398   7.172   4.411
35095SOL    HW1 5309   6.430   7.182   4.317
35095SOL    HW2 5310   6.319   7.110   4.413
35096SOL     OW 5311   7.010   5.800   4.836
35096SOL    HW1 5312   7.062   5.735   4.891
35096SOL    HW2 5313   6.961   5.863   4.897
35097SOL     OW 5314   6.587   5.620   4.878
35097SOL    HW1 5315   6.524   5.548   4.847
35097SOL    HW2 5316   6.680   5.584   4.878
35098SOL     OW 5317   6.356   6.916   4.025
35098SOL    HW1 5318   6.310   6.829   4.042
35098SOL    HW2 5319   6.447   6.913   4.066
35099SOL     OW 5320   6.204   7.153   5.008
35099SOL    HW1 5321   6.199   7.235   5.065
35099SOL    HW2 5322   6.293   7.150   4.963
35100SOL     OW 5323   6.938   5.638   3.892
35100SOL    HW1 5324   6.973   5.597   3.808
35100SOL    HW2 5325   6.848   5.600   3.912
35101SOL     OW 5326   6.886   6.039   4.415
35101SOL    HW1 5327   6.827   6.119   4.419
35101SOL    HW2 5328   6.901   6.004   4.508
35102SOL     OW 5329   7.179   5.807   4.606
35102SOL    HW1 5330   7.095   5.806   4.660
35102SOL    HW2 5331   7.181   5.890   4.550
35103SOL     OW 5332   5.625   6.663   4.024
35103SOL    HW1 5333   5.724   6.652   4.015
35103SOL    HW2 5334   5.585   6.577   4.056
35104SOL     OW 5335   6.461   7.232   4.061
35104SOL    HW1 5336   6.384   7.197   4.007
35104SOL    HW2 5337   6.429   7.303   4.123
35105SOL     OW 5338   5.816   6.214   5.699
35105SOL    HW1 5339   5.723   6.212   5.736
35105SOL    HW2 5340   5.817   6.175   5.607
35106SOL     OW 5341   5.811   5.861   6.582
35106SOL    HW1 5342   5.846   5.844   6.674
35106SOL    HW2 5343   5.723   5.816   6.570
35107SOL     OW 5344   5.605   5.954   6.233
35107SOL    HW1 5345   5.523   5.997   6.272
35107SOL    HW2 5346   5.577   5.881   6.170
35108SOL     OW 5347   6.155   6.861   6.751
35108SOL    HW1 5348   6.062   6.854   6.714
35108SOL    HW2 5349   6.166   6.950   6.795
35109SOL     OW 5350   7.141   7.097   6.289
35109SOL    HW1 5351   7.084   7.081   6.370
35109SOL    HW2 5352   7.082   7.107   6.209
35110SOL     OW 5353   7.341   6.193   5.817
35110SOL    HW1 5354   7.329   6.180   5.718
35110SOL    HW2 5355   7.311   6.112   5.866
35111SOL     OW 5356   6.436   6.384   7.409
35111SOL    HW1 5357   6.432   6.460   7.474
35111SOL    HW2 5358   6.458   6.420   7.318
35112SOL     OW 5359   6.272   6.747   7.389
35112SOL    HW1 5360   6.332   6.826   7.403
35112SOL    HW2 5361   6.186   6.778   7.348
35113SOL     OW 5362   5.921   7.021   6.647
35113SOL    HW1 5363   5.843   6.990   6.594
35113SOL    HW2 5364   5.979   7.079   6.590
35114SOL     OW 5365   7.046   7.091   6.925
35114SOL    HW1 5366   7.070   7.185   6.951
35114SOL    HW2 5367   7.030   7.037   7.007
35115SOL     OW 5368   6.024   5.978   7.085
35115SOL    HW1 5369   6.106   5.922   7.094
35115SOL    HW2 5370   5.943   5.920   7.089
35116SOL     OW 5371   7.189   6.033   6.323
35116SOL    HW1 5372   7.115   6.079   6.273
35116SOL    HW2 5373   7.240   6.101   6.376
35117SOL     OW 5374   5.817   7.299   6.069
35117SOL    HW1 5375   5.851   7.376   6.123
35117SOL    HW2 5376   5.861   7.299   5.979
35118SOL     OW 5377   6.713   6.927   7.276
35118SOL    HW1 5378   6.760   6.927   7.364
35118SOL    HW2 5379   6.665   6.840   7.265
35119SOL     OW 5380   5.816   7.020   6.124
35119SOL    HW1 5381   5.790   7.116   6.124
35119SOL    HW2 5382   5.745   6.966   6.169
35120SOL     OW 5383   5.826   6.677   6.472
35120SOL    HW1 5384   5.840   6.593   6.524
35120SOL    HW2 5385   5.771   6.741   6.527
35121SOL     OW 5386   6.206   7.372   7.025
35121SOL    HW1 5387   6.114   7.355   7.060
35121SOL    HW2 5388   6.234   7.464   7.051
35122SOL     OW 5389   6.192   6.550   5.709
35122SOL    HW1 5390   6.199   6.634   5.655
35122SOL    HW2 5391   6.238   6.563   5.797
35123SOL     OW 5392   7.180   5.700   7.066
35123SOL    HW1 5393   7.162   5.767   6.994
35123SOL    HW2 5394   7.177   5.746   7.155
35124SOL     OW 5395   5.708   6.229   6.149
35124SOL    HW1 5396   5.663   6.141   6.166
35124SOL    HW2 5397   5.707   6.283   6.233
35125SOL     OW 5398   7.428   7.353   5.945
35125SOL    HW1 5399   7.482   7.324   6.025
35125SOL    HW2 5400   7.458   7.443   5.916
35126SOL     OW 5401   5.613   7.182   5.703
35126SOL    HW1 5402   5.594   7.086   5.724
35126SOL    HW2 5403   5.580   7.240   5.778
35127SOL     OW 5404   7.275   6.508   6.198
35127SOL    HW1 5405   7.370   6.479   6.206
35127SOL    HW2 5406   7.267   6.573   6.123
35128SOL     OW 5407   7.227   6.694   6.018
35128SOL    HW1 5408   7.313   6.696   5.966
35128SOL    HW2 5409   7.241   6.741   6.106
35129SOL     OW 5410   5.699   6.323   7.183
35129SOL    HW1 5411   5.787   6.310   7.228
35129SOL    HW2 5412   5.686   6.420   7.161
35130SOL     OW 5413   6.199   6.951   6.312
35130SOL    HW1 5414   6.150   6.864   6.321
35130SOL    HW2 5415   6.176   6.994   6.225
35131SOL     OW 5416   6.879   6.814   7.009
35131SOL    HW1 5417   6.916   6.741   6.951
35131SOL    HW2 5418   6.931   6.819   7.094
35132SOL     OW 5419   6.395   5.590   6.088
35132SOL    HW1 5420   6.435   5.681   6.079
35132SOL    HW2 5421   6.295   5.598   6.094
35133SOL     OW 5422   5.783   6.562   6.850
35133SOL    HW1 5423   5.872   6.517   6.836
35133SOL    HW2 5424   5.710   6.497   6.831
35134SOL     OW 5425   7.111   6.585   5.776
35134SOL    HW1 5426   7.048   6.509   5.789
35134SOL    HW2 5427   7.159   6.603   5.862
35135SOL     OW 5428   6.773   7.378   7.202
35135SOL    HW1 5429   6.797   7.438   7.126
35135SOL    HW2 5430   6.780   7.283   7.172
35136SOL     OW 5431   5.903   5.837   7.387
35136SOL    HW1 5432   5.974   5.908   7.393
35136SOL    HW2 5433   5.815   5.876   7.415
35137SOL     OW 5434   7.052   7.003   6.539
35137SOL    HW1 5435   6.993   7.009   6.619
35137SOL    HW2 5436   7.037   6.915   6.493
35138SOL     OW 5437   7.253   7.300   6.158
35138SOL    HW1 5438   7.212   7.277   6.070
35138SOL    HW2 5439   7.235   7.226   6.223
35139SOL     OW 5440   6.184   6.315   5.856
35139SOL    HW1 5441   6.208   6.384   5.788
35139SOL    HW2 5442   6.106   6.348   5.910
35140SOL     OW 5443   6.867   5.931   6.530
35140SOL    HW1 5444   6.781   5.881   6.517
35140SOL    HW2 5445   6.929   5.877   6.586
35141SOL     OW 5446   7.162   7.248   5.893
35141SOL    HW1 5447   7.251   7.294   5.896
35141SOL    HW2 5448   7.141   7.224   5.798
35142SOL     OW 5449   6.393   6.191   7.051
35142SOL    HW1 5450   6.346   6.188   7.140
35142SOL    HW2 5451   6.342   6.136   6.985
35143SOL     OW 5452   6.980   6.055   7.260
35143SOL    HW1 5453   6.960   6.098   7.348
35143SOL    HW2 5454   7.058   5.993   7.269
35144SOL     OW 5455   6.559   6.476   7.158
35144SOL    HW1 5456   6.605   6.392   7.129
35144SOL    HW2 5457   6.503   6.510   7.083
35145SOL     OW 5458   6.577   5.996   6.828
35145SOL    HW1 5459   6.500   6.030   6.882
35145SOL    HW2 5460   6.543   5.945   6.749
35146SOL     OW 5461   5.662   6.397   6.375
35146SOL    HW1 5462   5.761   6.385   6.384
35146SOL    HW2 5463   5.638   6.492   6.396
35147SOL     OW 5464   5.716   7.407   7.157
35147SOL    HW1 5465   5.706   7.392   7.256
35147SOL    HW2 5466   5.630   7.443   7.121
35148SOL     OW 5467   6.451   5.934   5.781
35148SOL    HW1 5468   6.510   5.997   5.732
35148SOL    HW2 5469   6.470   5.840   5.752
35149SOL     OW 5470   7.305   6.171   7.417
35149SOL    HW1 5471   7.279   6.260   7.381
35149SOL    HW2 5472   7.303   6.103   7.344
35150SOL     OW 5473   6.948   6.730   6.131
35150SOL    HW1 5474   7.031   6.701   6.083
35150SOL    HW2 5475   6.899   6.797   6.075
35151SOL     OW 5476   6.136   5.782   6.471
35151SOL    HW1 5477   6.131   5.777   6.571
35151SOL    HW2 5478   6.138   5.878   6.442
35152SOL     OW 5479   6.594   7.042   6.063
35152SOL    HW1 5480   6.548   7.114   6.011
35152SOL    HW2 5481   6.590   7.062   6.161
35153SOL     OW 5482   5.937   7.387   6.439
35153SOL    HW1 5483   5.987   7.301   6.445
35153SOL    HW2 5484   6.002   7.464   6.436
35154SOL     OW 5485   7.381   6.652   6.459
35154SOL    HW1 5486   7.319   6.637   6.383
35154SOL    HW2 5487   7.329   6.663   6.544
35155SOL     OW 5488   6.813   7.136   7.092
35155SOL    HW1 5489   6.819   7.059   7.156
35155SOL    HW2 5490   6.761   7.110   7.012
35156SOL     OW 5491   5.907   6.529   5.828
35156SOL    HW1 5492   5.989   6.568   5.786
35156SOL    HW2 5493   5.880   6.447   5.779
35157SOL     OW 5494   7.044   6.321   6.314
35157SOL    HW1 5495   7.039   6.256   6.389
35157SOL    HW2 5496   7.124   6.380   6.327
35158SOL     OW 5497   6.047   6.852   7.313
35158SOL    HW1 5498   5.997   6.853   7.227
35158SOL    HW2 5499   5.984   6.834   7.389
35159SOL     OW 5500   6.697   7.362   5.823
35159SOL    HW1 5501   6.637   7.300   5.873
35159SOL    HW2 5502   6.728   7.318   5.738
35160SOL     OW 5503   5.788   5.871   7.084
35160SOL    HW1 5504   5.708   5.931   7.071
35160SOL    HW2 5505   5.778   5.822   7.170
35161SOL     OW 5506   7.218   6.963   5.667
35161SOL    HW1 5507   7.186   7.057   5.657
35161SOL    HW2 5508   7.142   6.900   5.655
35162SOL     OW 5509   6.050   7.329   5.909
35162SOL    HW1 5510   6.083   7.368   5.995
35162SOL    HW2 5511   6.126   7.322   5.844
35163SOL     OW 5512   6.986   5.693   6.012
35163SOL    HW1 5513   6.962   5.656   5.922
35163SOL    HW2 5514   7.085   5.709   6.016
35164SOL     OW 5515   5.835   7.371   6.827
35164SOL    HW1 5516   5.892   7.306   6.877
35164SOL    HW2 5517   5.819   7.338   6.734
35165SOL     OW 5518   6.526   7.284   6.490
35165SOL    HW1 5519   6.606   7.227   6.511
35165SOL    HW2 5520   6.477   7.244   6.413
35166SOL     OW 5521   5.968   6.286   6.066
35166SOL    HW1 5522   6.013   6.196   6.063
35166SOL    HW2 5523   5.874   6.275   6.099
35167SOL     OW 5524   7.133   5.808   7.315
35167SOL    HW1 5525   7.128   5.845   7.407
35167SOL    HW2 5526   7.061   5.739   7.303
35168SOL     OW 5527   6.200   5.708   5.703
35168SOL    HW1 5528   6.298   5.686   5.710
35168SOL    HW2 5529   6.169   5.691   5.610
35169SOL     OW 5530   6.367   5.850   7.335
35169SOL    HW1 5531   6.434   5.789   7.378
35169SOL    HW2 5532   6.294   5.869   7.400
35170SOL     OW 5533   6.474   7.100   6.781
35170SOL    HW1 5534   6.451   7.075   6.687
35170SOL    HW2 5535   6.535   7.031   6.820
35171SOL     OW 5536   6.937   6.176   7.019
35171SOL    HW1 5537   6.965   6.133   7.104
35171SOL    HW2 5538   6.962   6.272   7.020
35172SOL     OW 5539   6.389   6.988   6.510
35172SOL    HW1 5540   6.479   7.002   6.468
35172SOL    HW2 5541   6.318   6.990   6.439
35173SOL     OW 5542   6.508   6.089   6.485
35173SOL    HW1 5543   6.483   6.080   6.389
35173SOL    HW2 5544   6.556   6.007   6.516
35174SOL     OW 5545   6.125   5.650   6.098
35174SOL    HW1 5546   6.044   5.651   6.156
35174SOL    HW2 5547   6.128   5.733   6.043
35175SOL     OW 5548   7.020   6.774   5.627
35175SOL    HW1 5549   7.052   6.698   5.684
35175SOL    HW2 5550   6.928   6.801   5.657
35176SOL     OW 5551   5.883   5.621   5.757
35176SOL    HW1 5552   5.932   5.705   5.736
35176SOL    HW2 5553   5.945   5.556   5.802
35177SOL     OW 5554   6.521   5.822   6.066
35177SOL    HW1 5555   6.473   5.863   5.988
35177SOL    HW2 5556   6.620   5.820   6.047
35178SOL     OW 5557   6.662   6.269   7.050
35178SOL    HW1 5558   6.582   6.208   7.053
35178SOL    HW2 5559   6.743   6.216   7.026
35179SOL     OW 5560   6.813   7.156   6.379
35179SOL    HW1 5561   6.834   7.230   6.314
35179SOL    HW2 5562   6.881   7.156   6.452
35180SOL     OW 5563   6.045   6.738   6.327
35180SOL    HW1 5564   5.974   6.711   6.392
35180SOL    HW2 5565   6.019   6.710   6.234
35181SOL     OW 5566   6.857   7.383   6.177
35181SOL    HW1 5567   6.901   7.447   6.113
35181SOL    HW2 5568   6.807   7.435   6.247
35182SOL     OW 5569   6.618   6.135   5.602
35182SOL    HW1 5570   6.577   6.217   5.563
35182SOL    HW2 5571   6.682   6.161   5.675
35183SOL     OW 5572   5.664   6.142   6.972
35183SOL    HW1 5573   5.756   6.141   6.931
35183SOL    HW2 5574   5.658   6.216   7.039
35184SOL     OW 5575   6.147   5.808   6.733
35184SOL    HW1 5576   6.185   5.724   6.770
35184SOL    HW2 5577   6.059   5.827   6.777
35185SOL     OW 5578   6.603   5.625   6.339
35185SOL    HW1 5579   6.531   5.630   6.270
35185SOL    HW2 5580   6.579   5.556   6.408
35186SOL     OW 5581   7.015   6.759   6.453
35186SOL    HW1 5582   6.960   6.675   6.446
35186SOL    HW2 5583   7.041   6.788   6.361
35187SOL     OW 5584   7.052   6.176   6.578
35187SOL    HW1 5585   7.022   6.081   6.585
35187SOL    HW2 5586   7.125   6.192   6.644
35188SOL     OW 5587   7.443   6.419   5.963
35188SOL    HW1 5588   7.485   6.355   6.027
35188SOL    HW2 5589   7.405   6.368   5.885
35189SOL     OW 5590   6.074   6.971   5.760
35189SOL    HW1 5591   5.987   6.956   5.807
35189SOL    HW2 5592   6.057   6.997   5.665
35190SOL     OW 5593   7.250   6.866   6.243
35190SOL    HW1 5594   7.349   6.874   6.257
35190SOL    HW2 5595   7.205   6.950   6.274
35191SOL     OW 5596   6.976   6.161   5.664
35191SOL    HW1 5597   6.922   6.140   5.745
35191SOL    HW2 5598   7.067   6.120   5.673
35192SOL     OW 5599   6.113   5.842   5.914
35192SOL    HW1 5600   6.140   5.783   5.839
35192SOL    HW2 5601   6.113   5.937   5.883
35193SOL     OW 5602   7.340   6.809   7.174
35193SOL    HW1 5603   7.431   6.770   7.161
35193SOL    HW2 5604   7.348   6.905   7.198
35194SOL     OW 5605   6.650   6.933   6.926
35194SOL    HW1 5606   6.570   6.910   6.981
35194SOL    HW2 5607   6.733   6.907   6.975
35195SOL     OW 5608   7.178   7.215   7.211
35195SOL    HW1 5609   7.205   7.249   7.121
35195SOL    HW2 5610   7.257   7.177   7.257
35196SOL     OW 5611   6.697   6.781   6.686
35196SOL    HW1 5612   6.657   6.825   6.767
35196SOL    HW2 5613   6.656   6.818   6.603
35197SOL     OW 5614   7.224   6.685   6.665
35197SOL    HW1 5615   7.229   6.766   6.724
35197SOL    HW2 5616   7.138   6.687   6.614
35198SOL     OW 5617   6.501   5.675   6.988
35198SOL    HW1 5618   6.526   5.655   6.893
35198SOL    HW2 5619   6.573   5.731   7.030
35199SOL     OW 5620   6.566   6.702   7.305
35199SOL    HW1 5621   6.467   6.708   7.315
35199SOL    HW2 5622   6.589   6.622   7.249
35200SOL     OW 5623   6.291   6.636   5.954
35200SOL    HW1 5624   6.277   6.643   6.053
35200SOL    HW2 5625   6.375   6.585   5.936
35201SOL     OW 5626   5.996   6.399   6.837
35201SOL    HW1 5627   6.082   6.411   6.887
35201SOL    HW2 5628   5.954   6.312   6.864
35202SOL     OW 5629   6.860   5.972   6.848
35202SOL    HW1 5630   6.881   6.046   6.912
35202SOL    HW2 5631   6.771   5.989   6.805
35203SOL     OW 5632   5.650   7.150   6.917
35203SOL    HW1 5633   5.604   7.232   6.883
35203SOL    HW2 5634   5.748   7.169   6.926
35204SOL     OW 5635   5.953   6.686   6.087
35204SOL    HW1 5636   5.946   6.769   6.031
35204SOL    HW2 5637   5.957   6.606   6.027
35205SOL     OW 5638   6.152   6.123   6.451
35205SOL    HW1 5639   6.164   6.189   6.377
35205SOL    HW2 5640   6.198   6.157   6.534
35206SOL     OW 5641   6.838   6.934   5.974
35206SOL    HW1 5642   6.888   7.011   6.014
35206SOL    HW2 5643   6.743   6.936   6.006
35207SOL     OW 5644   6.858   7.031   6.728
35207SOL    HW1 5645   6.905   7.044   6.815
35207SOL    HW2 5646   6.792   6.957   6.737
35208SOL     OW 5647   7.168   6.225   6.058
35208SOL    HW1 5648   7.137   6.286   6.131
35208SOL    HW2 5649   7.218   6.277   5.989
35209SOL     OW 5650   5.940   7.096   6.915
35209SOL    HW1 5651   5.919   7.052   6.828
35209SOL    HW2 5652   6.037   7.122   6.918
35210SOL     OW 5653   5.988   6.337   7.184
35210SOL    HW1 5654   6.056   6.392   7.137
35210SOL    HW2 5655   6.028   6.249   7.211
35211SOL     OW 5656   7.173   6.365   7.256
35211SOL    HW1 5657   7.081   6.403   7.251
35211SOL    HW2 5658   7.233   6.412   7.191
35212SOL     OW 5659   6.599   5.691   7.356
35212SOL    HW1 5660   6.605   5.776   7.304
35212SOL    HW2 5661   6.631   5.615   7.299
35213SOL     OW 5662   6.090   5.636   7.326
35213SOL    HW1 5663   6.048   5.579   7.256
35213SOL    HW2 5664   6.024   5.705   7.358
35214SOL     OW 5665   6.946   6.448   6.631
35214SOL    HW1 5666   6.871   6.448   6.565
35214SOL    HW2 5667   6.983   6.356   6.640
35215SOL     OW 5668   6.795   6.111   5.861
35215SOL    HW1 5669   6.808   6.027   5.915
35215SOL    HW2 5670   6.766   6.185   5.921
35216SOL     OW 5671   5.893   5.799   6.817
35216SOL    HW1 5672   5.870   5.836   6.907
35216SOL    HW2 5673   5.863   5.704   6.811
35217SOL     OW 5674   5.623   6.896   6.868
35217SOL    HW1 5675   5.676   6.847   6.936
35217SOL    HW2 5676   5.645   6.994   6.873
35218SOL     OW 5677   7.314   6.521   7.440
35218SOL    HW1 5678   7.268   6.514   7.351
35218SOL    HW2 5679   7.252   6.565   7.506
35219SOL     OW 5680   5.893   5.649   6.204
35219SOL    HW1 5681   5.882   5.743   6.237
35219SOL    HW2 5682   5.888   5.586   6.281
35220SOL     OW 5683   7.208   5.953   5.960
35220SOL    HW1 5684   7.210   5.877   6.024
35220SOL    HW2 5685   7.160   6.030   6.000
35221SOL     OW 5686   6.566   7.159   7.286
35221SOL    HW1 5687   6.546   7.203   7.198
35221SOL    HW2 5688   6.605   7.068   7.270
35222SOL     OW 5689   7.445   7.104   7.191
35222SOL    HW1 5690   7.459   7.131   7.096
35222SOL    HW2 5691   7.528   7.126   7.244
35223SOL     OW 5692   5.936   6.484   7.390
35223SOL    HW1 5693   6.012   6.528   7.438
35223SOL    HW2 5694   5.971   6.437   7.308
35224SOL     OW 5695   7.126   5.860   5.711
35224SOL    HW1 5696   7.065   5.785   5.734
35224SOL    HW2 5697   7.148   5.912   5.794
35225SOL     OW 5698   6.889   6.424   5.628
35225SOL    HW1 5699   6.923   6.331   5.643
35225SOL    HW2 5700   6.907   6.451   5.533
35226SOL     OW 5701   6.654   6.919   6.435
35226SOL    HW1 5702   6.661   6.835   6.380
35226SOL    HW2 5703   6.716   6.988   6.399
35227SOL     OW 5704   5.905   6.396   6.535
35227SOL    HW1 5705   5.998   6.432   6.540
35227SOL    HW2 5706   5.899   6.311   6.587
35228SOL     OW 5707   5.925   6.095   6.592
35228SOL    HW1 5708   5.873   6.012   6.575
35228SOL    HW2 5709   6.002   6.100   6.528
35229SOL     OW 5710   6.724   5.966   7.264
35229SOL    HW1 5711   6.679   6.029   7.328
35229SOL    HW2 5712   6.817   5.997   7.247
35230SOL     OW 5713   6.746   5.793   7.063
35230SOL    HW1 5714   6.746   5.857   7.140
35230SOL    HW2 5715   6.774   5.841   6.980
35231SOL     OW 5716   5.594   6.912   5.786
35231SOL    HW1 5717   5.501   6.933   5.755
35231SOL    HW2 5718   5.604   6.813   5.799
35232SOL     OW 5719   5.674   7.387   6.513
35232SOL    HW1 5720   5.632   7.301   6.486
35232SOL    HW2 5721   5.768   7.390   6.479
35233SOL     OW 5722   6.090   7.154   6.496
35233SOL    HW1 5723   6.156   7.228   6.505
35233SOL    HW2 5724   6.134   7.075   6.454
35234SOL     OW 5725   6.588   6.382   6.824
35234SOL    HW1 5726   6.629   6.350   6.910
35234SOL    HW2 5727   6.492   6.355   6.821
35235SOL     OW 5728   5.626   6.130   6.700
35235SOL    HW1 5729   5.711   6.097   6.659
35235SOL    HW2 5730   5.639   6.145   6.798
35236SOL     OW 5731   5.775   6.106   7.308
35236SOL    HW1 5732   5.834   6.066   7.238
35236SOL    HW2 5733   5.717   6.177   7.267
35237SOL     OW 5734   6.955   6.536   7.246
35237SOL    HW1 5735   6.994   6.625   7.266
35237SOL    HW2 5736   6.965   6.516   7.149
35238SOL     OW 5737   6.401   6.158   5.911
35238SOL    HW1 5738   6.408   6.069   5.865
35238SOL    HW2 5739   6.307   6.192   5.903
35239SOL     OW 5740   7.243   6.190   6.792
35239SOL    HW1 5741   7.205   6.121   6.854
35239SOL    HW2 5742   7.325   6.154   6.748
35240SOL     OW 5743   5.838   7.150   7.330
35240SOL    HW1 5744   5.808   7.207   7.406
35240SOL    HW2 5745   5.831   7.053   7.356
35241SOL     OW 5746   6.257   6.050   6.855
35241SOL    HW1 5747   6.223   5.961   6.825
35241SOL    HW2 5748   6.283   6.104   6.775
35242SOL     OW 5749   6.516   7.264   7.051
35242SOL    HW1 5750   6.492   7.246   6.956
35242SOL    HW2 5751   6.546   7.358   7.061
35243SOL     OW 5752   6.059   6.086   5.777
35243SOL    HW1 5753   6.120   6.166   5.781
35243SOL    HW2 5754   5.964   6.117   5.784
35244SOL     OW 5755   5.745   6.723   7.052
35244SOL    HW1 5756   5.767   6.662   7.128
35244SOL    HW2 5757   5.755   6.674   6.966
35245SOL     OW 5758   6.933   6.645   6.820
35245SOL    HW1 5759   6.957   6.582   6.746
35245SOL    HW2 5760   6.843   6.685   6.802
35246SOL     OW 5761   6.888   6.441   5.895
35246SOL    HW1 5762   6.802   6.410   5.937
35246SOL    HW2 5763   6.884   6.427   5.796
35247SOL     OW 5764   7.345   7.333   6.740
35247SOL    HW1 5765   7.406   7.363   6.667
35247SOL    HW2 5766   7.307   7.244   6.718
35248SOL     OW 5767   6.838   7.317   6.714
35248SOL    HW1 5768   6.922   7.322   6.660
35248SOL    HW2 5769   6.815   7.221   6.732
35249SOL     OW 5770   5.669   6.844   6.608
35249SOL    HW1 5771   5.664   6.843   6.708
35249SOL    HW2 5772   5.586   6.803   6.570
35250SOL     OW 5773   6.274   7.248   7.302
35250SOL    HW1 5774   6.218   7.329   7.311
35250SOL    HW2 5775   6.326   7.252   7.216
35251SOL     OW 5776   7.312   5.721   6.109
35251SOL    HW1 5777   7.385   5.704   6.042
35251SOL    HW2 5778   7.281   5.634   6.147
35252SOL     OW 5779   6.974   7.159   6.063
35252SOL    HW1 5780   7.041   7.171   5.989
35252SOL    HW2 5781   6.934   7.248   6.086
35253SOL     OW 5782   5.716   7.380   7.437
35253SOL    HW1 5783   5.675   7.306   7.490
35253SOL    HW2 5784   5.780   7.431   7.495
35254SOL     OW 5785   6.866   6.513   6.258
35254SOL    HW1 5786   6.926   6.432   6.260
35254SOL    HW2 5787   6.906   6.582   6.198
35255SOL     OW 5788   6.416   6.859   7.008
35255SOL    HW1 5789   6.411   6.892   7.103
35255SOL    HW2 5790   6.330   6.878   6.962
35256SOL     OW 5791   6.258   7.202   5.740
35256SOL    HW1 5792   6.267   7.212   5.641
35256SOL    HW2 5793   6.218   7.113   5.761
35257SOL     OW 5794   7.236   7.306   6.980
35257SOL    HW1 5795   7.289   7.316   6.896
35257SOL    HW2 5796   7.209   7.396   7.014
35258SOL     OW 5797   7.427   5.761   6.549
35258SOL    HW1 5798   7.466   5.676   6.513
35258SOL    HW2 5799   7.329   5.763   6.530
35259SOL     OW 5800   5.849   5.912   6.306
35259SOL    HW1 5801   5.770   5.963   6.272
35259SOL    HW2 5802   5.840   5.897   6.404
35260SOL     OW 5803   6.780   7.198   5.617
35260SOL    HW1 5804   6.786   7.105   5.654
35260SOL    HW2 5805   6.721   7.198   5.537
35261SOL     OW 5806   6.502   6.496   5.877
35261SOL    HW1 5807   6.565   6.534   5.809
35261SOL    HW2 5808   6.542   6.413   5.916
35262SOL     OW 5809   7.090   7.193   5.630
35262SOL    HW1 5810   6.998   7.230   5.637
35262SOL    HW2 5811   7.128   7.213   5.540
35263SOL     OW 5812   5.958   6.874   7.076
35263SOL    HW1 5813   5.945   6.967   7.042
35263SOL    HW2 5814   5.874   6.822   7.063
35264SOL     OW 5815   7.200   6.878   6.875
35264SOL    HW1 5816   7.260   6.881   6.955
35264SOL    HW2 5817   7.125   6.942   6.888
35265SOL     OW 5818   6.600   5.822   6.557
35265SOL    HW1 5819   6.592   5.786   6.464
35265SOL    HW2 5820   6.598   5.746   6.622
35266SOL     OW 5821   6.176   7.073   6.077
35266SOL    HW1 5822   6.218   7.015   6.007
35266SOL    HW2 5823   6.132   7.152   6.033
35267SOL     OW 5824   7.295   5.971   6.967
35267SOL    HW1 5825   7.368   6.040   6.971
35267SOL    HW2 5826   7.323   5.896   6.908
35268SOL     OW 5827   5.841   6.934   5.876
35268SOL    HW1 5828   5.745   6.935   5.849
35268SOL    HW2 5829   5.853   6.987   5.960
35269SOL     OW 5830   5.691   6.599   7.312
35269SOL    HW1 5831   5.614   6.566   7.366
35269SOL    HW2 5832   5.776   6.569   7.354
35270SOL     OW 5833   6.258   5.789   7.075
35270SOL    HW1 5834   6.348   5.773   7.035
35270SOL    HW2 5835   6.266   5.794   7.174
35271SOL     OW 5836   5.661   5.931   5.619
35271SOL    HW1 5837   5.569   5.903   5.590
35271SOL    HW2 5838   5.692   6.008   5.563
35272SOL     OW 5839   7.026   6.442   6.984
35272SOL    HW1 5840   6.969   6.494   6.921
35272SOL    HW2 5841   7.122   6.454   6.960
35273SOL     OW 5842   5.658   5.752   5.904
35273SOL    HW1 5843   5.641   5.835   5.850
35273SOL    HW2 5844   5.748   5.715   5.882
35274SOL     OW 5845   6.769   6.921   5.705
35274SOL    HW1 5846   6.670   6.910   5.707
35274SOL    HW2 5847   6.803   6.936   5.798
35275SOL     OW 5848   6.199   6.428   7.017
35275SOL    HW1 5849   6.255   6.509   7.000
35275SOL    HW2 5850   6.258   6.348   7.020
35276SOL     OW 5851   7.079   7.353   6.545
35276SOL    HW1 5852   7.112   7.417   6.476
35276SOL    HW2 5853   7.145   7.347   6.620
35277SOL     OW 5854   6.302   6.151   7.294
35277SOL    HW1 5855   6.321   6.216   7.368
35277SOL    HW2 5856   6.362   6.071   7.303
35278SOL     OW 5857   7.036   6.806   7.219
35278SOL    HW1 5858   7.027   6.796   7.318
35278SOL    HW2 5859   7.132   6.799   7.193
35279SOL     OW 5860   5.976   7.327   7.146
35279SOL    HW1 5861   5.885   7.368   7.144
35279SOL    HW2 5862   5.969   7.233   7.178
35280SOL     OW 5863   7.260   6.469   6.840
35280SOL    HW1 5864   7.233   6.380   6.803
35280SOL    HW2 5865   7.261   6.537   6.767
35281SOL     OW 5866   6.811   5.911   6.035
35281SOL    HW1 5867   6.876   5.837   6.024
35281SOL    HW2 5868   6.831   5.961   6.119
35282SOL     OW 5869   6.180   6.331   6.238
35282SOL    HW1 5870   6.230   6.416   6.219
35282SOL    HW2 5871   6.092   6.333   6.190
35283SOL     OW 5872   7.363   5.928   7.228
35283SOL    HW1 5873   7.346   5.959   7.134
35283SOL    HW2 5874   7.279   5.891   7.266
35284SOL     OW 5875   7.316   6.520   7.103
35284SOL    HW1 5876   7.354   6.611   7.118
35284SOL    HW2 5877   7.308   6.503   7.004
35285SOL     OW 5878   6.445   6.960   5.602
35285SOL    HW1 5879   6.399   6.975   5.690
35285SOL    HW2 5880   6.489   7.045   5.572
35286SOL     OW 5881   6.247   7.376   6.539
35286SOL    HW1 5882   6.201   7.464   6.526
35286SOL    HW2 5883   6.346   7.388   6.532
35287SOL     OW 5884   6.669   6.570   5.673
35287SOL    HW1 5885   6.646   6.623   5.591
35287SOL    HW2 5886   6.750   6.514   5.654
35288SOL     OW 5887   7.447   7.155   6.437
35288SOL    HW1 5888   7.376   7.143   6.367
35288SOL    HW2 5889   7.448   7.076   6.497
35289SOL     OW 5890   5.807   6.900   7.430
35289SOL    HW1 5891   5.742   6.827   7.409
35289SOL    HW2 5892   5.811   6.914   7.528
35290SOL     OW 5893   5.665   6.826   6.239
35290SOL    HW1 5894   5.664   6.779   6.327
35290SOL    HW2 5895   5.747   6.798   6.188
35291SOL     OW 5896   6.258   6.977   7.210
35291SOL    HW1 5897   6.180   6.927   7.248
35291SOL    HW2 5898   6.255   7.072   7.241
35292SOL     OW 5899   7.410   5.778   6.813
35292SOL    HW1 5900   7.406   5.688   6.857
35292SOL    HW2 5901   7.413   5.767   6.714
35293SOL     OW 5902   6.014   6.010   6.106
35293SOL    HW1 5903   6.044   5.938   6.044
35293SOL    HW2 5904   5.975   5.970   6.189
35294SOL     OW 5905   7.291   7.073   6.690
35294SOL    HW1 5906   7.198   7.048   6.663
35294SOL    HW2 5907   7.317   7.023   6.772
35295SOL     OW 5908   5.903   6.133   6.866
35295SOL    HW1 5909   5.941   6.074   6.938
35295SOL    HW2 5910   5.943   6.107   6.778
35296SOL     OW 5911   6.398   7.172   6.273
35296SOL    HW1 5912   6.430   7.182   6.179
35296SOL    HW2 5913   6.319   7.110   6.275
35297SOL     OW 5914   7.010   5.800   6.698
35297SOL    HW1 5915   7.062   5.735   6.753
35297SOL    HW2 5916   6.961   5.863   6.759
35298SOL     OW 5917   6.587   5.620   6.740
35298SOL    HW1 5918   6.524   5.548   6.709
35298SOL    HW2 5919   6.680   5.584   6.740
35299SOL     OW 5920   6.356   6.916   5.887
35299SOL    HW1 5921   6.310   6.829   5.904
35299SOL    HW2 5922   6.447   6.913   5.928
35300SOL     OW 5923   6.204   7.153   6.870
35300SOL    HW1 5924   6.199   7.235   6.927
35300SOL    HW2 5925   6.293   7.150   6.825
35301SOL     OW 5926   6.938   5.638   5.754
35301SOL    HW1 5927   6.973   5.597   5.670
35301SOL    HW2 5928   6.848   5.600   5.774
35302SOL     OW 5929   6.886   6.039   6.277
35302SOL    HW1 5930   6.827   6.119   6.281
35302SOL    HW2 5931   6.901   6.004   6.370
35303SOL     OW 5932   7.179   5.807   6.468
35303SOL    HW1 5933   7.095   5.806   6.522
35303SOL    HW2 5934   7.181   5.890   6.412
35304SOL     OW 5935   5.625   6.663   5.886
35304SOL    HW1 5936   5.724   6.652   5.877
35304SOL    HW2 5937   5.585   6.577   5.918
35305SOL     OW 5938   6.461   7.232   5.923
35305SOL    HW1 5939   6.384   7.197   5.869
35305SOL    HW2 5940   6.429   7.303   5.985
35306SOL     OW 5941   5.816   6.214   7.561
35306SOL    HW1 5942   5.723   6.212   7.598
35306SOL    HW2 5943   5.817   6.175   7.469
35307SOL     OW 5944   5.811   5.861   8.444
35307SOL    HW1 5945   5.846   5.844   8.536
35307SOL    HW2 5946   5.723   5.816   8.432
35308SOL     OW 5947   5.605   5.954   8.095
35308SOL    HW1 5948   5.523   5.997   8.134
35308SOL    HW2 5949   5.577   5.881   8.032
35309SOL     OW 5950   6.155   6.861   8.613
35309SOL    HW1 5951   6.062   6.854   8.576
35309SOL    HW2 5952   6.166   6.950   8.657
35310SOL     OW 5953   7.141   7.097   8.151
35310SOL    HW1 5954   7.084   7.081   8.232
35310SOL    HW2 5955   7.082   7.107   8.071
35311SOL     OW 5956   6.721   6.289   8.165
35311SOL    HW1 5957   6.778   6.367   8.140
35311SOL    HW2 5958   6.661   6.315   8.241
35312SOL     OW 5959   7.341   6.193   7.679
35312SOL    HW1 5960   7.329   6.180   7.580
35312SOL    HW2 5961   7.311   6.112   7.728
35313SOL     OW 5962   6.354   6.730   8.471
35313SOL    HW1 5963   6.276   6.747   8.531
35313SOL    HW2 5964   6.388   6.817   8.435
35314SOL     OW 5965   6.436   6.384   9.271
35314SOL    HW1 5966   6.432   6.460   9.336
35314SOL    HW2 5967   6.458   6.420   9.180
35315SOL     OW 5968   6.271   6.598   8.113
35315SOL    HW1 5969   6.340   6.582   8.183
35315SOL    HW2 5970   6.198   6.655   8.151
35316SOL     OW 5971   6.272   6.747   9.251
35316SOL    HW1 5972   6.332   6.826   9.265
35316SOL    HW2 5973   6.186   6.778   9.210
35317SOL     OW 5974   5.921   7.021   8.509
35317SOL    HW1 5975   5.843   6.990   8.456
35317SOL    HW2 5976   5.979   7.079   8.452
35318SOL     OW 5977   7.046   7.091   8.787
35318SOL    HW1 5978   7.070   7.185   8.813
35318SOL    HW2 5979   7.030   7.037   8.869
35319SOL     OW 5980   6.024   5.978   8.947
35319SOL    HW1 5981   6.106   5.922   8.956
35319SOL    HW2 5982   5.943   5.920   8.951
35320SOL     OW 5983   7.189   6.033   8.185
35320SOL    HW1 5984   7.115   6.079   8.135
35320SOL    HW2 5985   7.240   6.101   8.238
35321SOL     OW 5986   5.817   7.299   7.931
35321SOL    HW1 5987   5.851   7.376   7.985
35321SOL    HW2 5988   5.861   7.299   7.841
35322SOL     OW 5989   6.713   6.927   9.138
35322SOL    HW1 5990   6.760   6.927   9.226
35322SOL    HW2 5991   6.665   6.840   9.127
35323SOL     OW 5992   5.816   7.020   7.986
35323SOL    HW1 5993   5.790   7.116   7.986
35323SOL    HW2 5994   5.745   6.966   8.031
35324SOL     OW 5995   5.826   6.677   8.334
35324SOL    HW1 5996   5.840   6.593   8.386
35324SOL    HW2 5997   5.771   6.741   8.389
35325SOL     OW 5998   6.206   7.372   8.887
35325SOL    HW1 5999   6.114   7.355   8.922
35325SOL    HW2 6000   6.234   7.464   8.913
35326SOL     OW 6001   6.192   6.550   7.571
35326SOL    HW1 6002   6.199   6.634   7.517
35326SOL    HW2 6003   6.238   6.563   7.659
35327SOL     OW 6004   7.180   5.700   8.928
35327SOL    HW1 6005   7.162   5.767   8.856
35327SOL    HW2 6006   7.177   5.746   9.017
35328SOL     OW 6007   5.708   6.229   8.011
35328SOL    HW1 6008   5.663   6.141   8.028
35328SOL    HW2 6009   5.707   6.283   8.095
35329SOL     OW 6010   7.428   7.353   7.807
35329SOL    HW1 6011   7.482   7.324   7.887
35329SOL    HW2 6012   7.458   7.443   7.778
35330SOL     OW 6013   5.613   7.182   7.565
35330SOL    HW1 6014   5.594   7.086   7.586
35330SOL    HW2 6015   5.580   7.240   7.640
35331SOL     OW 6016   7.275   6.508   8.060
35331SOL    HW1 6017   7.370   6.479   8.068
35331SOL    HW2 6018   7.267   6.573   7.985
35332SOL     OW 6019   7.227   6.694   7.880
35332SOL    HW1 6020   7.313   6.696   7.828
35332SOL    HW2 6021   7.241   6.741   7.968
35333SOL     OW 6022   5.699   6.323   9.045
35333SOL    HW1 6023   5.787   6.310   9.090
35333SOL    HW2 6024   5.686   6.420   9.023
35334SOL     OW 6025   6.199   6.951   8.174
35334SOL    HW1 6026   6.150   6.864   8.183
35334SOL    HW2 6027   6.176   6.994   8.087
35335SOL     OW 6028   6.879   6.814   8.871
35335SOL    HW1 6029   6.916   6.741   8.813
35335SOL    HW2 6030   6.931   6.819   8.956
35336SOL     OW 6031   6.395   5.590   7.950
35336SOL    HW1 6032   6.435   5.681   7.941
35336SOL    HW2 6033   6.295   5.598   7.956
35337SOL     OW 6034   5.783   6.562   8.712
35337SOL    HW1 6035   5.872   6.517   8.698
35337SOL    HW2 6036   5.710   6.497   8.693
35338SOL     OW 6037   7.111   6.585   7.638
35338SOL    HW1 6038   7.048   6.509   7.651
35338SOL    HW2 6039   7.159   6.603   7.724
35339SOL     OW 6040   6.773   7.378   9.064
35339SOL    HW1 6041   6.797   7.438   8.988
35339SOL    HW2 6042   6.780   7.283   9.034
35340SOL     OW 6043   5.903   5.837   9.249
35340SOL    HW1 6044   5.974   5.908   9.255
35340SOL    HW2 6045   5.815   5.876   9.277
35341SOL     OW 6046   7.052   7.003   8.401
35341SOL    HW1 6047   6.993   7.009   8.481
35341SOL    HW2 6048   7.037   6.915   8.355
35342SOL     OW 6049   7.253   7.300   8.020
35342SOL    HW1 6050   7.212   7.277   7.932
35342SOL    HW2 6051   7.235   7.226   8.085
35343SOL     OW 6052   6.184   6.315   7.718
35343SOL    HW1 6053   6.208   6.384   7.650
35343SOL    HW2 6054   6.106   6.348   7.772
35344SOL     OW 6055   6.867   5.931   8.392
35344SOL    HW1 6056   6.781   5.881   8.379
35344SOL    HW2 6057   6.929   5.877   8.448
35345SOL     OW 6058   7.162   7.248   7.755
35345SOL    HW1 6059   7.251   7.294   7.758
35345SOL    HW2 6060   7.141   7.224   7.660
35346SOL     OW 6061   6.393   6.191   8.913
35346SOL    HW1 6062   6.346   6.188   9.002
35346SOL    HW2 6063   6.342   6.136   8.847
35347SOL     OW 6064   6.980   6.055   9.122
35347SOL    HW1 6065   6.960   6.098   9.210
35347SOL    HW2 6066   7.058   5.993   9.131
35348SOL     OW 6067   6.559   6.476   9.020
35348SOL    HW1 6068   6.605   6.392   8.991
35348SOL    HW2 6069   6.503   6.510   8.945
35349SOL     OW 6070   6.577   5.996   8.690
35349SOL    HW1 6071   6.500   6.030   8.744
35349SOL    HW2 6072   6.543   5.945   8.611
35350SOL     OW 6073   6.627   6.287   7.877
35350SOL    HW1 6074   6.653   6.283   7.973
35350SOL    HW2 6075   6.542   6.236   7.863
35351SOL     OW 6076   5.662   6.397   8.237
35351SOL    HW1 6077   5.761   6.385   8.246
35351SOL    HW2 6078   5.638   6.492   8.258
35352SOL     OW 6079   5.716   7.407   9.019
35352SOL    HW1 6080   5.706   7.392   9.118
35352SOL    HW2 6081   5.630   7.443   8.983
35353SOL     OW 6082   6.451   5.934   7.643
35353SOL    HW1 6083   6.510   5.997   7.594
35353SOL    HW2 6084   6.470   5.840   7.614
35354SOL     OW 6085   7.305   6.171   9.279
35354SOL    HW1 6086   7.279   6.260   9.243
35354SOL    HW2 6087   7.303   6.103   9.206
35355SOL     OW 6088   6.948   6.730   7.993
35355SOL    HW1 6089   7.031   6.701   7.945
35355SOL    HW2 6090   6.899   6.797   7.937
35356SOL     OW 6091   6.136   5.782   8.333
35356SOL    HW1 6092   6.131   5.777   8.433
35356SOL    HW2 6093   6.138   5.878   8.304
35357SOL     OW 6094   6.594   7.042   7.925
35357SOL    HW1 6095   6.548   7.114   7.873
35357SOL    HW2 6096   6.590   7.062   8.023
35358SOL     OW 6097   5.937   7.387   8.301
35358SOL    HW1 6098   5.987   7.301   8.307
35358SOL    HW2 6099   6.002   7.464   8.298
35359SOL     OW 6100   7.381   6.652   8.321
35359SOL    HW1 6101   7.319   6.637   8.245
35359SOL    HW2 6102   7.329   6.663   8.406
35360SOL     OW 6103   6.813   7.136   8.954
35360SOL    HW1 6104   6.819   7.059   9.018
35360SOL    HW2 6105   6.761   7.110   8.874
35361SOL     OW 6106   5.907   6.529   7.690
35361SOL    HW1 6107   5.989   6.568   7.648
35361SOL    HW2 6108   5.880   6.447   7.641
35362SOL     OW 6109   7.044   6.321   8.176
35362SOL    HW1 6110   7.039   6.256   8.251
35362SOL    HW2 6111   7.124   6.380   8.189
35363SOL     OW 6112   6.047   6.852   9.175
35363SOL    HW1 6113   5.997   6.853   9.089
35363SOL    HW2 6114   5.984   6.834   9.251
35364SOL     OW 6115   6.697   7.362   7.685
35364SOL    HW1 6116   6.637   7.300   7.735
35364SOL    HW2 6117   6.728   7.318   7.600
35365SOL     OW 6118   5.788   5.871   8.946
35365SOL    HW1 6119   5.708   5.931   8.933
35365SOL    HW2 6120   5.778   5.822   9.032
35366SOL     OW 6121   7.218   6.963   7.529
35366SOL    HW1 6122   7.186   7.057   7.519
35366SOL    HW2 6123   7.142   6.900   7.517
35367SOL     OW 6124   6.050   7.329   7.771
35367SOL    HW1 6125   6.083   7.368   7.857
35367SOL    HW2 6126   6.126   7.322   7.706
35368SOL     OW 6127   6.986   5.693   7.874
35368SOL    HW1 6128   6.962   5.656   7.784
35368SOL    HW2 6129   7.085   5.709   7.878
35369SOL     OW 6130   5.835   7.371   8.689
35369SOL    HW1 6131   5.892   7.306   8.739
35369SOL    HW2 6132   5.819   7.338   8.596
35370SOL     OW 6133   6.526   7.284   8.352
35370SOL    HW1 6134   6.606   7.227   8.373
35370SOL    HW2 6135   6.477   7.244   8.275
35371SOL     OW 6136   5.968   6.286   7.928
35371SOL    HW1 6137   6.013   6.196   7.925
35371SOL    HW2 6138   5.874   6.275   7.961
35372SOL     OW 6139   7.133   5.808   9.177
35372SOL    HW1 6140   7.128   5.845   9.269
35372SOL    HW2 6141   7.061   5.739   9.165
35373SOL     OW 6142   6.200   5.708   7.565
35373SOL    HW1 6143   6.298   5.686   7.572
35373SOL    HW2 6144   6.169   5.691   7.472
35374SOL     OW 6145   6.367   5.850   9.197
35374SOL    HW1 6146   6.434   5.789   9.240
35374SOL    HW2 6147   6.294   5.869   9.262
35375SOL     OW 6148   6.474   7.100   8.643
35375SOL    HW1 6149   6.451   7.075   8.549
35375SOL    HW2 6150   6.535   7.031   8.682
35376SOL     OW 6151   6.937   6.176   8.881
35376SOL    HW1 6152   6.965   6.133   8.966
35376SOL    HW2 6153   6.962   6.272   8.882
35377SOL     OW 6154   6.389   6.988   8.372
35377SOL    HW1 6155   6.479   7.002   8.330
35377SOL    HW2 6156   6.318   6.990   8.301
35378SOL     OW 6157   6.508   6.089   8.347
35378SOL    HW1 6158   6.483   6.080   8.251
35378SOL    HW2 6159   6.556   6.007   8.378
35379SOL     OW 6160   6.125   5.650   7.960
35379SOL    HW1 6161   6.044   5.651   8.018
35379SOL    HW2 6162   6.128   5.733   7.905
35380SOL     OW 6163   7.020   6.774   7.489
35380SOL    HW1 6164   7.052   6.698   7.546
35380SOL    HW2 6165   6.928   6.801   7.519
35381SOL     OW 6166   5.883   5.621   7.619
35381SOL    HW1 6167   5.932   5.705   7.598
35381SOL    HW2 6168   5.945   5.556   7.664
35382SOL     OW 6169   6.521   5.822   7.928
35382SOL    HW1 6170   6.473   5.863   7.850
35382SOL    HW2 6171   6.620   5.820   7.909
35383SOL     OW 6172   6.662   6.269   8.912
35383SOL    HW1 6173   6.582   6.208   8.915
35383SOL    HW2 6174   6.743   6.216   8.888
35384SOL     OW 6175   6.813   7.156   8.241
35384SOL    HW1 6176   6.834   7.230   8.176
35384SOL    HW2 6177   6.881   7.156   8.314
35385SOL     OW 6178   6.045   6.738   8.189
35385SOL    HW1 6179   5.974   6.711   8.254
35385SOL    HW2 6180   6.019   6.710   8.096
35386SOL     OW 6181   6.857   7.383   8.039
35386SOL    HW1 6182   6.901   7.447   7.975
35386SOL    HW2 6183   6.807   7.435   8.109
35387SOL     OW 6184   6.618   6.135   7.464
35387SOL    HW1 6185   6.577   6.217   7.425
35387SOL    HW2 6186   6.682   6.161   7.537
35388SOL     OW 6187   5.664   6.142   8.834
35388SOL    HW1 6188   5.756   6.141   8.793
35388SOL    HW2 6189   5.658   6.216   8.901
35389SOL     OW 6190   6.147   5.808   8.595
35389SOL    HW1 6191   6.185   5.724   8.632
35389SOL    HW2 6192   6.059   5.827   8.639
35390SOL     OW 6193   6.452   6.040   8.090
35390SOL    HW1 6194   6.420   6.112   8.028
35390SOL    HW2 6195   6.476   5.959   8.037
35391SOL     OW 6196   6.603   5.625   8.201
35391SOL    HW1 6197   6.531   5.630   8.132
35391SOL    HW2 6198   6.579   5.556   8.270
35392SOL     OW 6199   7.015   6.759   8.315
35392SOL    HW1 6200   6.960   6.675   8.308
35392SOL    HW2 6201   7.041   6.788   8.223
35393SOL     OW 6202   7.052   6.176   8.440
35393SOL    HW1 6203   7.022   6.081   8.447
35393SOL    HW2 6204   7.125   6.192   8.506
35394SOL     OW 6205   7.443   6.419   7.825
35394SOL    HW1 6206   7.485   6.355   7.889
35394SOL    HW2 6207   7.405   6.368   7.747
35395SOL     OW 6208   6.074   6.971   7.622
35395SOL    HW1 6209   5.987   6.956   7.669
35395SOL    HW2 6210   6.057   6.997   7.527
35396SOL     OW 6211   7.250   6.866   8.105
35396SOL    HW1 6212   7.349   6.874   8.119
35396SOL    HW2 6213   7.205   6.950   8.136
35397SOL     OW 6214   6.976   6.161   7.526
35397SOL    HW1 6215   6.922   6.140   7.607
35397SOL    HW2 6216   7.067   6.120   7.535
35398SOL     OW 6217   6.113   5.842   7.776
35398SOL    HW1 6218   6.140   5.783   7.701
35398SOL    HW2 6219   6.113   5.937   7.745
35399SOL     OW 6220   7.340   6.809   9.036
35399SOL    HW1 6221   7.431   6.770   9.023
35399SOL    HW2 6222   7.348   6.905   9.060
35400SOL     OW 6223   6.650   6.933   8.788
35400SOL    HW1 6224   6.570   6.910   8.843
35400SOL    HW2 6225   6.733   6.907   8.837
35401SOL     OW 6226   7.178   7.215   9.073
35401SOL    HW1 6227   7.205   7.249   8.983
35401SOL    HW2 6228   7.257   7.177   9.119
35402SOL     OW 6229   6.697   6.781   8.548
35402SOL    HW1 6230   6.657   6.825   8.629
35402SOL    HW2 6231   6.656   6.818   8.465
35403SOL     OW 6232   7.224   6.685   8.527
35403SOL    HW1 6233   7.229   6.766   8.586
35403SOL    HW2 6234   7.138   6.687   8.476
35404SOL     OW 6235   6.501   5.675   8.850
35404SOL    HW1 6236   6.526   5.655   8.755
35404SOL    HW2 6237   6.573   5.731   8.892
35405SOL     OW 6238   6.566   6.702   9.167
35405SOL    HW1 6239   6.467   6.708   9.177
35405SOL    HW2 6240   6.589   6.622   9.111
35406SOL     OW 6241   6.291   6.636   7.816
35406SOL    HW1 6242   6.277   6.643   7.915
35406SOL    HW2 6243   6.375   6.585   7.798
35407SOL     OW 6244   5.996   6.399   8.699
35407SOL    HW1 6245   6.082   6.411   8.749
35407SOL    HW2 6246   5.954   6.312   8.726
35408SOL     OW 6247   6.860   5.972   8.710
35408SOL    HW1 6248   6.881   6.046   8.774
35408SOL    HW2 6249   6.771   5.989   8.667
35409SOL     OW 6250   5.650   7.150   8.779
35409SOL    HW1 6251   5.604   7.232   8.745
35409SOL    HW2 6252   5.748   7.169   8.788
35410SOL     OW 6253   5.953   6.686   7.949
35410SOL    HW1 6254   5.946   6.769   7.893
35410SOL    HW2 6255   5.957   6.606   7.889
35411SOL     OW 6256   6.152   6.123   8.313
35411SOL    HW1 6257   6.164   6.189   8.239
35411SOL    HW2 6258   6.198   6.157   8.396
35412SOL     OW 6259   6.838   6.934   7.836
35412SOL    HW1 6260   6.888   7.011   7.876
35412SOL    HW2 6261   6.743   6.936   7.868
35413SOL     OW 6262   6.858   7.031   8.590
35413SOL    HW1 6263   6.905   7.044   8.677
35413SOL    HW2 6264   6.792   6.957   8.599
35414SOL     OW 6265   7.168   6.225   7.920
35414SOL    HW1 6266   7.137   6.286   7.993
35414SOL    HW2 6267   7.218   6.277   7.851
35415SOL     OW 6268   5.940   7.096   8.777
35415SOL    HW1 6269   5.919   7.052   8.690
35415SOL    HW2 6270   6.037   7.122   8.780
35416SOL     OW 6271   5.988   6.337   9.046
35416SOL    HW1 6272   6.056   6.392   8.999
35416SOL    HW2 6273   6.028   6.249   9.073
35417SOL     OW 6274   7.173   6.365   9.118
35417SOL    HW1 6275   7.081   6.403   9.113
35417SOL    HW2 6276   7.233   6.412   9.053
35418SOL     OW 6277   6.599   5.691   9.218
35418SOL    HW1 6278   6.605   5.776   9.166
35418SOL    HW2 6279   6.631   5.615   9.161
35419SOL     OW 6280   6.090   5.636   9.188
35419SOL    HW1 6281   6.048   5.579   9.118
35419SOL    HW2 6282   6.024   5.705   9.220
35420SOL     OW 6283   6.159   6.456   8.477
35420SOL    HW1 6284   6.203   6.545   8.468
35420SOL    HW2 6285   6.096   6.456   8.554
35421SOL     OW 6286   6.946   6.448   8.493
35421SOL    HW1 6287   6.871   6.448   8.427
35421SOL    HW2 6288   6.983   6.356   8.502
35422SOL     OW 6289   6.795   6.111   7.723
35422SOL    HW1 6290   6.808   6.027   7.777
35422SOL    HW2 6291   6.766   6.185   7.783
35423SOL     OW 6292   5.893   5.799   8.679
35423SOL    HW1 6293   5.870   5.836   8.769
35423SOL    HW2 6294   5.863   5.704   8.673
35424SOL     OW 6295   5.623   6.896   8.730
35424SOL    HW1 6296   5.676   6.847   8.798
35424SOL    HW2 6297   5.645   6.994   8.735
35425SOL     OW 6298   6.318   6.220   8.512
35425SOL    HW1 6299   6.377   6.194   8.436
35425SOL    HW2 6300   6.290   6.316   8.501
35426SOL     OW 6301   7.314   6.521   9.302
35426SOL    HW1 6302   7.268   6.514   9.213
35426SOL    HW2 6303   7.252   6.565   9.368
35427SOL     OW 6304   5.893   5.649   8.066
35427SOL    HW1 6305   5.882   5.743   8.099
35427SOL    HW2 6306   5.888   5.586   8.143
35428SOL     OW 6307   7.208   5.953   7.822
35428SOL    HW1 6308   7.210   5.877   7.886
35428SOL    HW2 6309   7.160   6.030   7.862
35429SOL     OW 6310   6.609   6.352   8.414
35429SOL    HW1 6311   6.624   6.373   8.510
35429SOL    HW2 6312   6.579   6.257   8.405
35430SOL     OW 6313   6.566   7.159   9.148
35430SOL    HW1 6314   6.546   7.203   9.060
35430SOL    HW2 6315   6.605   7.068   9.132
35431SOL     OW 6316   7.445   7.104   9.053
35431SOL    HW1 6317   7.459   7.131   8.958
35431SOL    HW2 6318   7.528   7.126   9.106
35432SOL     OW 6319   5.936   6.484   9.252
35432SOL    HW1 6320   6.012   6.528   9.300
35432SOL    HW2 6321   5.971   6.437   9.170
35433SOL     OW 6322   7.126   5.860   7.573
35433SOL    HW1 6323   7.065   5.785   7.596
35433SOL    HW2 6324   7.148   5.912   7.656
35434SOL     OW 6325   6.889   6.424   7.490
35434SOL    HW1 6326   6.923   6.331   7.505
35434SOL    HW2 6327   6.907   6.451   7.395
35435SOL     OW 6328   6.654   6.919   8.297
35435SOL    HW1 6329   6.661   6.835   8.242
35435SOL    HW2 6330   6.716   6.988   8.261
35436SOL     OW 6331   5.905   6.396   8.397
35436SOL    HW1 6332   5.998   6.432   8.402
35436SOL    HW2 6333   5.899   6.311   8.449
35437SOL     OW 6334   5.925   6.095   8.454
35437SOL    HW1 6335   5.873   6.012   8.437
35437SOL    HW2 6336   6.002   6.100   8.390
35438SOL     OW 6337   6.724   5.966   9.126
35438SOL    HW1 6338   6.679   6.029   9.190
35438SOL    HW2 6339   6.817   5.997   9.109
35439SOL     OW 6340   6.746   5.793   8.925
35439SOL    HW1 6341   6.746   5.857   9.002
35439SOL    HW2 6342   6.774   5.841   8.842
35440SOL     OW 6343   5.594   6.912   7.648
35440SOL    HW1 6344   5.501   6.933   7.617
35440SOL    HW2 6345   5.604   6.813   7.661
35441SOL     OW 6346   5.674   7.387   8.375
35441SOL    HW1 6347   5.632   7.301   8.348
35441SOL    HW2 6348   5.768   7.390   8.341
35442SOL     OW 6349   6.090   7.154   8.358
35442SOL    HW1 6350   6.156   7.228   8.367
35442SOL    HW2 6351   6.134   7.075   8.316
35443SOL     OW 6352   6.588   6.382   8.686
35443SOL    HW1 6353   6.629   6.350   8.772
35443SOL    HW2 6354   6.492   6.355   8.683
35444SOL     OW 6355   5.626   6.130   8.562
35444SOL    HW1 6356   5.711   6.097   8.521
35444SOL    HW2 6357   5.639   6.145   8.660
35445SOL     OW 6358   5.775   6.106   9.170
35445SOL    HW1 6359   5.834   6.066   9.100
35445SOL    HW2 6360   5.717   6.177   9.129
35446SOL     OW 6361   6.955   6.536   9.108
35446SOL    HW1 6362   6.994   6.625   9.128
35446SOL    HW2 6363   6.965   6.516   9.011
35447SOL     OW 6364   6.401   6.158   7.773
35447SOL    HW1 6365   6.408   6.069   7.727
35447SOL    HW2 6366   6.307   6.192   7.765
35448SOL     OW 6367   7.243   6.190   8.654
35448SOL    HW1 6368   7.205   6.121   8.716
35448SOL    HW2 6369   7.325   6.154   8.610
35449SOL     OW 6370   5.838   7.150   9.192
35449SOL    HW1 6371   5.808   7.207   9.268
35449SOL    HW2 6372   5.831   7.053   9.218
35450SOL     OW 6373   6.257   6.050   8.717
35450SOL    HW1 6374   6.223   5.961   8.687
35450SOL    HW2 6375   6.283   6.104   8.637
35451SOL     OW 6376   6.516   7.264   8.913
35451SOL    HW1 6377   6.492   7.246   8.818
35451SOL    HW2 6378   6.546   7.358   8.923
35452SOL     OW 6379   6.059   6.086   7.639
35452SOL    HW1 6380   6.120   6.166   7.643
35452SOL    HW2 6381   5.964   6.117   7.646
35453SOL     OW 6382   5.745   6.723   8.914
35453SOL    HW1 6383   5.767   6.662   8.990
35453SOL    HW2 6384   5.755   6.674   8.828
35454SOL     OW 6385   6.933   6.645   8.682
35454SOL    HW1 6386   6.957   6.582   8.608
35454SOL    HW2 6387   6.843   6.685   8.664
35455SOL     OW 6388   6.888   6.441   7.757
35455SOL    HW1 6389   6.802   6.410   7.799
35455SOL    HW2 6390   6.884   6.427   7.658
35456SOL     OW 6391   7.345   7.333   8.602
35456SOL    HW1 6392   7.406   7.363   8.529
35456SOL    HW2 6393   7.307   7.244   8.580
35457SOL     OW 6394   6.838   7.317   8.576
35457SOL    HW1 6395   6.922   7.322   8.522
35457SOL    HW2 6396   6.815   7.221   8.594
35458SOL     OW 6397   5.669   6.844   8.470
35458SOL    HW1 6398   5.664   6.843   8.570
35458SOL    HW2 6399   5.586   6.803   8.432
35459SOL     OW 6400   6.274   7.248   9.164
35459SOL    HW1 6401   6.218   7.329   9.173
35459SOL    HW2 6402   6.326   7.252   9.078
35460SOL     OW 6403   7.312   5.721   7.971
35460SOL    HW1 6404   7.385   5.704   7.904
35460SOL    HW2 6405   7.281   5.634   8.009
35461SOL     OW 6406   6.974   7.159   7.925
35461SOL    HW1 6407   7.041   7.171   7.851
35461SOL    HW2 6408   6.934   7.248   7.948
35462SOL     OW 6409   5.716   7.380   9.299
35462SOL    HW1 6410   5.675   7.306   9.352
35462SOL    HW2 6411   5.780   7.431   9.357
35463SOL     OW 6412   6.866   6.513   8.120
35463SOL    HW1 6413   6.926   6.432   8.122
35463SOL    HW2 6414   6.906   6.582   8.060
35464SOL     OW 6415   6.416   6.859   8.870
35464SOL    HW1 6416   6.411   6.892   8.965
35464SOL    HW2 6417   6.330   6.878   8.824
35465SOL     OW 6418   6.258   7.202   7.602
35465SOL    HW1 6419   6.267   7.212   7.503
35465SOL    HW2 6420   6.218   7.113   7.623
35466SOL     OW 6421   7.236   7.306   8.842
35466SOL    HW1 6422   7.289   7.316   8.758
35466SOL    HW2 6423   7.209   7.396   8.876
35467SOL     OW 6424   7.427   5.761   8.411
35467SOL    HW1 6425   7.466   5.676   8.375
35467SOL    HW2 6426   7.329   5.763   8.392
35468SOL     OW 6427   5.849   5.912   8.168
35468SOL    HW1 6428   5.770   5.963   8.134
35468SOL    HW2 6429   5.840   5.897   8.266
35469SOL     OW 6430   6.780   7.198   7.479
35469SOL    HW1 6431   6.786   7.105   7.516
35469SOL    HW2 6432   6.721   7.198   7.399
35470SOL     OW 6433   6.408   6.588   8.820
35470SOL    HW1 6434   6.448   6.587   8.728
35470SOL    HW2 6435   6.418   6.680   8.860
35471SOL     OW 6436   6.502   6.496   7.739
35471SOL    HW1 6437   6.565   6.534   7.671
35471SOL    HW2 6438   6.542   6.413   7.778
35472SOL     OW 6439   7.090   7.193   7.492
35472SOL    HW1 6440   6.998   7.230   7.499
35472SOL    HW2 6441   7.128   7.213   7.402
35473SOL     OW 6442   5.958   6.874   8.938
35473SOL    HW1 6443   5.945   6.967   8.904
35473SOL    HW2 6444   5.874   6.822   8.925
35474SOL     OW 6445   7.200   6.878   8.737
35474SOL    HW1 6446   7.260   6.881   8.817
35474SOL    HW2 6447   7.125   6.942   8.750
35475SOL     OW 6448   6.625   6.684   8.144
35475SOL    HW1 6449   6.555   6.637   8.198
35475SOL    HW2 6450   6.684   6.616   8.101
35476SOL     OW 6451   6.600   5.822   8.419
35476SOL    HW1 6452   6.592   5.786   8.326
35476SOL    HW2 6453   6.598   5.746   8.484
35477SOL     OW 6454   6.176   7.073   7.939
35477SOL    HW1 6455   6.218   7.015   7.869
35477SOL    HW2 6456   6.132   7.152   7.895
35478SOL     OW 6457   7.295   5.971   8.829
35478SOL    HW1 6458   7.368   6.040   8.833
35478SOL    HW2 6459   7.323   5.896   8.770
35479SOL     OW 6460   5.841   6.934   7.738
35479SOL    HW1 6461   5.745   6.935   7.711
35479SOL    HW2 6462   5.853   6.987   7.822
35480SOL     OW 6463   5.691   6.599   9.174
35480SOL    HW1 6464   5.614   6.566   9.228
35480SOL    HW2 6465   5.776   6.569   9.216
35481SOL     OW 6466   6.258   5.789   8.937
35481SOL    HW1 6467   6.348   5.773   8.897
35481SOL    HW2 6468   6.266   5.794   9.036
35482SOL     OW 6469   5.661   5.931   7.481
35482SOL    HW1 6470   5.569   5.903   7.452
35482SOL    HW2 6471   5.692   6.008   7.425
35483SOL     OW 6472   7.026   6.442   8.846
35483SOL    HW1 6473   6.969   6.494   8.783
35483SOL    HW2 6474   7.122   6.454   8.822
35484SOL     OW 6475   5.658   5.752   7.766
35484SOL    HW1 6476   5.641   5.835   7.712
35484SOL    HW2 6477   5.748   5.715   7.744
35485SOL     OW 6478   6.769   6.921   7.567
35485SOL    HW1 6479   6.670   6.910   7.569
35485SOL    HW2 6480   6.803   6.936   7.660
35486SOL     OW 6481   6.199   6.428   8.879
35486SOL    HW1 6482   6.255   6.509   8.862
35486SOL    HW2 6483   6.258   6.348   8.882
35487SOL     OW 6484   7.079   7.353   8.407
35487SOL    HW1 6485   7.112   7.417   8.338
35487SOL    HW2 6486   7.145   7.347   8.482
35488SOL     OW 6487   6.302   6.151   9.156
35488SOL    HW1 6488   6.321   6.216   9.230
35488SOL    HW2 6489   6.362   6.071   9.165
35489SOL     OW 6490   7.036   6.806   9.081
35489SOL    HW1 6491   7.027   6.796   9.180
35489SOL    HW2 6492   7.132   6.799   9.055
35490SOL     OW 6493   5.976   7.327   9.008
35490SOL    HW1 6494   5.885   7.368   9.006
35490SOL    HW2 6495   5.969   7.233   9.040
35491SOL     OW 6496   7.260   6.469   8.702
35491SOL    HW1 6497   7.233   6.380   8.665
35491SOL    HW2 6498   7.261   6.537   8.629
35492SOL     OW 6499   6.811   5.911   7.897
35492SOL    HW1 6500   6.876   5.837   7.886
35492SOL    HW2 6501   6.831   5.961   7.981
35493SOL     OW 6502   6.180   6.331   8.100
35493SOL    HW1 6503   6.230   6.416   8.081
35493SOL    HW2 6504   6.092   6.333   8.052
35494SOL     OW 6505   7.363   5.928   9.090
35494SOL    HW1 6506   7.346   5.959   8.996
35494SOL    HW2 6507   7.279   5.891   9.128
35495SOL     OW 6508   7.316   6.520   8.965
35495SOL    HW1 6509   7.354   6.611   8.980
35495SOL    HW2 6510   7.308   6.503   8.866
35496SOL     OW 6511   6.445   6.960   7.464
35496SOL    HW1 6512   6.399   6.975   7.552
35496SOL    HW2 6513   6.489   7.045   7.434
35497SOL     OW 6514   6.247   7.376   8.401
35497SOL    HW1 6515   6.201   7.464   8.388
35497SOL    HW2 6516   6.346   7.388   8.394
35498SOL     OW 6517   6.445   6.542   8.309
35498SOL    HW1 6518   6.499   6.473   8.357
35498SOL    HW2 6519   6.413   6.611   8.375
35499SOL     OW 6520   6.669   6.570   7.535
35499SOL    HW1 6521   6.646   6.623   7.453
35499SOL    HW2 6522   6.750   6.514   7.516
35500SOL     OW 6523   7.447   7.155   8.299
35500SOL    HW1 6524   7.376   7.143   8.229
35500SOL    HW2 6525   7.448   7.076   8.359
35501SOL     OW 6526   5.807   6.900   9.292
35501SOL    HW1 6527   5.742   6.827   9.271
35501SOL    HW2 6528   5.811   6.914   9.390
35502SOL     OW 6529   5.665   6.826   8.101
35502SOL    HW1 6530   5.664   6.779   8.189
35502SOL    HW2 6531   5.747   6.798   8.050
35503SOL     OW 6532   6.258   6.977   9.072
35503SOL    HW1 6533   6.180   6.927   9.110
35503SOL    HW2 6534   6.255   7.072   9.103
35504SOL     OW 6535   7.410   5.778   8.675
35504SOL    HW1 6536   7.406   5.688   8.719
35504SOL    HW2 6537   7.413   5.767   8.576
35505SOL     OW 6538   6.014   6.010   7.968
35505SOL    HW1 6539   6.044   5.938   7.906
35505SOL    HW2 6540   5.975   5.970   8.051
35506SOL     OW 6541   7.291   7.073   8.552
35506SOL    HW1 6542   7.198   7.048   8.525
35506SOL    HW2 6543   7.317   7.023   8.634
35507SOL     OW 6544   5.903   6.133   8.728
35507SOL    HW1 6545   5.941   6.074   8.800
35507SOL    HW2 6546   5.943   6.107   8.640
35508SOL     OW 6547   6.398   7.172   8.135
35508SOL    HW1 6548   6.430   7.182   8.041
35508SOL    HW2 6549   6.319   7.110   8.137
35509SOL     OW 6550   7.010   5.800   8.560
35509SOL    HW1 6551   7.062   5.735   8.615
35509SOL    HW2 6552   6.961   5.863   8.621
35510SOL     OW 6553   6.587   5.620   8.602
35510SOL    HW1 6554   6.524   5.548   8.571
35510SOL    HW2 6555   6.680   5.584   8.602
35511SOL     OW 6556   6.356   6.916   7.749
35511SOL    HW1 6557   6.310   6.829   7.766
35511SOL    HW2 6558   6.447   6.913   7.790
35512SOL     OW 6559   6.204   7.153   8.732
35512SOL    HW1 6560   6.199   7.235   8.789
35512SOL    HW2 6561   6.293   7.150   8.687
35513SOL     OW 6562   6.938   5.638   7.616
35513SOL    HW1 6563   6.973   5.597   7.532
35513SOL    HW2 6564   6.848   5.600   7.636
35514SOL     OW 6565   6.886   6.039   8.139
35514SOL    HW1 6566   6.827   6.119   8.143
35514SOL    HW2 6567   6.901   6.004   8.232
35515SOL     OW 6568   7.179   5.807   8.330
35515SOL    HW1 6569   7.095   5.806   8.384
35515SOL    HW2 6570   7.181   5.890   8.274
35516SOL     OW 6571   5.625   6.663   7.748
35516SOL    HW1 6572   5.724   6.652   7.739
35516SOL    HW2 6573   5.585   6.577   7.780
35517SOL     OW 6574   6.461   7.232   7.785
35517SOL    HW1 6575   6.384   7.197   7.731
35517SOL    HW2 6576   6.429   7.303   7.847
35518SOL     OW 6577   5.816   6.214   9.423
35518SOL    HW1 6578   5.723   6.212   9.460
35518SOL    HW2 6579   5.817   6.175   9.331
35519SOL     OW 6580   5.811   5.861  10.306
35519SOL    HW1 6581   5.846   5.844  10.398
35519SOL    HW2 6582   5.723   5.816  10.294
35520SOL     OW 6583   5.605   5.954   9.957
35520SOL    HW1 6584   5.523   5.997   9.996
35520SOL    HW2 6585   5.577   5.881   9.894
35521SOL     OW 6586   6.155   6.861  10.475
35521SOL    HW1 6587   6.062   6.854  10.438
35521SOL    HW2 6588   6.166   6.950  10.519
35522SOL     OW 6589   7.141   7.097  10.013
35522SOL    HW1 6590   7.084   7.081  10.094
35522SOL    HW2 6591   7.082   7.107   9.933
35523SOL     OW 6592   6.721   6.289  10.027
35523SOL    HW1 6593   6.778   6.367  10.002
35523SOL    HW2 6594   6.661   6.315  10.103
35524SOL     OW 6595   7.341   6.193   9.541
35524SOL    HW1 6596   7.329   6.180   9.442
35524SOL    HW2 6597   7.311   6.112   9.590
35525SOL     OW 6598   6.354   6.730  10.333
35525SOL    HW1 6599   6.276   6.747  10.393
35525SOL    HW2 6600   6.388   6.817  10.297
35526SOL     OW 6601   6.436   6.384  11.133
35526SOL    HW1 6602   6.432   6.460  11.198
35526SOL    HW2 6603   6.458   6.420  11.042
35527SOL     OW 6604   6.271   6.598   9.975
35527SOL    HW1 6605   6.340   6.582  10.045
35527SOL    HW2 6606   6.198   6.655  10.013
35528SOL     OW 6607   6.272   6.747  11.113
35528SOL    HW1 6608   6.332   6.826  11.127
35528SOL    HW2 6609   6.186   6.778  11.072
35529SOL     OW 6610   5.921   7.021  10.371
35529SOL    HW1 6611   5.843   6.990  10.318
35529SOL    HW2 6612   5.979   7.079  10.314
35530SOL     OW 6613   7.046   7.091  10.649
35530SOL    HW1 6614   7.070   7.185  10.675
35530SOL    HW2 6615   7.030   7.037  10.731
35531SOL     OW 6616   6.024   5.978  10.809
35531SOL    HW1 6617   6.106   5.922  10.818
35531SOL    HW2 6618   5.943   5.920  10.813
35532SOL     OW 6619   7.189   6.033  10.047
35532SOL    HW1 6620   7.115   6.079   9.997
35532SOL    HW2 6621   7.240   6.101  10.100
35533SOL     OW 6622   5.817   7.299   9.793
35533SOL    HW1 6623   5.851   7.376   9.847
35533SOL    HW2 6624   5.861   7.299   9.703
35534SOL     OW 6625   6.713   6.927  11.000
35534SOL    HW1 6626   6.760   6.927  11.088
35534SOL    HW2 6627   6.665   6.840  10.989
35535SOL     OW 6628   5.816   7.020   9.848
35535SOL    HW1 6629   5.790   7.116   9.848
35535SOL    HW2 6630   5.745   6.966   9.893
35536SOL     OW 6631   5.826   6.677  10.196
35536SOL    HW1 6632   5.840   6.593  10.248
35536SOL    HW2 6633   5.771   6.741  10.251
35537SOL     OW 6634   6.206   7.372  10.749
35537SOL    HW1 6635   6.114   7.355  10.784
35537SOL    HW2 6636   6.234   7.464  10.775
35538SOL     OW 6637   6.192   6.550   9.433
35538SOL    HW1 6638   6.199   6.634   9.379
35538SOL    HW2 6639   6.238   6.563   9.521
35539SOL     OW 6640   7.180   5.700  10.790
35539SOL    HW1 6641   7.162   5.767  10.718
35539SOL    HW2 6642   7.177   5.746  10.879
35540SOL     OW 6643   5.708   6.229   9.873
35540SOL    HW1 6644   5.663   6.141   9.890
35540SOL    HW2 6645   5.707   6.283   9.957
35541SOL     OW 6646   7.428   7.353   9.669
35541SOL    HW1 6647   7.482   7.324   9.749
35541SOL    HW2 6648   7.458   7.443   9.640
35542SOL     OW 6649   5.613   7.182   9.427
35542SOL    HW1 6650   5.594   7.086   9.448
35542SOL    HW2 6651   5.580   7.240   9.502
35543SOL     OW 6652   7.275   6.508   9.922
35543SOL    HW1 6653   7.370   6.479   9.930
35543SOL    HW2 6654   7.267   6.573   9.847
35544SOL     OW 6655   7.227   6.694   9.742
35544SOL    HW1 6656   7.313   6.696   9.690
35544SOL    HW2 6657   7.241   6.741   9.830
35545SOL     OW 6658   5.699   6.323  10.907
35545SOL    HW1 6659   5.787   6.310  10.952
35545SOL    HW2 6660   5.686   6.420  10.885
35546SOL     OW 6661   6.199   6.951  10.036
35546SOL    HW1 6662   6.150   6.864  10.045
35546SOL    HW2 6663   6.176   6.994   9.949
35547SOL     OW 6664   6.879   6.814  10.733
35547SOL    HW1 6665   6.916   6.741  10.675
35547SOL    HW2 6666   6.931   6.819  10.818
35548SOL     OW 6667   6.395   5.590   9.812
35548SOL    HW1 6668   6.435   5.681   9.803
35548SOL    HW2 6669   6.295   5.598   9.818
35549SOL     OW 6670   5.783   6.562  10.574
35549SOL    HW1 6671   5.872   6.517  10.560
35549SOL    HW2 6672   5.710   6.497  10.555
35550SOL     OW 6673   7.111   6.585   9.500
35550SOL    HW1 6674   7.048   6.509   9.513
35550SOL    HW2 6675   7.159   6.603   9.586
35551SOL     OW 6676   6.773   7.378  10.926
35551SOL    HW1 6677   6.797   7.438  10.850
35551SOL    HW2 6678   6.780   7.283  10.896
35552SOL     OW 6679   5.903   5.837  11.111
35552SOL    HW1 6680   5.974   5.908  11.117
35552SOL    HW2 6681   5.815   5.876  11.139
35553SOL     OW 6682   7.052   7.003  10.263
35553SOL    HW1 6683   6.993   7.009  10.343
35553SOL    HW2 6684   7.037   6.915  10.217
35554SOL     OW 6685   7.253   7.300   9.882
35554SOL    HW1 6686   7.212   7.277   9.794
35554SOL    HW2 6687   7.235   7.226   9.947
35555SOL     OW 6688   6.184   6.315   9.580
35555SOL    HW1 6689   6.208   6.384   9.512
35555SOL    HW2 6690   6.106   6.348   9.634
35556SOL     OW 6691   6.867   5.931  10.254
35556SOL    HW1 6692   6.781   5.881  10.241
35556SOL    HW2 6693   6.929   5.877  10.310
35557SOL     OW 6694   7.162   7.248   9.617
35557SOL    HW1 6695   7.251   7.294   9.620
35557SOL    HW2 6696   7.141   7.224   9.522
35558SOL     OW 6697   6.393   6.191  10.775
35558SOL    HW1 6698   6.346   6.188  10.864
35558SOL    HW2 6699   6.342   6.136  10.709
35559SOL     OW 6700   6.980   6.055  10.984
35559SOL    HW1 6701   6.960   6.098  11.072
35559SOL    HW2 6702   7.058   5.993  10.993
35560SOL     OW 6703   6.559   6.476  10.882
35560SOL    HW1 6704   6.605   6.392  10.853
35560SOL    HW2 6705   6.503   6.510  10.807
35561SOL     OW 6706   6.577   5.996  10.552
35561SOL    HW1 6707   6.500   6.030  10.606
35561SOL    HW2 6708   6.543   5.945  10.473
35562SOL     OW 6709   6.627   6.287   9.739
35562SOL    HW1 6710   6.653   6.283   9.835
35562SOL    HW2 6711   6.542   6.236   9.725
35563SOL     OW 6712   5.662   6.397  10.099
35563SOL    HW1 6713   5.761   6.385  10.108
35563SOL    HW2 6714   5.638   6.492  10.120
35564SOL     OW 6715   5.716   7.407  10.881
35564SOL    HW1 6716   5.706   7.392  10.980
35564SOL    HW2 6717   5.630   7.443  10.845
35565SOL     OW 6718   6.451   5.934   9.505
35565SOL    HW1 6719   6.510   5.997   9.456
35565SOL    HW2 6720   6.470   5.840   9.476
35566SOL     OW 6721   7.305   6.171  11.141
35566SOL    HW1 6722   7.279   6.260  11.105
35566SOL    HW2 6723   7.303   6.103  11.068
35567SOL     OW 6724   6.948   6.730   9.855
35567SOL    HW1 6725   7.031   6.701   9.807
35567SOL    HW2 6726   6.899   6.797   9.799
35568SOL     OW 6727   6.136   5.782  10.195
35568SOL    HW1 6728   6.131   5.777  10.295
35568SOL    HW2 6729   6.138   5.878  10.166
35569SOL     OW 6730   6.594   7.042   9.787
35569SOL    HW1 6731   6.548   7.114   9.735
35569SOL    HW2 6732   6.590   7.062   9.885
35570SOL     OW 6733   5.937   7.387  10.163
35570SOL    HW1 6734   5.987   7.301  10.169
35570SOL    HW2 6735   6.002   7.464  10.160
35571SOL     OW 6736   7.381   6.652  10.183
35571SOL    HW1 6737   7.319   6.637  10.107
35571SOL    HW2 6738   7.329   6.663  10.268
35572SOL     OW 6739   6.813   7.136  10.816
35572SOL    HW1 6740   6.819   7.059  10.880
35572SOL    HW2 6741   6.761   7.110  10.736
35573SOL     OW 6742   5.907   6.529   9.552
35573SOL    HW1 6743   5.989   6.568   9.510
35573SOL    HW2 6744   5.880   6.447   9.503
35574SOL     OW 6745   7.044   6.321  10.038
35574SOL    HW1 6746   7.039   6.256  10.113
35574SOL    HW2 6747   7.124   6.380  10.051
35575SOL     OW 6748   6.047   6.852  11.037
35575SOL    HW1 6749   5.997   6.853  10.951
35575SOL    HW2 6750   5.984   6.834  11.113
35576SOL     OW 6751   6.697   7.362   9.547
35576SOL    HW1 6752   6.637   7.300   9.597
35576SOL    HW2 6753   6.728   7.318   9.462
35577SOL     OW 6754   5.788   5.871  10.808
35577SOL    HW1 6755   5.708   5.931  10.795
35577SOL    HW2 6756   5.778   5.822  10.894
35578SOL     OW 6757   7.218   6.963   9.391
35578SOL    HW1 6758   7.186   7.057   9.381
35578SOL    HW2 6759   7.142   6.900   9.379
35579SOL     OW 6760   6.050   7.329   9.633
35579SOL    HW1 6761   6.083   7.368   9.719
35579SOL    HW2 6762   6.126   7.322   9.568
35580SOL     OW 6763   6.986   5.693   9.736
35580SOL    HW1 6764   6.962   5.656   9.646
35580SOL    HW2 6765   7.085   5.709   9.740
35581SOL     OW 6766   5.835   7.371  10.551
35581SOL    HW1 6767   5.892   7.306  10.601
35581SOL    HW2 6768   5.819   7.338  10.458
35582SOL     OW 6769   6.526   7.284  10.214
35582SOL    HW1 6770   6.606   7.227  10.235
35582SOL    HW2 6771   6.477   7.244  10.137
35583SOL     OW 6772   5.968   6.286   9.790
35583SOL    HW1 6773   6.013   6.196   9.787
35583SOL    HW2 6774   5.874   6.275   9.823
35584SOL     OW 6775   7.133   5.808  11.039
35584SOL    HW1 6776   7.128   5.845  11.131
35584SOL    HW2 6777   7.061   5.739  11.027
35585SOL     OW 6778   6.200   5.708   9.427
35585SOL    HW1 6779   6.298   5.686   9.434
35585SOL    HW2 6780   6.169   5.691   9.334
35586SOL     OW 6781   6.367   5.850  11.059
35586SOL    HW1 6782   6.434   5.789  11.102
35586SOL    HW2 6783   6.294   5.869  11.124
35587SOL     OW 6784   6.474   7.100  10.505
35587SOL    HW1 6785   6.451   7.075  10.411
35587SOL    HW2 6786   6.535   7.031  10.544
35588SOL     OW 6787   6.937   6.176  10.743
35588SOL    HW1 6788   6.965   6.133  10.828
35588SOL    HW2 6789   6.962   6.272  10.744
35589SOL     OW 6790   6.389   6.988  10.234
35589SOL    HW1 6791   6.479   7.002  10.192
35589SOL    HW2 6792   6.318   6.990  10.163
35590SOL     OW 6793   6.508   6.089  10.209
35590SOL    HW1 6794   6.483   6.080  10.113
35590SOL    HW2 6795   6.556   6.007  10.240
35591SOL     OW 6796   6.125   5.650   9.822
35591SOL    HW1 6797   6.044   5.651   9.880
35591SOL    HW2 6798   6.128   5.733   9.767
35592SOL     OW 6799   7.020   6.774   9.351
35592SOL    HW1 6800   7.052   6.698   9.408
35592SOL    HW2 6801   6.928   6.801   9.381
35593SOL     OW 6802   5.883   5.621   9.481
35593SOL    HW1 6803   5.932   5.705   9.460
35593SOL    HW2 6804   5.945   5.556   9.526
35594SOL     OW 6805   6.521   5.822   9.790
35594SOL    HW1 6806   6.473   5.863   9.712
35594SOL    HW2 6807   6.620   5.820   9.771
35595SOL     OW 6808   6.662   6.269  10.774
35595SOL    HW1 6809   6.582   6.208  10.777
35595SOL    HW2 6810   6.743   6.216  10.750
35596SOL     OW 6811   6.813   7.156  10.103
35596SOL    HW1 6812   6.834   7.230  10.038
35596SOL    HW2 6813   6.881   7.156  10.176
35597SOL     OW 6814   6.045   6.738  10.051
35597SOL    HW1 6815   5.974   6.711  10.116
35597SOL    HW2 6816   6.019   6.710   9.958
35598SOL     OW 6817   6.857   7.383   9.901
35598SOL    HW1 6818   6.901   7.447   9.837
35598SOL    HW2 6819   6.807   7.435   9.971
35599SOL     OW 6820   6.618   6.135   9.326
35599SOL    HW1 6821   6.577   6.217   9.287
35599SOL    HW2 6822   6.682   6.161   9.399
35600SOL     OW 6823   5.664   6.142  10.696
35600SOL    HW1 6824   5.756   6.141  10.655
35600SOL    HW2 6825   5.658   6.216  10.763
35601SOL     OW 6826   6.147   5.808  10.457
35601SOL    HW1 6827   6.185   5.724  10.494
35601SOL    HW2 6828   6.059   5.827  10.501
35602SOL     OW 6829   6.452   6.040   9.952
35602SOL    HW1 6830   6.420   6.112   9.890
35602SOL    HW2 6831   6.476   5.959   9.899
35603SOL     OW 6832   6.603   5.625  10.063
35603SOL    HW1 6833   6.531   5.630   9.994
35603SOL    HW2 6834   6.579   5.556  10.132
35604SOL     OW 6835   7.015   6.759  10.177
35604SOL    HW1 6836   6.960   6.675  10.170
35604SOL    HW2 6837   7.041   6.788  10.085
35605SOL     OW 6838   7.052   6.176  10.302
35605SOL    HW1 6839   7.022   6.081  10.309
35605SOL    HW2 6840   7.125   6.192  10.368
35606SOL     OW 6841   7.443   6.419   9.687
35606SOL    HW1 6842   7.485   6.355   9.751
35606SOL    HW2 6843   7.405   6.368   9.609
35607SOL     OW 6844   6.074   6.971   9.484
35607SOL    HW1 6845   5.987   6.956   9.531
35607SOL    HW2 6846   6.057   6.997   9.389
35608SOL     OW 6847   7.250   6.866   9.967
35608SOL    HW1 6848   7.349   6.874   9.981
35608SOL    HW2 6849   7.205   6.950   9.998
35609SOL     OW 6850   6.976   6.161   9.388
35609SOL    HW1 6851   6.922   6.140   9.469
35609SOL    HW2 6852   7.067   6.120   9.397
35610SOL     OW 6853   6.113   5.842   9.638
35610SOL    HW1 6854   6.140   5.783   9.563
35610SOL    HW2 6855   6.113   5.937   9.607
35611SOL     OW 6856   7.340   6.809  10.898
35611SOL    HW1 6857   7.431   6.770  10.885
35611SOL    HW2 6858   7.348   6.905  10.922
35612SOL     OW 6859   6.650   6.933  10.650
35612SOL    HW1 6860   6.570   6.910  10.705
35612SOL    HW2 6861   6.733   6.907  10.699
35613SOL     OW 6862   7.178   7.215  10.935
35613SOL    HW1 6863   7.205   7.249  10.845
35613SOL    HW2 6864   7.257   7.177  10.981
35614SOL     OW 6865   6.697   6.781  10.410
35614SOL    HW1 6866   6.657   6.825  10.491
35614SOL    HW2 6867   6.656   6.818  10.327
35615SOL     OW 6868   7.224   6.685  10.389
35615SOL    HW1 6869   7.229   6.766  10.448
35615SOL    HW2 6870   7.138   6.687  10.338
35616SOL     OW 6871   6.501   5.675  10.712
35616SOL    HW1 6872   6.526   5.655  10.617
35616SOL    HW2 6873   6.573   5.731  10.754
35617SOL     OW 6874   6.566   6.702  11.029
35617SOL    HW1 6875   6.467   6.708  11.039
35617SOL    HW2 6876   6.589   6.622  10.973
35618SOL     OW 6877   6.291   6.636   9.678
35618SOL    HW1 6878   6.277   6.643   9.777
35618SOL    HW2 6879   6.375   6.585   9.660
35619SOL     OW 6880   5.996   6.399  10.561
35619SOL    HW1 6881   6.082   6.411  10.611
35619SOL    HW2 6882   5.954   6.312  10.588
35620SOL     OW 6883   6.860   5.972  10.572
35620SOL    HW1 6884   6.881   6.046  10.636
35620SOL    HW2 6885   6.771   5.989  10.529
35621SOL     OW 6886   5.650   7.150  10.641
35621SOL    HW1 6887   5.604   7.232  10.607
35621SOL    HW2 6888   5.748   7.169  10.650
35622SOL     OW 6889   5.953   6.686   9.811
35622SOL    HW1 6890   5.946   6.769   9.755
35622SOL    HW2 6891   5.957   6.606   9.751
35623SOL     OW 6892   6.152   6.123  10.175
35623SOL    HW1 6893   6.164   6.189  10.101
35623SOL    HW2 6894   6.198   6.157  10.258
35624SOL     OW 6895   6.838   6.934   9.698
35624SOL    HW1 6896   6.888   7.011   9.738
35624SOL    HW2 6897   6.743   6.936   9.730
35625SOL     OW 6898   6.858   7.031  10.452
35625SOL    HW1 6899   6.905   7.044  10.539
35625SOL    HW2 6900   6.792   6.957  10.461
35626SOL     OW 6901   7.168   6.225   9.782
35626SOL    HW1 6902   7.137   6.286   9.855
35626SOL    HW2 6903   7.218   6.277   9.713
35627SOL     OW 6904   5.940   7.096  10.639
35627SOL    HW1 6905   5.919   7.052  10.552
35627SOL    HW2 6906   6.037   7.122  10.642
35628SOL     OW 6907   5.988   6.337  10.908
35628SOL    HW1 6908   6.056   6.392  10.861
35628SOL    HW2 6909   6.028   6.249  10.935
35629SOL     OW 6910   7.173   6.365  10.980
35629SOL    HW1 6911   7.081   6.403  10.975
35629SOL    HW2 6912   7.233   6.412  10.915
35630SOL     OW 6913   6.599   5.691  11.080
35630SOL    HW1 6914   6.605   5.776  11.028
35630SOL    HW2 6915   6.631   5.615  11.023
35631SOL     OW 6916   6.090   5.636  11.050
35631SOL    HW1 6917   6.048   5.579  10.980
35631SOL    HW2 6918   6.024   5.705  11.082
35632SOL     OW 6919   6.159   6.456  10.339
35632SOL    HW1 6920   6.203   6.545  10.330
35632SOL    HW2 6921   6.096   6.456  10.416
35633SOL     OW 6922   6.946   6.448  10.355
35633SOL    HW1 6923   6.871   6.448  10.289
35633SOL    HW2 6924   6.983   6.356  10.364
35634SOL     OW 6925   6.795   6.111   9.585
35634SOL    HW1 6926   6.808   6.027   9.639
35634SOL    HW2 6927   6.766   6.185   9.645
35635SOL     OW 6928   5.893   5.799  10.541
35635SOL    HW1 6929   5.870   5.836  10.631
35635SOL    HW2 6930   5.863   5.704  10.535
35636SOL     OW 6931   5.623   6.896  10.592
35636SOL    HW1 6932   5.676   6.847  10.660
35636SOL    HW2 6933   5.645   6.994  10.597
35637SOL     OW 6934   6.318   6.220  10.374
35637SOL    HW1 6935   6.377   6.194  10.298
35637SOL    HW2 6936   6.290   6.316  10.363
35638SOL     OW 6937   7.314   6.521  11.164
35638SOL    HW1 6938   7.268   6.514  11.075
35638SOL    HW2 6939   7.252   6.565  11.230
35639SOL     OW 6940   5.893   5.649   9.928
35639SOL    HW1 6941   5.882   5.743   9.961
35639SOL    HW2 6942   5.888   5.586  10.005
35640SOL     OW 6943   7.208   5.953   9.684
35640SOL    HW1 6944   7.210   5.877   9.748
35640SOL    HW2 6945   7.160   6.030   9.724
35641SOL     OW 6946   6.609   6.352  10.276
35641SOL    HW1 6947   6.624   6.373  10.372
35641SOL    HW2 6948   6.579   6.257  10.267
35642SOL     OW 6949   6.566   7.159  11.010
35642SOL    HW1 6950   6.546   7.203  10.922
35642SOL    HW2 6951   6.605   7.068  10.994
35643SOL     OW 6952   7.445   7.104  10.915
35643SOL    HW1 6953   7.459   7.131  10.820
35643SOL    HW2 6954   7.528   7.126  10.968
35644SOL     OW 6955   5.936   6.484  11.114
35644SOL    HW1 6956   6.012   6.528  11.162
35644SOL    HW2 6957   5.971   6.437  11.032
35645SOL     OW 6958   7.126   5.860   9.435
35645SOL    HW1 6959   7.065   5.785   9.458
35645SOL    HW2 6960   7.148   5.912   9.518
35646SOL     OW 6961   6.889   6.424   9.352
35646SOL    HW1 6962   6.923   6.331   9.367
35646SOL    HW2 6963   6.907   6.451   9.257
35647SOL     OW 6964   6.654   6.919  10.159
35647SOL    HW1 6965   6.661   6.835  10.104
35647SOL    HW2 6966   6.716   6.988  10.123
35648SOL     OW 6967   5.905   6.396  10.259
35648SOL    HW1 6968   5.998   6.432  10.264
35648SOL    HW2 6969   5.899   6.311  10.311
35649SOL     OW 6970   5.925   6.095  10.316
35649SOL    HW1 6971   5.873   6.012  10.299
35649SOL    HW2 6972   6.002   6.100  10.252
35650SOL     OW 6973   6.724   5.966  10.988
35650SOL    HW1 6974   6.679   6.029  11.052
35650SOL    HW2 6975   6.817   5.997  10.971
35651SOL     OW 6976   6.746   5.793  10.787
35651SOL    HW1 6977   6.746   5.857  10.864
35651SOL    HW2 6978   6.774   5.841  10.704
35652SOL     OW 6979   5.594   6.912   9.510
35652SOL    HW1 6980   5.501   6.933   9.479
35652SOL    HW2 6981   5.604   6.813   9.523
35653SOL     OW 6982   5.674   7.387  10.237
35653SOL    HW1 6983   5.632   7.301  10.210
35653SOL    HW2 6984   5.768   7.390  10.203
35654SOL     OW 6985   6.090   7.154  10.220
35654SOL    HW1 6986   6.156   7.228  10.229
35654SOL    HW2 6987   6.134   7.075  10.178
35655SOL     OW 6988   6.588   6.382  10.548
35655SOL    HW1 6989   6.629   6.350  10.634
35655SOL    HW2 6990   6.492   6.355  10.545
35656SOL     OW 6991   5.626   6.130  10.424
35656SOL    HW1 6992   5.711   6.097  10.383
35656SOL    HW2 6993   5.639   6.145  10.522
35657SOL     OW 6994   5.775   6.106  11.032
35657SOL    HW1 6995   5.834   6.066  10.962
35657SOL    HW2 6996   5.717   6.177  10.991
35658SOL     OW 6997   6.955   6.536  10.970
35658SOL    HW1 6998   6.994   6.625  10.990
35658SOL    HW2 6999   6.965   6.516  10.873
35659SOL     OW 7000   6.401   6.158   9.635
35659SOL    HW1 7001   6.408   6.069   9.589
35659SOL    HW2 7002   6.307   6.192   9.627
35660SOL     OW 7003   7.243   6.190  10.516
35660SOL    HW1 7004   7.205   6.121  10.578
35660SOL    HW2 7005   7.325   6.154  10.472
35661SOL     OW 7006   5.838   7.150  11.054
35661SOL    HW1 7007   5.808   7.207  11.130
35661SOL    HW2 7008   5.831   7.053  11.080
35662SOL     OW 7009   6.257   6.050  10.579
35662SOL    HW1 7010   6.223   5.961  10.549
35662SOL    HW2 7011   6.283   6.104  10.499
35663SOL     OW 7012   6.516   7.264  10.775
35663SOL    HW1 7013   6.492   7.246  10.680
35663SOL    HW2 7014   6.546   7.358  10.785
35664SOL     OW 7015   6.059   6.086   9.501
35664SOL    HW1 7016   6.120   6.166   9.505
35664SOL    HW2 7017   5.964   6.117   9.508
35665SOL     OW 7018   5.745   6.723  10.776
35665SOL    HW1 7019   5.767   6.662  10.852
35665SOL    HW2 7020   5.755   6.674  10.690
35666SOL     OW 7021   6.933   6.645  10.544
35666SOL    HW1 7022   6.957   6.582  10.470
35666SOL    HW2 7023   6.843   6.685  10.526
35667SOL     OW 7024   6.888   6.441   9.619
35667SOL    HW1 7025   6.802   6.410   9.661
35667SOL    HW2 7026   6.884   6.427   9.520
35668SOL     OW 7027   7.345   7.333  10.464
35668SOL    HW1 7028   7.406   7.363  10.391
35668SOL    HW2 7029   7.307   7.244  10.442
35669SOL     OW 7030   6.838   7.317  10.438
35669SOL    HW1 7031   6.922   7.322  10.384
35669SOL    HW2 7032   6.815   7.221  10.456
35670SOL     OW 7033   5.669   6.844  10.332
35670SOL    HW1 7034   5.664   6.843  10.432
35670SOL    HW2 7035   5.586   6.803  10.294
35671SOL     OW 7036   6.274   7.248  11.026
35671SOL    HW1 7037   6.218   7.329  11.035
35671SOL    HW2 7038   6.326   7.252  10.940
35672SOL     OW 7039   7.312   5.721   9.833
35672SOL    HW1 7040   7.385   5.704   9.766
35672SOL    HW2 7041   7.281   5.634   9.871
35673SOL     OW 7042   6.974   7.159   9.787
35673SOL    HW1 7043   7.041   7.171   9.713
35673SOL    HW2 7044   6.934   7.248   9.810
35674SOL     OW 7045   5.716   7.380  11.161
35674SOL    HW1 7046   5.675   7.306  11.214
35674SOL    HW2 7047   5.780   7.431  11.219
35675SOL     OW 7048   6.866   6.513   9.982
35675SOL    HW1 7049   6.926   6.432   9.984
35675SOL    HW2 7050   6.906   6.582   9.922
35676SOL     OW 7051   6.416   6.859  10.732
35676SOL    HW1 7052   6.411   6.892  10.827
35676SOL    HW2 7053   6.330   6.878  10.686
35677SOL     OW 7054   6.258   7.202   9.464
35677SOL    HW1 7055   6.267   7.212   9.365
35677SOL    HW2 7056   6.218   7.113   9.485
35678SOL     OW 7057   7.236   7.306  10.704
35678SOL    HW1 7058   7.289   7.316  10.620
35678SOL    HW2 7059   7.209   7.396  10.738
35679SOL     OW 7060   7.427   5.761  10.273
35679SOL    HW1 7061   7.466   5.676  10.237
35679SOL    HW2 7062   7.329   5.763  10.254
35680SOL     OW 7063   5.849   5.912  10.030
35680SOL    HW1 7064   5.770   5.963   9.996
35680SOL    HW2 7065   5.840   5.897  10.128
35681SOL     OW 7066   6.780   7.198   9.341
35681SOL    HW1 7067   6.786   7.105   9.378
35681SOL    HW2 7068   6.721   7.198   9.261
35682SOL     OW 7069   6.408   6.588  10.682
35682SOL    HW1 7070   6.448   6.587  10.590
35682SOL    HW2 7071   6.418   6.680  10.722
35683SOL     OW 7072   6.502   6.496   9.601
35683SOL    HW1 7073   6.565   6.534   9.533
35683SOL    HW2 7074   6.542   6.413   9.640
35684SOL     OW 7075   7.090   7.193   9.354
35684SOL    HW1 7076   6.998   7.230   9.361
35684SOL    HW2 7077   7.128   7.213   9.264
35685SOL     OW 7078   5.958   6.874  10.800
35685SOL    HW1 7079   5.945   6.967  10.766
35685SOL    HW2 7080   5.874   6.822  10.787
35686SOL     OW 7081   7.200   6.878  10.599
35686SOL    HW1 7082   7.260   6.881  10.679
35686SOL    HW2 7083   7.125   6.942  10.612
35687SOL     OW 7084   6.625   6.684  10.006
35687SOL    HW1 7085   6.555   6.637  10.060
35687SOL    HW2 7086   6.684   6.616   9.963
35688SOL     OW 7087   6.600   5.822  10.281
35688SOL    HW1 7088   6.592   5.786  10.188
35688SOL    HW2 7089   6.598   5.746  10.346
35689SOL     OW 7090   6.176   7.073   9.801
35689SOL    HW1 7091   6.218   7.015   9.731
35689SOL    HW2 7092   6.132   7.152   9.757
35690SOL     OW 7093   7.295   5.971  10.691
35690SOL    HW1 7094   7.368   6.040  10.695
35690SOL    HW2 7095   7.323   5.896  10.632
35691SOL     OW 7096   5.841   6.934   9.600
35691SOL    HW1 7097   5.745   6.935   9.573
35691SOL    HW2 7098   5.853   6.987   9.684
35692SOL     OW 7099   5.691   6.599  11.036
35692SOL    HW1 7100   5.614   6.566  11.090
35692SOL    HW2 7101   5.776   6.569  11.078
35693SOL     OW 7102   6.258   5.789  10.799
35693SOL    HW1 7103   6.348   5.773  10.759
35693SOL    HW2 7104   6.266   5.794  10.898
35694SOL     OW 7105   5.661   5.931   9.343
35694SOL    HW1 7106   5.569   5.903   9.314
35694SOL    HW2 7107   5.692   6.008   9.287
35695SOL     OW 7108   7.026   6.442  10.708
35695SOL    HW1 7109   6.969   6.494  10.645
35695SOL    HW2 7110   7.122   6.454  10.684
35696SOL     OW 7111   5.658   5.752   9.628
35696SOL    HW1 7112   5.641   5.835   9.574
35696SOL    HW2 7113   5.748   5.715   9.606
35697SOL     OW 7114   6.769   6.921   9.429
35697SOL    HW1 7115   6.670   6.910   9.431
35697SOL    HW2 7116   6.803   6.936   9.522
35698SOL     OW 7117   6.199   6.428  10.741
35698SOL    HW1 7118   6.255   6.509  10.724
35698SOL    HW2 7119   6.258   6.348  10.744
35699SOL     OW 7120   7.079   7.353  10.269
35699SOL    HW1 7121   7.112   7.417  10.200
35699SOL    HW2 7122   7.145   7.347  10.344
35700SOL     OW 7123   6.302   6.151  11.018
35700SOL    HW1 7124   6.321   6.216  11.092
35700SOL    HW2 7125   6.362   6.071  11.027
35701SOL     OW 7126   7.036   6.806  10.943
35701SOL    HW1 7127   7.027   6.796  11.042
35701SOL    HW2 7128   7.132   6.799  10.917
35702SOL     OW 7129   5.976   7.327  10.870
35702SOL    HW1 7130   5.885   7.368  10.868
35702SOL    HW2 7131   5.969   7.233  10.902
35703SOL     OW 7132   7.260   6.469  10.564
35703SOL    HW1 7133   7.233   6.380  10.527
35703SOL    HW2 7134   7.261   6.537  10.491
35704SOL     OW 7135   6.811   5.911   9.759
35704SOL    HW1 7136   6.876   5.837   9.748
35704SOL    HW2 7137   6.831   5.961   9.843
35705SOL     OW 7138   6.180   6.331   9.962
35705SOL    HW1 7139   6.230   6.416   9.943
35705SOL    HW2 7140   6.092   6.333   9.914
35706SOL     OW 7141   7.363   5.928  10.952
35706SOL    HW1 7142   7.346   5.959  10.858
35706SOL    HW2 7143   7.279   5.891  10.990
35707SOL     OW 7144   7.316   6.520  10.827
35707SOL    HW1 7145   7.354   6.611  10.842
35707SOL    HW2 7146   7.308   6.503  10.728
35708SOL     OW 7147   6.445   6.960   9.326
35708SOL    HW1 7148   6.399   6.975   9.414
35708SOL    HW2 7149   6.489   7.045   9.296
35709SOL     OW 7150   6.247   7.376  10.263
35709SOL    HW1 7151   6.201   7.464  10.250
35709SOL    HW2 7152   6.346   7.388  10.256
35710SOL     OW 7153   6.445   6.542  10.171
35710SOL    HW1 7154   6.499   6.473  10.219
35710SOL    HW2 7155   6.413   6.611  10.237
35711SOL     OW 7156   6.669   6.570   9.397
35711SOL    HW1 7157   6.646   6.623   9.315
35711SOL    HW2 7158   6.750   6.514   9.378
35712SOL     OW 7159   7.447   7.155  10.161
35712SOL    HW1 7160   7.376   7.143  10.091
35712SOL    HW2 7161   7.448   7.076  10.221
35713SOL     OW 7162   5.807   6.900  11.154
35713SOL    HW1 7163   5.742   6.827  11.133
35713SOL    HW2 7164   5.811   6.914  11.252
35714SOL     OW 7165   5.665   6.826   9.963
35714SOL    HW1 7166   5.664   6.779  10.051
35714SOL    HW2 7167   5.747   6.798   9.912
35715SOL     OW 7168   6.258   6.977  10.934
35715SOL    HW1 7169   6.180   6.927  10.972
35715SOL    HW2 7170   6.255   7.072  10.965
35716SOL     OW 7171   7.410   5.778  10.537
35716SOL    HW1 7172   7.406   5.688  10.581
35716SOL    HW2 7173   7.413   5.767  10.438
35717SOL     OW 7174   6.014   6.010   9.830
35717SOL    HW1 7175   6.044   5.938   9.768
35717SOL    HW2 7176   5.975   5.970   9.913
35718SOL     OW 7177   7.291   7.073  10.414
35718SOL    HW1 7178   7.198   7.048  10.387
35718SOL    HW2 7179   7.317   7.023  10.496
35719SOL     OW 7180   5.903   6.133  10.590
35719SOL    HW1 7181   5.941   6.074  10.662
35719SOL    HW2 7182   5.943   6.107  10.502
35720SOL     OW 7183   6.398   7.172   9.997
35720SOL    HW1 7184   6.430   7.182   9.903
35720SOL    HW2 7185   6.319   7.110   9.999
35721SOL     OW 7186   7.010   5.800  10.422
35721SOL    HW1 7187   7.062   5.735  10.477
35721SOL    HW2 7188   6.961   5.863  10.483
35722SOL     OW 7189   6.587   5.620  10.464
35722SOL    HW1 7190   6.524   5.548  10.433
35722SOL    HW2 7191   6.680   5.584  10.464
35723SOL     OW 7192   6.356   6.916   9.611
35723SOL    HW1 7193   6.310   6.829   9.628
35723SOL    HW2 7194   6.447   6.913   9.652
35724SOL     OW 7195   6.204   7.153  10.594
35724SOL    HW1 7196   6.199   7.235  10.651
35724SOL    HW2 7197   6.293   7.150  10.549
35725SOL     OW 7198   6.938   5.638   9.478
35725SOL    HW1 7199   6.973   5.597   9.394
35725SOL    HW2 7200   6.848   5.600   9.498
35726SOL     OW 7201   6.886   6.039  10.001
35726SOL    HW1 7202   6.827   6.119  10.005
35726SOL    HW2 7203   6.901   6.004  10.094
35727SOL     OW 7204   7.179   5.807  10.192
35727SOL    HW1 7205   7.095   5.806  10.246
35727SOL    HW2 7206   7.181   5.890  10.136
35728SOL     OW 7207   5.625   6.663   9.610
35728SOL    HW1 7208   5.724   6.652   9.601
35728SOL    HW2 7209   5.585   6.577   9.642
35729SOL     OW 7210   6.461   7.232   9.647
35729SOL    HW1 7211   6.384   7.197   9.593
35729SOL    HW2 7212   6.429   7.303   9.709
35730SOL     OW 7213   5.816   6.214  11.285
35730SOL    HW1 7214   5.723   6.212  11.322
35730SOL    HW2 7215   5.817   6.175  11.193
35731SOL     OW 7216   5.811   5.861  12.168
35731SOL    HW1 7217   5.846   5.844  12.260
35731SOL    HW2 7218   5.723   5.816  12.156
35732SOL     OW 7219   5.605   5.954  11.819
35732SOL    HW1 7220   5.523   5.997  11.858
35732SOL    HW2 7221   5.577   5.881  11.756
35733SOL     OW 7222   6.155   6.861  12.337
35733SOL    HW1 7223   6.062   6.854  12.300
35733SOL    HW2 7224   6.166   6.950  12.381
35734SOL     OW 7225   7.141   7.097  11.875
35734SOL    HW1 7226   7.084   7.081  11.956
35734SOL    HW2 7227   7.082   7.107  11.795
35735SOL     OW 7228   6.721   6.289  11.889
35735SOL    HW1 7229   6.778   6.367  11.864
35735SOL    HW2 7230   6.661   6.315  11.965
35736SOL     OW 7231   7.341   6.193  11.403
35736SOL    HW1 7232   7.329   6.180  11.304
35736SOL    HW2 7233   7.311   6.112  11.452
35737SOL     OW 7234   6.354   6.730  12.195
35737SOL    HW1 7235   6.276   6.747  12.255
35737SOL    HW2 7236   6.388   6.817  12.159
35738SOL     OW 7237   6.271   6.598  11.837
35738SOL    HW1 7238   6.340   6.582  11.907
35738SOL    HW2 7239   6.198   6.655  11.875
35739SOL     OW 7240   5.921   7.021  12.233
35739SOL    HW1 7241   5.843   6.990  12.180
35739SOL    HW2 7242   5.979   7.079  12.176
35740SOL     OW 7243   7.046   7.091  12.511
35740SOL    HW1 7244   7.070   7.185  12.537
35740SOL    HW2 7245   7.030   7.037  12.593
35741SOL     OW 7246   6.024   5.978  12.671
35741SOL    HW1 7247   6.106   5.922  12.680
35741SOL    HW2 7248   5.943   5.920  12.675
35742SOL     OW 7249   7.189   6.033  11.909
35742SOL    HW1 7250   7.115   6.079  11.859
35742SOL    HW2 7251   7.240   6.101  11.962
35743SOL     OW 7252   5.817   7.299  11.655
35743SOL    HW1 7253   5.851   7.376  11.709
35743SOL    HW2 7254   5.861   7.299  11.565
35744SOL     OW 7255   5.816   7.020  11.710
35744SOL    HW1 7256   5.790   7.116  11.710
35744SOL    HW2 7257   5.745   6.966  11.755
35745SOL     OW 7258   5.826   6.677  12.058
35745SOL    HW1 7259   5.840   6.593  12.110
35745SOL    HW2 7260   5.771   6.741  12.113
35746SOL     OW 7261   6.206   7.372  12.611
35746SOL    HW1 7262   6.114   7.355  12.646
35746SOL    HW2 7263   6.234   7.464  12.637
35747SOL     OW 7264   6.192   6.550  11.295
35747SOL    HW1 7265   6.199   6.634  11.241
35747SOL    HW2 7266   6.238   6.563  11.383
35748SOL     OW 7267   7.180   5.700  12.652
35748SOL    HW1 7268   7.162   5.767  12.580
35748SOL    HW2 7269   7.177   5.746  12.741
35749SOL     OW 7270   5.708   6.229  11.735
35749SOL    HW1 7271   5.663   6.141  11.752
35749SOL    HW2 7272   5.707   6.283  11.819
35750SOL     OW 7273   7.428   7.353  11.531
35750SOL    HW1 7274   7.482   7.324  11.611
35750SOL    HW2 7275   7.458   7.443  11.502
35751SOL     OW 7276   5.613   7.182  11.289
35751SOL    HW1 7277   5.594   7.086  11.310
35751SOL    HW2 7278   5.580   7.240  11.364
35752SOL     OW 7279   7.275   6.508  11.784
35752SOL    HW1 7280   7.370   6.479  11.792
35752SOL    HW2 7281   7.267   6.573  11.709
35753SOL     OW 7282   7.227   6.694  11.604
35753SOL    HW1 7283   7.313   6.696  11.552
35753SOL    HW2 7284   7.241   6.741  11.692
35754SOL     OW 7285   5.699   6.323  12.769
35754SOL    HW1 7286   5.787   6.310  12.814
35754SOL    HW2 7287   5.686   6.420  12.747
35755SOL     OW 7288   6.199   6.951  11.898
35755SOL    HW1 7289   6.150   6.864  11.907
35755SOL    HW2 7290   6.176   6.994  11.811
35756SOL     OW 7291   6.879   6.814  12.595
35756SOL    HW1 7292   6.916   6.741  12.537
35756SOL    HW2 7293   6.931   6.819  12.680
35757SOL     OW 7294   6.395   5.590  11.674
35757SOL    HW1 7295   6.435   5.681  11.665
35757SOL    HW2 7296   6.295   5.598  11.680
35758SOL     OW 7297   5.783   6.562  12.436
35758SOL    HW1 7298   5.872   6.517  12.422
35758SOL    HW2 7299   5.710   6.497  12.417
35759SOL     OW 7300   7.111   6.585  11.362
35759SOL    HW1 7301   7.048   6.509  11.375
35759SOL    HW2 7302   7.159   6.603  11.448
35760SOL     OW 7303   7.052   7.003  12.125
35760SOL    HW1 7304   6.993   7.009  12.205
35760SOL    HW2 7305   7.037   6.915  12.079
35761SOL     OW 7306   7.253   7.300  11.744
35761SOL    HW1 7307   7.212   7.277  11.656
35761SOL    HW2 7308   7.235   7.226  11.809
35762SOL     OW 7309   6.184   6.315  11.442
35762SOL    HW1 7310   6.208   6.384  11.374
35762SOL    HW2 7311   6.106   6.348  11.496
35763SOL     OW 7312   6.867   5.931  12.116
35763SOL    HW1 7313   6.781   5.881  12.103
35763SOL    HW2 7314   6.929   5.877  12.172
35764SOL     OW 7315   7.162   7.248  11.479
35764SOL    HW1 7316   7.251   7.294  11.482
35764SOL    HW2 7317   7.141   7.224  11.384
35765SOL     OW 7318   6.393   6.191  12.637
35765SOL    HW1 7319   6.346   6.188  12.726
35765SOL    HW2 7320   6.342   6.136  12.571
35766SOL     OW 7321   6.559   6.476  12.744
35766SOL    HW1 7322   6.605   6.392  12.715
35766SOL    HW2 7323   6.503   6.510  12.669
35767SOL     OW 7324   6.577   5.996  12.414
35767SOL    HW1 7325   6.500   6.030  12.468
35767SOL    HW2 7326   6.543   5.945  12.335
35768SOL     OW 7327   6.627   6.287  11.601
35768SOL    HW1 7328   6.653   6.283  11.697
35768SOL    HW2 7329   6.542   6.236  11.587
35769SOL     OW 7330   5.662   6.397  11.961
35769SOL    HW1 7331   5.761   6.385  11.970
35769SOL    HW2 7332   5.638   6.492  11.982
35770SOL     OW 7333   5.716   7.407  12.743
35770SOL    HW1 7334   5.706   7.392  12.842
35770SOL    HW2 7335   5.630   7.443  12.707
35771SOL     OW 7336   6.451   5.934  11.367
35771SOL    HW1 7337   6.510   5.997  11.318
35771SOL    HW2 7338   6.470   5.840  11.338
35772SOL     OW 7339   6.948   6.730  11.717
35772SOL    HW1 7340   7.031   6.701  11.669
35772SOL    HW2 7341   6.899   6.797  11.661
35773SOL     OW 7342   6.136   5.782  12.057
35773SOL    HW1 7343   6.131   5.777  12.157
35773SOL    HW2 7344   6.138   5.878  12.028
35774SOL     OW 7345   6.594   7.042  11.649
35774SOL    HW1 7346   6.548   7.114  11.597
35774SOL    HW2 7347   6.590   7.062  11.747
35775SOL     OW 7348   5.937   7.387  12.025
35775SOL    HW1 7349   5.987   7.301  12.031
35775SOL    HW2 7350   6.002   7.464  12.022
35776SOL     OW 7351   7.381   6.652  12.045
35776SOL    HW1 7352   7.319   6.637  11.969
35776SOL    HW2 7353   7.329   6.663  12.130
35777SOL     OW 7354   6.813   7.136  12.678
35777SOL    HW1 7355   6.819   7.059  12.742
35777SOL    HW2 7356   6.761   7.110  12.598
35778SOL     OW 7357   5.907   6.529  11.414
35778SOL    HW1 7358   5.989   6.568  11.372
35778SOL    HW2 7359   5.880   6.447  11.365
35779SOL     OW 7360   7.044   6.321  11.900
35779SOL    HW1 7361   7.039   6.256  11.975
35779SOL    HW2 7362   7.124   6.380  11.913
35780SOL     OW 7363   6.697   7.362  11.409
35780SOL    HW1 7364   6.637   7.300  11.459
35780SOL    HW2 7365   6.728   7.318  11.324
35781SOL     OW 7366   5.788   5.871  12.670
35781SOL    HW1 7367   5.708   5.931  12.657
35781SOL    HW2 7368   5.778   5.822  12.756
35782SOL     OW 7369   7.218   6.963  11.253
35782SOL    HW1 7370   7.186   7.057  11.243
35782SOL    HW2 7371   7.142   6.900  11.241
35783SOL     OW 7372   6.050   7.329  11.495
35783SOL    HW1 7373   6.083   7.368  11.581
35783SOL    HW2 7374   6.126   7.322  11.430
35784SOL     OW 7375   6.986   5.693  11.598
35784SOL    HW1 7376   6.962   5.656  11.508
35784SOL    HW2 7377   7.085   5.709  11.602
35785SOL     OW 7378   5.835   7.371  12.413
35785SOL    HW1 7379   5.892   7.306  12.463
35785SOL    HW2 7380   5.819   7.338  12.320
35786SOL     OW 7381   6.526   7.284  12.076
35786SOL    HW1 7382   6.606   7.227  12.097
35786SOL    HW2 7383   6.477   7.244  11.999
35787SOL     OW 7384   5.968   6.286  11.652
35787SOL    HW1 7385   6.013   6.196  11.649
35787SOL    HW2 7386   5.874   6.275  11.685
35788SOL     OW 7387   6.200   5.708  11.289
35788SOL    HW1 7388   6.298   5.686  11.296
35788SOL    HW2 7389   6.169   5.691  11.196
35789SOL     OW 7390   6.474   7.100  12.367
35789SOL    HW1 7391   6.451   7.075  12.273
35789SOL    HW2 7392   6.535   7.031  12.406
35790SOL     OW 7393   6.937   6.176  12.605
35790SOL    HW1 7394   6.965   6.133  12.690
35790SOL    HW2 7395   6.962   6.272  12.606
35791SOL     OW 7396   6.389   6.988  12.096
35791SOL    HW1 7397   6.479   7.002  12.054
35791SOL    HW2 7398   6.318   6.990  12.025
35792SOL     OW 7399   6.508   6.089  12.071
35792SOL    HW1 7400   6.483   6.080  11.975
35792SOL    HW2 7401   6.556   6.007  12.102
35793SOL     OW 7402   6.125   5.650  11.684
35793SOL    HW1 7403   6.044   5.651  11.742
35793SOL    HW2 7404   6.128   5.733  11.629
35794SOL     OW 7405   7.020   6.774  11.213
35794SOL    HW1 7406   7.052   6.698  11.270
35794SOL    HW2 7407   6.928   6.801  11.243
35795SOL     OW 7408   5.883   5.621  11.343
35795SOL    HW1 7409   5.932   5.705  11.322
35795SOL    HW2 7410   5.945   5.556  11.388
35796SOL     OW 7411   6.521   5.822  11.652
35796SOL    HW1 7412   6.473   5.863  11.574
35796SOL    HW2 7413   6.620   5.820  11.633
35797SOL     OW 7414   6.662   6.269  12.636
35797SOL    HW1 7415   6.582   6.208  12.639
35797SOL    HW2 7416   6.743   6.216  12.612
35798SOL     OW 7417   6.813   7.156  11.965
35798SOL    HW1 7418   6.834   7.230  11.900
35798SOL    HW2 7419   6.881   7.156  12.038
35799SOL     OW 7420   6.045   6.738  11.913
35799SOL    HW1 7421   5.974   6.711  11.978
35799SOL    HW2 7422   6.019   6.710  11.820
35800SOL     OW 7423   6.857   7.383  11.763
35800SOL    HW1 7424   6.901   7.447  11.699
35800SOL    HW2 7425   6.807   7.435  11.833
35801SOL     OW 7426   6.618   6.135  11.188
35801SOL    HW1 7427   6.577   6.217  11.149
35801SOL    HW2 7428   6.682   6.161  11.261
35802SOL     OW 7429   5.664   6.142  12.558
35802SOL    HW1 7430   5.756   6.141  12.517
35802SOL    HW2 7431   5.658   6.216  12.625
35803SOL     OW 7432   6.147   5.808  12.319
35803SOL    HW1 7433   6.185   5.724  12.356
35803SOL    HW2 7434   6.059   5.827  12.363
35804SOL     OW 7435   6.452   6.040  11.814
35804SOL    HW1 7436   6.420   6.112  11.752
35804SOL    HW2 7437   6.476   5.959  11.761
35805SOL     OW 7438   6.603   5.625  11.925
35805SOL    HW1 7439   6.531   5.630  11.856
35805SOL    HW2 7440   6.579   5.556  11.994
35806SOL     OW 7441   7.015   6.759  12.039
35806SOL    HW1 7442   6.960   6.675  12.032
35806SOL    HW2 7443   7.041   6.788  11.947
35807SOL     OW 7444   7.052   6.176  12.164
35807SOL    HW1 7445   7.022   6.081  12.171
35807SOL    HW2 7446   7.125   6.192  12.230
35808SOL     OW 7447   7.443   6.419  11.549
35808SOL    HW1 7448   7.485   6.355  11.613
35808SOL    HW2 7449   7.405   6.368  11.471
35809SOL     OW 7450   6.074   6.971  11.346
35809SOL    HW1 7451   5.987   6.956  11.393
35809SOL    HW2 7452   6.057   6.997  11.251
35810SOL     OW 7453   7.250   6.866  11.829
35810SOL    HW1 7454   7.349   6.874  11.843
35810SOL    HW2 7455   7.205   6.950  11.860
35811SOL     OW 7456   6.976   6.161  11.250
35811SOL    HW1 7457   6.922   6.140  11.331
35811SOL    HW2 7458   7.067   6.120  11.259
35812SOL     OW 7459   6.113   5.842  11.500
35812SOL    HW1 7460   6.140   5.783  11.425
35812SOL    HW2 7461   6.113   5.937  11.469
35813SOL     OW 7462   7.340   6.809  12.760
35813SOL    HW1 7463   7.431   6.770  12.747
35813SOL    HW2 7464   7.348   6.905  12.784
35814SOL     OW 7465   6.650   6.933  12.512
35814SOL    HW1 7466   6.570   6.910  12.567
35814SOL    HW2 7467   6.733   6.907  12.561
35815SOL     OW 7468   6.697   6.781  12.272
35815SOL    HW1 7469   6.657   6.825  12.353
35815SOL    HW2 7470   6.656   6.818  12.189
35816SOL     OW 7471   7.224   6.685  12.251
35816SOL    HW1 7472   7.229   6.766  12.310
35816SOL    HW2 7473   7.138   6.687  12.200
35817SOL     OW 7474   6.501   5.675  12.574
35817SOL    HW1 7475   6.526   5.655  12.479
35817SOL    HW2 7476   6.573   5.731  12.616
35818SOL     OW 7477   6.291   6.636  11.540
35818SOL    HW1 7478   6.277   6.643  11.639
35818SOL    HW2 7479   6.375   6.585  11.522
35819SOL     OW 7480   5.996   6.399  12.423
35819SOL    HW1 7481   6.082   6.411  12.473
35819SOL    HW2 7482   5.954   6.312  12.450
35820SOL     OW 7483   6.860   5.972  12.434
35820SOL    HW1 7484   6.881   6.046  12.498
35820SOL    HW2 7485   6.771   5.989  12.391
35821SOL     OW 7486   5.650   7.150  12.503
35821SOL    HW1 7487   5.604   7.232  12.469
35821SOL    HW2 7488   5.748   7.169  12.512
35822SOL     OW 7489   5.953   6.686  11.673
35822SOL    HW1 7490   5.946   6.769  11.617
35822SOL    HW2 7491   5.957   6.606  11.613
35823SOL     OW 7492   6.152   6.123  12.037
35823SOL    HW1 7493   6.164   6.189  11.963
35823SOL    HW2 7494   6.198   6.157  12.120
35824SOL     OW 7495   6.838   6.934  11.560
35824SOL    HW1 7496   6.888   7.011  11.600
35824SOL    HW2 7497   6.743   6.936  11.592
35825SOL     OW 7498   6.858   7.031  12.314
35825SOL    HW1 7499   6.905   7.044  12.401
35825SOL    HW2 7500   6.792   6.957  12.323
35826SOL     OW 7501   7.168   6.225  11.644
35826SOL    HW1 7502   7.137   6.286  11.717
35826SOL    HW2 7503   7.218   6.277  11.575
35827SOL     OW 7504   5.940   7.096  12.501
35827SOL    HW1 7505   5.919   7.052  12.414
35827SOL    HW2 7506   6.037   7.122  12.504
35828SOL     OW 7507   5.988   6.337  12.770
35828SOL    HW1 7508   6.056   6.392  12.723
35828SOL    HW2 7509   6.028   6.249  12.797
35829SOL     OW 7510   7.173   6.365  12.842
35829SOL    HW1 7511   7.081   6.403  12.837
35829SOL    HW2 7512   7.233   6.412  12.777
35830SOL     OW 7513   6.159   6.456  12.201
35830SOL    HW1 7514   6.203   6.545  12.192
35830SOL    HW2 7515   6.096   6.456  12.278
35831SOL     OW 7516   6.946   6.448  12.217
35831SOL    HW1 7517   6.871   6.448  12.151
35831SOL    HW2 7518   6.983   6.356  12.226
35832SOL     OW 7519   6.795   6.111  11.447
35832SOL    HW1 7520   6.808   6.027  11.501
35832SOL    HW2 7521   6.766   6.185  11.507
35833SOL     OW 7522   5.893   5.799  12.403
35833SOL    HW1 7523   5.870   5.836  12.493
35833SOL    HW2 7524   5.863   5.704  12.397
35834SOL     OW 7525   5.623   6.896  12.454
35834SOL    HW1 7526   5.676   6.847  12.522
35834SOL    HW2 7527   5.645   6.994  12.459
35835SOL     OW 7528   6.318   6.220  12.236
35835SOL    HW1 7529   6.377   6.194  12.160
35835SOL    HW2 7530   6.290   6.316  12.225
35836SOL     OW 7531   5.893   5.649  11.790
35836SOL    HW1 7532   5.882   5.743  11.823
35836SOL    HW2 7533   5.888   5.586  11.867
35837SOL     OW 7534   7.208   5.953  11.546
35837SOL    HW1 7535   7.210   5.877  11.610
35837SOL    HW2 7536   7.160   6.030  11.586
35838SOL     OW 7537   6.609   6.352  12.138
35838SOL    HW1 7538   6.624   6.373  12.234
35838SOL    HW2 7539   6.579   6.257  12.129
35839SOL     OW 7540   7.126   5.860  11.297
35839SOL    HW1 7541   7.065   5.785  11.320
35839SOL    HW2 7542   7.148   5.912  11.380
35840SOL     OW 7543   6.889   6.424  11.214
35840SOL    HW1 7544   6.923   6.331  11.229
35840SOL    HW2 7545   6.907   6.451  11.119
35841SOL     OW 7546   6.654   6.919  12.021
35841SOL    HW1 7547   6.661   6.835  11.966
35841SOL    HW2 7548   6.716   6.988  11.985
35842SOL     OW 7549   5.905   6.396  12.121
35842SOL    HW1 7550   5.998   6.432  12.126
35842SOL    HW2 7551   5.899   6.311  12.173
35843SOL     OW 7552   5.925   6.095  12.178
35843SOL    HW1 7553   5.873   6.012  12.161
35843SOL    HW2 7554   6.002   6.100  12.114
35844SOL     OW 7555   6.746   5.793  12.649
35844SOL    HW1 7556   6.746   5.857  12.726
35844SOL    HW2 7557   6.774   5.841  12.566
35845SOL     OW 7558   5.594   6.912  11.372
35845SOL    HW1 7559   5.501   6.933  11.341
35845SOL    HW2 7560   5.604   6.813  11.385
35846SOL     OW 7561   5.674   7.387  12.099
35846SOL    HW1 7562   5.632   7.301  12.072
35846SOL    HW2 7563   5.768   7.390  12.065
35847SOL     OW 7564   6.090   7.154  12.082
35847SOL    HW1 7565   6.156   7.228  12.091
35847SOL    HW2 7566   6.134   7.075  12.040
35848SOL     OW 7567   6.588   6.382  12.410
35848SOL    HW1 7568   6.629   6.350  12.496
35848SOL    HW2 7569   6.492   6.355  12.407
35849SOL     OW 7570   5.626   6.130  12.286
35849SOL    HW1 7571   5.711   6.097  12.245
35849SOL    HW2 7572   5.639   6.145  12.384
35850SOL     OW 7573   6.401   6.158  11.497
35850SOL    HW1 7574   6.408   6.069  11.451
35850SOL    HW2 7575   6.307   6.192  11.489
35851SOL     OW 7576   7.243   6.190  12.378
35851SOL    HW1 7577   7.205   6.121  12.440
35851SOL    HW2 7578   7.325   6.154  12.334
35852SOL     OW 7579   5.838   7.150  12.916
35852SOL    HW1 7580   5.808   7.207  12.992
35852SOL    HW2 7581   5.831   7.053  12.942
35853SOL     OW 7582   6.257   6.050  12.441
35853SOL    HW1 7583   6.223   5.961  12.411
35853SOL    HW2 7584   6.283   6.104  12.361
35854SOL     OW 7585   6.516   7.264  12.637
35854SOL    HW1 7586   6.492   7.246  12.542
35854SOL    HW2 7587   6.546   7.358  12.647
35855SOL     OW 7588   6.059   6.086  11.363
35855SOL    HW1 7589   6.120   6.166  11.367
35855SOL    HW2 7590   5.964   6.117  11.370
35856SOL     OW 7591   5.745   6.723  12.638
35856SOL    HW1 7592   5.767   6.662  12.714
35856SOL    HW2 7593   5.755   6.674  12.552
35857SOL     OW 7594   6.933   6.645  12.406
35857SOL    HW1 7595   6.957   6.582  12.332
35857SOL    HW2 7596   6.843   6.685  12.388
35858SOL     OW 7597   6.888   6.441  11.481
35858SOL    HW1 7598   6.802   6.410  11.523
35858SOL    HW2 7599   6.884   6.427  11.382
35859SOL     OW 7600   7.345   7.333  12.326
35859SOL    HW1 7601   7.406   7.363  12.253
35859SOL    HW2 7602   7.307   7.244  12.304
35860SOL     OW 7603   6.838   7.317  12.300
35860SOL    HW1 7604   6.922   7.322  12.246
35860SOL    HW2 7605   6.815   7.221  12.318
35861SOL     OW 7606   5.669   6.844  12.194
35861SOL    HW1 7607   5.664   6.843  12.294
35861SOL    HW2 7608   5.586   6.803  12.156
35862SOL     OW 7609   7.312   5.721  11.695
35862SOL    HW1 7610   7.385   5.704  11.628
35862SOL    HW2 7611   7.281   5.634  11.733
35863SOL     OW 7612   6.974   7.159  11.649
35863SOL    HW1 7613   7.041   7.171  11.575
35863SOL    HW2 7614   6.934   7.248  11.672
35864SOL     OW 7615   6.866   6.513  11.844
35864SOL    HW1 7616   6.926   6.432  11.846
35864SOL    HW2 7617   6.906   6.582  11.784
35865SOL     OW 7618   6.416   6.859  12.594
35865SOL    HW1 7619   6.411   6.892  12.689
35865SOL    HW2 7620   6.330   6.878  12.548
35866SOL     OW 7621   6.258   7.202  11.326
35866SOL    HW1 7622   6.267   7.212  11.227
35866SOL    HW2 7623   6.218   7.113  11.347
35867SOL     OW 7624   7.236   7.306  12.566
35867SOL    HW1 7625   7.289   7.316  12.482
35867SOL    HW2 7626   7.209   7.396  12.600
35868SOL     OW 7627   7.427   5.761  12.135
35868SOL    HW1 7628   7.466   5.676  12.099
35868SOL    HW2 7629   7.329   5.763  12.116
35869SOL     OW 7630   5.849   5.912  11.892
35869SOL    HW1 7631   5.770   5.963  11.858
35869SOL    HW2 7632   5.840   5.897  11.990
35870SOL     OW 7633   6.780   7.198  11.203
35870SOL    HW1 7634   6.786   7.105  11.240
35870SOL    HW2 7635   6.721   7.198  11.123
35871SOL     OW 7636   6.408   6.588  12.544
35871SOL    HW1 7637   6.448   6.587  12.452
35871SOL    HW2 7638   6.418   6.680  12.584
35872SOL     OW 7639   6.502   6.496  11.463
35872SOL    HW1 7640   6.565   6.534  11.395
35872SOL    HW2 7641   6.542   6.413  11.502
35873SOL     OW 7642   7.090   7.193  11.216
35873SOL    HW1 7643   6.998   7.230  11.223
35873SOL    HW2 7644   7.128   7.213  11.126
35874SOL     OW 7645   5.958   6.874  12.662
35874SOL    HW1 7646   5.945   6.967  12.628
35874SOL    HW2 7647   5.874   6.822  12.649
35875SOL     OW 7648   7.200   6.878  12.461
35875SOL    HW1 7649   7.260   6.881  12.541
35875SOL    HW2 7650   7.125   6.942  12.474
35876SOL     OW 7651   6.625   6.684  11.868
35876SOL    HW1 7652   6.555   6.637  11.922
35876SOL    HW2 7653   6.684   6.616  11.825
35877SOL     OW 7654   6.600   5.822  12.143
35877SOL    HW1 7655   6.592   5.786  12.050
35877SOL    HW2 7656   6.598   5.746  12.208
35878SOL     OW 7657   6.176   7.073  11.663
35878SOL    HW1 7658   6.218   7.015  11.593
35878SOL    HW2 7659   6.132   7.152  11.619
35879SOL     OW 7660   7.295   5.971  12.553
35879SOL    HW1 7661   7.368   6.040  12.557
35879SOL    HW2 7662   7.323   5.896  12.494
35880SOL     OW 7663   5.841   6.934  11.462
35880SOL    HW1 7664   5.745   6.935  11.435
35880SOL    HW2 7665   5.853   6.987  11.546
35881SOL     OW 7666   5.691   6.599  12.898
35881SOL    HW1 7667   5.614   6.566  12.952
35881SOL    HW2 7668   5.776   6.569  12.940
35882SOL     OW 7669   6.258   5.789  12.661
35882SOL    HW1 7670   6.348   5.773  12.621
35882SOL    HW2 7671   6.266   5.794  12.760
35883SOL     OW 7672   5.661   5.931  11.205
35883SOL    HW1 7673   5.569   5.903  11.176
35883SOL    HW2 7674   5.692   6.008  11.149
35884SOL     OW 7675   7.026   6.442  12.570
35884SOL    HW1 7676   6.969   6.494  12.507
35884SOL    HW2 7677   7.122   6.454  12.546
35885SOL     OW 7678   5.658   5.752  11.490
35885SOL    HW1 7679   5.641   5.835  11.436
35885SOL    HW2 7680   5.748   5.715  11.468
35886SOL     OW 7681   6.769   6.921  11.291
35886SOL    HW1 7682   6.670   6.910  11.293
35886SOL    HW2 7683   6.803   6.936  11.384
35887SOL     OW 7684   6.199   6.428  12.603
35887SOL    HW1 7685   6.255   6.509  12.586
35887SOL    HW2 7686   6.258   6.348  12.606
35888SOL     OW 7687   7.079   7.353  12.131
35888SOL    HW1 7688   7.112   7.417  12.062
35888SOL    HW2 7689   7.145   7.347  12.206
35889SOL     OW 7690   6.302   6.151  12.880
35889SOL    HW1 7691   6.321   6.216  12.954
35889SOL    HW2 7692   6.362   6.071  12.889
35890SOL     OW 7693   5.976   7.327  12.732
35890SOL    HW1 7694   5.885   7.368  12.730
35890SOL    HW2 7695   5.969   7.233  12.764
35891SOL     OW 7696   7.260   6.469  12.426
35891SOL    HW1 7697   7.233   6.380  12.389
35891SOL    HW2 7698   7.261   6.537  12.353
35892SOL     OW 7699   6.811   5.911  11.621
35892SOL    HW1 7700   6.876   5.837  11.610
35892SOL    HW2 7701   6.831   5.961  11.705
35893SOL     OW 7702   6.180   6.331  11.824
35893SOL    HW1 7703   6.230   6.416  11.805
35893SOL    HW2 7704   6.092   6.333  11.776
35894SOL     OW 7705   7.363   5.928  12.814
35894SOL    HW1 7706   7.346   5.959  12.720
35894SOL    HW2 7707   7.279   5.891  12.852
35895SOL     OW 7708   7.316   6.520  12.689
35895SOL    HW1 7709   7.354   6.611  12.704
35895SOL    HW2 7710   7.308   6.503  12.590
35896SOL     OW 7711   6.445   6.960  11.188
35896SOL    HW1 7712   6.399   6.975  11.276
35896SOL    HW2 7713   6.489   7.045  11.158
35897SOL     OW 7714   6.247   7.376  12.125
35897SOL    HW1 7715   6.201   7.464  12.112
35897SOL    HW2 7716   6.346   7.388  12.118
35898SOL     OW 7717   6.445   6.542  12.033
35898SOL    HW1 7718   6.499   6.473  12.081
35898SOL    HW2 7719   6.413   6.611  12.099
35899SOL     OW 7720   6.669   6.570  11.259
35899SOL    HW1 7721   6.646   6.623  11.177
35899SOL    HW2 7722   6.750   6.514  11.240
35900SOL     OW 7723   7.447   7.155  12.023
35900SOL    HW1 7724   7.376   7.143  11.953
35900SOL    HW2 7725   7.448   7.076  12.083
35901SOL     OW 7726   5.665   6.826  11.825
35901SOL    HW1 7727   5.664   6.779  11.913
35901SOL    HW2 7728   5.747   6.798  11.774
35902SOL     OW 7729   6.258   6.977  12.796
35902SOL    HW1 7730   6.180   6.927  12.834
35902SOL    HW2 7731   6.255   7.072  12.827
35903SOL     OW 7732   7.410   5.778  12.399
35903SOL    HW1 7733   7.406   5.688  12.443
35903SOL    HW2 7734   7.413   5.767  12.300
35904SOL     OW 7735   6.014   6.010  11.692
35904SOL    HW1 7736   6.044   5.938  11.630
35904SOL    HW2 7737   5.975   5.970  11.775
35905SOL     OW 7738   7.291   7.073  12.276
35905SOL    HW1 7739   7.198   7.048  12.249
35905SOL    HW2 7740   7.317   7.023  12.358
35906SOL     OW 7741   5.903   6.133  12.452
35906SOL    HW1 7742   5.941   6.074  12.524
35906SOL    HW2 7743   5.943   6.107  12.364
35907SOL     OW 7744   6.398   7.172  11.859
35907SOL    HW1 7745   6.430   7.182  11.765
35907SOL    HW2 7746   6.319   7.110  11.861
35908SOL     OW 7747   7.010   5.800  12.284
35908SOL    HW1 7748   7.062   5.735  12.339
35908SOL    HW2 7749   6.961   5.863  12.345
35909SOL     OW 7750   6.587   5.620  12.326
35909SOL    HW1 7751   6.524   5.548  12.295
35909SOL    HW2 7752   6.680   5.584  12.326
35910SOL     OW 7753   6.356   6.916  11.473
35910SOL    HW1 7754   6.310   6.829  11.490
35910SOL    HW2 7755   6.447   6.913  11.514
35911SOL     OW 7756   6.204   7.153  12.456
35911SOL    HW1 7757   6.199   7.235  12.513
35911SOL    HW2 7758   6.293   7.150  12.411
35912SOL     OW 7759   6.938   5.638  11.340
35912SOL    HW1 7760   6.973   5.597  11.256
35912SOL    HW2 7761   6.848   5.600  11.360
35913SOL     OW 7762   6.886   6.039  11.863
35913SOL    HW1 7763   6.827   6.119  11.867
35913SOL    HW2 7764   6.901   6.004  11.956
35914SOL     OW 7765   7.179   5.807  12.054
35914SOL    HW1 7766   7.095   5.806  12.108
35914SOL    HW2 7767   7.181   5.890  11.998
35915SOL     OW 7768   5.625   6.663  11.472
35915SOL    HW1 7769   5.724   6.652  11.463
35915SOL    HW2 7770   5.585   6.577  11.504
35916SOL     OW 7771   6.461   7.232  11.509
35916SOL    HW1 7772   6.384   7.197  11.455
35916SOL    HW2 7773   6.429   7.303  11.571
35917SOL     OW 7774   5.816   8.076   0.113
35917SOL    HW1 7775   5.723   8.074   0.150
35917SOL    HW2 7776   5.817   8.037   0.021
35918SOL     OW 7777   5.811   7.723   0.996
35918SOL    HW1 7778   5.846   7.706   1.088
35918SOL    HW2 7779   5.723   7.678   0.984
35919SOL     OW 7780   5.605   7.816   0.647
35919SOL    HW1 7781   5.523   7.859   0.686
35919SOL    HW2 7782   5.577   7.743   0.584
35920SOL     OW 7783   6.155   8.723   1.165
35920SOL    HW1 7784   6.062   8.716   1.128
35920SOL    HW2 7785   6.166   8.812   1.209
35921SOL     OW 7786   7.141   8.959   0.703
35921SOL    HW1 7787   7.084   8.943   0.784
35921SOL    HW2 7788   7.082   8.969   0.623
35922SOL     OW 7789   6.721   8.151   0.717
35922SOL    HW1 7790   6.778   8.229   0.692
35922SOL    HW2 7791   6.661   8.177   0.793
35923SOL     OW 7792   7.341   8.055   0.231
35923SOL    HW1 7793   7.329   8.042   0.132
35923SOL    HW2 7794   7.311   7.974   0.280
35924SOL     OW 7795   6.354   8.592   1.023
35924SOL    HW1 7796   6.276   8.609   1.083
35924SOL    HW2 7797   6.388   8.679   0.987
35925SOL     OW 7798   6.436   8.246   1.823
35925SOL    HW1 7799   6.432   8.322   1.888
35925SOL    HW2 7800   6.458   8.282   1.732
35926SOL     OW 7801   6.271   8.460   0.665
35926SOL    HW1 7802   6.340   8.444   0.735
35926SOL    HW2 7803   6.198   8.517   0.703
35927SOL     OW 7804   6.272   8.609   1.803
35927SOL    HW1 7805   6.332   8.688   1.817
35927SOL    HW2 7806   6.186   8.640   1.762
35928SOL     OW 7807   5.921   8.883   1.061
35928SOL    HW1 7808   5.843   8.852   1.008
35928SOL    HW2 7809   5.979   8.941   1.004
35929SOL     OW 7810   7.046   8.953   1.339
35929SOL    HW1 7811   7.070   9.047   1.365
35929SOL    HW2 7812   7.030   8.899   1.421
35930SOL     OW 7813   6.024   7.840   1.499
35930SOL    HW1 7814   6.106   7.784   1.508
35930SOL    HW2 7815   5.943   7.782   1.503
35931SOL     OW 7816   7.189   7.895   0.737
35931SOL    HW1 7817   7.115   7.941   0.687
35931SOL    HW2 7818   7.240   7.963   0.790
35932SOL     OW 7819   5.817   9.161   0.483
35932SOL    HW1 7820   5.851   9.238   0.537
35932SOL    HW2 7821   5.861   9.161   0.393
35933SOL     OW 7822   6.713   8.789   1.690
35933SOL    HW1 7823   6.760   8.789   1.778
35933SOL    HW2 7824   6.665   8.702   1.679
35934SOL     OW 7825   5.816   8.882   0.538
35934SOL    HW1 7826   5.790   8.978   0.538
35934SOL    HW2 7827   5.745   8.828   0.583
35935SOL     OW 7828   5.826   8.539   0.886
35935SOL    HW1 7829   5.840   8.455   0.938
35935SOL    HW2 7830   5.771   8.603   0.941
35936SOL     OW 7831   6.206   9.234   1.439
35936SOL    HW1 7832   6.114   9.217   1.474
35936SOL    HW2 7833   6.234   9.326   1.465
35937SOL     OW 7834   6.192   8.412   0.123
35937SOL    HW1 7835   6.199   8.496   0.069
35937SOL    HW2 7836   6.238   8.425   0.211
35938SOL     OW 7837   7.180   7.562   1.480
35938SOL    HW1 7838   7.162   7.629   1.408
35938SOL    HW2 7839   7.177   7.608   1.569
35939SOL     OW 7840   5.708   8.091   0.563
35939SOL    HW1 7841   5.663   8.003   0.580
35939SOL    HW2 7842   5.707   8.145   0.647
35940SOL     OW 7843   7.428   9.215   0.359
35940SOL    HW1 7844   7.482   9.186   0.439
35940SOL    HW2 7845   7.458   9.305   0.330
35941SOL     OW 7846   5.613   9.044   0.117
35941SOL    HW1 7847   5.594   8.948   0.138
35941SOL    HW2 7848   5.580   9.102   0.192
35942SOL     OW 7849   7.275   8.370   0.612
35942SOL    HW1 7850   7.370   8.341   0.620
35942SOL    HW2 7851   7.267   8.435   0.537
35943SOL     OW 7852   7.227   8.556   0.432
35943SOL    HW1 7853   7.313   8.558   0.380
35943SOL    HW2 7854   7.241   8.603   0.520
35944SOL     OW 7855   5.699   8.185   1.597
35944SOL    HW1 7856   5.787   8.172   1.642
35944SOL    HW2 7857   5.686   8.282   1.575
35945SOL     OW 7858   6.199   8.813   0.726
35945SOL    HW1 7859   6.150   8.726   0.735
35945SOL    HW2 7860   6.176   8.856   0.639
35946SOL     OW 7861   6.879   8.676   1.423
35946SOL    HW1 7862   6.916   8.603   1.365
35946SOL    HW2 7863   6.931   8.681   1.508
35947SOL     OW 7864   6.395   7.452   0.502
35947SOL    HW1 7865   6.435   7.543   0.493
35947SOL    HW2 7866   6.295   7.460   0.508
35948SOL     OW 7867   5.783   8.424   1.264
35948SOL    HW1 7868   5.872   8.379   1.250
35948SOL    HW2 7869   5.710   8.359   1.245
35949SOL     OW 7870   7.111   8.447   0.190
35949SOL    HW1 7871   7.048   8.371   0.203
35949SOL    HW2 7872   7.159   8.465   0.276
35950SOL     OW 7873   6.773   9.240   1.616
35950SOL    HW1 7874   6.797   9.300   1.540
35950SOL    HW2 7875   6.780   9.145   1.586
35951SOL     OW 7876   5.903   7.699   1.801
35951SOL    HW1 7877   5.974   7.770   1.807
35951SOL    HW2 7878   5.815   7.738   1.829
35952SOL     OW 7879   7.052   8.865   0.953
35952SOL    HW1 7880   6.993   8.871   1.033
35952SOL    HW2 7881   7.037   8.777   0.907
35953SOL     OW 7882   7.253   9.162   0.572
35953SOL    HW1 7883   7.212   9.139   0.484
35953SOL    HW2 7884   7.235   9.088   0.637
35954SOL     OW 7885   6.184   8.177   0.270
35954SOL    HW1 7886   6.208   8.246   0.202
35954SOL    HW2 7887   6.106   8.210   0.324
35955SOL     OW 7888   6.867   7.793   0.944
35955SOL    HW1 7889   6.781   7.743   0.931
35955SOL    HW2 7890   6.929   7.739   1.000
35956SOL     OW 7891   7.162   9.110   0.307
35956SOL    HW1 7892   7.251   9.156   0.310
35956SOL    HW2 7893   7.141   9.086   0.212
35957SOL     OW 7894   6.393   8.053   1.465
35957SOL    HW1 7895   6.346   8.050   1.554
35957SOL    HW2 7896   6.342   7.998   1.399
35958SOL     OW 7897   6.980   7.917   1.674
35958SOL    HW1 7898   6.960   7.960   1.762
35958SOL    HW2 7899   7.058   7.855   1.683
35959SOL     OW 7900   6.559   8.338   1.572
35959SOL    HW1 7901   6.605   8.254   1.543
35959SOL    HW2 7902   6.503   8.372   1.497
35960SOL     OW 7903   6.577   7.858   1.242
35960SOL    HW1 7904   6.500   7.892   1.296
35960SOL    HW2 7905   6.543   7.807   1.163
35961SOL     OW 7906   6.627   8.149   0.429
35961SOL    HW1 7907   6.653   8.145   0.525
35961SOL    HW2 7908   6.542   8.098   0.415
35962SOL     OW 7909   5.662   8.259   0.789
35962SOL    HW1 7910   5.761   8.247   0.798
35962SOL    HW2 7911   5.638   8.354   0.810
35963SOL     OW 7912   5.716   9.269   1.571
35963SOL    HW1 7913   5.706   9.254   1.670
35963SOL    HW2 7914   5.630   9.305   1.535
35964SOL     OW 7915   6.451   7.796   0.195
35964SOL    HW1 7916   6.510   7.859   0.146
35964SOL    HW2 7917   6.470   7.702   0.166
35965SOL     OW 7918   7.305   8.033   1.831
35965SOL    HW1 7919   7.279   8.122   1.795
35965SOL    HW2 7920   7.303   7.965   1.758
35966SOL     OW 7921   6.948   8.592   0.545
35966SOL    HW1 7922   7.031   8.563   0.497
35966SOL    HW2 7923   6.899   8.659   0.489
35967SOL     OW 7924   6.136   7.644   0.885
35967SOL    HW1 7925   6.131   7.639   0.985
35967SOL    HW2 7926   6.138   7.740   0.856
35968SOL     OW 7927   6.594   8.904   0.477
35968SOL    HW1 7928   6.548   8.976   0.425
35968SOL    HW2 7929   6.590   8.924   0.575
35969SOL     OW 7930   5.937   9.249   0.853
35969SOL    HW1 7931   5.987   9.163   0.859
35969SOL    HW2 7932   6.002   9.326   0.850
35970SOL     OW 7933   7.381   8.514   0.873
35970SOL    HW1 7934   7.319   8.499   0.797
35970SOL    HW2 7935   7.329   8.525   0.958
35971SOL     OW 7936   6.813   8.998   1.506
35971SOL    HW1 7937   6.819   8.921   1.570
35971SOL    HW2 7938   6.761   8.972   1.426
35972SOL     OW 7939   5.907   8.391   0.242
35972SOL    HW1 7940   5.989   8.430   0.200
35972SOL    HW2 7941   5.880   8.309   0.193
35973SOL     OW 7942   7.044   8.183   0.728
35973SOL    HW1 7943   7.039   8.118   0.803
35973SOL    HW2 7944   7.124   8.242   0.741
35974SOL     OW 7945   6.047   8.714   1.727
35974SOL    HW1 7946   5.997   8.715   1.641
35974SOL    HW2 7947   5.984   8.696   1.803
35975SOL     OW 7948   6.697   9.224   0.237
35975SOL    HW1 7949   6.637   9.162   0.287
35975SOL    HW2 7950   6.728   9.180   0.152
35976SOL     OW 7951   5.788   7.733   1.498
35976SOL    HW1 7952   5.708   7.793   1.485
35976SOL    HW2 7953   5.778   7.684   1.584
35977SOL     OW 7954   7.218   8.825   0.081
35977SOL    HW1 7955   7.186   8.919   0.071
35977SOL    HW2 7956   7.142   8.762   0.069
35978SOL     OW 7957   6.050   9.191   0.323
35978SOL    HW1 7958   6.083   9.230   0.409
35978SOL    HW2 7959   6.126   9.184   0.258
35979SOL     OW 7960   6.986   7.555   0.426
35979SOL    HW1 7961   6.962   7.518   0.336
35979SOL    HW2 7962   7.085   7.571   0.430
35980SOL     OW 7963   5.835   9.233   1.241
35980SOL    HW1 7964   5.892   9.168   1.291
35980SOL    HW2 7965   5.819   9.200   1.148
35981SOL     OW 7966   6.526   9.146   0.904
35981SOL    HW1 7967   6.606   9.089   0.925
35981SOL    HW2 7968   6.477   9.106   0.827
35982SOL     OW 7969   5.968   8.148   0.480
35982SOL    HW1 7970   6.013   8.058   0.477
35982SOL    HW2 7971   5.874   8.137   0.513
35983SOL     OW 7972   7.133   7.670   1.729
35983SOL    HW1 7973   7.128   7.707   1.821
35983SOL    HW2 7974   7.061   7.601   1.717
35984SOL     OW 7975   6.200   7.570   0.117
35984SOL    HW1 7976   6.298   7.548   0.124
35984SOL    HW2 7977   6.169   7.553   0.024
35985SOL     OW 7978   6.367   7.712   1.749
35985SOL    HW1 7979   6.434   7.651   1.792
35985SOL    HW2 7980   6.294   7.731   1.814
35986SOL     OW 7981   6.474   8.962   1.195
35986SOL    HW1 7982   6.451   8.937   1.101
35986SOL    HW2 7983   6.535   8.893   1.234
35987SOL     OW 7984   6.937   8.038   1.433
35987SOL    HW1 7985   6.965   7.995   1.518
35987SOL    HW2 7986   6.962   8.134   1.434
35988SOL     OW 7987   6.389   8.850   0.924
35988SOL    HW1 7988   6.479   8.864   0.882
35988SOL    HW2 7989   6.318   8.852   0.853
35989SOL     OW 7990   6.508   7.951   0.899
35989SOL    HW1 7991   6.483   7.942   0.803
35989SOL    HW2 7992   6.556   7.869   0.930
35990SOL     OW 7993   6.125   7.512   0.512
35990SOL    HW1 7994   6.044   7.513   0.570
35990SOL    HW2 7995   6.128   7.595   0.457
35991SOL     OW 7996   7.020   8.636   0.041
35991SOL    HW1 7997   7.052   8.560   0.098
35991SOL    HW2 7998   6.928   8.663   0.071
35992SOL     OW 7999   5.883   7.483   0.171
35992SOL    HW1 8000   5.932   7.567   0.150
35992SOL    HW2 8001   5.945   7.418   0.216
35993SOL     OW 8002   6.521   7.684   0.480
35993SOL    HW1 8003   6.473   7.725   0.402
35993SOL    HW2 8004   6.620   7.682   0.461
35994SOL     OW 8005   6.662   8.131   1.464
35994SOL    HW1 8006   6.582   8.070   1.467
35994SOL    HW2 8007   6.743   8.078   1.440
35995SOL     OW 8008   6.813   9.018   0.793
35995SOL    HW1 8009   6.834   9.092   0.728
35995SOL    HW2 8010   6.881   9.018   0.866
35996SOL     OW 8011   6.045   8.600   0.741
35996SOL    HW1 8012   5.974   8.573   0.806
35996SOL    HW2 8013   6.019   8.572   0.648
35997SOL     OW 8014   6.857   9.245   0.591
35997SOL    HW1 8015   6.901   9.309   0.527
35997SOL    HW2 8016   6.807   9.297   0.661
35998SOL     OW 8017   6.618   7.997   0.016
35998SOL    HW1 8018   6.577   8.079  -0.023
35998SOL    HW2 8019   6.682   8.023   0.089
35999SOL     OW 8020   5.664   8.004   1.386
35999SOL    HW1 8021   5.756   8.003   1.345
35999SOL    HW2 8022   5.658   8.078   1.453
36000SOL     OW 8023   6.147   7.670   1.147
36000SOL    HW1 8024   6.185   7.586   1.184
36000SOL    HW2 8025   6.059   7.689   1.191
36001SOL     OW 8026   6.452   7.902   0.642
36001SOL    HW1 8027   6.420   7.974   0.580
36001SOL    HW2 8028   6.476   7.821   0.589
36002SOL     OW 8029   6.603   7.487   0.753
36002SOL    HW1 8030   6.531   7.492   0.684
36002SOL    HW2 8031   6.579   7.418   0.822
36003SOL     OW 8032   7.015   8.621   0.867
36003SOL    HW1 8033   6.960   8.537   0.860
36003SOL    HW2 8034   7.041   8.650   0.775
36004SOL     OW 8035   7.052   8.038   0.992
36004SOL    HW1 8036   7.022   7.943   0.999
36004SOL    HW2 8037   7.125   8.054   1.058
36005SOL     OW 8038   7.443   8.281   0.377
36005SOL    HW1 8039   7.485   8.217   0.441
36005SOL    HW2 8040   7.405   8.230   0.299
36006SOL     OW 8041   6.074   8.833   0.174
36006SOL    HW1 8042   5.987   8.818   0.221
36006SOL    HW2 8043   6.057   8.859   0.079
36007SOL     OW 8044   7.250   8.728   0.657
36007SOL    HW1 8045   7.349   8.736   0.671
36007SOL    HW2 8046   7.205   8.812   0.688
36008SOL     OW 8047   6.976   8.023   0.078
36008SOL    HW1 8048   6.922   8.002   0.159
36008SOL    HW2 8049   7.067   7.982   0.087
36009SOL     OW 8050   6.113   7.704   0.328
36009SOL    HW1 8051   6.140   7.645   0.253
36009SOL    HW2 8052   6.113   7.799   0.297
36010SOL     OW 8053   7.340   8.671   1.588
36010SOL    HW1 8054   7.431   8.632   1.575
36010SOL    HW2 8055   7.348   8.767   1.612
36011SOL     OW 8056   6.650   8.795   1.340
36011SOL    HW1 8057   6.570   8.772   1.395
36011SOL    HW2 8058   6.733   8.769   1.389
36012SOL     OW 8059   7.178   9.077   1.625
36012SOL    HW1 8060   7.205   9.111   1.535
36012SOL    HW2 8061   7.257   9.039   1.671
36013SOL     OW 8062   6.697   8.643   1.100
36013SOL    HW1 8063   6.657   8.687   1.181
36013SOL    HW2 8064   6.656   8.680   1.017
36014SOL     OW 8065   7.224   8.547   1.079
36014SOL    HW1 8066   7.229   8.628   1.138
36014SOL    HW2 8067   7.138   8.549   1.028
36015SOL     OW 8068   6.501   7.537   1.402
36015SOL    HW1 8069   6.526   7.517   1.307
36015SOL    HW2 8070   6.573   7.593   1.444
36016SOL     OW 8071   6.566   8.564   1.719
36016SOL    HW1 8072   6.467   8.570   1.729
36016SOL    HW2 8073   6.589   8.484   1.663
36017SOL     OW 8074   6.291   8.498   0.368
36017SOL    HW1 8075   6.277   8.505   0.467
36017SOL    HW2 8076   6.375   8.447   0.350
36018SOL     OW 8077   5.996   8.261   1.251
36018SOL    HW1 8078   6.082   8.273   1.301
36018SOL    HW2 8079   5.954   8.174   1.278
36019SOL     OW 8080   6.860   7.834   1.262
36019SOL    HW1 8081   6.881   7.908   1.326
36019SOL    HW2 8082   6.771   7.851   1.219
36020SOL     OW 8083   5.650   9.012   1.331
36020SOL    HW1 8084   5.604   9.094   1.297
36020SOL    HW2 8085   5.748   9.031   1.340
36021SOL     OW 8086   5.953   8.548   0.501
36021SOL    HW1 8087   5.946   8.631   0.445
36021SOL    HW2 8088   5.957   8.468   0.441
36022SOL     OW 8089   6.152   7.985   0.865
36022SOL    HW1 8090   6.164   8.051   0.791
36022SOL    HW2 8091   6.198   8.019   0.948
36023SOL     OW 8092   6.838   8.796   0.388
36023SOL    HW1 8093   6.888   8.873   0.428
36023SOL    HW2 8094   6.743   8.798   0.420
36024SOL     OW 8095   6.858   8.893   1.142
36024SOL    HW1 8096   6.905   8.906   1.229
36024SOL    HW2 8097   6.792   8.819   1.151
36025SOL     OW 8098   7.168   8.087   0.472
36025SOL    HW1 8099   7.137   8.148   0.545
36025SOL    HW2 8100   7.218   8.139   0.403
36026SOL     OW 8101   5.940   8.958   1.329
36026SOL    HW1 8102   5.919   8.914   1.242
36026SOL    HW2 8103   6.037   8.984   1.332
36027SOL     OW 8104   5.988   8.199   1.598
36027SOL    HW1 8105   6.056   8.254   1.551
36027SOL    HW2 8106   6.028   8.111   1.625
36028SOL     OW 8107   7.173   8.227   1.670
36028SOL    HW1 8108   7.081   8.265   1.665
36028SOL    HW2 8109   7.233   8.274   1.605
36029SOL     OW 8110   6.599   7.553   1.770
36029SOL    HW1 8111   6.605   7.638   1.718
36029SOL    HW2 8112   6.631   7.477   1.713
36030SOL     OW 8113   6.090   7.498   1.740
36030SOL    HW1 8114   6.048   7.441   1.670
36030SOL    HW2 8115   6.024   7.567   1.772
36031SOL     OW 8116   6.159   8.318   1.029
36031SOL    HW1 8117   6.203   8.407   1.020
36031SOL    HW2 8118   6.096   8.318   1.106
36032SOL     OW 8119   6.946   8.310   1.045
36032SOL    HW1 8120   6.871   8.310   0.979
36032SOL    HW2 8121   6.983   8.218   1.054
36033SOL     OW 8122   6.795   7.973   0.275
36033SOL    HW1 8123   6.808   7.889   0.329
36033SOL    HW2 8124   6.766   8.047   0.335
36034SOL     OW 8125   5.893   7.661   1.231
36034SOL    HW1 8126   5.870   7.698   1.321
36034SOL    HW2 8127   5.863   7.566   1.225
36035SOL     OW 8128   5.623   8.758   1.282
36035SOL    HW1 8129   5.676   8.709   1.350
36035SOL    HW2 8130   5.645   8.856   1.287
36036SOL     OW 8131   6.318   8.082   1.064
36036SOL    HW1 8132   6.377   8.056   0.988
36036SOL    HW2 8133   6.290   8.178   1.053
36037SOL     OW 8134   7.314   8.383   1.854
36037SOL    HW1 8135   7.268   8.376   1.765
36037SOL    HW2 8136   7.252   8.427   1.920
36038SOL     OW 8137   5.893   7.511   0.618
36038SOL    HW1 8138   5.882   7.605   0.651
36038SOL    HW2 8139   5.888   7.448   0.695
36039SOL     OW 8140   7.208   7.815   0.374
36039SOL    HW1 8141   7.210   7.739   0.438
36039SOL    HW2 8142   7.160   7.892   0.414
36040SOL     OW 8143   6.609   8.214   0.966
36040SOL    HW1 8144   6.624   8.235   1.062
36040SOL    HW2 8145   6.579   8.119   0.957
36041SOL     OW 8146   6.566   9.021   1.700
36041SOL    HW1 8147   6.546   9.065   1.612
36041SOL    HW2 8148   6.605   8.930   1.684
36042SOL     OW 8149   7.445   8.966   1.605
36042SOL    HW1 8150   7.459   8.993   1.510
36042SOL    HW2 8151   7.528   8.988   1.658
36043SOL     OW 8152   5.936   8.346   1.804
36043SOL    HW1 8153   6.012   8.390   1.852
36043SOL    HW2 8154   5.971   8.299   1.722
36044SOL     OW 8155   7.126   7.722   0.125
36044SOL    HW1 8156   7.065   7.647   0.148
36044SOL    HW2 8157   7.148   7.774   0.208
36045SOL     OW 8158   6.889   8.286   0.042
36045SOL    HW1 8159   6.923   8.193   0.057
36045SOL    HW2 8160   6.907   8.313  -0.053
36046SOL     OW 8161   6.654   8.781   0.849
36046SOL    HW1 8162   6.661   8.697   0.794
36046SOL    HW2 8163   6.716   8.850   0.813
36047SOL     OW 8164   5.905   8.258   0.949
36047SOL    HW1 8165   5.998   8.294   0.954
36047SOL    HW2 8166   5.899   8.173   1.001
36048SOL     OW 8167   5.925   7.957   1.006
36048SOL    HW1 8168   5.873   7.874   0.989
36048SOL    HW2 8169   6.002   7.962   0.942
36049SOL     OW 8170   6.724   7.828   1.678
36049SOL    HW1 8171   6.679   7.891   1.742
36049SOL    HW2 8172   6.817   7.859   1.661
36050SOL     OW 8173   6.746   7.655   1.477
36050SOL    HW1 8174   6.746   7.719   1.554
36050SOL    HW2 8175   6.774   7.703   1.394
36051SOL     OW 8176   5.594   8.774   0.200
36051SOL    HW1 8177   5.501   8.795   0.169
36051SOL    HW2 8178   5.604   8.675   0.213
36052SOL     OW 8179   5.674   9.249   0.927
36052SOL    HW1 8180   5.632   9.163   0.900
36052SOL    HW2 8181   5.768   9.252   0.893
36053SOL     OW 8182   6.090   9.016   0.910
36053SOL    HW1 8183   6.156   9.090   0.919
36053SOL    HW2 8184   6.134   8.937   0.868
36054SOL     OW 8185   6.588   8.244   1.238
36054SOL    HW1 8186   6.629   8.212   1.324
36054SOL    HW2 8187   6.492   8.217   1.235
36055SOL     OW 8188   5.626   7.992   1.114
36055SOL    HW1 8189   5.711   7.959   1.073
36055SOL    HW2 8190   5.639   8.007   1.212
36056SOL     OW 8191   5.775   7.968   1.722
36056SOL    HW1 8192   5.834   7.928   1.652
36056SOL    HW2 8193   5.717   8.039   1.681
36057SOL     OW 8194   6.955   8.398   1.660
36057SOL    HW1 8195   6.994   8.487   1.680
36057SOL    HW2 8196   6.965   8.378   1.563
36058SOL     OW 8197   6.401   8.020   0.325
36058SOL    HW1 8198   6.408   7.931   0.279
36058SOL    HW2 8199   6.307   8.054   0.317
36059SOL     OW 8200   7.243   8.052   1.206
36059SOL    HW1 8201   7.205   7.983   1.268
36059SOL    HW2 8202   7.325   8.016   1.162
36060SOL     OW 8203   5.838   9.012   1.744
36060SOL    HW1 8204   5.808   9.069   1.820
36060SOL    HW2 8205   5.831   8.915   1.770
36061SOL     OW 8206   6.257   7.912   1.269
36061SOL    HW1 8207   6.223   7.823   1.239
36061SOL    HW2 8208   6.283   7.966   1.189
36062SOL     OW 8209   6.516   9.126   1.465
36062SOL    HW1 8210   6.492   9.108   1.370
36062SOL    HW2 8211   6.546   9.220   1.475
36063SOL     OW 8212   6.059   7.948   0.191
36063SOL    HW1 8213   6.120   8.028   0.195
36063SOL    HW2 8214   5.964   7.979   0.198
36064SOL     OW 8215   5.745   8.585   1.466
36064SOL    HW1 8216   5.767   8.524   1.542
36064SOL    HW2 8217   5.755   8.536   1.380
36065SOL     OW 8218   6.933   8.507   1.234
36065SOL    HW1 8219   6.957   8.444   1.160
36065SOL    HW2 8220   6.843   8.547   1.216
36066SOL     OW 8221   6.888   8.303   0.309
36066SOL    HW1 8222   6.802   8.272   0.351
36066SOL    HW2 8223   6.884   8.289   0.210
36067SOL     OW 8224   7.345   9.195   1.154
36067SOL    HW1 8225   7.406   9.225   1.081
36067SOL    HW2 8226   7.307   9.106   1.132
36068SOL     OW 8227   6.838   9.179   1.128
36068SOL    HW1 8228   6.922   9.184   1.074
36068SOL    HW2 8229   6.815   9.083   1.146
36069SOL     OW 8230   5.669   8.706   1.022
36069SOL    HW1 8231   5.664   8.705   1.122
36069SOL    HW2 8232   5.586   8.665   0.984
36070SOL     OW 8233   6.274   9.110   1.716
36070SOL    HW1 8234   6.218   9.191   1.725
36070SOL    HW2 8235   6.326   9.114   1.630
36071SOL     OW 8236   6.489   7.534   0.133
36071SOL    HW1 8237   6.540   7.535   0.047
36071SOL    HW2 8238   6.545   7.492   0.204
36072SOL     OW 8239   7.312   7.583   0.523
36072SOL    HW1 8240   7.385   7.566   0.456
36072SOL    HW2 8241   7.281   7.496   0.561
36073SOL     OW 8242   6.974   9.021   0.477
36073SOL    HW1 8243   7.041   9.033   0.403
36073SOL    HW2 8244   6.934   9.110   0.500
36074SOL     OW 8245   5.716   9.242   1.851
36074SOL    HW1 8246   5.675   9.168   1.904
36074SOL    HW2 8247   5.780   9.293   1.909
36075SOL     OW 8248   6.866   8.375   0.672
36075SOL    HW1 8249   6.926   8.294   0.674
36075SOL    HW2 8250   6.906   8.444   0.612
36076SOL     OW 8251   6.416   8.721   1.422
36076SOL    HW1 8252   6.411   8.754   1.517
36076SOL    HW2 8253   6.330   8.740   1.376
36077SOL     OW 8254   6.258   9.064   0.154
36077SOL    HW1 8255   6.267   9.074   0.055
36077SOL    HW2 8256   6.218   8.975   0.175
36078SOL     OW 8257   7.236   9.168   1.394
36078SOL    HW1 8258   7.289   9.178   1.310
36078SOL    HW2 8259   7.209   9.258   1.428
36079SOL     OW 8260   7.427   7.623   0.963
36079SOL    HW1 8261   7.466   7.538   0.927
36079SOL    HW2 8262   7.329   7.625   0.944
36080SOL     OW 8263   5.849   7.774   0.720
36080SOL    HW1 8264   5.770   7.825   0.686
36080SOL    HW2 8265   5.840   7.759   0.818
36081SOL     OW 8266   6.780   9.060   0.031
36081SOL    HW1 8267   6.786   8.967   0.068
36081SOL    HW2 8268   6.721   9.060  -0.049
36082SOL     OW 8269   6.408   8.450   1.372
36082SOL    HW1 8270   6.448   8.449   1.280
36082SOL    HW2 8271   6.418   8.542   1.412
36083SOL     OW 8272   6.502   8.358   0.291
36083SOL    HW1 8273   6.565   8.396   0.223
36083SOL    HW2 8274   6.542   8.275   0.330
36084SOL     OW 8275   7.090   9.055   0.044
36084SOL    HW1 8276   6.998   9.092   0.051
36084SOL    HW2 8277   7.128   9.075  -0.046
36085SOL     OW 8278   5.958   8.736   1.490
36085SOL    HW1 8279   5.945   8.829   1.456
36085SOL    HW2 8280   5.874   8.684   1.477
36086SOL     OW 8281   7.200   8.740   1.289
36086SOL    HW1 8282   7.260   8.743   1.369
36086SOL    HW2 8283   7.125   8.804   1.302
36087SOL     OW 8284   6.625   8.546   0.696
36087SOL    HW1 8285   6.555   8.499   0.750
36087SOL    HW2 8286   6.684   8.478   0.653
36088SOL     OW 8287   6.600   7.684   0.971
36088SOL    HW1 8288   6.592   7.648   0.878
36088SOL    HW2 8289   6.598   7.608   1.036
36089SOL     OW 8290   6.176   8.935   0.491
36089SOL    HW1 8291   6.218   8.877   0.421
36089SOL    HW2 8292   6.132   9.014   0.447
36090SOL     OW 8293   7.295   7.833   1.381
36090SOL    HW1 8294   7.368   7.902   1.385
36090SOL    HW2 8295   7.323   7.758   1.322
36091SOL     OW 8296   5.841   8.796   0.290
36091SOL    HW1 8297   5.745   8.797   0.263
36091SOL    HW2 8298   5.853   8.849   0.374
36092SOL     OW 8299   5.691   8.461   1.726
36092SOL    HW1 8300   5.614   8.428   1.780
36092SOL    HW2 8301   5.776   8.431   1.768
36093SOL     OW 8302   6.258   7.651   1.489
36093SOL    HW1 8303   6.348   7.635   1.449
36093SOL    HW2 8304   6.266   7.656   1.588
36094SOL     OW 8305   7.026   8.304   1.398
36094SOL    HW1 8306   6.969   8.356   1.335
36094SOL    HW2 8307   7.122   8.316   1.374
36095SOL     OW 8308   5.658   7.614   0.318
36095SOL    HW1 8309   5.641   7.697   0.264
36095SOL    HW2 8310   5.748   7.577   0.296
36096SOL     OW 8311   6.769   8.783   0.119
36096SOL    HW1 8312   6.670   8.772   0.121
36096SOL    HW2 8313   6.803   8.798   0.212
36097SOL     OW 8314   6.199   8.290   1.431
36097SOL    HW1 8315   6.255   8.371   1.414
36097SOL    HW2 8316   6.258   8.210   1.434
36098SOL     OW 8317   7.079   9.215   0.959
36098SOL    HW1 8318   7.112   9.279   0.890
36098SOL    HW2 8319   7.145   9.209   1.034
36099SOL     OW 8320   6.302   8.013   1.708
36099SOL    HW1 8321   6.321   8.078   1.782
36099SOL    HW2 8322   6.362   7.933   1.717
36100SOL     OW 8323   7.036   8.668   1.633
36100SOL    HW1 8324   7.027   8.658   1.732
36100SOL    HW2 8325   7.132   8.661   1.607
36101SOL     OW 8326   5.976   9.189   1.560
36101SOL    HW1 8327   5.885   9.230   1.558
36101SOL    HW2 8328   5.969   9.095   1.592
36102SOL     OW 8329   7.260   8.331   1.254
36102SOL    HW1 8330   7.233   8.242   1.217
36102SOL    HW2 8331   7.261   8.399   1.181
36103SOL     OW 8332   6.811   7.773   0.449
36103SOL    HW1 8333   6.876   7.699   0.438
36103SOL    HW2 8334   6.831   7.823   0.533
36104SOL     OW 8335   6.180   8.193   0.652
36104SOL    HW1 8336   6.230   8.278   0.633
36104SOL    HW2 8337   6.092   8.195   0.604
36105SOL     OW 8338   7.363   7.790   1.642
36105SOL    HW1 8339   7.346   7.821   1.548
36105SOL    HW2 8340   7.279   7.753   1.680
36106SOL     OW 8341   7.316   8.382   1.517
36106SOL    HW1 8342   7.354   8.473   1.532
36106SOL    HW2 8343   7.308   8.365   1.418
36107SOL     OW 8344   6.445   8.822   0.016
36107SOL    HW1 8345   6.399   8.837   0.104
36107SOL    HW2 8346   6.489   8.907  -0.014
36108SOL     OW 8347   6.247   9.238   0.953
36108SOL    HW1 8348   6.201   9.326   0.940
36108SOL    HW2 8349   6.346   9.250   0.946
36109SOL     OW 8350   6.445   8.404   0.861
36109SOL    HW1 8351   6.499   8.335   0.909
36109SOL    HW2 8352   6.413   8.473   0.927
36110SOL     OW 8353   6.669   8.432   0.087
36110SOL    HW1 8354   6.646   8.485   0.005
36110SOL    HW2 8355   6.750   8.376   0.068
36111SOL     OW 8356   7.447   9.017   0.851
36111SOL    HW1 8357   7.376   9.005   0.781
36111SOL    HW2 8358   7.448   8.938   0.911
36112SOL     OW 8359   5.807   8.762   1.844
36112SOL    HW1 8360   5.742   8.689   1.823
36112SOL    HW2 8361   5.811   8.776   1.942
36113SOL     OW 8362   5.665   8.688   0.653
36113SOL    HW1 8363   5.664   8.641   0.741
36113SOL    HW2 8364   5.747   8.660   0.602
36114SOL     OW 8365   6.258   8.839   1.624
36114SOL    HW1 8366   6.180   8.789   1.662
36114SOL    HW2 8367   6.255   8.934   1.655
36115SOL     OW 8368   7.410   7.640   1.227
36115SOL    HW1 8369   7.406   7.550   1.271
36115SOL    HW2 8370   7.413   7.629   1.128
36116SOL     OW 8371   6.014   7.872   0.520
36116SOL    HW1 8372   6.044   7.800   0.458
36116SOL    HW2 8373   5.975   7.832   0.603
36117SOL     OW 8374   7.291   8.935   1.104
36117SOL    HW1 8375   7.198   8.910   1.077
36117SOL    HW2 8376   7.317   8.885   1.186
36118SOL     OW 8377   5.903   7.995   1.280
36118SOL    HW1 8378   5.941   7.936   1.352
36118SOL    HW2 8379   5.943   7.969   1.192
36119SOL     OW 8380   6.398   9.034   0.687
36119SOL    HW1 8381   6.430   9.044   0.593
36119SOL    HW2 8382   6.319   8.972   0.689
36120SOL     OW 8383   7.010   7.662   1.112
36120SOL    HW1 8384   7.062   7.597   1.167
36120SOL    HW2 8385   6.961   7.725   1.173
36121SOL     OW 8386   6.587   7.482   1.154
36121SOL    HW1 8387   6.524   7.410   1.123
36121SOL    HW2 8388   6.680   7.446   1.154
36122SOL     OW 8389   6.356   8.778   0.301
36122SOL    HW1 8390   6.310   8.691   0.318
36122SOL    HW2 8391   6.447   8.775   0.342
36123SOL     OW 8392   6.204   9.015   1.284
36123SOL    HW1 8393   6.199   9.097   1.341
36123SOL    HW2 8394   6.293   9.012   1.239
36124SOL     OW 8395   6.938   7.500   0.168
36124SOL    HW1 8396   6.973   7.459   0.084
36124SOL    HW2 8397   6.848   7.462   0.188
36125SOL     OW 8398   6.886   7.901   0.691
36125SOL    HW1 8399   6.827   7.981   0.695
36125SOL    HW2 8400   6.901   7.866   0.784
36126SOL     OW 8401   7.179   7.669   0.882
36126SOL    HW1 8402   7.095   7.668   0.936
36126SOL    HW2 8403   7.181   7.752   0.826
36127SOL     OW 8404   5.625   8.525   0.300
36127SOL    HW1 8405   5.724   8.514   0.291
36127SOL    HW2 8406   5.585   8.439   0.332
36128SOL     OW 8407   6.461   9.094   0.337
36128SOL    HW1 8408   6.384   9.059   0.283
36128SOL    HW2 8409   6.429   9.165   0.399
36129SOL     OW 8410   5.816   8.076   1.975
36129SOL    HW1 8411   5.723   8.074   2.012
36129SOL    HW2 8412   5.817   8.037   1.883
36130SOL     OW 8413   5.811   7.723   2.858
36130SOL    HW1 8414   5.846   7.706   2.950
36130SOL    HW2 8415   5.723   7.678   2.846
36131SOL     OW 8416   5.605   7.816   2.509
36131SOL    HW1 8417   5.523   7.859   2.548
36131SOL    HW2 8418   5.577   7.743   2.446
36132SOL     OW 8419   6.155   8.723   3.027
36132SOL    HW1 8420   6.062   8.716   2.990
36132SOL    HW2 8421   6.166   8.812   3.071
36133SOL     OW 8422   7.141   8.959   2.565
36133SOL    HW1 8423   7.084   8.943   2.646
36133SOL    HW2 8424   7.082   8.969   2.485
36134SOL     OW 8425   6.721   8.151   2.579
36134SOL    HW1 8426   6.778   8.229   2.554
36134SOL    HW2 8427   6.661   8.177   2.655
36135SOL     OW 8428   7.341   8.055   2.093
36135SOL    HW1 8429   7.329   8.042   1.994
36135SOL    HW2 8430   7.311   7.974   2.142
36136SOL     OW 8431   6.354   8.592   2.885
36136SOL    HW1 8432   6.276   8.609   2.945
36136SOL    HW2 8433   6.388   8.679   2.849
36137SOL     OW 8434   6.436   8.246   3.685
36137SOL    HW1 8435   6.432   8.322   3.750
36137SOL    HW2 8436   6.458   8.282   3.594
36138SOL     OW 8437   6.271   8.460   2.527
36138SOL    HW1 8438   6.340   8.444   2.597
36138SOL    HW2 8439   6.198   8.517   2.565
36139SOL     OW 8440   6.272   8.609   3.665
36139SOL    HW1 8441   6.332   8.688   3.679
36139SOL    HW2 8442   6.186   8.640   3.624
36140SOL     OW 8443   5.921   8.883   2.923
36140SOL    HW1 8444   5.843   8.852   2.870
36140SOL    HW2 8445   5.979   8.941   2.866
36141SOL     OW 8446   7.046   8.953   3.201
36141SOL    HW1 8447   7.070   9.047   3.227
36141SOL    HW2 8448   7.030   8.899   3.283
36142SOL     OW 8449   6.024   7.840   3.361
36142SOL    HW1 8450   6.106   7.784   3.370
36142SOL    HW2 8451   5.943   7.782   3.365
36143SOL     OW 8452   7.189   7.895   2.599
36143SOL    HW1 8453   7.115   7.941   2.549
36143SOL    HW2 8454   7.240   7.963   2.652
36144SOL     OW 8455   5.817   9.161   2.345
36144SOL    HW1 8456   5.851   9.238   2.399
36144SOL    HW2 8457   5.861   9.161   2.255
36145SOL     OW 8458   6.713   8.789   3.552
36145SOL    HW1 8459   6.760   8.789   3.640
36145SOL    HW2 8460   6.665   8.702   3.541
36146SOL     OW 8461   5.816   8.882   2.400
36146SOL    HW1 8462   5.790   8.978   2.400
36146SOL    HW2 8463   5.745   8.828   2.445
36147SOL     OW 8464   5.826   8.539   2.748
36147SOL    HW1 8465   5.840   8.455   2.800
36147SOL    HW2 8466   5.771   8.603   2.803
36148SOL     OW 8467   6.206   9.234   3.301
36148SOL    HW1 8468   6.114   9.217   3.336
36148SOL    HW2 8469   6.234   9.326   3.327
36149SOL     OW 8470   6.192   8.412   1.985
36149SOL    HW1 8471   6.199   8.496   1.931
36149SOL    HW2 8472   6.238   8.425   2.073
36150SOL     OW 8473   7.180   7.562   3.342
36150SOL    HW1 8474   7.162   7.629   3.270
36150SOL    HW2 8475   7.177   7.608   3.431
36151SOL     OW 8476   5.708   8.091   2.425
36151SOL    HW1 8477   5.663   8.003   2.442
36151SOL    HW2 8478   5.707   8.145   2.509
36152SOL     OW 8479   7.428   9.215   2.221
36152SOL    HW1 8480   7.482   9.186   2.301
36152SOL    HW2 8481   7.458   9.305   2.192
36153SOL     OW 8482   5.613   9.044   1.979
36153SOL    HW1 8483   5.594   8.948   2.000
36153SOL    HW2 8484   5.580   9.102   2.054
36154SOL     OW 8485   7.275   8.370   2.474
36154SOL    HW1 8486   7.370   8.341   2.482
36154SOL    HW2 8487   7.267   8.435   2.399
36155SOL     OW 8488   7.227   8.556   2.294
36155SOL    HW1 8489   7.313   8.558   2.242
36155SOL    HW2 8490   7.241   8.603   2.382
36156SOL     OW 8491   5.699   8.185   3.459
36156SOL    HW1 8492   5.787   8.172   3.504
36156SOL    HW2 8493   5.686   8.282   3.437
36157SOL     OW 8494   6.199   8.813   2.588
36157SOL    HW1 8495   6.150   8.726   2.597
36157SOL    HW2 8496   6.176   8.856   2.501
36158SOL     OW 8497   6.879   8.676   3.285
36158SOL    HW1 8498   6.916   8.603   3.227
36158SOL    HW2 8499   6.931   8.681   3.370
36159SOL     OW 8500   6.395   7.452   2.364
36159SOL    HW1 8501   6.435   7.543   2.355
36159SOL    HW2 8502   6.295   7.460   2.370
36160SOL     OW 8503   5.783   8.424   3.126
36160SOL    HW1 8504   5.872   8.379   3.112
36160SOL    HW2 8505   5.710   8.359   3.107
36161SOL     OW 8506   7.111   8.447   2.052
36161SOL    HW1 8507   7.048   8.371   2.065
36161SOL    HW2 8508   7.159   8.465   2.138
36162SOL     OW 8509   6.773   9.240   3.478
36162SOL    HW1 8510   6.797   9.300   3.402
36162SOL    HW2 8511   6.780   9.145   3.448
36163SOL     OW 8512   5.903   7.699   3.663
36163SOL    HW1 8513   5.974   7.770   3.669
36163SOL    HW2 8514   5.815   7.738   3.691
36164SOL     OW 8515   7.052   8.865   2.815
36164SOL    HW1 8516   6.993   8.871   2.895
36164SOL    HW2 8517   7.037   8.777   2.769
36165SOL     OW 8518   7.253   9.162   2.434
36165SOL    HW1 8519   7.212   9.139   2.346
36165SOL    HW2 8520   7.235   9.088   2.499
36166SOL     OW 8521   6.184   8.177   2.132
36166SOL    HW1 8522   6.208   8.246   2.064
36166SOL    HW2 8523   6.106   8.210   2.186
36167SOL     OW 8524   6.867   7.793   2.806
36167SOL    HW1 8525   6.781   7.743   2.793
36167SOL    HW2 8526   6.929   7.739   2.862
36168SOL     OW 8527   7.162   9.110   2.169
36168SOL    HW1 8528   7.251   9.156   2.172
36168SOL    HW2 8529   7.141   9.086   2.074
36169SOL     OW 8530   6.393   8.053   3.327
36169SOL    HW1 8531   6.346   8.050   3.416
36169SOL    HW2 8532   6.342   7.998   3.261
36170SOL     OW 8533   6.980   7.917   3.536
36170SOL    HW1 8534   6.960   7.960   3.624
36170SOL    HW2 8535   7.058   7.855   3.545
36171SOL     OW 8536   6.559   8.338   3.434
36171SOL    HW1 8537   6.605   8.254   3.405
36171SOL    HW2 8538   6.503   8.372   3.359
36172SOL     OW 8539   6.577   7.858   3.104
36172SOL    HW1 8540   6.500   7.892   3.158
36172SOL    HW2 8541   6.543   7.807   3.025
36173SOL     OW 8542   6.627   8.149   2.291
36173SOL    HW1 8543   6.653   8.145   2.387
36173SOL    HW2 8544   6.542   8.098   2.277
36174SOL     OW 8545   5.662   8.259   2.651
36174SOL    HW1 8546   5.761   8.247   2.660
36174SOL    HW2 8547   5.638   8.354   2.672
36175SOL     OW 8548   5.716   9.269   3.433
36175SOL    HW1 8549   5.706   9.254   3.532
36175SOL    HW2 8550   5.630   9.305   3.397
36176SOL     OW 8551   6.451   7.796   2.057
36176SOL    HW1 8552   6.510   7.859   2.008
36176SOL    HW2 8553   6.470   7.702   2.028
36177SOL     OW 8554   7.305   8.033   3.693
36177SOL    HW1 8555   7.279   8.122   3.657
36177SOL    HW2 8556   7.303   7.965   3.620
36178SOL     OW 8557   6.948   8.592   2.407
36178SOL    HW1 8558   7.031   8.563   2.359
36178SOL    HW2 8559   6.899   8.659   2.351
36179SOL     OW 8560   6.136   7.644   2.747
36179SOL    HW1 8561   6.131   7.639   2.847
36179SOL    HW2 8562   6.138   7.740   2.718
36180SOL     OW 8563   6.594   8.904   2.339
36180SOL    HW1 8564   6.548   8.976   2.287
36180SOL    HW2 8565   6.590   8.924   2.437
36181SOL     OW 8566   5.937   9.249   2.715
36181SOL    HW1 8567   5.987   9.163   2.721
36181SOL    HW2 8568   6.002   9.326   2.712
36182SOL     OW 8569   7.381   8.514   2.735
36182SOL    HW1 8570   7.319   8.499   2.659
36182SOL    HW2 8571   7.329   8.525   2.820
36183SOL     OW 8572   6.813   8.998   3.368
36183SOL    HW1 8573   6.819   8.921   3.432
36183SOL    HW2 8574   6.761   8.972   3.288
36184SOL     OW 8575   5.907   8.391   2.104
36184SOL    HW1 8576   5.989   8.430   2.062
36184SOL    HW2 8577   5.880   8.309   2.055
36185SOL     OW 8578   7.044   8.183   2.590
36185SOL    HW1 8579   7.039   8.118   2.665
36185SOL    HW2 8580   7.124   8.242   2.603
36186SOL     OW 8581   6.047   8.714   3.589
36186SOL    HW1 8582   5.997   8.715   3.503
36186SOL    HW2 8583   5.984   8.696   3.665
36187SOL     OW 8584   6.697   9.224   2.099
36187SOL    HW1 8585   6.637   9.162   2.149
36187SOL    HW2 8586   6.728   9.180   2.014
36188SOL     OW 8587   5.788   7.733   3.360
36188SOL    HW1 8588   5.708   7.793   3.347
36188SOL    HW2 8589   5.778   7.684   3.446
36189SOL     OW 8590   7.218   8.825   1.943
36189SOL    HW1 8591   7.186   8.919   1.933
36189SOL    HW2 8592   7.142   8.762   1.931
36190SOL     OW 8593   6.050   9.191   2.185
36190SOL    HW1 8594   6.083   9.230   2.271
36190SOL    HW2 8595   6.126   9.184   2.120
36191SOL     OW 8596   6.986   7.555   2.288
36191SOL    HW1 8597   6.962   7.518   2.198
36191SOL    HW2 8598   7.085   7.571   2.292
36192SOL     OW 8599   5.835   9.233   3.103
36192SOL    HW1 8600   5.892   9.168   3.153
36192SOL    HW2 8601   5.819   9.200   3.010
36193SOL     OW 8602   6.526   9.146   2.766
36193SOL    HW1 8603   6.606   9.089   2.787
36193SOL    HW2 8604   6.477   9.106   2.689
36194SOL     OW 8605   5.968   8.148   2.342
36194SOL    HW1 8606   6.013   8.058   2.339
36194SOL    HW2 8607   5.874   8.137   2.375
36195SOL     OW 8608   7.133   7.670   3.591
36195SOL    HW1 8609   7.128   7.707   3.683
36195SOL    HW2 8610   7.061   7.601   3.579
36196SOL     OW 8611   6.200   7.570   1.979
36196SOL    HW1 8612   6.298   7.548   1.986
36196SOL    HW2 8613   6.169   7.553   1.886
36197SOL     OW 8614   6.367   7.712   3.611
36197SOL    HW1 8615   6.434   7.651   3.654
36197SOL    HW2 8616   6.294   7.731   3.676
36198SOL     OW 8617   6.474   8.962   3.057
36198SOL    HW1 8618   6.451   8.937   2.963
36198SOL    HW2 8619   6.535   8.893   3.096
36199SOL     OW 8620   6.937   8.038   3.295
36199SOL    HW1 8621   6.965   7.995   3.380
36199SOL    HW2 8622   6.962   8.134   3.296
36200SOL     OW 8623   6.389   8.850   2.786
36200SOL    HW1 8624   6.479   8.864   2.744
36200SOL    HW2 8625   6.318   8.852   2.715
36201SOL     OW 8626   6.508   7.951   2.761
36201SOL    HW1 8627   6.483   7.942   2.665
36201SOL    HW2 8628   6.556   7.869   2.792
36202SOL     OW 8629   6.125   7.512   2.374
36202SOL    HW1 8630   6.044   7.513   2.432
36202SOL    HW2 8631   6.128   7.595   2.319
36203SOL     OW 8632   7.020   8.636   1.903
36203SOL    HW1 8633   7.052   8.560   1.960
36203SOL    HW2 8634   6.928   8.663   1.933
36204SOL     OW 8635   5.883   7.483   2.033
36204SOL    HW1 8636   5.932   7.567   2.012
36204SOL    HW2 8637   5.945   7.418   2.078
36205SOL     OW 8638   6.521   7.684   2.342
36205SOL    HW1 8639   6.473   7.725   2.264
36205SOL    HW2 8640   6.620   7.682   2.323
36206SOL     OW 8641   6.662   8.131   3.326
36206SOL    HW1 8642   6.582   8.070   3.329
36206SOL    HW2 8643   6.743   8.078   3.302
36207SOL     OW 8644   6.813   9.018   2.655
36207SOL    HW1 8645   6.834   9.092   2.590
36207SOL    HW2 8646   6.881   9.018   2.728
36208SOL     OW 8647   6.045   8.600   2.603
36208SOL    HW1 8648   5.974   8.573   2.668
36208SOL    HW2 8649   6.019   8.572   2.510
36209SOL     OW 8650   6.857   9.245   2.453
36209SOL    HW1 8651   6.901   9.309   2.389
36209SOL    HW2 8652   6.807   9.297   2.523
36210SOL     OW 8653   6.618   7.997   1.878
36210SOL    HW1 8654   6.577   8.079   1.839
36210SOL    HW2 8655   6.682   8.023   1.951
36211SOL     OW 8656   5.664   8.004   3.248
36211SOL    HW1 8657   5.756   8.003   3.207
36211SOL    HW2 8658   5.658   8.078   3.315
36212SOL     OW 8659   6.147   7.670   3.009
36212SOL    HW1 8660   6.185   7.586   3.046
36212SOL    HW2 8661   6.059   7.689   3.053
36213SOL     OW 8662   6.452   7.902   2.504
36213SOL    HW1 8663   6.420   7.974   2.442
36213SOL    HW2 8664   6.476   7.821   2.451
36214SOL     OW 8665   6.603   7.487   2.615
36214SOL    HW1 8666   6.531   7.492   2.546
36214SOL    HW2 8667   6.579   7.418   2.684
36215SOL     OW 8668   7.015   8.621   2.729
36215SOL    HW1 8669   6.960   8.537   2.722
36215SOL    HW2 8670   7.041   8.650   2.637
36216SOL     OW 8671   7.052   8.038   2.854
36216SOL    HW1 8672   7.022   7.943   2.861
36216SOL    HW2 8673   7.125   8.054   2.920
36217SOL     OW 8674   7.443   8.281   2.239
36217SOL    HW1 8675   7.485   8.217   2.303
36217SOL    HW2 8676   7.405   8.230   2.161
36218SOL     OW 8677   6.074   8.833   2.036
36218SOL    HW1 8678   5.987   8.818   2.083
36218SOL    HW2 8679   6.057   8.859   1.941
36219SOL     OW 8680   7.250   8.728   2.519
36219SOL    HW1 8681   7.349   8.736   2.533
36219SOL    HW2 8682   7.205   8.812   2.550
36220SOL     OW 8683   6.976   8.023   1.940
36220SOL    HW1 8684   6.922   8.002   2.021
36220SOL    HW2 8685   7.067   7.982   1.949
36221SOL     OW 8686   6.113   7.704   2.190
36221SOL    HW1 8687   6.140   7.645   2.115
36221SOL    HW2 8688   6.113   7.799   2.159
36222SOL     OW 8689   7.340   8.671   3.450
36222SOL    HW1 8690   7.431   8.632   3.437
36222SOL    HW2 8691   7.348   8.767   3.474
36223SOL     OW 8692   6.650   8.795   3.202
36223SOL    HW1 8693   6.570   8.772   3.257
36223SOL    HW2 8694   6.733   8.769   3.251
36224SOL     OW 8695   7.178   9.077   3.487
36224SOL    HW1 8696   7.205   9.111   3.397
36224SOL    HW2 8697   7.257   9.039   3.533
36225SOL     OW 8698   6.697   8.643   2.962
36225SOL    HW1 8699   6.657   8.687   3.043
36225SOL    HW2 8700   6.656   8.680   2.879
36226SOL     OW 8701   7.224   8.547   2.941
36226SOL    HW1 8702   7.229   8.628   3.000
36226SOL    HW2 8703   7.138   8.549   2.890
36227SOL     OW 8704   6.501   7.537   3.264
36227SOL    HW1 8705   6.526   7.517   3.169
36227SOL    HW2 8706   6.573   7.593   3.306
36228SOL     OW 8707   6.566   8.564   3.581
36228SOL    HW1 8708   6.467   8.570   3.591
36228SOL    HW2 8709   6.589   8.484   3.525
36229SOL     OW 8710   6.291   8.498   2.230
36229SOL    HW1 8711   6.277   8.505   2.329
36229SOL    HW2 8712   6.375   8.447   2.212
36230SOL     OW 8713   5.996   8.261   3.113
36230SOL    HW1 8714   6.082   8.273   3.163
36230SOL    HW2 8715   5.954   8.174   3.140
36231SOL     OW 8716   6.860   7.834   3.124
36231SOL    HW1 8717   6.881   7.908   3.188
36231SOL    HW2 8718   6.771   7.851   3.081
36232SOL     OW 8719   5.650   9.012   3.193
36232SOL    HW1 8720   5.604   9.094   3.159
36232SOL    HW2 8721   5.748   9.031   3.202
36233SOL     OW 8722   5.953   8.548   2.363
36233SOL    HW1 8723   5.946   8.631   2.307
36233SOL    HW2 8724   5.957   8.468   2.303
36234SOL     OW 8725   6.152   7.985   2.727
36234SOL    HW1 8726   6.164   8.051   2.653
36234SOL    HW2 8727   6.198   8.019   2.810
36235SOL     OW 8728   6.838   8.796   2.250
36235SOL    HW1 8729   6.888   8.873   2.290
36235SOL    HW2 8730   6.743   8.798   2.282
36236SOL     OW 8731   6.858   8.893   3.004
36236SOL    HW1 8732   6.905   8.906   3.091
36236SOL    HW2 8733   6.792   8.819   3.013
36237SOL     OW 8734   7.168   8.087   2.334
36237SOL    HW1 8735   7.137   8.148   2.407
36237SOL    HW2 8736   7.218   8.139   2.265
36238SOL     OW 8737   5.940   8.958   3.191
36238SOL    HW1 8738   5.919   8.914   3.104
36238SOL    HW2 8739   6.037   8.984   3.194
36239SOL     OW 8740   5.988   8.199   3.460
36239SOL    HW1 8741   6.056   8.254   3.413
36239SOL    HW2 8742   6.028   8.111   3.487
36240SOL     OW 8743   7.173   8.227   3.532
36240SOL    HW1 8744   7.081   8.265   3.527
36240SOL    HW2 8745   7.233   8.274   3.467
36241SOL     OW 8746   6.599   7.553   3.632
36241SOL    HW1 8747   6.605   7.638   3.580
36241SOL    HW2 8748   6.631   7.477   3.575
36242SOL     OW 8749   6.090   7.498   3.602
36242SOL    HW1 8750   6.048   7.441   3.532
36242SOL    HW2 8751   6.024   7.567   3.634
36243SOL     OW 8752   6.159   8.318   2.891
36243SOL    HW1 8753   6.203   8.407   2.882
36243SOL    HW2 8754   6.096   8.318   2.968
36244SOL     OW 8755   6.946   8.310   2.907
36244SOL    HW1 8756   6.871   8.310   2.841
36244SOL    HW2 8757   6.983   8.218   2.916
36245SOL     OW 8758   6.795   7.973   2.137
36245SOL    HW1 8759   6.808   7.889   2.191
36245SOL    HW2 8760   6.766   8.047   2.197
36246SOL     OW 8761   5.893   7.661   3.093
36246SOL    HW1 8762   5.870   7.698   3.183
36246SOL    HW2 8763   5.863   7.566   3.087
36247SOL     OW 8764   5.623   8.758   3.144
36247SOL    HW1 8765   5.676   8.709   3.212
36247SOL    HW2 8766   5.645   8.856   3.149
36248SOL     OW 8767   6.318   8.082   2.926
36248SOL    HW1 8768   6.377   8.056   2.850
36248SOL    HW2 8769   6.290   8.178   2.915
36249SOL     OW 8770   7.314   8.383   3.716
36249SOL    HW1 8771   7.268   8.376   3.627
36249SOL    HW2 8772   7.252   8.427   3.782
36250SOL     OW 8773   5.893   7.511   2.480
36250SOL    HW1 8774   5.882   7.605   2.513
36250SOL    HW2 8775   5.888   7.448   2.557
36251SOL     OW 8776   7.208   7.815   2.236
36251SOL    HW1 8777   7.210   7.739   2.300
36251SOL    HW2 8778   7.160   7.892   2.276
36252SOL     OW 8779   6.609   8.214   2.828
36252SOL    HW1 8780   6.624   8.235   2.924
36252SOL    HW2 8781   6.579   8.119   2.819
36253SOL     OW 8782   6.566   9.021   3.562
36253SOL    HW1 8783   6.546   9.065   3.474
36253SOL    HW2 8784   6.605   8.930   3.546
36254SOL     OW 8785   7.445   8.966   3.467
36254SOL    HW1 8786   7.459   8.993   3.372
36254SOL    HW2 8787   7.528   8.988   3.520
36255SOL     OW 8788   5.936   8.346   3.666
36255SOL    HW1 8789   6.012   8.390   3.714
36255SOL    HW2 8790   5.971   8.299   3.584
36256SOL     OW 8791   7.126   7.722   1.987
36256SOL    HW1 8792   7.065   7.647   2.010
36256SOL    HW2 8793   7.148   7.774   2.070
36257SOL     OW 8794   6.889   8.286   1.904
36257SOL    HW1 8795   6.923   8.193   1.919
36257SOL    HW2 8796   6.907   8.313   1.809
36258SOL     OW 8797   6.654   8.781   2.711
36258SOL    HW1 8798   6.661   8.697   2.656
36258SOL    HW2 8799   6.716   8.850   2.675
36259SOL     OW 8800   5.905   8.258   2.811
36259SOL    HW1 8801   5.998   8.294   2.816
36259SOL    HW2 8802   5.899   8.173   2.863
36260SOL     OW 8803   5.925   7.957   2.868
36260SOL    HW1 8804   5.873   7.874   2.851
36260SOL    HW2 8805   6.002   7.962   2.804
36261SOL     OW 8806   6.724   7.828   3.540
36261SOL    HW1 8807   6.679   7.891   3.604
36261SOL    HW2 8808   6.817   7.859   3.523
36262SOL     OW 8809   6.746   7.655   3.339
36262SOL    HW1 8810   6.746   7.719   3.416
36262SOL    HW2 8811   6.774   7.703   3.256
36263SOL     OW 8812   5.594   8.774   2.062
36263SOL    HW1 8813   5.501   8.795   2.031
36263SOL    HW2 8814   5.604   8.675   2.075
36264SOL     OW 8815   5.674   9.249   2.789
36264SOL    HW1 8816   5.632   9.163   2.762
36264SOL    HW2 8817   5.768   9.252   2.755
36265SOL     OW 8818   6.090   9.016   2.772
36265SOL    HW1 8819   6.156   9.090   2.781
36265SOL    HW2 8820   6.134   8.937   2.730
36266SOL     OW 8821   6.588   8.244   3.100
36266SOL    HW1 8822   6.629   8.212   3.186
36266SOL    HW2 8823   6.492   8.217   3.097
36267SOL     OW 8824   5.626   7.992   2.976
36267SOL    HW1 8825   5.711   7.959   2.935
36267SOL    HW2 8826   5.639   8.007   3.074
36268SOL     OW 8827   5.775   7.968   3.584
36268SOL    HW1 8828   5.834   7.928   3.514
36268SOL    HW2 8829   5.717   8.039   3.543
36269SOL     OW 8830   6.955   8.398   3.522
36269SOL    HW1 8831   6.994   8.487   3.542
36269SOL    HW2 8832   6.965   8.378   3.425
36270SOL     OW 8833   6.401   8.020   2.187
36270SOL    HW1 8834   6.408   7.931   2.141
36270SOL    HW2 8835   6.307   8.054   2.179
36271SOL     OW 8836   7.243   8.052   3.068
36271SOL    HW1 8837   7.205   7.983   3.130
36271SOL    HW2 8838   7.325   8.016   3.024
36272SOL     OW 8839   5.838   9.012   3.606
36272SOL    HW1 8840   5.808   9.069   3.682
36272SOL    HW2 8841   5.831   8.915   3.632
36273SOL     OW 8842   6.257   7.912   3.131
36273SOL    HW1 8843   6.223   7.823   3.101
36273SOL    HW2 8844   6.283   7.966   3.051
36274SOL     OW 8845   6.516   9.126   3.327
36274SOL    HW1 8846   6.492   9.108   3.232
36274SOL    HW2 8847   6.546   9.220   3.337
36275SOL     OW 8848   6.059   7.948   2.053
36275SOL    HW1 8849   6.120   8.028   2.057
36275SOL    HW2 8850   5.964   7.979   2.060
36276SOL     OW 8851   5.745   8.585   3.328
36276SOL    HW1 8852   5.767   8.524   3.404
36276SOL    HW2 8853   5.755   8.536   3.242
36277SOL     OW 8854   6.933   8.507   3.096
36277SOL    HW1 8855   6.957   8.444   3.022
36277SOL    HW2 8856   6.843   8.547   3.078
36278SOL     OW 8857   6.888   8.303   2.171
36278SOL    HW1 8858   6.802   8.272   2.213
36278SOL    HW2 8859   6.884   8.289   2.072
36279SOL     OW 8860   7.345   9.195   3.016
36279SOL    HW1 8861   7.406   9.225   2.943
36279SOL    HW2 8862   7.307   9.106   2.994
36280SOL     OW 8863   6.838   9.179   2.990
36280SOL    HW1 8864   6.922   9.184   2.936
36280SOL    HW2 8865   6.815   9.083   3.008
36281SOL     OW 8866   5.669   8.706   2.884
36281SOL    HW1 8867   5.664   8.705   2.984
36281SOL    HW2 8868   5.586   8.665   2.846
36282SOL     OW 8869   6.274   9.110   3.578
36282SOL    HW1 8870   6.218   9.191   3.587
36282SOL    HW2 8871   6.326   9.114   3.492
36283SOL     OW 8872   7.312   7.583   2.385
36283SOL    HW1 8873   7.385   7.566   2.318
36283SOL    HW2 8874   7.281   7.496   2.423
36284SOL     OW 8875   6.974   9.021   2.339
36284SOL    HW1 8876   7.041   9.033   2.265
36284SOL    HW2 8877   6.934   9.110   2.362
36285SOL     OW 8878   5.716   9.242   3.713
36285SOL    HW1 8879   5.675   9.168   3.766
36285SOL    HW2 8880   5.780   9.293   3.771
36286SOL     OW 8881   6.866   8.375   2.534
36286SOL    HW1 8882   6.926   8.294   2.536
36286SOL    HW2 8883   6.906   8.444   2.474
36287SOL     OW 8884   6.416   8.721   3.284
36287SOL    HW1 8885   6.411   8.754   3.379
36287SOL    HW2 8886   6.330   8.740   3.238
36288SOL     OW 8887   6.258   9.064   2.016
36288SOL    HW1 8888   6.267   9.074   1.917
36288SOL    HW2 8889   6.218   8.975   2.037
36289SOL     OW 8890   7.236   9.168   3.256
36289SOL    HW1 8891   7.289   9.178   3.172
36289SOL    HW2 8892   7.209   9.258   3.290
36290SOL     OW 8893   7.427   7.623   2.825
36290SOL    HW1 8894   7.466   7.538   2.789
36290SOL    HW2 8895   7.329   7.625   2.806
36291SOL     OW 8896   5.849   7.774   2.582
36291SOL    HW1 8897   5.770   7.825   2.548
36291SOL    HW2 8898   5.840   7.759   2.680
36292SOL     OW 8899   6.780   9.060   1.893
36292SOL    HW1 8900   6.786   8.967   1.930
36292SOL    HW2 8901   6.721   9.060   1.813
36293SOL     OW 8902   6.408   8.450   3.234
36293SOL    HW1 8903   6.448   8.449   3.142
36293SOL    HW2 8904   6.418   8.542   3.274
36294SOL     OW 8905   6.502   8.358   2.153
36294SOL    HW1 8906   6.565   8.396   2.085
36294SOL    HW2 8907   6.542   8.275   2.192
36295SOL     OW 8908   7.090   9.055   1.906
36295SOL    HW1 8909   6.998   9.092   1.913
36295SOL    HW2 8910   7.128   9.075   1.816
36296SOL     OW 8911   5.958   8.736   3.352
36296SOL    HW1 8912   5.945   8.829   3.318
36296SOL    HW2 8913   5.874   8.684   3.339
36297SOL     OW 8914   7.200   8.740   3.151
36297SOL    HW1 8915   7.260   8.743   3.231
36297SOL    HW2 8916   7.125   8.804   3.164
36298SOL     OW 8917   6.625   8.546   2.558
36298SOL    HW1 8918   6.555   8.499   2.612
36298SOL    HW2 8919   6.684   8.478   2.515
36299SOL     OW 8920   6.600   7.684   2.833
36299SOL    HW1 8921   6.592   7.648   2.740
36299SOL    HW2 8922   6.598   7.608   2.898
36300SOL     OW 8923   6.176   8.935   2.353
36300SOL    HW1 8924   6.218   8.877   2.283
36300SOL    HW2 8925   6.132   9.014   2.309
36301SOL     OW 8926   7.295   7.833   3.243
36301SOL    HW1 8927   7.368   7.902   3.247
36301SOL    HW2 8928   7.323   7.758   3.184
36302SOL     OW 8929   5.841   8.796   2.152
36302SOL    HW1 8930   5.745   8.797   2.125
36302SOL    HW2 8931   5.853   8.849   2.236
36303SOL     OW 8932   5.691   8.461   3.588
36303SOL    HW1 8933   5.614   8.428   3.642
36303SOL    HW2 8934   5.776   8.431   3.630
36304SOL     OW 8935   6.258   7.651   3.351
36304SOL    HW1 8936   6.348   7.635   3.311
36304SOL    HW2 8937   6.266   7.656   3.450
36305SOL     OW 8938   5.661   7.793   1.895
36305SOL    HW1 8939   5.569   7.765   1.866
36305SOL    HW2 8940   5.692   7.870   1.839
36306SOL     OW 8941   7.026   8.304   3.260
36306SOL    HW1 8942   6.969   8.356   3.197
36306SOL    HW2 8943   7.122   8.316   3.236
36307SOL     OW 8944   5.658   7.614   2.180
36307SOL    HW1 8945   5.641   7.697   2.126
36307SOL    HW2 8946   5.748   7.577   2.158
36308SOL     OW 8947   6.769   8.783   1.981
36308SOL    HW1 8948   6.670   8.772   1.983
36308SOL    HW2 8949   6.803   8.798   2.074
36309SOL     OW 8950   6.199   8.290   3.293
36309SOL    HW1 8951   6.255   8.371   3.276
36309SOL    HW2 8952   6.258   8.210   3.296
36310SOL     OW 8953   7.079   9.215   2.821
36310SOL    HW1 8954   7.112   9.279   2.752
36310SOL    HW2 8955   7.145   9.209   2.896
36311SOL     OW 8956   6.302   8.013   3.570
36311SOL    HW1 8957   6.321   8.078   3.644
36311SOL    HW2 8958   6.362   7.933   3.579
36312SOL     OW 8959   7.036   8.668   3.495
36312SOL    HW1 8960   7.027   8.658   3.594
36312SOL    HW2 8961   7.132   8.661   3.469
36313SOL     OW 8962   5.976   9.189   3.422
36313SOL    HW1 8963   5.885   9.230   3.420
36313SOL    HW2 8964   5.969   9.095   3.454
36314SOL     OW 8965   7.260   8.331   3.116
36314SOL    HW1 8966   7.233   8.242   3.079
36314SOL    HW2 8967   7.261   8.399   3.043
36315SOL     OW 8968   6.811   7.773   2.311
36315SOL    HW1 8969   6.876   7.699   2.300
36315SOL    HW2 8970   6.831   7.823   2.395
36316SOL     OW 8971   6.180   8.193   2.514
36316SOL    HW1 8972   6.230   8.278   2.495
36316SOL    HW2 8973   6.092   8.195   2.466
36317SOL     OW 8974   7.363   7.790   3.504
36317SOL    HW1 8975   7.346   7.821   3.410
36317SOL    HW2 8976   7.279   7.753   3.542
36318SOL     OW 8977   7.316   8.382   3.379
36318SOL    HW1 8978   7.354   8.473   3.394
36318SOL    HW2 8979   7.308   8.365   3.280
36319SOL     OW 8980   6.445   8.822   1.878
36319SOL    HW1 8981   6.399   8.837   1.966
36319SOL    HW2 8982   6.489   8.907   1.848
36320SOL     OW 8983   6.247   9.238   2.815
36320SOL    HW1 8984   6.201   9.326   2.802
36320SOL    HW2 8985   6.346   9.250   2.808
36321SOL     OW 8986   6.445   8.404   2.723
36321SOL    HW1 8987   6.499   8.335   2.771
36321SOL    HW2 8988   6.413   8.473   2.789
36322SOL     OW 8989   6.669   8.432   1.949
36322SOL    HW1 8990   6.646   8.485   1.867
36322SOL    HW2 8991   6.750   8.376   1.930
36323SOL     OW 8992   7.447   9.017   2.713
36323SOL    HW1 8993   7.376   9.005   2.643
36323SOL    HW2 8994   7.448   8.938   2.773
36324SOL     OW 8995   5.807   8.762   3.706
36324SOL    HW1 8996   5.742   8.689   3.685
36324SOL    HW2 8997   5.811   8.776   3.804
36325SOL     OW 8998   5.665   8.688   2.515
36325SOL    HW1 8999   5.664   8.641   2.603
36325SOL    HW2 9000   5.747   8.660   2.464
36326SOL     OW 9001   6.258   8.839   3.486
36326SOL    HW1 9002   6.180   8.789   3.524
36326SOL    HW2 9003   6.255   8.934   3.517
36327SOL     OW 9004   7.410   7.640   3.089
36327SOL    HW1 9005   7.406   7.550   3.133
36327SOL    HW2 9006   7.413   7.629   2.990
36328SOL     OW 9007   6.014   7.872   2.382
36328SOL    HW1 9008   6.044   7.800   2.320
36328SOL    HW2 9009   5.975   7.832   2.465
36329SOL     OW 9010   7.291   8.935   2.966
36329SOL    HW1 9011   7.198   8.910   2.939
36329SOL    HW2 9012   7.317   8.885   3.048
36330SOL     OW 9013   5.903   7.995   3.142
36330SOL    HW1 9014   5.941   7.936   3.214
36330SOL    HW2 9015   5.943   7.969   3.054
36331SOL     OW 9016   6.398   9.034   2.549
36331SOL    HW1 9017   6.430   9.044   2.455
36331SOL    HW2 9018   6.319   8.972   2.551
36332SOL     OW 9019   7.010   7.662   2.974
36332SOL    HW1 9020   7.062   7.597   3.029
36332SOL    HW2 9021   6.961   7.725   3.035
36333SOL     OW 9022   6.587   7.482   3.016
36333SOL    HW1 9023   6.524   7.410   2.985
36333SOL    HW2 9024   6.680   7.446   3.016
36334SOL     OW 9025   6.356   8.778   2.163
36334SOL    HW1 9026   6.310   8.691   2.180
36334SOL    HW2 9027   6.447   8.775   2.204
36335SOL     OW 9028   6.204   9.015   3.146
36335SOL    HW1 9029   6.199   9.097   3.203
36335SOL    HW2 9030   6.293   9.012   3.101
36336SOL     OW 9031   6.938   7.500   2.030
36336SOL    HW1 9032   6.973   7.459   1.946
36336SOL    HW2 9033   6.848   7.462   2.050
36337SOL     OW 9034   6.886   7.901   2.553
36337SOL    HW1 9035   6.827   7.981   2.557
36337SOL    HW2 9036   6.901   7.866   2.646
36338SOL     OW 9037   7.179   7.669   2.744
36338SOL    HW1 9038   7.095   7.668   2.798
36338SOL    HW2 9039   7.181   7.752   2.688
36339SOL     OW 9040   5.625   8.525   2.162
36339SOL    HW1 9041   5.724   8.514   2.153
36339SOL    HW2 9042   5.585   8.439   2.194
36340SOL     OW 9043   6.461   9.094   2.199
36340SOL    HW1 9044   6.384   9.059   2.145
36340SOL    HW2 9045   6.429   9.165   2.261
36341SOL     OW 9046   5.816   8.076   3.837
36341SOL    HW1 9047   5.723   8.074   3.874
36341SOL    HW2 9048   5.817   8.037   3.745
36342SOL     OW 9049   5.811   7.723   4.720
36342SOL    HW1 9050   5.846   7.706   4.812
36342SOL    HW2 9051   5.723   7.678   4.708
36343SOL     OW 9052   5.605   7.816   4.371
36343SOL    HW1 9053   5.523   7.859   4.410
36343SOL    HW2 9054   5.577   7.743   4.308
36344SOL     OW 9055   6.155   8.723   4.889
36344SOL    HW1 9056   6.062   8.716   4.852
36344SOL    HW2 9057   6.166   8.812   4.933
36345SOL     OW 9058   7.141   8.959   4.427
36345SOL    HW1 9059   7.084   8.943   4.508
36345SOL    HW2 9060   7.082   8.969   4.347
36346SOL     OW 9061   6.721   8.151   4.441
36346SOL    HW1 9062   6.778   8.229   4.416
36346SOL    HW2 9063   6.661   8.177   4.517
36347SOL     OW 9064   7.341   8.055   3.955
36347SOL    HW1 9065   7.329   8.042   3.856
36347SOL    HW2 9066   7.311   7.974   4.004
36348SOL     OW 9067   6.354   8.592   4.747
36348SOL    HW1 9068   6.276   8.609   4.807
36348SOL    HW2 9069   6.388   8.679   4.711
36349SOL     OW 9070   6.436   8.246   5.547
36349SOL    HW1 9071   6.432   8.322   5.612
36349SOL    HW2 9072   6.458   8.282   5.456
36350SOL     OW 9073   6.271   8.460   4.389
36350SOL    HW1 9074   6.340   8.444   4.459
36350SOL    HW2 9075   6.198   8.517   4.427
36351SOL     OW 9076   6.272   8.609   5.527
36351SOL    HW1 9077   6.332   8.688   5.541
36351SOL    HW2 9078   6.186   8.640   5.486
36352SOL     OW 9079   5.921   8.883   4.785
36352SOL    HW1 9080   5.843   8.852   4.732
36352SOL    HW2 9081   5.979   8.941   4.728
36353SOL     OW 9082   7.046   8.953   5.063
36353SOL    HW1 9083   7.070   9.047   5.089
36353SOL    HW2 9084   7.030   8.899   5.145
36354SOL     OW 9085   6.024   7.840   5.223
36354SOL    HW1 9086   6.106   7.784   5.232
36354SOL    HW2 9087   5.943   7.782   5.227
36355SOL     OW 9088   7.189   7.895   4.461
36355SOL    HW1 9089   7.115   7.941   4.411
36355SOL    HW2 9090   7.240   7.963   4.514
36356SOL     OW 9091   5.817   9.161   4.207
36356SOL    HW1 9092   5.851   9.238   4.261
36356SOL    HW2 9093   5.861   9.161   4.117
36357SOL     OW 9094   6.713   8.789   5.414
36357SOL    HW1 9095   6.760   8.789   5.502
36357SOL    HW2 9096   6.665   8.702   5.403
36358SOL     OW 9097   5.816   8.882   4.262
36358SOL    HW1 9098   5.790   8.978   4.262
36358SOL    HW2 9099   5.745   8.828   4.307
36359SOL     OW 9100   5.826   8.539   4.610
36359SOL    HW1 9101   5.840   8.455   4.662
36359SOL    HW2 9102   5.771   8.603   4.665
36360SOL     OW 9103   6.206   9.234   5.163
36360SOL    HW1 9104   6.114   9.217   5.198
36360SOL    HW2 9105   6.234   9.326   5.189
36361SOL     OW 9106   6.192   8.412   3.847
36361SOL    HW1 9107   6.199   8.496   3.793
36361SOL    HW2 9108   6.238   8.425   3.935
36362SOL     OW 9109   7.180   7.562   5.204
36362SOL    HW1 9110   7.162   7.629   5.132
36362SOL    HW2 9111   7.177   7.608   5.293
36363SOL     OW 9112   5.708   8.091   4.287
36363SOL    HW1 9113   5.663   8.003   4.304
36363SOL    HW2 9114   5.707   8.145   4.371
36364SOL     OW 9115   7.428   9.215   4.083
36364SOL    HW1 9116   7.482   9.186   4.163
36364SOL    HW2 9117   7.458   9.305   4.054
36365SOL     OW 9118   5.613   9.044   3.841
36365SOL    HW1 9119   5.594   8.948   3.862
36365SOL    HW2 9120   5.580   9.102   3.916
36366SOL     OW 9121   7.275   8.370   4.336
36366SOL    HW1 9122   7.370   8.341   4.344
36366SOL    HW2 9123   7.267   8.435   4.261
36367SOL     OW 9124   7.227   8.556   4.156
36367SOL    HW1 9125   7.313   8.558   4.104
36367SOL    HW2 9126   7.241   8.603   4.244
36368SOL     OW 9127   5.699   8.185   5.321
36368SOL    HW1 9128   5.787   8.172   5.366
36368SOL    HW2 9129   5.686   8.282   5.299
36369SOL     OW 9130   6.199   8.813   4.450
36369SOL    HW1 9131   6.150   8.726   4.459
36369SOL    HW2 9132   6.176   8.856   4.363
36370SOL     OW 9133   6.879   8.676   5.147
36370SOL    HW1 9134   6.916   8.603   5.089
36370SOL    HW2 9135   6.931   8.681   5.232
36371SOL     OW 9136   6.395   7.452   4.226
36371SOL    HW1 9137   6.435   7.543   4.217
36371SOL    HW2 9138   6.295   7.460   4.232
36372SOL     OW 9139   5.783   8.424   4.988
36372SOL    HW1 9140   5.872   8.379   4.974
36372SOL    HW2 9141   5.710   8.359   4.969
36373SOL     OW 9142   7.111   8.447   3.914
36373SOL    HW1 9143   7.048   8.371   3.927
36373SOL    HW2 9144   7.159   8.465   4.000
36374SOL     OW 9145   6.773   9.240   5.340
36374SOL    HW1 9146   6.797   9.300   5.264
36374SOL    HW2 9147   6.780   9.145   5.310
36375SOL     OW 9148   5.903   7.699   5.525
36375SOL    HW1 9149   5.974   7.770   5.531
36375SOL    HW2 9150   5.815   7.738   5.553
36376SOL     OW 9151   7.052   8.865   4.677
36376SOL    HW1 9152   6.993   8.871   4.757
36376SOL    HW2 9153   7.037   8.777   4.631
36377SOL     OW 9154   7.253   9.162   4.296
36377SOL    HW1 9155   7.212   9.139   4.208
36377SOL    HW2 9156   7.235   9.088   4.361
36378SOL     OW 9157   6.184   8.177   3.994
36378SOL    HW1 9158   6.208   8.246   3.926
36378SOL    HW2 9159   6.106   8.210   4.048
36379SOL     OW 9160   6.867   7.793   4.668
36379SOL    HW1 9161   6.781   7.743   4.655
36379SOL    HW2 9162   6.929   7.739   4.724
36380SOL     OW 9163   7.162   9.110   4.031
36380SOL    HW1 9164   7.251   9.156   4.034
36380SOL    HW2 9165   7.141   9.086   3.936
36381SOL     OW 9166   6.393   8.053   5.189
36381SOL    HW1 9167   6.346   8.050   5.278
36381SOL    HW2 9168   6.342   7.998   5.123
36382SOL     OW 9169   6.980   7.917   5.398
36382SOL    HW1 9170   6.960   7.960   5.486
36382SOL    HW2 9171   7.058   7.855   5.407
36383SOL     OW 9172   6.559   8.338   5.296
36383SOL    HW1 9173   6.605   8.254   5.267
36383SOL    HW2 9174   6.503   8.372   5.221
36384SOL     OW 9175   6.577   7.858   4.966
36384SOL    HW1 9176   6.500   7.892   5.020
36384SOL    HW2 9177   6.543   7.807   4.887
36385SOL     OW 9178   6.627   8.149   4.153
36385SOL    HW1 9179   6.653   8.145   4.249
36385SOL    HW2 9180   6.542   8.098   4.139
36386SOL     OW 9181   5.662   8.259   4.513
36386SOL    HW1 9182   5.761   8.247   4.522
36386SOL    HW2 9183   5.638   8.354   4.534
36387SOL     OW 9184   5.716   9.269   5.295
36387SOL    HW1 9185   5.706   9.254   5.394
36387SOL    HW2 9186   5.630   9.305   5.259
36388SOL     OW 9187   6.451   7.796   3.919
36388SOL    HW1 9188   6.510   7.859   3.870
36388SOL    HW2 9189   6.470   7.702   3.890
36389SOL     OW 9190   7.305   8.033   5.555
36389SOL    HW1 9191   7.279   8.122   5.519
36389SOL    HW2 9192   7.303   7.965   5.482
36390SOL     OW 9193   6.948   8.592   4.269
36390SOL    HW1 9194   7.031   8.563   4.221
36390SOL    HW2 9195   6.899   8.659   4.213
36391SOL     OW 9196   6.136   7.644   4.609
36391SOL    HW1 9197   6.131   7.639   4.709
36391SOL    HW2 9198   6.138   7.740   4.580
36392SOL     OW 9199   6.594   8.904   4.201
36392SOL    HW1 9200   6.548   8.976   4.149
36392SOL    HW2 9201   6.590   8.924   4.299
36393SOL     OW 9202   5.937   9.249   4.577
36393SOL    HW1 9203   5.987   9.163   4.583
36393SOL    HW2 9204   6.002   9.326   4.574
36394SOL     OW 9205   7.381   8.514   4.597
36394SOL    HW1 9206   7.319   8.499   4.521
36394SOL    HW2 9207   7.329   8.525   4.682
36395SOL     OW 9208   6.813   8.998   5.230
36395SOL    HW1 9209   6.819   8.921   5.294
36395SOL    HW2 9210   6.761   8.972   5.150
36396SOL     OW 9211   5.907   8.391   3.966
36396SOL    HW1 9212   5.989   8.430   3.924
36396SOL    HW2 9213   5.880   8.309   3.917
36397SOL     OW 9214   7.044   8.183   4.452
36397SOL    HW1 9215   7.039   8.118   4.527
36397SOL    HW2 9216   7.124   8.242   4.465
36398SOL     OW 9217   6.047   8.714   5.451
36398SOL    HW1 9218   5.997   8.715   5.365
36398SOL    HW2 9219   5.984   8.696   5.527
36399SOL     OW 9220   6.697   9.224   3.961
36399SOL    HW1 9221   6.637   9.162   4.011
36399SOL    HW2 9222   6.728   9.180   3.876
36400SOL     OW 9223   5.788   7.733   5.222
36400SOL    HW1 9224   5.708   7.793   5.209
36400SOL    HW2 9225   5.778   7.684   5.308
36401SOL     OW 9226   7.218   8.825   3.805
36401SOL    HW1 9227   7.186   8.919   3.795
36401SOL    HW2 9228   7.142   8.762   3.793
36402SOL     OW 9229   6.050   9.191   4.047
36402SOL    HW1 9230   6.083   9.230   4.133
36402SOL    HW2 9231   6.126   9.184   3.982
36403SOL     OW 9232   6.986   7.555   4.150
36403SOL    HW1 9233   6.962   7.518   4.060
36403SOL    HW2 9234   7.085   7.571   4.154
36404SOL     OW 9235   5.835   9.233   4.965
36404SOL    HW1 9236   5.892   9.168   5.015
36404SOL    HW2 9237   5.819   9.200   4.872
36405SOL     OW 9238   6.526   9.146   4.628
36405SOL    HW1 9239   6.606   9.089   4.649
36405SOL    HW2 9240   6.477   9.106   4.551
36406SOL     OW 9241   5.968   8.148   4.204
36406SOL    HW1 9242   6.013   8.058   4.201
36406SOL    HW2 9243   5.874   8.137   4.237
36407SOL     OW 9244   7.133   7.670   5.453
36407SOL    HW1 9245   7.128   7.707   5.545
36407SOL    HW2 9246   7.061   7.601   5.441
36408SOL     OW 9247   6.200   7.570   3.841
36408SOL    HW1 9248   6.298   7.548   3.848
36408SOL    HW2 9249   6.169   7.553   3.748
36409SOL     OW 9250   6.367   7.712   5.473
36409SOL    HW1 9251   6.434   7.651   5.516
36409SOL    HW2 9252   6.294   7.731   5.538
36410SOL     OW 9253   6.474   8.962   4.919
36410SOL    HW1 9254   6.451   8.937   4.825
36410SOL    HW2 9255   6.535   8.893   4.958
36411SOL     OW 9256   6.937   8.038   5.157
36411SOL    HW1 9257   6.965   7.995   5.242
36411SOL    HW2 9258   6.962   8.134   5.158
36412SOL     OW 9259   6.389   8.850   4.648
36412SOL    HW1 9260   6.479   8.864   4.606
36412SOL    HW2 9261   6.318   8.852   4.577
36413SOL     OW 9262   6.508   7.951   4.623
36413SOL    HW1 9263   6.483   7.942   4.527
36413SOL    HW2 9264   6.556   7.869   4.654
36414SOL     OW 9265   6.125   7.512   4.236
36414SOL    HW1 9266   6.044   7.513   4.294
36414SOL    HW2 9267   6.128   7.595   4.181
36415SOL     OW 9268   7.020   8.636   3.765
36415SOL    HW1 9269   7.052   8.560   3.822
36415SOL    HW2 9270   6.928   8.663   3.795
36416SOL     OW 9271   5.883   7.483   3.895
36416SOL    HW1 9272   5.932   7.567   3.874
36416SOL    HW2 9273   5.945   7.418   3.940
36417SOL     OW 9274   6.521   7.684   4.204
36417SOL    HW1 9275   6.473   7.725   4.126
36417SOL    HW2 9276   6.620   7.682   4.185
36418SOL     OW 9277   6.662   8.131   5.188
36418SOL    HW1 9278   6.582   8.070   5.191
36418SOL    HW2 9279   6.743   8.078   5.164
36419SOL     OW 9280   6.813   9.018   4.517
36419SOL    HW1 9281   6.834   9.092   4.452
36419SOL    HW2 9282   6.881   9.018   4.590
36420SOL     OW 9283   6.045   8.600   4.465
36420SOL    HW1 9284   5.974   8.573   4.530
36420SOL    HW2 9285   6.019   8.572   4.372
36421SOL     OW 9286   6.857   9.245   4.315
36421SOL    HW1 9287   6.901   9.309   4.251
36421SOL    HW2 9288   6.807   9.297   4.385
36422SOL     OW 9289   6.618   7.997   3.740
36422SOL    HW1 9290   6.577   8.079   3.701
36422SOL    HW2 9291   6.682   8.023   3.813
36423SOL     OW 9292   5.664   8.004   5.110
36423SOL    HW1 9293   5.756   8.003   5.069
36423SOL    HW2 9294   5.658   8.078   5.177
36424SOL     OW 9295   6.147   7.670   4.871
36424SOL    HW1 9296   6.185   7.586   4.908
36424SOL    HW2 9297   6.059   7.689   4.915
36425SOL     OW 9298   6.452   7.902   4.366
36425SOL    HW1 9299   6.420   7.974   4.304
36425SOL    HW2 9300   6.476   7.821   4.313
36426SOL     OW 9301   6.603   7.487   4.477
36426SOL    HW1 9302   6.531   7.492   4.408
36426SOL    HW2 9303   6.579   7.418   4.546
36427SOL     OW 9304   7.015   8.621   4.591
36427SOL    HW1 9305   6.960   8.537   4.584
36427SOL    HW2 9306   7.041   8.650   4.499
36428SOL     OW 9307   7.052   8.038   4.716
36428SOL    HW1 9308   7.022   7.943   4.723
36428SOL    HW2 9309   7.125   8.054   4.782
36429SOL     OW 9310   7.443   8.281   4.101
36429SOL    HW1 9311   7.485   8.217   4.165
36429SOL    HW2 9312   7.405   8.230   4.023
36430SOL     OW 9313   6.074   8.833   3.898
36430SOL    HW1 9314   5.987   8.818   3.945
36430SOL    HW2 9315   6.057   8.859   3.803
36431SOL     OW 9316   7.250   8.728   4.381
36431SOL    HW1 9317   7.349   8.736   4.395
36431SOL    HW2 9318   7.205   8.812   4.412
36432SOL     OW 9319   6.976   8.023   3.802
36432SOL    HW1 9320   6.922   8.002   3.883
36432SOL    HW2 9321   7.067   7.982   3.811
36433SOL     OW 9322   6.113   7.704   4.052
36433SOL    HW1 9323   6.140   7.645   3.977
36433SOL    HW2 9324   6.113   7.799   4.021
36434SOL     OW 9325   7.340   8.671   5.312
36434SOL    HW1 9326   7.431   8.632   5.299
36434SOL    HW2 9327   7.348   8.767   5.336
36435SOL     OW 9328   6.650   8.795   5.064
36435SOL    HW1 9329   6.570   8.772   5.119
36435SOL    HW2 9330   6.733   8.769   5.113
36436SOL     OW 9331   7.178   9.077   5.349
36436SOL    HW1 9332   7.205   9.111   5.259
36436SOL    HW2 9333   7.257   9.039   5.395
36437SOL     OW 9334   6.697   8.643   4.824
36437SOL    HW1 9335   6.657   8.687   4.905
36437SOL    HW2 9336   6.656   8.680   4.741
36438SOL     OW 9337   7.224   8.547   4.803
36438SOL    HW1 9338   7.229   8.628   4.862
36438SOL    HW2 9339   7.138   8.549   4.752
36439SOL     OW 9340   6.501   7.537   5.126
36439SOL    HW1 9341   6.526   7.517   5.031
36439SOL    HW2 9342   6.573   7.593   5.168
36440SOL     OW 9343   6.566   8.564   5.443
36440SOL    HW1 9344   6.467   8.570   5.453
36440SOL    HW2 9345   6.589   8.484   5.387
36441SOL     OW 9346   6.291   8.498   4.092
36441SOL    HW1 9347   6.277   8.505   4.191
36441SOL    HW2 9348   6.375   8.447   4.074
36442SOL     OW 9349   5.996   8.261   4.975
36442SOL    HW1 9350   6.082   8.273   5.025
36442SOL    HW2 9351   5.954   8.174   5.002
36443SOL     OW 9352   6.860   7.834   4.986
36443SOL    HW1 9353   6.881   7.908   5.050
36443SOL    HW2 9354   6.771   7.851   4.943
36444SOL     OW 9355   5.650   9.012   5.055
36444SOL    HW1 9356   5.604   9.094   5.021
36444SOL    HW2 9357   5.748   9.031   5.064
36445SOL     OW 9358   5.953   8.548   4.225
36445SOL    HW1 9359   5.946   8.631   4.169
36445SOL    HW2 9360   5.957   8.468   4.165
36446SOL     OW 9361   6.152   7.985   4.589
36446SOL    HW1 9362   6.164   8.051   4.515
36446SOL    HW2 9363   6.198   8.019   4.672
36447SOL     OW 9364   6.838   8.796   4.112
36447SOL    HW1 9365   6.888   8.873   4.152
36447SOL    HW2 9366   6.743   8.798   4.144
36448SOL     OW 9367   6.858   8.893   4.866
36448SOL    HW1 9368   6.905   8.906   4.953
36448SOL    HW2 9369   6.792   8.819   4.875
36449SOL     OW 9370   7.168   8.087   4.196
36449SOL    HW1 9371   7.137   8.148   4.269
36449SOL    HW2 9372   7.218   8.139   4.127
36450SOL     OW 9373   5.940   8.958   5.053
36450SOL    HW1 9374   5.919   8.914   4.966
36450SOL    HW2 9375   6.037   8.984   5.056
36451SOL     OW 9376   5.988   8.199   5.322
36451SOL    HW1 9377   6.056   8.254   5.275
36451SOL    HW2 9378   6.028   8.111   5.349
36452SOL     OW 9379   7.173   8.227   5.394
36452SOL    HW1 9380   7.081   8.265   5.389
36452SOL    HW2 9381   7.233   8.274   5.329
36453SOL     OW 9382   6.599   7.553   5.494
36453SOL    HW1 9383   6.605   7.638   5.442
36453SOL    HW2 9384   6.631   7.477   5.437
36454SOL     OW 9385   6.090   7.498   5.464
36454SOL    HW1 9386   6.048   7.441   5.394
36454SOL    HW2 9387   6.024   7.567   5.496
36455SOL     OW 9388   6.159   8.318   4.753
36455SOL    HW1 9389   6.203   8.407   4.744
36455SOL    HW2 9390   6.096   8.318   4.830
36456SOL     OW 9391   6.946   8.310   4.769
36456SOL    HW1 9392   6.871   8.310   4.703
36456SOL    HW2 9393   6.983   8.218   4.778
36457SOL     OW 9394   6.795   7.973   3.999
36457SOL    HW1 9395   6.808   7.889   4.053
36457SOL    HW2 9396   6.766   8.047   4.059
36458SOL     OW 9397   5.893   7.661   4.955
36458SOL    HW1 9398   5.870   7.698   5.045
36458SOL    HW2 9399   5.863   7.566   4.949
36459SOL     OW 9400   5.623   8.758   5.006
36459SOL    HW1 9401   5.676   8.709   5.074
36459SOL    HW2 9402   5.645   8.856   5.011
36460SOL     OW 9403   6.318   8.082   4.788
36460SOL    HW1 9404   6.377   8.056   4.712
36460SOL    HW2 9405   6.290   8.178   4.777
36461SOL     OW 9406   7.314   8.383   5.578
36461SOL    HW1 9407   7.268   8.376   5.489
36461SOL    HW2 9408   7.252   8.427   5.644
36462SOL     OW 9409   5.893   7.511   4.342
36462SOL    HW1 9410   5.882   7.605   4.375
36462SOL    HW2 9411   5.888   7.448   4.419
36463SOL     OW 9412   7.208   7.815   4.098
36463SOL    HW1 9413   7.210   7.739   4.162
36463SOL    HW2 9414   7.160   7.892   4.138
36464SOL     OW 9415   6.609   8.214   4.690
36464SOL    HW1 9416   6.624   8.235   4.786
36464SOL    HW2 9417   6.579   8.119   4.681
36465SOL     OW 9418   6.566   9.021   5.424
36465SOL    HW1 9419   6.546   9.065   5.336
36465SOL    HW2 9420   6.605   8.930   5.408
36466SOL     OW 9421   7.445   8.966   5.329
36466SOL    HW1 9422   7.459   8.993   5.234
36466SOL    HW2 9423   7.528   8.988   5.382
36467SOL     OW 9424   5.936   8.346   5.528
36467SOL    HW1 9425   6.012   8.390   5.576
36467SOL    HW2 9426   5.971   8.299   5.446
36468SOL     OW 9427   7.126   7.722   3.849
36468SOL    HW1 9428   7.065   7.647   3.872
36468SOL    HW2 9429   7.148   7.774   3.932
36469SOL     OW 9430   6.889   8.286   3.766
36469SOL    HW1 9431   6.923   8.193   3.781
36469SOL    HW2 9432   6.907   8.313   3.671
36470SOL     OW 9433   6.654   8.781   4.573
36470SOL    HW1 9434   6.661   8.697   4.518
36470SOL    HW2 9435   6.716   8.850   4.537
36471SOL     OW 9436   5.905   8.258   4.673
36471SOL    HW1 9437   5.998   8.294   4.678
36471SOL    HW2 9438   5.899   8.173   4.725
36472SOL     OW 9439   5.925   7.957   4.730
36472SOL    HW1 9440   5.873   7.874   4.713
36472SOL    HW2 9441   6.002   7.962   4.666
36473SOL     OW 9442   6.724   7.828   5.402
36473SOL    HW1 9443   6.679   7.891   5.466
36473SOL    HW2 9444   6.817   7.859   5.385
36474SOL     OW 9445   6.746   7.655   5.201
36474SOL    HW1 9446   6.746   7.719   5.278
36474SOL    HW2 9447   6.774   7.703   5.118
36475SOL     OW 9448   5.594   8.774   3.924
36475SOL    HW1 9449   5.501   8.795   3.893
36475SOL    HW2 9450   5.604   8.675   3.937
36476SOL     OW 9451   5.674   9.249   4.651
36476SOL    HW1 9452   5.632   9.163   4.624
36476SOL    HW2 9453   5.768   9.252   4.617
36477SOL     OW 9454   6.090   9.016   4.634
36477SOL    HW1 9455   6.156   9.090   4.643
36477SOL    HW2 9456   6.134   8.937   4.592
36478SOL     OW 9457   6.588   8.244   4.962
36478SOL    HW1 9458   6.629   8.212   5.048
36478SOL    HW2 9459   6.492   8.217   4.959
36479SOL     OW 9460   5.626   7.992   4.838
36479SOL    HW1 9461   5.711   7.959   4.797
36479SOL    HW2 9462   5.639   8.007   4.936
36480SOL     OW 9463   5.775   7.968   5.446
36480SOL    HW1 9464   5.834   7.928   5.376
36480SOL    HW2 9465   5.717   8.039   5.405
36481SOL     OW 9466   6.955   8.398   5.384
36481SOL    HW1 9467   6.994   8.487   5.404
36481SOL    HW2 9468   6.965   8.378   5.287
36482SOL     OW 9469   6.401   8.020   4.049
36482SOL    HW1 9470   6.408   7.931   4.003
36482SOL    HW2 9471   6.307   8.054   4.041
36483SOL     OW 9472   7.243   8.052   4.930
36483SOL    HW1 9473   7.205   7.983   4.992
36483SOL    HW2 9474   7.325   8.016   4.886
36484SOL     OW 9475   5.838   9.012   5.468
36484SOL    HW1 9476   5.808   9.069   5.544
36484SOL    HW2 9477   5.831   8.915   5.494
36485SOL     OW 9478   6.257   7.912   4.993
36485SOL    HW1 9479   6.223   7.823   4.963
36485SOL    HW2 9480   6.283   7.966   4.913
36486SOL     OW 9481   6.516   9.126   5.189
36486SOL    HW1 9482   6.492   9.108   5.094
36486SOL    HW2 9483   6.546   9.220   5.199
36487SOL     OW 9484   6.059   7.948   3.915
36487SOL    HW1 9485   6.120   8.028   3.919
36487SOL    HW2 9486   5.964   7.979   3.922
36488SOL     OW 9487   5.745   8.585   5.190
36488SOL    HW1 9488   5.767   8.524   5.266
36488SOL    HW2 9489   5.755   8.536   5.104
36489SOL     OW 9490   6.933   8.507   4.958
36489SOL    HW1 9491   6.957   8.444   4.884
36489SOL    HW2 9492   6.843   8.547   4.940
36490SOL     OW 9493   6.888   8.303   4.033
36490SOL    HW1 9494   6.802   8.272   4.075
36490SOL    HW2 9495   6.884   8.289   3.934
36491SOL     OW 9496   7.345   9.195   4.878
36491SOL    HW1 9497   7.406   9.225   4.805
36491SOL    HW2 9498   7.307   9.106   4.856
36492SOL     OW 9499   6.838   9.179   4.852
36492SOL    HW1 9500   6.922   9.184   4.798
36492SOL    HW2 9501   6.815   9.083   4.870
36493SOL     OW 9502   5.669   8.706   4.746
36493SOL    HW1 9503   5.664   8.705   4.846
36493SOL    HW2 9504   5.586   8.665   4.708
36494SOL     OW 9505   6.274   9.110   5.440
36494SOL    HW1 9506   6.218   9.191   5.449
36494SOL    HW2 9507   6.326   9.114   5.354
36495SOL     OW 9508   7.312   7.583   4.247
36495SOL    HW1 9509   7.385   7.566   4.180
36495SOL    HW2 9510   7.281   7.496   4.285
36496SOL     OW 9511   6.974   9.021   4.201
36496SOL    HW1 9512   7.041   9.033   4.127
36496SOL    HW2 9513   6.934   9.110   4.224
36497SOL     OW 9514   5.716   9.242   5.575
36497SOL    HW1 9515   5.675   9.168   5.628
36497SOL    HW2 9516   5.780   9.293   5.633
36498SOL     OW 9517   6.866   8.375   4.396
36498SOL    HW1 9518   6.926   8.294   4.398
36498SOL    HW2 9519   6.906   8.444   4.336
36499SOL     OW 9520   6.416   8.721   5.146
36499SOL    HW1 9521   6.411   8.754   5.241
36499SOL    HW2 9522   6.330   8.740   5.100
36500SOL     OW 9523   6.258   9.064   3.878
36500SOL    HW1 9524   6.267   9.074   3.779
36500SOL    HW2 9525   6.218   8.975   3.899
36501SOL     OW 9526   7.236   9.168   5.118
36501SOL    HW1 9527   7.289   9.178   5.034
36501SOL    HW2 9528   7.209   9.258   5.152
36502SOL     OW 9529   7.427   7.623   4.687
36502SOL    HW1 9530   7.466   7.538   4.651
36502SOL    HW2 9531   7.329   7.625   4.668
36503SOL     OW 9532   5.849   7.774   4.444
36503SOL    HW1 9533   5.770   7.825   4.410
36503SOL    HW2 9534   5.840   7.759   4.542
36504SOL     OW 9535   6.780   9.060   3.755
36504SOL    HW1 9536   6.786   8.967   3.792
36504SOL    HW2 9537   6.721   9.060   3.675
36505SOL     OW 9538   6.408   8.450   5.096
36505SOL    HW1 9539   6.448   8.449   5.004
36505SOL    HW2 9540   6.418   8.542   5.136
36506SOL     OW 9541   6.502   8.358   4.015
36506SOL    HW1 9542   6.565   8.396   3.947
36506SOL    HW2 9543   6.542   8.275   4.054
36507SOL     OW 9544   7.090   9.055   3.768
36507SOL    HW1 9545   6.998   9.092   3.775
36507SOL    HW2 9546   7.128   9.075   3.678
36508SOL     OW 9547   5.958   8.736   5.214
36508SOL    HW1 9548   5.945   8.829   5.180
36508SOL    HW2 9549   5.874   8.684   5.201
36509SOL     OW 9550   7.200   8.740   5.013
36509SOL    HW1 9551   7.260   8.743   5.093
36509SOL    HW2 9552   7.125   8.804   5.026
36510SOL     OW 9553   6.625   8.546   4.420
36510SOL    HW1 9554   6.555   8.499   4.474
36510SOL    HW2 9555   6.684   8.478   4.377
36511SOL     OW 9556   6.600   7.684   4.695
36511SOL    HW1 9557   6.592   7.648   4.602
36511SOL    HW2 9558   6.598   7.608   4.760
36512SOL     OW 9559   6.176   8.935   4.215
36512SOL    HW1 9560   6.218   8.877   4.145
36512SOL    HW2 9561   6.132   9.014   4.171
36513SOL     OW 9562   7.295   7.833   5.105
36513SOL    HW1 9563   7.368   7.902   5.109
36513SOL    HW2 9564   7.323   7.758   5.046
36514SOL     OW 9565   5.841   8.796   4.014
36514SOL    HW1 9566   5.745   8.797   3.987
36514SOL    HW2 9567   5.853   8.849   4.098
36515SOL     OW 9568   5.691   8.461   5.450
36515SOL    HW1 9569   5.614   8.428   5.504
36515SOL    HW2 9570   5.776   8.431   5.492
36516SOL     OW 9571   6.258   7.651   5.213
36516SOL    HW1 9572   6.348   7.635   5.173
36516SOL    HW2 9573   6.266   7.656   5.312
36517SOL     OW 9574   5.661   7.793   3.757
36517SOL    HW1 9575   5.569   7.765   3.728
36517SOL    HW2 9576   5.692   7.870   3.701
36518SOL     OW 9577   7.026   8.304   5.122
36518SOL    HW1 9578   6.969   8.356   5.059
36518SOL    HW2 9579   7.122   8.316   5.098
36519SOL     OW 9580   5.658   7.614   4.042
36519SOL    HW1 9581   5.641   7.697   3.988
36519SOL    HW2 9582   5.748   7.577   4.020
36520SOL     OW 9583   6.769   8.783   3.843
36520SOL    HW1 9584   6.670   8.772   3.845
36520SOL    HW2 9585   6.803   8.798   3.936
36521SOL     OW 9586   6.199   8.290   5.155
36521SOL    HW1 9587   6.255   8.371   5.138
36521SOL    HW2 9588   6.258   8.210   5.158
36522SOL     OW 9589   7.079   9.215   4.683
36522SOL    HW1 9590   7.112   9.279   4.614
36522SOL    HW2 9591   7.145   9.209   4.758
36523SOL     OW 9592   6.302   8.013   5.432
36523SOL    HW1 9593   6.321   8.078   5.506
36523SOL    HW2 9594   6.362   7.933   5.441
36524SOL     OW 9595   7.036   8.668   5.357
36524SOL    HW1 9596   7.027   8.658   5.456
36524SOL    HW2 9597   7.132   8.661   5.331
36525SOL     OW 9598   5.976   9.189   5.284
36525SOL    HW1 9599   5.885   9.230   5.282
36525SOL    HW2 9600   5.969   9.095   5.316
36526SOL     OW 9601   7.260   8.331   4.978
36526SOL    HW1 9602   7.233   8.242   4.941
36526SOL    HW2 9603   7.261   8.399   4.905
36527SOL     OW 9604   6.811   7.773   4.173
36527SOL    HW1 9605   6.876   7.699   4.162
36527SOL    HW2 9606   6.831   7.823   4.257
36528SOL     OW 9607   6.180   8.193   4.376
36528SOL    HW1 9608   6.230   8.278   4.357
36528SOL    HW2 9609   6.092   8.195   4.328
36529SOL     OW 9610   7.363   7.790   5.366
36529SOL    HW1 9611   7.346   7.821   5.272
36529SOL    HW2 9612   7.279   7.753   5.404
36530SOL     OW 9613   7.316   8.382   5.241
36530SOL    HW1 9614   7.354   8.473   5.256
36530SOL    HW2 9615   7.308   8.365   5.142
36531SOL     OW 9616   6.445   8.822   3.740
36531SOL    HW1 9617   6.399   8.837   3.828
36531SOL    HW2 9618   6.489   8.907   3.710
36532SOL     OW 9619   6.247   9.238   4.677
36532SOL    HW1 9620   6.201   9.326   4.664
36532SOL    HW2 9621   6.346   9.250   4.670
36533SOL     OW 9622   6.445   8.404   4.585
36533SOL    HW1 9623   6.499   8.335   4.633
36533SOL    HW2 9624   6.413   8.473   4.651
36534SOL     OW 9625   6.669   8.432   3.811
36534SOL    HW1 9626   6.646   8.485   3.729
36534SOL    HW2 9627   6.750   8.376   3.792
36535SOL     OW 9628   7.447   9.017   4.575
36535SOL    HW1 9629   7.376   9.005   4.505
36535SOL    HW2 9630   7.448   8.938   4.635
36536SOL     OW 9631   5.807   8.762   5.568
36536SOL    HW1 9632   5.742   8.689   5.547
36536SOL    HW2 9633   5.811   8.776   5.666
36537SOL     OW 9634   5.665   8.688   4.377
36537SOL    HW1 9635   5.664   8.641   4.465
36537SOL    HW2 9636   5.747   8.660   4.326
36538SOL     OW 9637   6.258   8.839   5.348
36538SOL    HW1 9638   6.180   8.789   5.386
36538SOL    HW2 9639   6.255   8.934   5.379
36539SOL     OW 9640   7.410   7.640   4.951
36539SOL    HW1 9641   7.406   7.550   4.995
36539SOL    HW2 9642   7.413   7.629   4.852
36540SOL     OW 9643   6.014   7.872   4.244
36540SOL    HW1 9644   6.044   7.800   4.182
36540SOL    HW2 9645   5.975   7.832   4.327
36541SOL     OW 9646   7.291   8.935   4.828
36541SOL    HW1 9647   7.198   8.910   4.801
36541SOL    HW2 9648   7.317   8.885   4.910
36542SOL     OW 9649   5.903   7.995   5.004
36542SOL    HW1 9650   5.941   7.936   5.076
36542SOL    HW2 9651   5.943   7.969   4.916
36543SOL     OW 9652   6.398   9.034   4.411
36543SOL    HW1 9653   6.430   9.044   4.317
36543SOL    HW2 9654   6.319   8.972   4.413
36544SOL     OW 9655   7.010   7.662   4.836
36544SOL    HW1 9656   7.062   7.597   4.891
36544SOL    HW2 9657   6.961   7.725   4.897
36545SOL     OW 9658   6.587   7.482   4.878
36545SOL    HW1 9659   6.524   7.410   4.847
36545SOL    HW2 9660   6.680   7.446   4.878
36546SOL     OW 9661   6.356   8.778   4.025
36546SOL    HW1 9662   6.310   8.691   4.042
36546SOL    HW2 9663   6.447   8.775   4.066
36547SOL     OW 9664   6.204   9.015   5.008
36547SOL    HW1 9665   6.199   9.097   5.065
36547SOL    HW2 9666   6.293   9.012   4.963
36548SOL     OW 9667   6.938   7.500   3.892
36548SOL    HW1 9668   6.973   7.459   3.808
36548SOL    HW2 9669   6.848   7.462   3.912
36549SOL     OW 9670   6.886   7.901   4.415
36549SOL    HW1 9671   6.827   7.981   4.419
36549SOL    HW2 9672   6.901   7.866   4.508
36550SOL     OW 9673   7.179   7.669   4.606
36550SOL    HW1 9674   7.095   7.668   4.660
36550SOL    HW2 9675   7.181   7.752   4.550
36551SOL     OW 9676   5.625   8.525   4.024
36551SOL    HW1 9677   5.724   8.514   4.015
36551SOL    HW2 9678   5.585   8.439   4.056
36552SOL     OW 9679   6.461   9.094   4.061
36552SOL    HW1 9680   6.384   9.059   4.007
36552SOL    HW2 9681   6.429   9.165   4.123
36553SOL     OW 9682   5.816   8.076   5.699
36553SOL    HW1 9683   5.723   8.074   5.736
36553SOL    HW2 9684   5.817   8.037   5.607
36554SOL     OW 9685   5.811   7.723   6.582
36554SOL    HW1 9686   5.846   7.706   6.674
36554SOL    HW2 9687   5.723   7.678   6.570
36555SOL     OW 9688   5.605   7.816   6.233
36555SOL    HW1 9689   5.523   7.859   6.272
36555SOL    HW2 9690   5.577   7.743   6.170
36556SOL     OW 9691   6.155   8.723   6.751
36556SOL    HW1 9692   6.062   8.716   6.714
36556SOL    HW2 9693   6.166   8.812   6.795
36557SOL     OW 9694   7.141   8.959   6.289
36557SOL    HW1 9695   7.084   8.943   6.370
36557SOL    HW2 9696   7.082   8.969   6.209
36558SOL     OW 9697   6.721   8.151   6.303
36558SOL    HW1 9698   6.778   8.229   6.278
36558SOL    HW2 9699   6.661   8.177   6.379
36559SOL     OW 9700   7.341   8.055   5.817
36559SOL    HW1 9701   7.329   8.042   5.718
36559SOL    HW2 9702   7.311   7.974   5.866
36560SOL     OW 9703   6.354   8.592   6.609
36560SOL    HW1 9704   6.276   8.609   6.669
36560SOL    HW2 9705   6.388   8.679   6.573
36561SOL     OW 9706   6.436   8.246   7.409
36561SOL    HW1 9707   6.432   8.322   7.474
36561SOL    HW2 9708   6.458   8.282   7.318
36562SOL     OW 9709   6.271   8.460   6.251
36562SOL    HW1 9710   6.340   8.444   6.321
36562SOL    HW2 9711   6.198   8.517   6.289
36563SOL     OW 9712   6.272   8.609   7.389
36563SOL    HW1 9713   6.332   8.688   7.403
36563SOL    HW2 9714   6.186   8.640   7.348
36564SOL     OW 9715   5.921   8.883   6.647
36564SOL    HW1 9716   5.843   8.852   6.594
36564SOL    HW2 9717   5.979   8.941   6.590
36565SOL     OW 9718   7.046   8.953   6.925
36565SOL    HW1 9719   7.070   9.047   6.951
36565SOL    HW2 9720   7.030   8.899   7.007
36566SOL     OW 9721   6.024   7.840   7.085
36566SOL    HW1 9722   6.106   7.784   7.094
36566SOL    HW2 9723   5.943   7.782   7.089
36567SOL     OW 9724   7.189   7.895   6.323
36567SOL    HW1 9725   7.115   7.941   6.273
36567SOL    HW2 9726   7.240   7.963   6.376
36568SOL     OW 9727   5.817   9.161   6.069
36568SOL    HW1 9728   5.851   9.238   6.123
36568SOL    HW2 9729   5.861   9.161   5.979
36569SOL     OW 9730   6.713   8.789   7.276
36569SOL    HW1 9731   6.760   8.789   7.364
36569SOL    HW2 9732   6.665   8.702   7.265
36570SOL     OW 9733   5.816   8.882   6.124
36570SOL    HW1 9734   5.790   8.978   6.124
36570SOL    HW2 9735   5.745   8.828   6.169
36571SOL     OW 9736   5.826   8.539   6.472
36571SOL    HW1 9737   5.840   8.455   6.524
36571SOL    HW2 9738   5.771   8.603   6.527
36572SOL     OW 9739   6.206   9.234   7.025
36572SOL    HW1 9740   6.114   9.217   7.060
36572SOL    HW2 9741   6.234   9.326   7.051
36573SOL     OW 9742   6.192   8.412   5.709
36573SOL    HW1 9743   6.199   8.496   5.655
36573SOL    HW2 9744   6.238   8.425   5.797
36574SOL     OW 9745   7.180   7.562   7.066
36574SOL    HW1 9746   7.162   7.629   6.994
36574SOL    HW2 9747   7.177   7.608   7.155
36575SOL     OW 9748   5.708   8.091   6.149
36575SOL    HW1 9749   5.663   8.003   6.166
36575SOL    HW2 9750   5.707   8.145   6.233
36576SOL     OW 9751   7.428   9.215   5.945
36576SOL    HW1 9752   7.482   9.186   6.025
36576SOL    HW2 9753   7.458   9.305   5.916
36577SOL     OW 9754   5.613   9.044   5.703
36577SOL    HW1 9755   5.594   8.948   5.724
36577SOL    HW2 9756   5.580   9.102   5.778
36578SOL     OW 9757   7.275   8.370   6.198
36578SOL    HW1 9758   7.370   8.341   6.206
36578SOL    HW2 9759   7.267   8.435   6.123
36579SOL     OW 9760   7.227   8.556   6.018
36579SOL    HW1 9761   7.313   8.558   5.966
36579SOL    HW2 9762   7.241   8.603   6.106
36580SOL     OW 9763   5.699   8.185   7.183
36580SOL    HW1 9764   5.787   8.172   7.228
36580SOL    HW2 9765   5.686   8.282   7.161
36581SOL     OW 9766   6.199   8.813   6.312
36581SOL    HW1 9767   6.150   8.726   6.321
36581SOL    HW2 9768   6.176   8.856   6.225
36582SOL     OW 9769   6.879   8.676   7.009
36582SOL    HW1 9770   6.916   8.603   6.951
36582SOL    HW2 9771   6.931   8.681   7.094
36583SOL     OW 9772   6.395   7.452   6.088
36583SOL    HW1 9773   6.435   7.543   6.079
36583SOL    HW2 9774   6.295   7.460   6.094
36584SOL     OW 9775   5.783   8.424   6.850
36584SOL    HW1 9776   5.872   8.379   6.836
36584SOL    HW2 9777   5.710   8.359   6.831
36585SOL     OW 9778   7.111   8.447   5.776
36585SOL    HW1 9779   7.048   8.371   5.789
36585SOL    HW2 9780   7.159   8.465   5.862
36586SOL     OW 9781   6.773   9.240   7.202
36586SOL    HW1 9782   6.797   9.300   7.126
36586SOL    HW2 9783   6.780   9.145   7.172
36587SOL     OW 9784   5.903   7.699   7.387
36587SOL    HW1 9785   5.974   7.770   7.393
36587SOL    HW2 9786   5.815   7.738   7.415
36588SOL     OW 9787   7.052   8.865   6.539
36588SOL    HW1 9788   6.993   8.871   6.619
36588SOL    HW2 9789   7.037   8.777   6.493
36589SOL     OW 9790   7.253   9.162   6.158
36589SOL    HW1 9791   7.212   9.139   6.070
36589SOL    HW2 9792   7.235   9.088   6.223
36590SOL     OW 9793   6.184   8.177   5.856
36590SOL    HW1 9794   6.208   8.246   5.788
36590SOL    HW2 9795   6.106   8.210   5.910
36591SOL     OW 9796   6.867   7.793   6.530
36591SOL    HW1 9797   6.781   7.743   6.517
36591SOL    HW2 9798   6.929   7.739   6.586
36592SOL     OW 9799   7.162   9.110   5.893
36592SOL    HW1 9800   7.251   9.156   5.896
36592SOL    HW2 9801   7.141   9.086   5.798
36593SOL     OW 9802   6.393   8.053   7.051
36593SOL    HW1 9803   6.346   8.050   7.140
36593SOL    HW2 9804   6.342   7.998   6.985
36594SOL     OW 9805   6.980   7.917   7.260
36594SOL    HW1 9806   6.960   7.960   7.348
36594SOL    HW2 9807   7.058   7.855   7.269
36595SOL     OW 9808   6.559   8.338   7.158
36595SOL    HW1 9809   6.605   8.254   7.129
36595SOL    HW2 9810   6.503   8.372   7.083
36596SOL     OW 9811   6.577   7.858   6.828
36596SOL    HW1 9812   6.500   7.892   6.882
36596SOL    HW2 9813   6.543   7.807   6.749
36597SOL     OW 9814   6.627   8.149   6.015
36597SOL    HW1 9815   6.653   8.145   6.111
36597SOL    HW2 9816   6.542   8.098   6.001
36598SOL     OW 9817   5.662   8.259   6.375
36598SOL    HW1 9818   5.761   8.247   6.384
36598SOL    HW2 9819   5.638   8.354   6.396
36599SOL     OW 9820   5.716   9.269   7.157
36599SOL    HW1 9821   5.706   9.254   7.256
36599SOL    HW2 9822   5.630   9.305   7.121
36600SOL     OW 9823   6.451   7.796   5.781
36600SOL    HW1 9824   6.510   7.859   5.732
36600SOL    HW2 9825   6.470   7.702   5.752
36601SOL     OW 9826   7.305   8.033   7.417
36601SOL    HW1 9827   7.279   8.122   7.381
36601SOL    HW2 9828   7.303   7.965   7.344
36602SOL     OW 9829   6.948   8.592   6.131
36602SOL    HW1 9830   7.031   8.563   6.083
36602SOL    HW2 9831   6.899   8.659   6.075
36603SOL     OW 9832   6.136   7.644   6.471
36603SOL    HW1 9833   6.131   7.639   6.571
36603SOL    HW2 9834   6.138   7.740   6.442
36604SOL     OW 9835   6.594   8.904   6.063
36604SOL    HW1 9836   6.548   8.976   6.011
36604SOL    HW2 9837   6.590   8.924   6.161
36605SOL     OW 9838   5.937   9.249   6.439
36605SOL    HW1 9839   5.987   9.163   6.445
36605SOL    HW2 9840   6.002   9.326   6.436
36606SOL     OW 9841   7.381   8.514   6.459
36606SOL    HW1 9842   7.319   8.499   6.383
36606SOL    HW2 9843   7.329   8.525   6.544
36607SOL     OW 9844   6.813   8.998   7.092
36607SOL    HW1 9845   6.819   8.921   7.156
36607SOL    HW2 9846   6.761   8.972   7.012
36608SOL     OW 9847   5.907   8.391   5.828
36608SOL    HW1 9848   5.989   8.430   5.786
36608SOL    HW2 9849   5.880   8.309   5.779
36609SOL     OW 9850   7.044   8.183   6.314
36609SOL    HW1 9851   7.039   8.118   6.389
36609SOL    HW2 9852   7.124   8.242   6.327
36610SOL     OW 9853   6.047   8.714   7.313
36610SOL    HW1 9854   5.997   8.715   7.227
36610SOL    HW2 9855   5.984   8.696   7.389
36611SOL     OW 9856   6.697   9.224   5.823
36611SOL    HW1 9857   6.637   9.162   5.873
36611SOL    HW2 9858   6.728   9.180   5.738
36612SOL     OW 9859   5.788   7.733   7.084
36612SOL    HW1 9860   5.708   7.793   7.071
36612SOL    HW2 9861   5.778   7.684   7.170
36613SOL     OW 9862   7.218   8.825   5.667
36613SOL    HW1 9863   7.186   8.919   5.657
36613SOL    HW2 9864   7.142   8.762   5.655
36614SOL     OW 9865   6.050   9.191   5.909
36614SOL    HW1 9866   6.083   9.230   5.995
36614SOL    HW2 9867   6.126   9.184   5.844
36615SOL     OW 9868   6.986   7.555   6.012
36615SOL    HW1 9869   6.962   7.518   5.922
36615SOL    HW2 9870   7.085   7.571   6.016
36616SOL     OW 9871   5.835   9.233   6.827
36616SOL    HW1 9872   5.892   9.168   6.877
36616SOL    HW2 9873   5.819   9.200   6.734
36617SOL     OW 9874   6.526   9.146   6.490
36617SOL    HW1 9875   6.606   9.089   6.511
36617SOL    HW2 9876   6.477   9.106   6.413
36618SOL     OW 9877   5.968   8.148   6.066
36618SOL    HW1 9878   6.013   8.058   6.063
36618SOL    HW2 9879   5.874   8.137   6.099
36619SOL     OW 9880   7.133   7.670   7.315
36619SOL    HW1 9881   7.128   7.707   7.407
36619SOL    HW2 9882   7.061   7.601   7.303
36620SOL     OW 9883   6.200   7.570   5.703
36620SOL    HW1 9884   6.298   7.548   5.710
36620SOL    HW2 9885   6.169   7.553   5.610
36621SOL     OW 9886   6.367   7.712   7.335
36621SOL    HW1 9887   6.434   7.651   7.378
36621SOL    HW2 9888   6.294   7.731   7.400
36622SOL     OW 9889   6.474   8.962   6.781
36622SOL    HW1 9890   6.451   8.937   6.687
36622SOL    HW2 9891   6.535   8.893   6.820
36623SOL     OW 9892   6.937   8.038   7.019
36623SOL    HW1 9893   6.965   7.995   7.104
36623SOL    HW2 9894   6.962   8.134   7.020
36624SOL     OW 9895   6.389   8.850   6.510
36624SOL    HW1 9896   6.479   8.864   6.468
36624SOL    HW2 9897   6.318   8.852   6.439
36625SOL     OW 9898   6.508   7.951   6.485
36625SOL    HW1 9899   6.483   7.942   6.389
36625SOL    HW2 9900   6.556   7.869   6.516
36626SOL     OW 9901   6.125   7.512   6.098
36626SOL    HW1 9902   6.044   7.513   6.156
36626SOL    HW2 9903   6.128   7.595   6.043
36627SOL     OW 9904   7.020   8.636   5.627
36627SOL    HW1 9905   7.052   8.560   5.684
36627SOL    HW2 9906   6.928   8.663   5.657
36628SOL     OW 9907   5.883   7.483   5.757
36628SOL    HW1 9908   5.932   7.567   5.736
36628SOL    HW2 9909   5.945   7.418   5.802
36629SOL     OW 9910   6.521   7.684   6.066
36629SOL    HW1 9911   6.473   7.725   5.988
36629SOL    HW2 9912   6.620   7.682   6.047
36630SOL     OW 9913   6.662   8.131   7.050
36630SOL    HW1 9914   6.582   8.070   7.053
36630SOL    HW2 9915   6.743   8.078   7.026
36631SOL     OW 9916   6.813   9.018   6.379
36631SOL    HW1 9917   6.834   9.092   6.314
36631SOL    HW2 9918   6.881   9.018   6.452
36632SOL     OW 9919   6.045   8.600   6.327
36632SOL    HW1 9920   5.974   8.573   6.392
36632SOL    HW2 9921   6.019   8.572   6.234
36633SOL     OW 9922   6.857   9.245   6.177
36633SOL    HW1 9923   6.901   9.309   6.113
36633SOL    HW2 9924   6.807   9.297   6.247
36634SOL     OW 9925   6.618   7.997   5.602
36634SOL    HW1 9926   6.577   8.079   5.563
36634SOL    HW2 9927   6.682   8.023   5.675
36635SOL     OW 9928   5.664   8.004   6.972
36635SOL    HW1 9929   5.756   8.003   6.931
36635SOL    HW2 9930   5.658   8.078   7.039
36636SOL     OW 9931   6.147   7.670   6.733
36636SOL    HW1 9932   6.185   7.586   6.770
36636SOL    HW2 9933   6.059   7.689   6.777
36637SOL     OW 9934   6.452   7.902   6.228
36637SOL    HW1 9935   6.420   7.974   6.166
36637SOL    HW2 9936   6.476   7.821   6.175
36638SOL     OW 9937   6.603   7.487   6.339
36638SOL    HW1 9938   6.531   7.492   6.270
36638SOL    HW2 9939   6.579   7.418   6.408
36639SOL     OW 9940   7.015   8.621   6.453
36639SOL    HW1 9941   6.960   8.537   6.446
36639SOL    HW2 9942   7.041   8.650   6.361
36640SOL     OW 9943   7.052   8.038   6.578
36640SOL    HW1 9944   7.022   7.943   6.585
36640SOL    HW2 9945   7.125   8.054   6.644
36641SOL     OW 9946   7.443   8.281   5.963
36641SOL    HW1 9947   7.485   8.217   6.027
36641SOL    HW2 9948   7.405   8.230   5.885
36642SOL     OW 9949   6.074   8.833   5.760
36642SOL    HW1 9950   5.987   8.818   5.807
36642SOL    HW2 9951   6.057   8.859   5.665
36643SOL     OW 9952   7.250   8.728   6.243
36643SOL    HW1 9953   7.349   8.736   6.257
36643SOL    HW2 9954   7.205   8.812   6.274
36644SOL     OW 9955   6.976   8.023   5.664
36644SOL    HW1 9956   6.922   8.002   5.745
36644SOL    HW2 9957   7.067   7.982   5.673
36645SOL     OW 9958   6.113   7.704   5.914
36645SOL    HW1 9959   6.140   7.645   5.839
36645SOL    HW2 9960   6.113   7.799   5.883
36646SOL     OW 9961   7.340   8.671   7.174
36646SOL    HW1 9962   7.431   8.632   7.161
36646SOL    HW2 9963   7.348   8.767   7.198
36647SOL     OW 9964   6.650   8.795   6.926
36647SOL    HW1 9965   6.570   8.772   6.981
36647SOL    HW2 9966   6.733   8.769   6.975
36648SOL     OW 9967   7.178   9.077   7.211
36648SOL    HW1 9968   7.205   9.111   7.121
36648SOL    HW2 9969   7.257   9.039   7.257
36649SOL     OW 9970   6.697   8.643   6.686
36649SOL    HW1 9971   6.657   8.687   6.767
36649SOL    HW2 9972   6.656   8.680   6.603
36650SOL     OW 9973   7.224   8.547   6.665
36650SOL    HW1 9974   7.229   8.628   6.724
36650SOL    HW2 9975   7.138   8.549   6.614
36651SOL     OW 9976   6.501   7.537   6.988
36651SOL    HW1 9977   6.526   7.517   6.893
36651SOL    HW2 9978   6.573   7.593   7.030
36652SOL     OW 9979   6.566   8.564   7.305
36652SOL    HW1 9980   6.467   8.570   7.315
36652SOL    HW2 9981   6.589   8.484   7.249
36653SOL     OW 9982   6.291   8.498   5.954
36653SOL    HW1 9983   6.277   8.505   6.053
36653SOL    HW2 9984   6.375   8.447   5.936
36654SOL     OW 9985   5.996   8.261   6.837
36654SOL    HW1 9986   6.082   8.273   6.887
36654SOL    HW2 9987   5.954   8.174   6.864
36655SOL     OW 9988   6.860   7.834   6.848
36655SOL    HW1 9989   6.881   7.908   6.912
36655SOL    HW2 9990   6.771   7.851   6.805
36656SOL     OW 9991   5.650   9.012   6.917
36656SOL    HW1 9992   5.604   9.094   6.883
36656SOL    HW2 9993   5.748   9.031   6.926
36657SOL     OW 9994   5.953   8.548   6.087
36657SOL    HW1 9995   5.946   8.631   6.031
36657SOL    HW2 9996   5.957   8.468   6.027
36658SOL     OW 9997   6.152   7.985   6.451
36658SOL    HW1 9998   6.164   8.051   6.377
36658SOL    HW2 9999   6.198   8.019   6.534
36659SOL     OW10000   6.838   8.796   5.974
36659SOL    HW110001   6.888   8.873   6.014
36659SOL    HW210002   6.743   8.798   6.006
36660SOL     OW10003   6.858   8.893   6.728
36660SOL    HW110004   6.905   8.906   6.815
36660SOL    HW210005   6.792   8.819   6.737
36661SOL     OW10006   7.168   8.087   6.058
36661SOL    HW110007   7.137   8.148   6.131
36661SOL    HW210008   7.218   8.139   5.989
36662SOL     OW10009   5.940   8.958   6.915
36662SOL    HW110010   5.919   8.914   6.828
36662SOL    HW210011   6.037   8.984   6.918
36663SOL     OW10012   5.988   8.199   7.184
36663SOL    HW110013   6.056   8.254   7.137
36663SOL    HW210014   6.028   8.111   7.211
36664SOL     OW10015   7.173   8.227   7.256
36664SOL    HW110016   7.081   8.265   7.251
36664SOL    HW210017   7.233   8.274   7.191
36665SOL     OW10018   6.599   7.553   7.356
36665SOL    HW110019   6.605   7.638   7.304
36665SOL    HW210020   6.631   7.477   7.299
36666SOL     OW10021   6.090   7.498   7.326
36666SOL    HW110022   6.048   7.441   7.256
36666SOL    HW210023   6.024   7.567   7.358
36667SOL     OW10024   6.159   8.318   6.615
36667SOL    HW110025   6.203   8.407   6.606
36667SOL    HW210026   6.096   8.318   6.692
36668SOL     OW10027   6.946   8.310   6.631
36668SOL    HW110028   6.871   8.310   6.565
36668SOL    HW210029   6.983   8.218   6.640
36669SOL     OW10030   6.795   7.973   5.861
36669SOL    HW110031   6.808   7.889   5.915
36669SOL    HW210032   6.766   8.047   5.921
36670SOL     OW10033   5.893   7.661   6.817
36670SOL    HW110034   5.870   7.698   6.907
36670SOL    HW210035   5.863   7.566   6.811
36671SOL     OW10036   5.623   8.758   6.868
36671SOL    HW110037   5.676   8.709   6.936
36671SOL    HW210038   5.645   8.856   6.873
36672SOL     OW10039   6.318   8.082   6.650
36672SOL    HW110040   6.377   8.056   6.574
36672SOL    HW210041   6.290   8.178   6.639
36673SOL     OW10042   7.314   8.383   7.440
36673SOL    HW110043   7.268   8.376   7.351
36673SOL    HW210044   7.252   8.427   7.506
36674SOL     OW10045   5.893   7.511   6.204
36674SOL    HW110046   5.882   7.605   6.237
36674SOL    HW210047   5.888   7.448   6.281
36675SOL     OW10048   7.208   7.815   5.960
36675SOL    HW110049   7.210   7.739   6.024
36675SOL    HW210050   7.160   7.892   6.000
36676SOL     OW10051   6.609   8.214   6.552
36676SOL    HW110052   6.624   8.235   6.648
36676SOL    HW210053   6.579   8.119   6.543
36677SOL     OW10054   6.566   9.021   7.286
36677SOL    HW110055   6.546   9.065   7.198
36677SOL    HW210056   6.605   8.930   7.270
36678SOL     OW10057   7.445   8.966   7.191
36678SOL    HW110058   7.459   8.993   7.096
36678SOL    HW210059   7.528   8.988   7.244
36679SOL     OW10060   5.936   8.346   7.390
36679SOL    HW110061   6.012   8.390   7.438
36679SOL    HW210062   5.971   8.299   7.308
36680SOL     OW10063   7.126   7.722   5.711
36680SOL    HW110064   7.065   7.647   5.734
36680SOL    HW210065   7.148   7.774   5.794
36681SOL     OW10066   6.889   8.286   5.628
36681SOL    HW110067   6.923   8.193   5.643
36681SOL    HW210068   6.907   8.313   5.533
36682SOL     OW10069   6.654   8.781   6.435
36682SOL    HW110070   6.661   8.697   6.380
36682SOL    HW210071   6.716   8.850   6.399
36683SOL     OW10072   5.905   8.258   6.535
36683SOL    HW110073   5.998   8.294   6.540
36683SOL    HW210074   5.899   8.173   6.587
36684SOL     OW10075   5.925   7.957   6.592
36684SOL    HW110076   5.873   7.874   6.575
36684SOL    HW210077   6.002   7.962   6.528
36685SOL     OW10078   6.724   7.828   7.264
36685SOL    HW110079   6.679   7.891   7.328
36685SOL    HW210080   6.817   7.859   7.247
36686SOL     OW10081   6.746   7.655   7.063
36686SOL    HW110082   6.746   7.719   7.140
36686SOL    HW210083   6.774   7.703   6.980
36687SOL     OW10084   5.594   8.774   5.786
36687SOL    HW110085   5.501   8.795   5.755
36687SOL    HW210086   5.604   8.675   5.799
36688SOL     OW10087   5.674   9.249   6.513
36688SOL    HW110088   5.632   9.163   6.486
36688SOL    HW210089   5.768   9.252   6.479
36689SOL     OW10090   6.090   9.016   6.496
36689SOL    HW110091   6.156   9.090   6.505
36689SOL    HW210092   6.134   8.937   6.454
36690SOL     OW10093   6.588   8.244   6.824
36690SOL    HW110094   6.629   8.212   6.910
36690SOL    HW210095   6.492   8.217   6.821
36691SOL     OW10096   5.626   7.992   6.700
36691SOL    HW110097   5.711   7.959   6.659
36691SOL    HW210098   5.639   8.007   6.798
36692SOL     OW10099   5.775   7.968   7.308
36692SOL    HW110100   5.834   7.928   7.238
36692SOL    HW210101   5.717   8.039   7.267
36693SOL     OW10102   6.955   8.398   7.246
36693SOL    HW110103   6.994   8.487   7.266
36693SOL    HW210104   6.965   8.378   7.149
36694SOL     OW10105   6.401   8.020   5.911
36694SOL    HW110106   6.408   7.931   5.865
36694SOL    HW210107   6.307   8.054   5.903
36695SOL     OW10108   7.243   8.052   6.792
36695SOL    HW110109   7.205   7.983   6.854
36695SOL    HW210110   7.325   8.016   6.748
36696SOL     OW10111   5.838   9.012   7.330
36696SOL    HW110112   5.808   9.069   7.406
36696SOL    HW210113   5.831   8.915   7.356
36697SOL     OW10114   6.257   7.912   6.855
36697SOL    HW110115   6.223   7.823   6.825
36697SOL    HW210116   6.283   7.966   6.775
36698SOL     OW10117   6.516   9.126   7.051
36698SOL    HW110118   6.492   9.108   6.956
36698SOL    HW210119   6.546   9.220   7.061
36699SOL     OW10120   6.059   7.948   5.777
36699SOL    HW110121   6.120   8.028   5.781
36699SOL    HW210122   5.964   7.979   5.784
36700SOL     OW10123   5.745   8.585   7.052
36700SOL    HW110124   5.767   8.524   7.128
36700SOL    HW210125   5.755   8.536   6.966
36701SOL     OW10126   6.933   8.507   6.820
36701SOL    HW110127   6.957   8.444   6.746
36701SOL    HW210128   6.843   8.547   6.802
36702SOL     OW10129   6.888   8.303   5.895
36702SOL    HW110130   6.802   8.272   5.937
36702SOL    HW210131   6.884   8.289   5.796
36703SOL     OW10132   7.345   9.195   6.740
36703SOL    HW110133   7.406   9.225   6.667
36703SOL    HW210134   7.307   9.106   6.718
36704SOL     OW10135   6.838   9.179   6.714
36704SOL    HW110136   6.922   9.184   6.660
36704SOL    HW210137   6.815   9.083   6.732
36705SOL     OW10138   5.669   8.706   6.608
36705SOL    HW110139   5.664   8.705   6.708
36705SOL    HW210140   5.586   8.665   6.570
36706SOL     OW10141   6.274   9.110   7.302
36706SOL    HW110142   6.218   9.191   7.311
36706SOL    HW210143   6.326   9.114   7.216
36707SOL     OW10144   7.312   7.583   6.109
36707SOL    HW110145   7.385   7.566   6.042
36707SOL    HW210146   7.281   7.496   6.147
36708SOL     OW10147   6.974   9.021   6.063
36708SOL    HW110148   7.041   9.033   5.989
36708SOL    HW210149   6.934   9.110   6.086
36709SOL     OW10150   5.716   9.242   7.437
36709SOL    HW110151   5.675   9.168   7.490
36709SOL    HW210152   5.780   9.293   7.495
36710SOL     OW10153   6.866   8.375   6.258
36710SOL    HW110154   6.926   8.294   6.260
36710SOL    HW210155   6.906   8.444   6.198
36711SOL     OW10156   6.416   8.721   7.008
36711SOL    HW110157   6.411   8.754   7.103
36711SOL    HW210158   6.330   8.740   6.962
36712SOL     OW10159   6.258   9.064   5.740
36712SOL    HW110160   6.267   9.074   5.641
36712SOL    HW210161   6.218   8.975   5.761
36713SOL     OW10162   7.236   9.168   6.980
36713SOL    HW110163   7.289   9.178   6.896
36713SOL    HW210164   7.209   9.258   7.014
36714SOL     OW10165   7.427   7.623   6.549
36714SOL    HW110166   7.466   7.538   6.513
36714SOL    HW210167   7.329   7.625   6.530
36715SOL     OW10168   5.849   7.774   6.306
36715SOL    HW110169   5.770   7.825   6.272
36715SOL    HW210170   5.840   7.759   6.404
36716SOL     OW10171   6.780   9.060   5.617
36716SOL    HW110172   6.786   8.967   5.654
36716SOL    HW210173   6.721   9.060   5.537
36717SOL     OW10174   6.408   8.450   6.958
36717SOL    HW110175   6.448   8.449   6.866
36717SOL    HW210176   6.418   8.542   6.998
36718SOL     OW10177   6.502   8.358   5.877
36718SOL    HW110178   6.565   8.396   5.809
36718SOL    HW210179   6.542   8.275   5.916
36719SOL     OW10180   7.090   9.055   5.630
36719SOL    HW110181   6.998   9.092   5.637
36719SOL    HW210182   7.128   9.075   5.540
36720SOL     OW10183   5.958   8.736   7.076
36720SOL    HW110184   5.945   8.829   7.042
36720SOL    HW210185   5.874   8.684   7.063
36721SOL     OW10186   7.200   8.740   6.875
36721SOL    HW110187   7.260   8.743   6.955
36721SOL    HW210188   7.125   8.804   6.888
36722SOL     OW10189   6.625   8.546   6.282
36722SOL    HW110190   6.555   8.499   6.336
36722SOL    HW210191   6.684   8.478   6.239
36723SOL     OW10192   6.600   7.684   6.557
36723SOL    HW110193   6.592   7.648   6.464
36723SOL    HW210194   6.598   7.608   6.622
36724SOL     OW10195   6.176   8.935   6.077
36724SOL    HW110196   6.218   8.877   6.007
36724SOL    HW210197   6.132   9.014   6.033
36725SOL     OW10198   7.295   7.833   6.967
36725SOL    HW110199   7.368   7.902   6.971
36725SOL    HW210200   7.323   7.758   6.908
36726SOL     OW10201   5.841   8.796   5.876
36726SOL    HW110202   5.745   8.797   5.849
36726SOL    HW210203   5.853   8.849   5.960
36727SOL     OW10204   5.691   8.461   7.312
36727SOL    HW110205   5.614   8.428   7.366
36727SOL    HW210206   5.776   8.431   7.354
36728SOL     OW10207   6.258   7.651   7.075
36728SOL    HW110208   6.348   7.635   7.035
36728SOL    HW210209   6.266   7.656   7.174
36729SOL     OW10210   5.661   7.793   5.619
36729SOL    HW110211   5.569   7.765   5.590
36729SOL    HW210212   5.692   7.870   5.563
36730SOL     OW10213   7.026   8.304   6.984
36730SOL    HW110214   6.969   8.356   6.921
36730SOL    HW210215   7.122   8.316   6.960
36731SOL     OW10216   5.658   7.614   5.904
36731SOL    HW110217   5.641   7.697   5.850
36731SOL    HW210218   5.748   7.577   5.882
36732SOL     OW10219   6.769   8.783   5.705
36732SOL    HW110220   6.670   8.772   5.707
36732SOL    HW210221   6.803   8.798   5.798
36733SOL     OW10222   6.199   8.290   7.017
36733SOL    HW110223   6.255   8.371   7.000
36733SOL    HW210224   6.258   8.210   7.020
36734SOL     OW10225   7.079   9.215   6.545
36734SOL    HW110226   7.112   9.279   6.476
36734SOL    HW210227   7.145   9.209   6.620
36735SOL     OW10228   6.302   8.013   7.294
36735SOL    HW110229   6.321   8.078   7.368
36735SOL    HW210230   6.362   7.933   7.303
36736SOL     OW10231   7.036   8.668   7.219
36736SOL    HW110232   7.027   8.658   7.318
36736SOL    HW210233   7.132   8.661   7.193
36737SOL     OW10234   5.976   9.189   7.146
36737SOL    HW110235   5.885   9.230   7.144
36737SOL    HW210236   5.969   9.095   7.178
36738SOL     OW10237   7.260   8.331   6.840
36738SOL    HW110238   7.233   8.242   6.803
36738SOL    HW210239   7.261   8.399   6.767
36739SOL     OW10240   6.811   7.773   6.035
36739SOL    HW110241   6.876   7.699   6.024
36739SOL    HW210242   6.831   7.823   6.119
36740SOL     OW10243   6.180   8.193   6.238
36740SOL    HW110244   6.230   8.278   6.219
36740SOL    HW210245   6.092   8.195   6.190
36741SOL     OW10246   7.363   7.790   7.228
36741SOL    HW110247   7.346   7.821   7.134
36741SOL    HW210248   7.279   7.753   7.266
36742SOL     OW10249   7.316   8.382   7.103
36742SOL    HW110250   7.354   8.473   7.118
36742SOL    HW210251   7.308   8.365   7.004
36743SOL     OW10252   6.445   8.822   5.602
36743SOL    HW110253   6.399   8.837   5.690
36743SOL    HW210254   6.489   8.907   5.572
36744SOL     OW10255   6.247   9.238   6.539
36744SOL    HW110256   6.201   9.326   6.526
36744SOL    HW210257   6.346   9.250   6.532
36745SOL     OW10258   6.445   8.404   6.447
36745SOL    HW110259   6.499   8.335   6.495
36745SOL    HW210260   6.413   8.473   6.513
36746SOL     OW10261   6.669   8.432   5.673
36746SOL    HW110262   6.646   8.485   5.591
36746SOL    HW210263   6.750   8.376   5.654
36747SOL     OW10264   7.447   9.017   6.437
36747SOL    HW110265   7.376   9.005   6.367
36747SOL    HW210266   7.448   8.938   6.497
36748SOL     OW10267   5.807   8.762   7.430
36748SOL    HW110268   5.742   8.689   7.409
36748SOL    HW210269   5.811   8.776   7.528
36749SOL     OW10270   5.665   8.688   6.239
36749SOL    HW110271   5.664   8.641   6.327
36749SOL    HW210272   5.747   8.660   6.188
36750SOL     OW10273   6.258   8.839   7.210
36750SOL    HW110274   6.180   8.789   7.248
36750SOL    HW210275   6.255   8.934   7.241
36751SOL     OW10276   7.410   7.640   6.813
36751SOL    HW110277   7.406   7.550   6.857
36751SOL    HW210278   7.413   7.629   6.714
36752SOL     OW10279   6.014   7.872   6.106
36752SOL    HW110280   6.044   7.800   6.044
36752SOL    HW210281   5.975   7.832   6.189
36753SOL     OW10282   7.291   8.935   6.690
36753SOL    HW110283   7.198   8.910   6.663
36753SOL    HW210284   7.317   8.885   6.772
36754SOL     OW10285   5.903   7.995   6.866
36754SOL    HW110286   5.941   7.936   6.938
36754SOL    HW210287   5.943   7.969   6.778
36755SOL     OW10288   6.398   9.034   6.273
36755SOL    HW110289   6.430   9.044   6.179
36755SOL    HW210290   6.319   8.972   6.275
36756SOL     OW10291   7.010   7.662   6.698
36756SOL    HW110292   7.062   7.597   6.753
36756SOL    HW210293   6.961   7.725   6.759
36757SOL     OW10294   6.587   7.482   6.740
36757SOL    HW110295   6.524   7.410   6.709
36757SOL    HW210296   6.680   7.446   6.740
36758SOL     OW10297   6.356   8.778   5.887
36758SOL    HW110298   6.310   8.691   5.904
36758SOL    HW210299   6.447   8.775   5.928
36759SOL     OW10300   6.204   9.015   6.870
36759SOL    HW110301   6.199   9.097   6.927
36759SOL    HW210302   6.293   9.012   6.825
36760SOL     OW10303   6.938   7.500   5.754
36760SOL    HW110304   6.973   7.459   5.670
36760SOL    HW210305   6.848   7.462   5.774
36761SOL     OW10306   6.886   7.901   6.277
36761SOL    HW110307   6.827   7.981   6.281
36761SOL    HW210308   6.901   7.866   6.370
36762SOL     OW10309   7.179   7.669   6.468
36762SOL    HW110310   7.095   7.668   6.522
36762SOL    HW210311   7.181   7.752   6.412
36763SOL     OW10312   5.625   8.525   5.886
36763SOL    HW110313   5.724   8.514   5.877
36763SOL    HW210314   5.585   8.439   5.918
36764SOL     OW10315   6.461   9.094   5.923
36764SOL    HW110316   6.384   9.059   5.869
36764SOL    HW210317   6.429   9.165   5.985
36765SOL     OW10318   5.816   8.076   7.561
36765SOL    HW110319   5.723   8.074   7.598
36765SOL    HW210320   5.817   8.037   7.469
36766SOL     OW10321   5.811   7.723   8.444
36766SOL    HW110322   5.846   7.706   8.536
36766SOL    HW210323   5.723   7.678   8.432
36767SOL     OW10324   5.605   7.816   8.095
36767SOL    HW110325   5.523   7.859   8.134
36767SOL    HW210326   5.577   7.743   8.032
36768SOL     OW10327   6.155   8.723   8.613
36768SOL    HW110328   6.062   8.716   8.576
36768SOL    HW210329   6.166   8.812   8.657
36769SOL     OW10330   7.141   8.959   8.151
36769SOL    HW110331   7.084   8.943   8.232
36769SOL    HW210332   7.082   8.969   8.071
36770SOL     OW10333   6.721   8.151   8.165
36770SOL    HW110334   6.778   8.229   8.140
36770SOL    HW210335   6.661   8.177   8.241
36771SOL     OW10336   7.341   8.055   7.679
36771SOL    HW110337   7.329   8.042   7.580
36771SOL    HW210338   7.311   7.974   7.728
36772SOL     OW10339   6.354   8.592   8.471
36772SOL    HW110340   6.276   8.609   8.531
36772SOL    HW210341   6.388   8.679   8.435
36773SOL     OW10342   6.436   8.246   9.271
36773SOL    HW110343   6.432   8.322   9.336
36773SOL    HW210344   6.458   8.282   9.180
36774SOL     OW10345   6.271   8.460   8.113
36774SOL    HW110346   6.340   8.444   8.183
36774SOL    HW210347   6.198   8.517   8.151
36775SOL     OW10348   6.272   8.609   9.251
36775SOL    HW110349   6.332   8.688   9.265
36775SOL    HW210350   6.186   8.640   9.210
36776SOL     OW10351   5.921   8.883   8.509
36776SOL    HW110352   5.843   8.852   8.456
36776SOL    HW210353   5.979   8.941   8.452
36777SOL     OW10354   7.046   8.953   8.787
36777SOL    HW110355   7.070   9.047   8.813
36777SOL    HW210356   7.030   8.899   8.869
36778SOL     OW10357   6.024   7.840   8.947
36778SOL    HW110358   6.106   7.784   8.956
36778SOL    HW210359   5.943   7.782   8.951
36779SOL     OW10360   7.189   7.895   8.185
36779SOL    HW110361   7.115   7.941   8.135
36779SOL    HW210362   7.240   7.963   8.238
36780SOL     OW10363   5.817   9.161   7.931
36780SOL    HW110364   5.851   9.238   7.985
36780SOL    HW210365   5.861   9.161   7.841
36781SOL     OW10366   6.713   8.789   9.138
36781SOL    HW110367   6.760   8.789   9.226
36781SOL    HW210368   6.665   8.702   9.127
36782SOL     OW10369   5.816   8.882   7.986
36782SOL    HW110370   5.790   8.978   7.986
36782SOL    HW210371   5.745   8.828   8.031
36783SOL     OW10372   5.826   8.539   8.334
36783SOL    HW110373   5.840   8.455   8.386
36783SOL    HW210374   5.771   8.603   8.389
36784SOL     OW10375   6.206   9.234   8.887
36784SOL    HW110376   6.114   9.217   8.922
36784SOL    HW210377   6.234   9.326   8.913
36785SOL     OW10378   6.192   8.412   7.571
36785SOL    HW110379   6.199   8.496   7.517
36785SOL    HW210380   6.238   8.425   7.659
36786SOL     OW10381   7.180   7.562   8.928
36786SOL    HW110382   7.162   7.629   8.856
36786SOL    HW210383   7.177   7.608   9.017
36787SOL     OW10384   5.708   8.091   8.011
36787SOL    HW110385   5.663   8.003   8.028
36787SOL    HW210386   5.707   8.145   8.095
36788SOL     OW10387   7.428   9.215   7.807
36788SOL    HW110388   7.482   9.186   7.887
36788SOL    HW210389   7.458   9.305   7.778
36789SOL     OW10390   5.613   9.044   7.565
36789SOL    HW110391   5.594   8.948   7.586
36789SOL    HW210392   5.580   9.102   7.640
36790SOL     OW10393   7.275   8.370   8.060
36790SOL    HW110394   7.370   8.341   8.068
36790SOL    HW210395   7.267   8.435   7.985
36791SOL     OW10396   7.227   8.556   7.880
36791SOL    HW110397   7.313   8.558   7.828
36791SOL    HW210398   7.241   8.603   7.968
36792SOL     OW10399   5.699   8.185   9.045
36792SOL    HW110400   5.787   8.172   9.090
36792SOL    HW210401   5.686   8.282   9.023
36793SOL     OW10402   6.199   8.813   8.174
36793SOL    HW110403   6.150   8.726   8.183
36793SOL    HW210404   6.176   8.856   8.087
36794SOL     OW10405   6.879   8.676   8.871
36794SOL    HW110406   6.916   8.603   8.813
36794SOL    HW210407   6.931   8.681   8.956
36795SOL     OW10408   6.395   7.452   7.950
36795SOL    HW110409   6.435   7.543   7.941
36795SOL    HW210410   6.295   7.460   7.956
36796SOL     OW10411   5.783   8.424   8.712
36796SOL    HW110412   5.872   8.379   8.698
36796SOL    HW210413   5.710   8.359   8.693
36797SOL     OW10414   7.111   8.447   7.638
36797SOL    HW110415   7.048   8.371   7.651
36797SOL    HW210416   7.159   8.465   7.724
36798SOL     OW10417   6.773   9.240   9.064
36798SOL    HW110418   6.797   9.300   8.988
36798SOL    HW210419   6.780   9.145   9.034
36799SOL     OW10420   5.903   7.699   9.249
36799SOL    HW110421   5.974   7.770   9.255
36799SOL    HW210422   5.815   7.738   9.277
36800SOL     OW10423   7.052   8.865   8.401
36800SOL    HW110424   6.993   8.871   8.481
36800SOL    HW210425   7.037   8.777   8.355
36801SOL     OW10426   7.253   9.162   8.020
36801SOL    HW110427   7.212   9.139   7.932
36801SOL    HW210428   7.235   9.088   8.085
36802SOL     OW10429   6.184   8.177   7.718
36802SOL    HW110430   6.208   8.246   7.650
36802SOL    HW210431   6.106   8.210   7.772
36803SOL     OW10432   6.867   7.793   8.392
36803SOL    HW110433   6.781   7.743   8.379
36803SOL    HW210434   6.929   7.739   8.448
36804SOL     OW10435   7.162   9.110   7.755
36804SOL    HW110436   7.251   9.156   7.758
36804SOL    HW210437   7.141   9.086   7.660
36805SOL     OW10438   6.393   8.053   8.913
36805SOL    HW110439   6.346   8.050   9.002
36805SOL    HW210440   6.342   7.998   8.847
36806SOL     OW10441   6.980   7.917   9.122
36806SOL    HW110442   6.960   7.960   9.210
36806SOL    HW210443   7.058   7.855   9.131
36807SOL     OW10444   6.559   8.338   9.020
36807SOL    HW110445   6.605   8.254   8.991
36807SOL    HW210446   6.503   8.372   8.945
36808SOL     OW10447   6.577   7.858   8.690
36808SOL    HW110448   6.500   7.892   8.744
36808SOL    HW210449   6.543   7.807   8.611
36809SOL     OW10450   6.627   8.149   7.877
36809SOL    HW110451   6.653   8.145   7.973
36809SOL    HW210452   6.542   8.098   7.863
36810SOL     OW10453   5.662   8.259   8.237
36810SOL    HW110454   5.761   8.247   8.246
36810SOL    HW210455   5.638   8.354   8.258
36811SOL     OW10456   5.716   9.269   9.019
36811SOL    HW110457   5.706   9.254   9.118
36811SOL    HW210458   5.630   9.305   8.983
36812SOL     OW10459   6.451   7.796   7.643
36812SOL    HW110460   6.510   7.859   7.594
36812SOL    HW210461   6.470   7.702   7.614
36813SOL     OW10462   7.305   8.033   9.279
36813SOL    HW110463   7.279   8.122   9.243
36813SOL    HW210464   7.303   7.965   9.206
36814SOL     OW10465   6.948   8.592   7.993
36814SOL    HW110466   7.031   8.563   7.945
36814SOL    HW210467   6.899   8.659   7.937
36815SOL     OW10468   6.136   7.644   8.333
36815SOL    HW110469   6.131   7.639   8.433
36815SOL    HW210470   6.138   7.740   8.304
36816SOL     OW10471   6.594   8.904   7.925
36816SOL    HW110472   6.548   8.976   7.873
36816SOL    HW210473   6.590   8.924   8.023
36817SOL     OW10474   5.937   9.249   8.301
36817SOL    HW110475   5.987   9.163   8.307
36817SOL    HW210476   6.002   9.326   8.298
36818SOL     OW10477   7.381   8.514   8.321
36818SOL    HW110478   7.319   8.499   8.245
36818SOL    HW210479   7.329   8.525   8.406
36819SOL     OW10480   6.813   8.998   8.954
36819SOL    HW110481   6.819   8.921   9.018
36819SOL    HW210482   6.761   8.972   8.874
36820SOL     OW10483   5.907   8.391   7.690
36820SOL    HW110484   5.989   8.430   7.648
36820SOL    HW210485   5.880   8.309   7.641
36821SOL     OW10486   7.044   8.183   8.176
36821SOL    HW110487   7.039   8.118   8.251
36821SOL    HW210488   7.124   8.242   8.189
36822SOL     OW10489   6.047   8.714   9.175
36822SOL    HW110490   5.997   8.715   9.089
36822SOL    HW210491   5.984   8.696   9.251
36823SOL     OW10492   6.697   9.224   7.685
36823SOL    HW110493   6.637   9.162   7.735
36823SOL    HW210494   6.728   9.180   7.600
36824SOL     OW10495   5.788   7.733   8.946
36824SOL    HW110496   5.708   7.793   8.933
36824SOL    HW210497   5.778   7.684   9.032
36825SOL     OW10498   7.218   8.825   7.529
36825SOL    HW110499   7.186   8.919   7.519
36825SOL    HW210500   7.142   8.762   7.517
36826SOL     OW10501   6.050   9.191   7.771
36826SOL    HW110502   6.083   9.230   7.857
36826SOL    HW210503   6.126   9.184   7.706
36827SOL     OW10504   6.986   7.555   7.874
36827SOL    HW110505   6.962   7.518   7.784
36827SOL    HW210506   7.085   7.571   7.878
36828SOL     OW10507   5.835   9.233   8.689
36828SOL    HW110508   5.892   9.168   8.739
36828SOL    HW210509   5.819   9.200   8.596
36829SOL     OW10510   6.526   9.146   8.352
36829SOL    HW110511   6.606   9.089   8.373
36829SOL    HW210512   6.477   9.106   8.275
36830SOL     OW10513   5.968   8.148   7.928
36830SOL    HW110514   6.013   8.058   7.925
36830SOL    HW210515   5.874   8.137   7.961
36831SOL     OW10516   7.133   7.670   9.177
36831SOL    HW110517   7.128   7.707   9.269
36831SOL    HW210518   7.061   7.601   9.165
36832SOL     OW10519   6.200   7.570   7.565
36832SOL    HW110520   6.298   7.548   7.572
36832SOL    HW210521   6.169   7.553   7.472
36833SOL     OW10522   6.367   7.712   9.197
36833SOL    HW110523   6.434   7.651   9.240
36833SOL    HW210524   6.294   7.731   9.262
36834SOL     OW10525   6.474   8.962   8.643
36834SOL    HW110526   6.451   8.937   8.549
36834SOL    HW210527   6.535   8.893   8.682
36835SOL     OW10528   6.937   8.038   8.881
36835SOL    HW110529   6.965   7.995   8.966
36835SOL    HW210530   6.962   8.134   8.882
36836SOL     OW10531   6.389   8.850   8.372
36836SOL    HW110532   6.479   8.864   8.330
36836SOL    HW210533   6.318   8.852   8.301
36837SOL     OW10534   6.508   7.951   8.347
36837SOL    HW110535   6.483   7.942   8.251
36837SOL    HW210536   6.556   7.869   8.378
36838SOL     OW10537   6.125   7.512   7.960
36838SOL    HW110538   6.044   7.513   8.018
36838SOL    HW210539   6.128   7.595   7.905
36839SOL     OW10540   7.020   8.636   7.489
36839SOL    HW110541   7.052   8.560   7.546
36839SOL    HW210542   6.928   8.663   7.519
36840SOL     OW10543   5.883   7.483   7.619
36840SOL    HW110544   5.932   7.567   7.598
36840SOL    HW210545   5.945   7.418   7.664
36841SOL     OW10546   6.521   7.684   7.928
36841SOL    HW110547   6.473   7.725   7.850
36841SOL    HW210548   6.620   7.682   7.909
36842SOL     OW10549   6.662   8.131   8.912
36842SOL    HW110550   6.582   8.070   8.915
36842SOL    HW210551   6.743   8.078   8.888
36843SOL     OW10552   6.813   9.018   8.241
36843SOL    HW110553   6.834   9.092   8.176
36843SOL    HW210554   6.881   9.018   8.314
36844SOL     OW10555   6.045   8.600   8.189
36844SOL    HW110556   5.974   8.573   8.254
36844SOL    HW210557   6.019   8.572   8.096
36845SOL     OW10558   6.857   9.245   8.039
36845SOL    HW110559   6.901   9.309   7.975
36845SOL    HW210560   6.807   9.297   8.109
36846SOL     OW10561   6.618   7.997   7.464
36846SOL    HW110562   6.577   8.079   7.425
36846SOL    HW210563   6.682   8.023   7.537
36847SOL     OW10564   5.664   8.004   8.834
36847SOL    HW110565   5.756   8.003   8.793
36847SOL    HW210566   5.658   8.078   8.901
36848SOL     OW10567   6.147   7.670   8.595
36848SOL    HW110568   6.185   7.586   8.632
36848SOL    HW210569   6.059   7.689   8.639
36849SOL     OW10570   6.452   7.902   8.090
36849SOL    HW110571   6.420   7.974   8.028
36849SOL    HW210572   6.476   7.821   8.037
36850SOL     OW10573   6.603   7.487   8.201
36850SOL    HW110574   6.531   7.492   8.132
36850SOL    HW210575   6.579   7.418   8.270
36851SOL     OW10576   7.015   8.621   8.315
36851SOL    HW110577   6.960   8.537   8.308
36851SOL    HW210578   7.041   8.650   8.223
36852SOL     OW10579   7.052   8.038   8.440
36852SOL    HW110580   7.022   7.943   8.447
36852SOL    HW210581   7.125   8.054   8.506
36853SOL     OW10582   7.443   8.281   7.825
36853SOL    HW110583   7.485   8.217   7.889
36853SOL    HW210584   7.405   8.230   7.747
36854SOL     OW10585   6.074   8.833   7.622
36854SOL    HW110586   5.987   8.818   7.669
36854SOL    HW210587   6.057   8.859   7.527
36855SOL     OW10588   7.250   8.728   8.105
36855SOL    HW110589   7.349   8.736   8.119
36855SOL    HW210590   7.205   8.812   8.136
36856SOL     OW10591   6.976   8.023   7.526
36856SOL    HW110592   6.922   8.002   7.607
36856SOL    HW210593   7.067   7.982   7.535
36857SOL     OW10594   6.113   7.704   7.776
36857SOL    HW110595   6.140   7.645   7.701
36857SOL    HW210596   6.113   7.799   7.745
36858SOL     OW10597   7.340   8.671   9.036
36858SOL    HW110598   7.431   8.632   9.023
36858SOL    HW210599   7.348   8.767   9.060
36859SOL     OW10600   6.650   8.795   8.788
36859SOL    HW110601   6.570   8.772   8.843
36859SOL    HW210602   6.733   8.769   8.837
36860SOL     OW10603   7.178   9.077   9.073
36860SOL    HW110604   7.205   9.111   8.983
36860SOL    HW210605   7.257   9.039   9.119
36861SOL     OW10606   6.697   8.643   8.548
36861SOL    HW110607   6.657   8.687   8.629
36861SOL    HW210608   6.656   8.680   8.465
36862SOL     OW10609   7.224   8.547   8.527
36862SOL    HW110610   7.229   8.628   8.586
36862SOL    HW210611   7.138   8.549   8.476
36863SOL     OW10612   6.501   7.537   8.850
36863SOL    HW110613   6.526   7.517   8.755
36863SOL    HW210614   6.573   7.593   8.892
36864SOL     OW10615   6.566   8.564   9.167
36864SOL    HW110616   6.467   8.570   9.177
36864SOL    HW210617   6.589   8.484   9.111
36865SOL     OW10618   6.291   8.498   7.816
36865SOL    HW110619   6.277   8.505   7.915
36865SOL    HW210620   6.375   8.447   7.798
36866SOL     OW10621   5.996   8.261   8.699
36866SOL    HW110622   6.082   8.273   8.749
36866SOL    HW210623   5.954   8.174   8.726
36867SOL     OW10624   6.860   7.834   8.710
36867SOL    HW110625   6.881   7.908   8.774
36867SOL    HW210626   6.771   7.851   8.667
36868SOL     OW10627   5.650   9.012   8.779
36868SOL    HW110628   5.604   9.094   8.745
36868SOL    HW210629   5.748   9.031   8.788
36869SOL     OW10630   5.953   8.548   7.949
36869SOL    HW110631   5.946   8.631   7.893
36869SOL    HW210632   5.957   8.468   7.889
36870SOL     OW10633   6.152   7.985   8.313
36870SOL    HW110634   6.164   8.051   8.239
36870SOL    HW210635   6.198   8.019   8.396
36871SOL     OW10636   6.838   8.796   7.836
36871SOL    HW110637   6.888   8.873   7.876
36871SOL    HW210638   6.743   8.798   7.868
36872SOL     OW10639   6.858   8.893   8.590
36872SOL    HW110640   6.905   8.906   8.677
36872SOL    HW210641   6.792   8.819   8.599
36873SOL     OW10642   7.168   8.087   7.920
36873SOL    HW110643   7.137   8.148   7.993
36873SOL    HW210644   7.218   8.139   7.851
36874SOL     OW10645   5.940   8.958   8.777
36874SOL    HW110646   5.919   8.914   8.690
36874SOL    HW210647   6.037   8.984   8.780
36875SOL     OW10648   5.988   8.199   9.046
36875SOL    HW110649   6.056   8.254   8.999
36875SOL    HW210650   6.028   8.111   9.073
36876SOL     OW10651   7.173   8.227   9.118
36876SOL    HW110652   7.081   8.265   9.113
36876SOL    HW210653   7.233   8.274   9.053
36877SOL     OW10654   6.599   7.553   9.218
36877SOL    HW110655   6.605   7.638   9.166
36877SOL    HW210656   6.631   7.477   9.161
36878SOL     OW10657   6.090   7.498   9.188
36878SOL    HW110658   6.048   7.441   9.118
36878SOL    HW210659   6.024   7.567   9.220
36879SOL     OW10660   6.159   8.318   8.477
36879SOL    HW110661   6.203   8.407   8.468
36879SOL    HW210662   6.096   8.318   8.554
36880SOL     OW10663   6.946   8.310   8.493
36880SOL    HW110664   6.871   8.310   8.427
36880SOL    HW210665   6.983   8.218   8.502
36881SOL     OW10666   6.795   7.973   7.723
36881SOL    HW110667   6.808   7.889   7.777
36881SOL    HW210668   6.766   8.047   7.783
36882SOL     OW10669   5.893   7.661   8.679
36882SOL    HW110670   5.870   7.698   8.769
36882SOL    HW210671   5.863   7.566   8.673
36883SOL     OW10672   5.623   8.758   8.730
36883SOL    HW110673   5.676   8.709   8.798
36883SOL    HW210674   5.645   8.856   8.735
36884SOL     OW10675   6.318   8.082   8.512
36884SOL    HW110676   6.377   8.056   8.436
36884SOL    HW210677   6.290   8.178   8.501
36885SOL     OW10678   7.314   8.383   9.302
36885SOL    HW110679   7.268   8.376   9.213
36885SOL    HW210680   7.252   8.427   9.368
36886SOL     OW10681   5.893   7.511   8.066
36886SOL    HW110682   5.882   7.605   8.099
36886SOL    HW210683   5.888   7.448   8.143
36887SOL     OW10684   7.208   7.815   7.822
36887SOL    HW110685   7.210   7.739   7.886
36887SOL    HW210686   7.160   7.892   7.862
36888SOL     OW10687   6.609   8.214   8.414
36888SOL    HW110688   6.624   8.235   8.510
36888SOL    HW210689   6.579   8.119   8.405
36889SOL     OW10690   6.566   9.021   9.148
36889SOL    HW110691   6.546   9.065   9.060
36889SOL    HW210692   6.605   8.930   9.132
36890SOL     OW10693   7.445   8.966   9.053
36890SOL    HW110694   7.459   8.993   8.958
36890SOL    HW210695   7.528   8.988   9.106
36891SOL     OW10696   5.936   8.346   9.252
36891SOL    HW110697   6.012   8.390   9.300
36891SOL    HW210698   5.971   8.299   9.170
36892SOL     OW10699   7.126   7.722   7.573
36892SOL    HW110700   7.065   7.647   7.596
36892SOL    HW210701   7.148   7.774   7.656
36893SOL     OW10702   6.889   8.286   7.490
36893SOL    HW110703   6.923   8.193   7.505
36893SOL    HW210704   6.907   8.313   7.395
36894SOL     OW10705   6.654   8.781   8.297
36894SOL    HW110706   6.661   8.697   8.242
36894SOL    HW210707   6.716   8.850   8.261
36895SOL     OW10708   5.905   8.258   8.397
36895SOL    HW110709   5.998   8.294   8.402
36895SOL    HW210710   5.899   8.173   8.449
36896SOL     OW10711   5.925   7.957   8.454
36896SOL    HW110712   5.873   7.874   8.437
36896SOL    HW210713   6.002   7.962   8.390
36897SOL     OW10714   6.724   7.828   9.126
36897SOL    HW110715   6.679   7.891   9.190
36897SOL    HW210716   6.817   7.859   9.109
36898SOL     OW10717   6.746   7.655   8.925
36898SOL    HW110718   6.746   7.719   9.002
36898SOL    HW210719   6.774   7.703   8.842
36899SOL     OW10720   5.594   8.774   7.648
36899SOL    HW110721   5.501   8.795   7.617
36899SOL    HW210722   5.604   8.675   7.661
36900SOL     OW10723   5.674   9.249   8.375
36900SOL    HW110724   5.632   9.163   8.348
36900SOL    HW210725   5.768   9.252   8.341
36901SOL     OW10726   6.090   9.016   8.358
36901SOL    HW110727   6.156   9.090   8.367
36901SOL    HW210728   6.134   8.937   8.316
36902SOL     OW10729   6.588   8.244   8.686
36902SOL    HW110730   6.629   8.212   8.772
36902SOL    HW210731   6.492   8.217   8.683
36903SOL     OW10732   5.626   7.992   8.562
36903SOL    HW110733   5.711   7.959   8.521
36903SOL    HW210734   5.639   8.007   8.660
36904SOL     OW10735   5.775   7.968   9.170
36904SOL    HW110736   5.834   7.928   9.100
36904SOL    HW210737   5.717   8.039   9.129
36905SOL     OW10738   6.955   8.398   9.108
36905SOL    HW110739   6.994   8.487   9.128
36905SOL    HW210740   6.965   8.378   9.011
36906SOL     OW10741   6.401   8.020   7.773
36906SOL    HW110742   6.408   7.931   7.727
36906SOL    HW210743   6.307   8.054   7.765
36907SOL     OW10744   7.243   8.052   8.654
36907SOL    HW110745   7.205   7.983   8.716
36907SOL    HW210746   7.325   8.016   8.610
36908SOL     OW10747   5.838   9.012   9.192
36908SOL    HW110748   5.808   9.069   9.268
36908SOL    HW210749   5.831   8.915   9.218
36909SOL     OW10750   6.257   7.912   8.717
36909SOL    HW110751   6.223   7.823   8.687
36909SOL    HW210752   6.283   7.966   8.637
36910SOL     OW10753   6.516   9.126   8.913
36910SOL    HW110754   6.492   9.108   8.818
36910SOL    HW210755   6.546   9.220   8.923
36911SOL     OW10756   6.059   7.948   7.639
36911SOL    HW110757   6.120   8.028   7.643
36911SOL    HW210758   5.964   7.979   7.646
36912SOL     OW10759   5.745   8.585   8.914
36912SOL    HW110760   5.767   8.524   8.990
36912SOL    HW210761   5.755   8.536   8.828
36913SOL     OW10762   6.933   8.507   8.682
36913SOL    HW110763   6.957   8.444   8.608
36913SOL    HW210764   6.843   8.547   8.664
36914SOL     OW10765   6.888   8.303   7.757
36914SOL    HW110766   6.802   8.272   7.799
36914SOL    HW210767   6.884   8.289   7.658
36915SOL     OW10768   7.345   9.195   8.602
36915SOL    HW110769   7.406   9.225   8.529
36915SOL    HW210770   7.307   9.106   8.580
36916SOL     OW10771   6.838   9.179   8.576
36916SOL    HW110772   6.922   9.184   8.522
36916SOL    HW210773   6.815   9.083   8.594
36917SOL     OW10774   5.669   8.706   8.470
36917SOL    HW110775   5.664   8.705   8.570
36917SOL    HW210776   5.586   8.665   8.432
36918SOL     OW10777   6.274   9.110   9.164
36918SOL    HW110778   6.218   9.191   9.173
36918SOL    HW210779   6.326   9.114   9.078
36919SOL     OW10780   7.312   7.583   7.971
36919SOL    HW110781   7.385   7.566   7.904
36919SOL    HW210782   7.281   7.496   8.009
36920SOL     OW10783   6.974   9.021   7.925
36920SOL    HW110784   7.041   9.033   7.851
36920SOL    HW210785   6.934   9.110   7.948
36921SOL     OW10786   5.716   9.242   9.299
36921SOL    HW110787   5.675   9.168   9.352
36921SOL    HW210788   5.780   9.293   9.357
36922SOL     OW10789   6.866   8.375   8.120
36922SOL    HW110790   6.926   8.294   8.122
36922SOL    HW210791   6.906   8.444   8.060
36923SOL     OW10792   6.416   8.721   8.870
36923SOL    HW110793   6.411   8.754   8.965
36923SOL    HW210794   6.330   8.740   8.824
36924SOL     OW10795   6.258   9.064   7.602
36924SOL    HW110796   6.267   9.074   7.503
36924SOL    HW210797   6.218   8.975   7.623
36925SOL     OW10798   7.236   9.168   8.842
36925SOL    HW110799   7.289   9.178   8.758
36925SOL    HW210800   7.209   9.258   8.876
36926SOL     OW10801   7.427   7.623   8.411
36926SOL    HW110802   7.466   7.538   8.375
36926SOL    HW210803   7.329   7.625   8.392
36927SOL     OW10804   5.849   7.774   8.168
36927SOL    HW110805   5.770   7.825   8.134
36927SOL    HW210806   5.840   7.759   8.266
36928SOL     OW10807   6.780   9.060   7.479
36928SOL    HW110808   6.786   8.967   7.516
36928SOL    HW210809   6.721   9.060   7.399
36929SOL     OW10810   6.408   8.450   8.820
36929SOL    HW110811   6.448   8.449   8.728
36929SOL    HW210812   6.418   8.542   8.860
36930SOL     OW10813   6.502   8.358   7.739
36930SOL    HW110814   6.565   8.396   7.671
36930SOL    HW210815   6.542   8.275   7.778
36931SOL     OW10816   7.090   9.055   7.492
36931SOL    HW110817   6.998   9.092   7.499
36931SOL    HW210818   7.128   9.075   7.402
36932SOL     OW10819   5.958   8.736   8.938
36932SOL    HW110820   5.945   8.829   8.904
36932SOL    HW210821   5.874   8.684   8.925
36933SOL     OW10822   7.200   8.740   8.737
36933SOL    HW110823   7.260   8.743   8.817
36933SOL    HW210824   7.125   8.804   8.750
36934SOL     OW10825   6.625   8.546   8.144
36934SOL    HW110826   6.555   8.499   8.198
36934SOL    HW210827   6.684   8.478   8.101
36935SOL     OW10828   6.600   7.684   8.419
36935SOL    HW110829   6.592   7.648   8.326
36935SOL    HW210830   6.598   7.608   8.484
36936SOL     OW10831   6.176   8.935   7.939
36936SOL    HW110832   6.218   8.877   7.869
36936SOL    HW210833   6.132   9.014   7.895
36937SOL     OW10834   7.295   7.833   8.829
36937SOL    HW110835   7.368   7.902   8.833
36937SOL    HW210836   7.323   7.758   8.770
36938SOL     OW10837   5.841   8.796   7.738
36938SOL    HW110838   5.745   8.797   7.711
36938SOL    HW210839   5.853   8.849   7.822
36939SOL     OW10840   5.691   8.461   9.174
36939SOL    HW110841   5.614   8.428   9.228
36939SOL    HW210842   5.776   8.431   9.216
36940SOL     OW10843   6.258   7.651   8.937
36940SOL    HW110844   6.348   7.635   8.897
36940SOL    HW210845   6.266   7.656   9.036
36941SOL     OW10846   5.661   7.793   7.481
36941SOL    HW110847   5.569   7.765   7.452
36941SOL    HW210848   5.692   7.870   7.425
36942SOL     OW10849   7.026   8.304   8.846
36942SOL    HW110850   6.969   8.356   8.783
36942SOL    HW210851   7.122   8.316   8.822
36943SOL     OW10852   5.658   7.614   7.766
36943SOL    HW110853   5.641   7.697   7.712
36943SOL    HW210854   5.748   7.577   7.744
36944SOL     OW10855   6.769   8.783   7.567
36944SOL    HW110856   6.670   8.772   7.569
36944SOL    HW210857   6.803   8.798   7.660
36945SOL     OW10858   6.199   8.290   8.879
36945SOL    HW110859   6.255   8.371   8.862
36945SOL    HW210860   6.258   8.210   8.882
36946SOL     OW10861   7.079   9.215   8.407
36946SOL    HW110862   7.112   9.279   8.338
36946SOL    HW210863   7.145   9.209   8.482
36947SOL     OW10864   6.302   8.013   9.156
36947SOL    HW110865   6.321   8.078   9.230
36947SOL    HW210866   6.362   7.933   9.165
36948SOL     OW10867   7.036   8.668   9.081
36948SOL    HW110868   7.027   8.658   9.180
36948SOL    HW210869   7.132   8.661   9.055
36949SOL     OW10870   5.976   9.189   9.008
36949SOL    HW110871   5.885   9.230   9.006
36949SOL    HW210872   5.969   9.095   9.040
36950SOL     OW10873   7.260   8.331   8.702
36950SOL    HW110874   7.233   8.242   8.665
36950SOL    HW210875   7.261   8.399   8.629
36951SOL     OW10876   6.811   7.773   7.897
36951SOL    HW110877   6.876   7.699   7.886
36951SOL    HW210878   6.831   7.823   7.981
36952SOL     OW10879   6.180   8.193   8.100
36952SOL    HW110880   6.230   8.278   8.081
36952SOL    HW210881   6.092   8.195   8.052
36953SOL     OW10882   7.363   7.790   9.090
36953SOL    HW110883   7.346   7.821   8.996
36953SOL    HW210884   7.279   7.753   9.128
36954SOL     OW10885   7.316   8.382   8.965
36954SOL    HW110886   7.354   8.473   8.980
36954SOL    HW210887   7.308   8.365   8.866
36955SOL     OW10888   6.445   8.822   7.464
36955SOL    HW110889   6.399   8.837   7.552
36955SOL    HW210890   6.489   8.907   7.434
36956SOL     OW10891   6.247   9.238   8.401
36956SOL    HW110892   6.201   9.326   8.388
36956SOL    HW210893   6.346   9.250   8.394
36957SOL     OW10894   6.445   8.404   8.309
36957SOL    HW110895   6.499   8.335   8.357
36957SOL    HW210896   6.413   8.473   8.375
36958SOL     OW10897   6.669   8.432   7.535
36958SOL    HW110898   6.646   8.485   7.453
36958SOL    HW210899   6.750   8.376   7.516
36959SOL     OW10900   7.447   9.017   8.299
36959SOL    HW110901   7.376   9.005   8.229
36959SOL    HW210902   7.448   8.938   8.359
36960SOL     OW10903   5.807   8.762   9.292
36960SOL    HW110904   5.742   8.689   9.271
36960SOL    HW210905   5.811   8.776   9.390
36961SOL     OW10906   5.665   8.688   8.101
36961SOL    HW110907   5.664   8.641   8.189
36961SOL    HW210908   5.747   8.660   8.050
36962SOL     OW10909   6.258   8.839   9.072
36962SOL    HW110910   6.180   8.789   9.110
36962SOL    HW210911   6.255   8.934   9.103
36963SOL     OW10912   7.410   7.640   8.675
36963SOL    HW110913   7.406   7.550   8.719
36963SOL    HW210914   7.413   7.629   8.576
36964SOL     OW10915   6.014   7.872   7.968
36964SOL    HW110916   6.044   7.800   7.906
36964SOL    HW210917   5.975   7.832   8.051
36965SOL     OW10918   7.291   8.935   8.552
36965SOL    HW110919   7.198   8.910   8.525
36965SOL    HW210920   7.317   8.885   8.634
36966SOL     OW10921   5.903   7.995   8.728
36966SOL    HW110922   5.941   7.936   8.800
36966SOL    HW210923   5.943   7.969   8.640
36967SOL     OW10924   6.398   9.034   8.135
36967SOL    HW110925   6.430   9.044   8.041
36967SOL    HW210926   6.319   8.972   8.137
36968SOL     OW10927   7.010   7.662   8.560
36968SOL    HW110928   7.062   7.597   8.615
36968SOL    HW210929   6.961   7.725   8.621
36969SOL     OW10930   6.587   7.482   8.602
36969SOL    HW110931   6.524   7.410   8.571
36969SOL    HW210932   6.680   7.446   8.602
36970SOL     OW10933   6.356   8.778   7.749
36970SOL    HW110934   6.310   8.691   7.766
36970SOL    HW210935   6.447   8.775   7.790
36971SOL     OW10936   6.204   9.015   8.732
36971SOL    HW110937   6.199   9.097   8.789
36971SOL    HW210938   6.293   9.012   8.687
36972SOL     OW10939   6.938   7.500   7.616
36972SOL    HW110940   6.973   7.459   7.532
36972SOL    HW210941   6.848   7.462   7.636
36973SOL     OW10942   6.886   7.901   8.139
36973SOL    HW110943   6.827   7.981   8.143
36973SOL    HW210944   6.901   7.866   8.232
36974SOL     OW10945   7.179   7.669   8.330
36974SOL    HW110946   7.095   7.668   8.384
36974SOL    HW210947   7.181   7.752   8.274
36975SOL     OW10948   5.625   8.525   7.748
36975SOL    HW110949   5.724   8.514   7.739
36975SOL    HW210950   5.585   8.439   7.780
36976SOL     OW10951   6.461   9.094   7.785
36976SOL    HW110952   6.384   9.059   7.731
36976SOL    HW210953   6.429   9.165   7.847
36977SOL     OW10954   5.816   8.076   9.423
36977SOL    HW110955   5.723   8.074   9.460
36977SOL    HW210956   5.817   8.037   9.331
36978SOL     OW10957   5.811   7.723  10.306
36978SOL    HW110958   5.846   7.706  10.398
36978SOL    HW210959   5.723   7.678  10.294
36979SOL     OW10960   5.605   7.816   9.957
36979SOL    HW110961   5.523   7.859   9.996
36979SOL    HW210962   5.577   7.743   9.894
36980SOL     OW10963   6.155   8.723  10.475
36980SOL    HW110964   6.062   8.716  10.438
36980SOL    HW210965   6.166   8.812  10.519
36981SOL     OW10966   7.141   8.959  10.013
36981SOL    HW110967   7.084   8.943  10.094
36981SOL    HW210968   7.082   8.969   9.933
36982SOL     OW10969   6.721   8.151  10.027
36982SOL    HW110970   6.778   8.229  10.002
36982SOL    HW210971   6.661   8.177  10.103
36983SOL     OW10972   7.341   8.055   9.541
36983SOL    HW110973   7.329   8.042   9.442
36983SOL    HW210974   7.311   7.974   9.590
36984SOL     OW10975   6.354   8.592  10.333
36984SOL    HW110976   6.276   8.609  10.393
36984SOL    HW210977   6.388   8.679  10.297
36985SOL     OW10978   6.436   8.246  11.133
36985SOL    HW110979   6.432   8.322  11.198
36985SOL    HW210980   6.458   8.282  11.042
36986SOL     OW10981   6.271   8.460   9.975
36986SOL    HW110982   6.340   8.444  10.045
36986SOL    HW210983   6.198   8.517  10.013
36987SOL     OW10984   6.272   8.609  11.113
36987SOL    HW110985   6.332   8.688  11.127
36987SOL    HW210986   6.186   8.640  11.072
36988SOL     OW10987   5.921   8.883  10.371
36988SOL    HW110988   5.843   8.852  10.318
36988SOL    HW210989   5.979   8.941  10.314
36989SOL     OW10990   7.046   8.953  10.649
36989SOL    HW110991   7.070   9.047  10.675
36989SOL    HW210992   7.030   8.899  10.731
36990SOL     OW10993   6.024   7.840  10.809
36990SOL    HW110994   6.106   7.784  10.818
36990SOL    HW210995   5.943   7.782  10.813
36991SOL     OW10996   7.189   7.895  10.047
36991SOL    HW110997   7.115   7.941   9.997
36991SOL    HW210998   7.240   7.963  10.100
36992SOL     OW10999   5.817   9.161   9.793
36992SOL    HW111000   5.851   9.238   9.847
36992SOL    HW211001   5.861   9.161   9.703
36993SOL     OW11002   6.713   8.789  11.000
36993SOL    HW111003   6.760   8.789  11.088
36993SOL    HW211004   6.665   8.702  10.989
36994SOL     OW11005   5.816   8.882   9.848
36994SOL    HW111006   5.790   8.978   9.848
36994SOL    HW211007   5.745   8.828   9.893
36995SOL     OW11008   5.826   8.539  10.196
36995SOL    HW111009   5.840   8.455  10.248
36995SOL    HW211010   5.771   8.603  10.251
36996SOL     OW11011   6.206   9.234  10.749
36996SOL    HW111012   6.114   9.217  10.784
36996SOL    HW211013   6.234   9.326  10.775
36997SOL     OW11014   6.192   8.412   9.433
36997SOL    HW111015   6.199   8.496   9.379
36997SOL    HW211016   6.238   8.425   9.521
36998SOL     OW11017   7.180   7.562  10.790
36998SOL    HW111018   7.162   7.629  10.718
36998SOL    HW211019   7.177   7.608  10.879
36999SOL     OW11020   5.708   8.091   9.873
36999SOL    HW111021   5.663   8.003   9.890
36999SOL    HW211022   5.707   8.145   9.957
37000SOL     OW11023   7.428   9.215   9.669
37000SOL    HW111024   7.482   9.186   9.749
37000SOL    HW211025   7.458   9.305   9.640
37001SOL     OW11026   5.613   9.044   9.427
37001SOL    HW111027   5.594   8.948   9.448
37001SOL    HW211028   5.580   9.102   9.502
37002SOL     OW11029   7.275   8.370   9.922
37002SOL    HW111030   7.370   8.341   9.930
37002SOL    HW211031   7.267   8.435   9.847
37003SOL     OW11032   7.227   8.556   9.742
37003SOL    HW111033   7.313   8.558   9.690
37003SOL    HW211034   7.241   8.603   9.830
37004SOL     OW11035   5.699   8.185  10.907
37004SOL    HW111036   5.787   8.172  10.952
37004SOL    HW211037   5.686   8.282  10.885
37005SOL     OW11038   6.199   8.813  10.036
37005SOL    HW111039   6.150   8.726  10.045
37005SOL    HW211040   6.176   8.856   9.949
37006SOL     OW11041   6.879   8.676  10.733
37006SOL    HW111042   6.916   8.603  10.675
37006SOL    HW211043   6.931   8.681  10.818
37007SOL     OW11044   6.395   7.452   9.812
37007SOL    HW111045   6.435   7.543   9.803
37007SOL    HW211046   6.295   7.460   9.818
37008SOL     OW11047   5.783   8.424  10.574
37008SOL    HW111048   5.872   8.379  10.560
37008SOL    HW211049   5.710   8.359  10.555
37009SOL     OW11050   7.111   8.447   9.500
37009SOL    HW111051   7.048   8.371   9.513
37009SOL    HW211052   7.159   8.465   9.586
37010SOL     OW11053   6.773   9.240  10.926
37010SOL    HW111054   6.797   9.300  10.850
37010SOL    HW211055   6.780   9.145  10.896
37011SOL     OW11056   5.903   7.699  11.111
37011SOL    HW111057   5.974   7.770  11.117
37011SOL    HW211058   5.815   7.738  11.139
37012SOL     OW11059   7.052   8.865  10.263
37012SOL    HW111060   6.993   8.871  10.343
37012SOL    HW211061   7.037   8.777  10.217
37013SOL     OW11062   7.253   9.162   9.882
37013SOL    HW111063   7.212   9.139   9.794
37013SOL    HW211064   7.235   9.088   9.947
37014SOL     OW11065   6.184   8.177   9.580
37014SOL    HW111066   6.208   8.246   9.512
37014SOL    HW211067   6.106   8.210   9.634
37015SOL     OW11068   6.867   7.793  10.254
37015SOL    HW111069   6.781   7.743  10.241
37015SOL    HW211070   6.929   7.739  10.310
37016SOL     OW11071   7.162   9.110   9.617
37016SOL    HW111072   7.251   9.156   9.620
37016SOL    HW211073   7.141   9.086   9.522
37017SOL     OW11074   6.393   8.053  10.775
37017SOL    HW111075   6.346   8.050  10.864
37017SOL    HW211076   6.342   7.998  10.709
37018SOL     OW11077   6.980   7.917  10.984
37018SOL    HW111078   6.960   7.960  11.072
37018SOL    HW211079   7.058   7.855  10.993
37019SOL     OW11080   6.559   8.338  10.882
37019SOL    HW111081   6.605   8.254  10.853
37019SOL    HW211082   6.503   8.372  10.807
37020SOL     OW11083   6.577   7.858  10.552
37020SOL    HW111084   6.500   7.892  10.606
37020SOL    HW211085   6.543   7.807  10.473
37021SOL     OW11086   6.627   8.149   9.739
37021SOL    HW111087   6.653   8.145   9.835
37021SOL    HW211088   6.542   8.098   9.725
37022SOL     OW11089   5.662   8.259  10.099
37022SOL    HW111090   5.761   8.247  10.108
37022SOL    HW211091   5.638   8.354  10.120
37023SOL     OW11092   5.716   9.269  10.881
37023SOL    HW111093   5.706   9.254  10.980
37023SOL    HW211094   5.630   9.305  10.845
37024SOL     OW11095   6.451   7.796   9.505
37024SOL    HW111096   6.510   7.859   9.456
37024SOL    HW211097   6.470   7.702   9.476
37025SOL     OW11098   7.305   8.033  11.141
37025SOL    HW111099   7.279   8.122  11.105
37025SOL    HW211100   7.303   7.965  11.068
37026SOL     OW11101   6.948   8.592   9.855
37026SOL    HW111102   7.031   8.563   9.807
37026SOL    HW211103   6.899   8.659   9.799
37027SOL     OW11104   6.136   7.644  10.195
37027SOL    HW111105   6.131   7.639  10.295
37027SOL    HW211106   6.138   7.740  10.166
37028SOL     OW11107   6.594   8.904   9.787
37028SOL    HW111108   6.548   8.976   9.735
37028SOL    HW211109   6.590   8.924   9.885
37029SOL     OW11110   5.937   9.249  10.163
37029SOL    HW111111   5.987   9.163  10.169
37029SOL    HW211112   6.002   9.326  10.160
37030SOL     OW11113   7.381   8.514  10.183
37030SOL    HW111114   7.319   8.499  10.107
37030SOL    HW211115   7.329   8.525  10.268
37031SOL     OW11116   6.813   8.998  10.816
37031SOL    HW111117   6.819   8.921  10.880
37031SOL    HW211118   6.761   8.972  10.736
37032SOL     OW11119   5.907   8.391   9.552
37032SOL    HW111120   5.989   8.430   9.510
37032SOL    HW211121   5.880   8.309   9.503
37033SOL     OW11122   7.044   8.183  10.038
37033SOL    HW111123   7.039   8.118  10.113
37033SOL    HW211124   7.124   8.242  10.051
37034SOL     OW11125   6.047   8.714  11.037
37034SOL    HW111126   5.997   8.715  10.951
37034SOL    HW211127   5.984   8.696  11.113
37035SOL     OW11128   6.697   9.224   9.547
37035SOL    HW111129   6.637   9.162   9.597
37035SOL    HW211130   6.728   9.180   9.462
37036SOL     OW11131   5.788   7.733  10.808
37036SOL    HW111132   5.708   7.793  10.795
37036SOL    HW211133   5.778   7.684  10.894
37037SOL     OW11134   7.218   8.825   9.391
37037SOL    HW111135   7.186   8.919   9.381
37037SOL    HW211136   7.142   8.762   9.379
37038SOL     OW11137   6.050   9.191   9.633
37038SOL    HW111138   6.083   9.230   9.719
37038SOL    HW211139   6.126   9.184   9.568
37039SOL     OW11140   6.986   7.555   9.736
37039SOL    HW111141   6.962   7.518   9.646
37039SOL    HW211142   7.085   7.571   9.740
37040SOL     OW11143   5.835   9.233  10.551
37040SOL    HW111144   5.892   9.168  10.601
37040SOL    HW211145   5.819   9.200  10.458
37041SOL     OW11146   6.526   9.146  10.214
37041SOL    HW111147   6.606   9.089  10.235
37041SOL    HW211148   6.477   9.106  10.137
37042SOL     OW11149   5.968   8.148   9.790
37042SOL    HW111150   6.013   8.058   9.787
37042SOL    HW211151   5.874   8.137   9.823
37043SOL     OW11152   7.133   7.670  11.039
37043SOL    HW111153   7.128   7.707  11.131
37043SOL    HW211154   7.061   7.601  11.027
37044SOL     OW11155   6.200   7.570   9.427
37044SOL    HW111156   6.298   7.548   9.434
37044SOL    HW211157   6.169   7.553   9.334
37045SOL     OW11158   6.367   7.712  11.059
37045SOL    HW111159   6.434   7.651  11.102
37045SOL    HW211160   6.294   7.731  11.124
37046SOL     OW11161   6.474   8.962  10.505
37046SOL    HW111162   6.451   8.937  10.411
37046SOL    HW211163   6.535   8.893  10.544
37047SOL     OW11164   6.937   8.038  10.743
37047SOL    HW111165   6.965   7.995  10.828
37047SOL    HW211166   6.962   8.134  10.744
37048SOL     OW11167   6.389   8.850  10.234
37048SOL    HW111168   6.479   8.864  10.192
37048SOL    HW211169   6.318   8.852  10.163
37049SOL     OW11170   6.508   7.951  10.209
37049SOL    HW111171   6.483   7.942  10.113
37049SOL    HW211172   6.556   7.869  10.240
37050SOL     OW11173   6.125   7.512   9.822
37050SOL    HW111174   6.044   7.513   9.880
37050SOL    HW211175   6.128   7.595   9.767
37051SOL     OW11176   7.020   8.636   9.351
37051SOL    HW111177   7.052   8.560   9.408
37051SOL    HW211178   6.928   8.663   9.381
37052SOL     OW11179   5.883   7.483   9.481
37052SOL    HW111180   5.932   7.567   9.460
37052SOL    HW211181   5.945   7.418   9.526
37053SOL     OW11182   6.521   7.684   9.790
37053SOL    HW111183   6.473   7.725   9.712
37053SOL    HW211184   6.620   7.682   9.771
37054SOL     OW11185   6.662   8.131  10.774
37054SOL    HW111186   6.582   8.070  10.777
37054SOL    HW211187   6.743   8.078  10.750
37055SOL     OW11188   6.813   9.018  10.103
37055SOL    HW111189   6.834   9.092  10.038
37055SOL    HW211190   6.881   9.018  10.176
37056SOL     OW11191   6.045   8.600  10.051
37056SOL    HW111192   5.974   8.573  10.116
37056SOL    HW211193   6.019   8.572   9.958
37057SOL     OW11194   6.857   9.245   9.901
37057SOL    HW111195   6.901   9.309   9.837
37057SOL    HW211196   6.807   9.297   9.971
37058SOL     OW11197   6.618   7.997   9.326
37058SOL    HW111198   6.577   8.079   9.287
37058SOL    HW211199   6.682   8.023   9.399
37059SOL     OW11200   5.664   8.004  10.696
37059SOL    HW111201   5.756   8.003  10.655
37059SOL    HW211202   5.658   8.078  10.763
37060SOL     OW11203   6.147   7.670  10.457
37060SOL    HW111204   6.185   7.586  10.494
37060SOL    HW211205   6.059   7.689  10.501
37061SOL     OW11206   6.452   7.902   9.952
37061SOL    HW111207   6.420   7.974   9.890
37061SOL    HW211208   6.476   7.821   9.899
37062SOL     OW11209   6.603   7.487  10.063
37062SOL    HW111210   6.531   7.492   9.994
37062SOL    HW211211   6.579   7.418  10.132
37063SOL     OW11212   7.015   8.621  10.177
37063SOL    HW111213   6.960   8.537  10.170
37063SOL    HW211214   7.041   8.650  10.085
37064SOL     OW11215   7.052   8.038  10.302
37064SOL    HW111216   7.022   7.943  10.309
37064SOL    HW211217   7.125   8.054  10.368
37065SOL     OW11218   7.443   8.281   9.687
37065SOL    HW111219   7.485   8.217   9.751
37065SOL    HW211220   7.405   8.230   9.609
37066SOL     OW11221   6.074   8.833   9.484
37066SOL    HW111222   5.987   8.818   9.531
37066SOL    HW211223   6.057   8.859   9.389
37067SOL     OW11224   7.250   8.728   9.967
37067SOL    HW111225   7.349   8.736   9.981
37067SOL    HW211226   7.205   8.812   9.998
37068SOL     OW11227   6.976   8.023   9.388
37068SOL    HW111228   6.922   8.002   9.469
37068SOL    HW211229   7.067   7.982   9.397
37069SOL     OW11230   6.113   7.704   9.638
37069SOL    HW111231   6.140   7.645   9.563
37069SOL    HW211232   6.113   7.799   9.607
37070SOL     OW11233   7.340   8.671  10.898
37070SOL    HW111234   7.431   8.632  10.885
37070SOL    HW211235   7.348   8.767  10.922
37071SOL     OW11236   6.650   8.795  10.650
37071SOL    HW111237   6.570   8.772  10.705
37071SOL    HW211238   6.733   8.769  10.699
37072SOL     OW11239   7.178   9.077  10.935
37072SOL    HW111240   7.205   9.111  10.845
37072SOL    HW211241   7.257   9.039  10.981
37073SOL     OW11242   6.697   8.643  10.410
37073SOL    HW111243   6.657   8.687  10.491
37073SOL    HW211244   6.656   8.680  10.327
37074SOL     OW11245   7.224   8.547  10.389
37074SOL    HW111246   7.229   8.628  10.448
37074SOL    HW211247   7.138   8.549  10.338
37075SOL     OW11248   6.501   7.537  10.712
37075SOL    HW111249   6.526   7.517  10.617
37075SOL    HW211250   6.573   7.593  10.754
37076SOL     OW11251   6.566   8.564  11.029
37076SOL    HW111252   6.467   8.570  11.039
37076SOL    HW211253   6.589   8.484  10.973
37077SOL     OW11254   6.291   8.498   9.678
37077SOL    HW111255   6.277   8.505   9.777
37077SOL    HW211256   6.375   8.447   9.660
37078SOL     OW11257   5.996   8.261  10.561
37078SOL    HW111258   6.082   8.273  10.611
37078SOL    HW211259   5.954   8.174  10.588
37079SOL     OW11260   6.860   7.834  10.572
37079SOL    HW111261   6.881   7.908  10.636
37079SOL    HW211262   6.771   7.851  10.529
37080SOL     OW11263   5.650   9.012  10.641
37080SOL    HW111264   5.604   9.094  10.607
37080SOL    HW211265   5.748   9.031  10.650
37081SOL     OW11266   5.953   8.548   9.811
37081SOL    HW111267   5.946   8.631   9.755
37081SOL    HW211268   5.957   8.468   9.751
37082SOL     OW11269   6.152   7.985  10.175
37082SOL    HW111270   6.164   8.051  10.101
37082SOL    HW211271   6.198   8.019  10.258
37083SOL     OW11272   6.838   8.796   9.698
37083SOL    HW111273   6.888   8.873   9.738
37083SOL    HW211274   6.743   8.798   9.730
37084SOL     OW11275   6.858   8.893  10.452
37084SOL    HW111276   6.905   8.906  10.539
37084SOL    HW211277   6.792   8.819  10.461
37085SOL     OW11278   7.168   8.087   9.782
37085SOL    HW111279   7.137   8.148   9.855
37085SOL    HW211280   7.218   8.139   9.713
37086SOL     OW11281   5.940   8.958  10.639
37086SOL    HW111282   5.919   8.914  10.552
37086SOL    HW211283   6.037   8.984  10.642
37087SOL     OW11284   5.988   8.199  10.908
37087SOL    HW111285   6.056   8.254  10.861
37087SOL    HW211286   6.028   8.111  10.935
37088SOL     OW11287   7.173   8.227  10.980
37088SOL    HW111288   7.081   8.265  10.975
37088SOL    HW211289   7.233   8.274  10.915
37089SOL     OW11290   6.599   7.553  11.080
37089SOL    HW111291   6.605   7.638  11.028
37089SOL    HW211292   6.631   7.477  11.023
37090SOL     OW11293   6.090   7.498  11.050
37090SOL    HW111294   6.048   7.441  10.980
37090SOL    HW211295   6.024   7.567  11.082
37091SOL     OW11296   6.159   8.318  10.339
37091SOL    HW111297   6.203   8.407  10.330
37091SOL    HW211298   6.096   8.318  10.416
37092SOL     OW11299   6.946   8.310  10.355
37092SOL    HW111300   6.871   8.310  10.289
37092SOL    HW211301   6.983   8.218  10.364
37093SOL     OW11302   6.795   7.973   9.585
37093SOL    HW111303   6.808   7.889   9.639
37093SOL    HW211304   6.766   8.047   9.645
37094SOL     OW11305   5.893   7.661  10.541
37094SOL    HW111306   5.870   7.698  10.631
37094SOL    HW211307   5.863   7.566  10.535
37095SOL     OW11308   5.623   8.758  10.592
37095SOL    HW111309   5.676   8.709  10.660
37095SOL    HW211310   5.645   8.856  10.597
37096SOL     OW11311   6.318   8.082  10.374
37096SOL    HW111312   6.377   8.056  10.298
37096SOL    HW211313   6.290   8.178  10.363
37097SOL     OW11314   7.314   8.383  11.164
37097SOL    HW111315   7.268   8.376  11.075
37097SOL    HW211316   7.252   8.427  11.230
37098SOL     OW11317   5.893   7.511   9.928
37098SOL    HW111318   5.882   7.605   9.961
37098SOL    HW211319   5.888   7.448  10.005
37099SOL     OW11320   7.208   7.815   9.684
37099SOL    HW111321   7.210   7.739   9.748
37099SOL    HW211322   7.160   7.892   9.724
37100SOL     OW11323   6.609   8.214  10.276
37100SOL    HW111324   6.624   8.235  10.372
37100SOL    HW211325   6.579   8.119  10.267
37101SOL     OW11326   6.566   9.021  11.010
37101SOL    HW111327   6.546   9.065  10.922
37101SOL    HW211328   6.605   8.930  10.994
37102SOL     OW11329   7.445   8.966  10.915
37102SOL    HW111330   7.459   8.993  10.820
37102SOL    HW211331   7.528   8.988  10.968
37103SOL     OW11332   5.936   8.346  11.114
37103SOL    HW111333   6.012   8.390  11.162
37103SOL    HW211334   5.971   8.299  11.032
37104SOL     OW11335   7.126   7.722   9.435
37104SOL    HW111336   7.065   7.647   9.458
37104SOL    HW211337   7.148   7.774   9.518
37105SOL     OW11338   6.889   8.286   9.352
37105SOL    HW111339   6.923   8.193   9.367
37105SOL    HW211340   6.907   8.313   9.257
37106SOL     OW11341   6.654   8.781  10.159
37106SOL    HW111342   6.661   8.697  10.104
37106SOL    HW211343   6.716   8.850  10.123
37107SOL     OW11344   5.905   8.258  10.259
37107SOL    HW111345   5.998   8.294  10.264
37107SOL    HW211346   5.899   8.173  10.311
37108SOL     OW11347   5.925   7.957  10.316
37108SOL    HW111348   5.873   7.874  10.299
37108SOL    HW211349   6.002   7.962  10.252
37109SOL     OW11350   6.724   7.828  10.988
37109SOL    HW111351   6.679   7.891  11.052
37109SOL    HW211352   6.817   7.859  10.971
37110SOL     OW11353   6.746   7.655  10.787
37110SOL    HW111354   6.746   7.719  10.864
37110SOL    HW211355   6.774   7.703  10.704
37111SOL     OW11356   5.594   8.774   9.510
37111SOL    HW111357   5.501   8.795   9.479
37111SOL    HW211358   5.604   8.675   9.523
37112SOL     OW11359   5.674   9.249  10.237
37112SOL    HW111360   5.632   9.163  10.210
37112SOL    HW211361   5.768   9.252  10.203
37113SOL     OW11362   6.090   9.016  10.220
37113SOL    HW111363   6.156   9.090  10.229
37113SOL    HW211364   6.134   8.937  10.178
37114SOL     OW11365   6.588   8.244  10.548
37114SOL    HW111366   6.629   8.212  10.634
37114SOL    HW211367   6.492   8.217  10.545
37115SOL     OW11368   5.626   7.992  10.424
37115SOL    HW111369   5.711   7.959  10.383
37115SOL    HW211370   5.639   8.007  10.522
37116SOL     OW11371   5.775   7.968  11.032
37116SOL    HW111372   5.834   7.928  10.962
37116SOL    HW211373   5.717   8.039  10.991
37117SOL     OW11374   6.955   8.398  10.970
37117SOL    HW111375   6.994   8.487  10.990
37117SOL    HW211376   6.965   8.378  10.873
37118SOL     OW11377   6.401   8.020   9.635
37118SOL    HW111378   6.408   7.931   9.589
37118SOL    HW211379   6.307   8.054   9.627
37119SOL     OW11380   7.243   8.052  10.516
37119SOL    HW111381   7.205   7.983  10.578
37119SOL    HW211382   7.325   8.016  10.472
37120SOL     OW11383   5.838   9.012  11.054
37120SOL    HW111384   5.808   9.069  11.130
37120SOL    HW211385   5.831   8.915  11.080
37121SOL     OW11386   6.257   7.912  10.579
37121SOL    HW111387   6.223   7.823  10.549
37121SOL    HW211388   6.283   7.966  10.499
37122SOL     OW11389   6.516   9.126  10.775
37122SOL    HW111390   6.492   9.108  10.680
37122SOL    HW211391   6.546   9.220  10.785
37123SOL     OW11392   6.059   7.948   9.501
37123SOL    HW111393   6.120   8.028   9.505
37123SOL    HW211394   5.964   7.979   9.508
37124SOL     OW11395   5.745   8.585  10.776
37124SOL    HW111396   5.767   8.524  10.852
37124SOL    HW211397   5.755   8.536  10.690
37125SOL     OW11398   6.933   8.507  10.544
37125SOL    HW111399   6.957   8.444  10.470
37125SOL    HW211400   6.843   8.547  10.526
37126SOL     OW11401   6.888   8.303   9.619
37126SOL    HW111402   6.802   8.272   9.661
37126SOL    HW211403   6.884   8.289   9.520
37127SOL     OW11404   7.345   9.195  10.464
37127SOL    HW111405   7.406   9.225  10.391
37127SOL    HW211406   7.307   9.106  10.442
37128SOL     OW11407   6.838   9.179  10.438
37128SOL    HW111408   6.922   9.184  10.384
37128SOL    HW211409   6.815   9.083  10.456
37129SOL     OW11410   5.669   8.706  10.332
37129SOL    HW111411   5.664   8.705  10.432
37129SOL    HW211412   5.586   8.665  10.294
37130SOL     OW11413   6.274   9.110  11.026
37130SOL    HW111414   6.218   9.191  11.035
37130SOL    HW211415   6.326   9.114  10.940
37131SOL     OW11416   7.312   7.583   9.833
37131SOL    HW111417   7.385   7.566   9.766
37131SOL    HW211418   7.281   7.496   9.871
37132SOL     OW11419   6.974   9.021   9.787
37132SOL    HW111420   7.041   9.033   9.713
37132SOL    HW211421   6.934   9.110   9.810
37133SOL     OW11422   5.716   9.242  11.161
37133SOL    HW111423   5.675   9.168  11.214
37133SOL    HW211424   5.780   9.293  11.219
37134SOL     OW11425   6.866   8.375   9.982
37134SOL    HW111426   6.926   8.294   9.984
37134SOL    HW211427   6.906   8.444   9.922
37135SOL     OW11428   6.416   8.721  10.732
37135SOL    HW111429   6.411   8.754  10.827
37135SOL    HW211430   6.330   8.740  10.686
37136SOL     OW11431   6.258   9.064   9.464
37136SOL    HW111432   6.267   9.074   9.365
37136SOL    HW211433   6.218   8.975   9.485
37137SOL     OW11434   7.236   9.168  10.704
37137SOL    HW111435   7.289   9.178  10.620
37137SOL    HW211436   7.209   9.258  10.738
37138SOL     OW11437   7.427   7.623  10.273
37138SOL    HW111438   7.466   7.538  10.237
37138SOL    HW211439   7.329   7.625  10.254
37139SOL     OW11440   5.849   7.774  10.030
37139SOL    HW111441   5.770   7.825   9.996
37139SOL    HW211442   5.840   7.759  10.128
37140SOL     OW11443   6.780   9.060   9.341
37140SOL    HW111444   6.786   8.967   9.378
37140SOL    HW211445   6.721   9.060   9.261
37141SOL     OW11446   6.408   8.450  10.682
37141SOL    HW111447   6.448   8.449  10.590
37141SOL    HW211448   6.418   8.542  10.722
37142SOL     OW11449   6.502   8.358   9.601
37142SOL    HW111450   6.565   8.396   9.533
37142SOL    HW211451   6.542   8.275   9.640
37143SOL     OW11452   7.090   9.055   9.354
37143SOL    HW111453   6.998   9.092   9.361
37143SOL    HW211454   7.128   9.075   9.264
37144SOL     OW11455   5.958   8.736  10.800
37144SOL    HW111456   5.945   8.829  10.766
37144SOL    HW211457   5.874   8.684  10.787
37145SOL     OW11458   7.200   8.740  10.599
37145SOL    HW111459   7.260   8.743  10.679
37145SOL    HW211460   7.125   8.804  10.612
37146SOL     OW11461   6.625   8.546  10.006
37146SOL    HW111462   6.555   8.499  10.060
37146SOL    HW211463   6.684   8.478   9.963
37147SOL     OW11464   6.600   7.684  10.281
37147SOL    HW111465   6.592   7.648  10.188
37147SOL    HW211466   6.598   7.608  10.346
37148SOL     OW11467   6.176   8.935   9.801
37148SOL    HW111468   6.218   8.877   9.731
37148SOL    HW211469   6.132   9.014   9.757
37149SOL     OW11470   7.295   7.833  10.691
37149SOL    HW111471   7.368   7.902  10.695
37149SOL    HW211472   7.323   7.758  10.632
37150SOL     OW11473   5.841   8.796   9.600
37150SOL    HW111474   5.745   8.797   9.573
37150SOL    HW211475   5.853   8.849   9.684
37151SOL     OW11476   5.691   8.461  11.036
37151SOL    HW111477   5.614   8.428  11.090
37151SOL    HW211478   5.776   8.431  11.078
37152SOL     OW11479   6.258   7.651  10.799
37152SOL    HW111480   6.348   7.635  10.759
37152SOL    HW211481   6.266   7.656  10.898
37153SOL     OW11482   5.661   7.793   9.343
37153SOL    HW111483   5.569   7.765   9.314
37153SOL    HW211484   5.692   7.870   9.287
37154SOL     OW11485   7.026   8.304  10.708
37154SOL    HW111486   6.969   8.356  10.645
37154SOL    HW211487   7.122   8.316  10.684
37155SOL     OW11488   5.658   7.614   9.628
37155SOL    HW111489   5.641   7.697   9.574
37155SOL    HW211490   5.748   7.577   9.606
37156SOL     OW11491   6.769   8.783   9.429
37156SOL    HW111492   6.670   8.772   9.431
37156SOL    HW211493   6.803   8.798   9.522
37157SOL     OW11494   6.199   8.290  10.741
37157SOL    HW111495   6.255   8.371  10.724
37157SOL    HW211496   6.258   8.210  10.744
37158SOL     OW11497   7.079   9.215  10.269
37158SOL    HW111498   7.112   9.279  10.200
37158SOL    HW211499   7.145   9.209  10.344
37159SOL     OW11500   6.302   8.013  11.018
37159SOL    HW111501   6.321   8.078  11.092
37159SOL    HW211502   6.362   7.933  11.027
37160SOL     OW11503   7.036   8.668  10.943
37160SOL    HW111504   7.027   8.658  11.042
37160SOL    HW211505   7.132   8.661  10.917
37161SOL     OW11506   5.976   9.189  10.870
37161SOL    HW111507   5.885   9.230  10.868
37161SOL    HW211508   5.969   9.095  10.902
37162SOL     OW11509   7.260   8.331  10.564
37162SOL    HW111510   7.233   8.242  10.527
37162SOL    HW211511   7.261   8.399  10.491
37163SOL     OW11512   6.811   7.773   9.759
37163SOL    HW111513   6.876   7.699   9.748
37163SOL    HW211514   6.831   7.823   9.843
37164SOL     OW11515   6.180   8.193   9.962
37164SOL    HW111516   6.230   8.278   9.943
37164SOL    HW211517   6.092   8.195   9.914
37165SOL     OW11518   7.363   7.790  10.952
37165SOL    HW111519   7.346   7.821  10.858
37165SOL    HW211520   7.279   7.753  10.990
37166SOL     OW11521   7.316   8.382  10.827
37166SOL    HW111522   7.354   8.473  10.842
37166SOL    HW211523   7.308   8.365  10.728
37167SOL     OW11524   6.445   8.822   9.326
37167SOL    HW111525   6.399   8.837   9.414
37167SOL    HW211526   6.489   8.907   9.296
37168SOL     OW11527   6.247   9.238  10.263
37168SOL    HW111528   6.201   9.326  10.250
37168SOL    HW211529   6.346   9.250  10.256
37169SOL     OW11530   6.445   8.404  10.171
37169SOL    HW111531   6.499   8.335  10.219
37169SOL    HW211532   6.413   8.473  10.237
37170SOL     OW11533   6.669   8.432   9.397
37170SOL    HW111534   6.646   8.485   9.315
37170SOL    HW211535   6.750   8.376   9.378
37171SOL     OW11536   7.447   9.017  10.161
37171SOL    HW111537   7.376   9.005  10.091
37171SOL    HW211538   7.448   8.938  10.221
37172SOL     OW11539   5.807   8.762  11.154
37172SOL    HW111540   5.742   8.689  11.133
37172SOL    HW211541   5.811   8.776  11.252
37173SOL     OW11542   5.665   8.688   9.963
37173SOL    HW111543   5.664   8.641  10.051
37173SOL    HW211544   5.747   8.660   9.912
37174SOL     OW11545   6.258   8.839  10.934
37174SOL    HW111546   6.180   8.789  10.972
37174SOL    HW211547   6.255   8.934  10.965
37175SOL     OW11548   7.410   7.640  10.537
37175SOL    HW111549   7.406   7.550  10.581
37175SOL    HW211550   7.413   7.629  10.438
37176SOL     OW11551   6.014   7.872   9.830
37176SOL    HW111552   6.044   7.800   9.768
37176SOL    HW211553   5.975   7.832   9.913
37177SOL     OW11554   7.291   8.935  10.414
37177SOL    HW111555   7.198   8.910  10.387
37177SOL    HW211556   7.317   8.885  10.496
37178SOL     OW11557   5.903   7.995  10.590
37178SOL    HW111558   5.941   7.936  10.662
37178SOL    HW211559   5.943   7.969  10.502
37179SOL     OW11560   6.398   9.034   9.997
37179SOL    HW111561   6.430   9.044   9.903
37179SOL    HW211562   6.319   8.972   9.999
37180SOL     OW11563   7.010   7.662  10.422
37180SOL    HW111564   7.062   7.597  10.477
37180SOL    HW211565   6.961   7.725  10.483
37181SOL     OW11566   6.587   7.482  10.464
37181SOL    HW111567   6.524   7.410  10.433
37181SOL    HW211568   6.680   7.446  10.464
37182SOL     OW11569   6.356   8.778   9.611
37182SOL    HW111570   6.310   8.691   9.628
37182SOL    HW211571   6.447   8.775   9.652
37183SOL     OW11572   6.204   9.015  10.594
37183SOL    HW111573   6.199   9.097  10.651
37183SOL    HW211574   6.293   9.012  10.549
37184SOL     OW11575   6.938   7.500   9.478
37184SOL    HW111576   6.973   7.459   9.394
37184SOL    HW211577   6.848   7.462   9.498
37185SOL     OW11578   6.886   7.901  10.001
37185SOL    HW111579   6.827   7.981  10.005
37185SOL    HW211580   6.901   7.866  10.094
37186SOL     OW11581   7.179   7.669  10.192
37186SOL    HW111582   7.095   7.668  10.246
37186SOL    HW211583   7.181   7.752  10.136
37187SOL     OW11584   5.625   8.525   9.610
37187SOL    HW111585   5.724   8.514   9.601
37187SOL    HW211586   5.585   8.439   9.642
37188SOL     OW11587   6.461   9.094   9.647
37188SOL    HW111588   6.384   9.059   9.593
37188SOL    HW211589   6.429   9.165   9.709
37189SOL     OW11590   5.816   8.076  11.285
37189SOL    HW111591   5.723   8.074  11.322
37189SOL    HW211592   5.817   8.037  11.193
37190SOL     OW11593   5.811   7.723  12.168
37190SOL    HW111594   5.846   7.706  12.260
37190SOL    HW211595   5.723   7.678  12.156
37191SOL     OW11596   5.605   7.816  11.819
37191SOL    HW111597   5.523   7.859  11.858
37191SOL    HW211598   5.577   7.743  11.756
37192SOL     OW11599   6.155   8.723  12.337
37192SOL    HW111600   6.062   8.716  12.300
37192SOL    HW211601   6.166   8.812  12.381
37193SOL     OW11602   7.141   8.959  11.875
37193SOL    HW111603   7.084   8.943  11.956
37193SOL    HW211604   7.082   8.969  11.795
37194SOL     OW11605   6.721   8.151  11.889
37194SOL    HW111606   6.778   8.229  11.864
37194SOL    HW211607   6.661   8.177  11.965
37195SOL     OW11608   7.341   8.055  11.403
37195SOL    HW111609   7.329   8.042  11.304
37195SOL    HW211610   7.311   7.974  11.452
37196SOL     OW11611   6.354   8.592  12.195
37196SOL    HW111612   6.276   8.609  12.255
37196SOL    HW211613   6.388   8.679  12.159
37197SOL     OW11614   6.271   8.460  11.837
37197SOL    HW111615   6.340   8.444  11.907
37197SOL    HW211616   6.198   8.517  11.875
37198SOL     OW11617   5.921   8.883  12.233
37198SOL    HW111618   5.843   8.852  12.180
37198SOL    HW211619   5.979   8.941  12.176
37199SOL     OW11620   7.046   8.953  12.511
37199SOL    HW111621   7.070   9.047  12.537
37199SOL    HW211622   7.030   8.899  12.593
37200SOL     OW11623   6.024   7.840  12.671
37200SOL    HW111624   6.106   7.784  12.680
37200SOL    HW211625   5.943   7.782  12.675
37201SOL     OW11626   7.189   7.895  11.909
37201SOL    HW111627   7.115   7.941  11.859
37201SOL    HW211628   7.240   7.963  11.962
37202SOL     OW11629   5.817   9.161  11.655
37202SOL    HW111630   5.851   9.238  11.709
37202SOL    HW211631   5.861   9.161  11.565
37203SOL     OW11632   5.816   8.882  11.710
37203SOL    HW111633   5.790   8.978  11.710
37203SOL    HW211634   5.745   8.828  11.755
37204SOL     OW11635   5.826   8.539  12.058
37204SOL    HW111636   5.840   8.455  12.110
37204SOL    HW211637   5.771   8.603  12.113
37205SOL     OW11638   6.206   9.234  12.611
37205SOL    HW111639   6.114   9.217  12.646
37205SOL    HW211640   6.234   9.326  12.637
37206SOL     OW11641   6.192   8.412  11.295
37206SOL    HW111642   6.199   8.496  11.241
37206SOL    HW211643   6.238   8.425  11.383
37207SOL     OW11644   7.180   7.562  12.652
37207SOL    HW111645   7.162   7.629  12.580
37207SOL    HW211646   7.177   7.608  12.741
37208SOL     OW11647   5.708   8.091  11.735
37208SOL    HW111648   5.663   8.003  11.752
37208SOL    HW211649   5.707   8.145  11.819
37209SOL     OW11650   7.428   9.215  11.531
37209SOL    HW111651   7.482   9.186  11.611
37209SOL    HW211652   7.458   9.305  11.502
37210SOL     OW11653   5.613   9.044  11.289
37210SOL    HW111654   5.594   8.948  11.310
37210SOL    HW211655   5.580   9.102  11.364
37211SOL     OW11656   7.275   8.370  11.784
37211SOL    HW111657   7.370   8.341  11.792
37211SOL    HW211658   7.267   8.435  11.709
37212SOL     OW11659   7.227   8.556  11.604
37212SOL    HW111660   7.313   8.558  11.552
37212SOL    HW211661   7.241   8.603  11.692
37213SOL     OW11662   5.699   8.185  12.769
37213SOL    HW111663   5.787   8.172  12.814
37213SOL    HW211664   5.686   8.282  12.747
37214SOL     OW11665   6.199   8.813  11.898
37214SOL    HW111666   6.150   8.726  11.907
37214SOL    HW211667   6.176   8.856  11.811
37215SOL     OW11668   6.879   8.676  12.595
37215SOL    HW111669   6.916   8.603  12.537
37215SOL    HW211670   6.931   8.681  12.680
37216SOL     OW11671   6.395   7.452  11.674
37216SOL    HW111672   6.435   7.543  11.665
37216SOL    HW211673   6.295   7.460  11.680
37217SOL     OW11674   5.783   8.424  12.436
37217SOL    HW111675   5.872   8.379  12.422
37217SOL    HW211676   5.710   8.359  12.417
37218SOL     OW11677   7.111   8.447  11.362
37218SOL    HW111678   7.048   8.371  11.375
37218SOL    HW211679   7.159   8.465  11.448
37219SOL     OW11680   7.052   8.865  12.125
37219SOL    HW111681   6.993   8.871  12.205
37219SOL    HW211682   7.037   8.777  12.079
37220SOL     OW11683   7.253   9.162  11.744
37220SOL    HW111684   7.212   9.139  11.656
37220SOL    HW211685   7.235   9.088  11.809
37221SOL     OW11686   6.184   8.177  11.442
37221SOL    HW111687   6.208   8.246  11.374
37221SOL    HW211688   6.106   8.210  11.496
37222SOL     OW11689   6.867   7.793  12.116
37222SOL    HW111690   6.781   7.743  12.103
37222SOL    HW211691   6.929   7.739  12.172
37223SOL     OW11692   7.162   9.110  11.479
37223SOL    HW111693   7.251   9.156  11.482
37223SOL    HW211694   7.141   9.086  11.384
37224SOL     OW11695   6.393   8.053  12.637
37224SOL    HW111696   6.346   8.050  12.726
37224SOL    HW211697   6.342   7.998  12.571
37225SOL     OW11698   6.559   8.338  12.744
37225SOL    HW111699   6.605   8.254  12.715
37225SOL    HW211700   6.503   8.372  12.669
37226SOL     OW11701   6.577   7.858  12.414
37226SOL    HW111702   6.500   7.892  12.468
37226SOL    HW211703   6.543   7.807  12.335
37227SOL     OW11704   6.627   8.149  11.601
37227SOL    HW111705   6.653   8.145  11.697
37227SOL    HW211706   6.542   8.098  11.587
37228SOL     OW11707   5.662   8.259  11.961
37228SOL    HW111708   5.761   8.247  11.970
37228SOL    HW211709   5.638   8.354  11.982
37229SOL     OW11710   5.716   9.269  12.743
37229SOL    HW111711   5.706   9.254  12.842
37229SOL    HW211712   5.630   9.305  12.707
37230SOL     OW11713   6.451   7.796  11.367
37230SOL    HW111714   6.510   7.859  11.318
37230SOL    HW211715   6.470   7.702  11.338
37231SOL     OW11716   6.948   8.592  11.717
37231SOL    HW111717   7.031   8.563  11.669
37231SOL    HW211718   6.899   8.659  11.661
37232SOL     OW11719   6.136   7.644  12.057
37232SOL    HW111720   6.131   7.639  12.157
37232SOL    HW211721   6.138   7.740  12.028
37233SOL     OW11722   6.594   8.904  11.649
37233SOL    HW111723   6.548   8.976  11.597
37233SOL    HW211724   6.590   8.924  11.747
37234SOL     OW11725   5.937   9.249  12.025
37234SOL    HW111726   5.987   9.163  12.031
37234SOL    HW211727   6.002   9.326  12.022
37235SOL     OW11728   7.381   8.514  12.045
37235SOL    HW111729   7.319   8.499  11.969
37235SOL    HW211730   7.329   8.525  12.130
37236SOL     OW11731   6.813   8.998  12.678
37236SOL    HW111732   6.819   8.921  12.742
37236SOL    HW211733   6.761   8.972  12.598
37237SOL     OW11734   5.907   8.391  11.414
37237SOL    HW111735   5.989   8.430  11.372
37237SOL    HW211736   5.880   8.309  11.365
37238SOL     OW11737   7.044   8.183  11.900
37238SOL    HW111738   7.039   8.118  11.975
37238SOL    HW211739   7.124   8.242  11.913
37239SOL     OW11740   6.697   9.224  11.409
37239SOL    HW111741   6.637   9.162  11.459
37239SOL    HW211742   6.728   9.180  11.324
37240SOL     OW11743   5.788   7.733  12.670
37240SOL    HW111744   5.708   7.793  12.657
37240SOL    HW211745   5.778   7.684  12.756
37241SOL     OW11746   7.218   8.825  11.253
37241SOL    HW111747   7.186   8.919  11.243
37241SOL    HW211748   7.142   8.762  11.241
37242SOL     OW11749   6.050   9.191  11.495
37242SOL    HW111750   6.083   9.230  11.581
37242SOL    HW211751   6.126   9.184  11.430
37243SOL     OW11752   6.986   7.555  11.598
37243SOL    HW111753   6.962   7.518  11.508
37243SOL    HW211754   7.085   7.571  11.602
37244SOL     OW11755   5.835   9.233  12.413
37244SOL    HW111756   5.892   9.168  12.463
37244SOL    HW211757   5.819   9.200  12.320
37245SOL     OW11758   6.526   9.146  12.076
37245SOL    HW111759   6.606   9.089  12.097
37245SOL    HW211760   6.477   9.106  11.999
37246SOL     OW11761   5.968   8.148  11.652
37246SOL    HW111762   6.013   8.058  11.649
37246SOL    HW211763   5.874   8.137  11.685
37247SOL     OW11764   6.200   7.570  11.289
37247SOL    HW111765   6.298   7.548  11.296
37247SOL    HW211766   6.169   7.553  11.196
37248SOL     OW11767   6.474   8.962  12.367
37248SOL    HW111768   6.451   8.937  12.273
37248SOL    HW211769   6.535   8.893  12.406
37249SOL     OW11770   6.937   8.038  12.605
37249SOL    HW111771   6.965   7.995  12.690
37249SOL    HW211772   6.962   8.134  12.606
37250SOL     OW11773   6.389   8.850  12.096
37250SOL    HW111774   6.479   8.864  12.054
37250SOL    HW211775   6.318   8.852  12.025
37251SOL     OW11776   6.508   7.951  12.071
37251SOL    HW111777   6.483   7.942  11.975
37251SOL    HW211778   6.556   7.869  12.102
37252SOL     OW11779   6.125   7.512  11.684
37252SOL    HW111780   6.044   7.513  11.742
37252SOL    HW211781   6.128   7.595  11.629
37253SOL     OW11782   7.020   8.636  11.213
37253SOL    HW111783   7.052   8.560  11.270
37253SOL    HW211784   6.928   8.663  11.243
37254SOL     OW11785   5.883   7.483  11.343
37254SOL    HW111786   5.932   7.567  11.322
37254SOL    HW211787   5.945   7.418  11.388
37255SOL     OW11788   6.521   7.684  11.652
37255SOL    HW111789   6.473   7.725  11.574
37255SOL    HW211790   6.620   7.682  11.633
37256SOL     OW11791   6.662   8.131  12.636
37256SOL    HW111792   6.582   8.070  12.639
37256SOL    HW211793   6.743   8.078  12.612
37257SOL     OW11794   6.813   9.018  11.965
37257SOL    HW111795   6.834   9.092  11.900
37257SOL    HW211796   6.881   9.018  12.038
37258SOL     OW11797   6.045   8.600  11.913
37258SOL    HW111798   5.974   8.573  11.978
37258SOL    HW211799   6.019   8.572  11.820
37259SOL     OW11800   6.857   9.245  11.763
37259SOL    HW111801   6.901   9.309  11.699
37259SOL    HW211802   6.807   9.297  11.833
37260SOL     OW11803   6.618   7.997  11.188
37260SOL    HW111804   6.577   8.079  11.149
37260SOL    HW211805   6.682   8.023  11.261
37261SOL     OW11806   5.664   8.004  12.558
37261SOL    HW111807   5.756   8.003  12.517
37261SOL    HW211808   5.658   8.078  12.625
37262SOL     OW11809   6.147   7.670  12.319
37262SOL    HW111810   6.185   7.586  12.356
37262SOL    HW211811   6.059   7.689  12.363
37263SOL     OW11812   6.452   7.902  11.814
37263SOL    HW111813   6.420   7.974  11.752
37263SOL    HW211814   6.476   7.821  11.761
37264SOL     OW11815   6.603   7.487  11.925
37264SOL    HW111816   6.531   7.492  11.856
37264SOL    HW211817   6.579   7.418  11.994
37265SOL     OW11818   7.015   8.621  12.039
37265SOL    HW111819   6.960   8.537  12.032
37265SOL    HW211820   7.041   8.650  11.947
37266SOL     OW11821   7.052   8.038  12.164
37266SOL    HW111822   7.022   7.943  12.171
37266SOL    HW211823   7.125   8.054  12.230
37267SOL     OW11824   7.443   8.281  11.549
37267SOL    HW111825   7.485   8.217  11.613
37267SOL    HW211826   7.405   8.230  11.471
37268SOL     OW11827   6.074   8.833  11.346
37268SOL    HW111828   5.987   8.818  11.393
37268SOL    HW211829   6.057   8.859  11.251
37269SOL     OW11830   7.250   8.728  11.829
37269SOL    HW111831   7.349   8.736  11.843
37269SOL    HW211832   7.205   8.812  11.860
37270SOL     OW11833   6.976   8.023  11.250
37270SOL    HW111834   6.922   8.002  11.331
37270SOL    HW211835   7.067   7.982  11.259
37271SOL     OW11836   6.113   7.704  11.500
37271SOL    HW111837   6.140   7.645  11.425
37271SOL    HW211838   6.113   7.799  11.469
37272SOL     OW11839   7.340   8.671  12.760
37272SOL    HW111840   7.431   8.632  12.747
37272SOL    HW211841   7.348   8.767  12.784
37273SOL     OW11842   6.650   8.795  12.512
37273SOL    HW111843   6.570   8.772  12.567
37273SOL    HW211844   6.733   8.769  12.561
37274SOL     OW11845   6.697   8.643  12.272
37274SOL    HW111846   6.657   8.687  12.353
37274SOL    HW211847   6.656   8.680  12.189
37275SOL     OW11848   7.224   8.547  12.251
37275SOL    HW111849   7.229   8.628  12.310
37275SOL    HW211850   7.138   8.549  12.200
37276SOL     OW11851   6.501   7.537  12.574
37276SOL    HW111852   6.526   7.517  12.479
37276SOL    HW211853   6.573   7.593  12.616
37277SOL     OW11854   6.291   8.498  11.540
37277SOL    HW111855   6.277   8.505  11.639
37277SOL    HW211856   6.375   8.447  11.522
37278SOL     OW11857   5.996   8.261  12.423
37278SOL    HW111858   6.082   8.273  12.473
37278SOL    HW211859   5.954   8.174  12.450
37279SOL     OW11860   6.860   7.834  12.434
37279SOL    HW111861   6.881   7.908  12.498
37279SOL    HW211862   6.771   7.851  12.391
37280SOL     OW11863   5.650   9.012  12.503
37280SOL    HW111864   5.604   9.094  12.469
37280SOL    HW211865   5.748   9.031  12.512
37281SOL     OW11866   5.953   8.548  11.673
37281SOL    HW111867   5.946   8.631  11.617
37281SOL    HW211868   5.957   8.468  11.613
37282SOL     OW11869   6.152   7.985  12.037
37282SOL    HW111870   6.164   8.051  11.963
37282SOL    HW211871   6.198   8.019  12.120
37283SOL     OW11872   6.838   8.796  11.560
37283SOL    HW111873   6.888   8.873  11.600
37283SOL    HW211874   6.743   8.798  11.592
37284SOL     OW11875   6.858   8.893  12.314
37284SOL    HW111876   6.905   8.906  12.401
37284SOL    HW211877   6.792   8.819  12.323
37285SOL     OW11878   7.168   8.087  11.644
37285SOL    HW111879   7.137   8.148  11.717
37285SOL    HW211880   7.218   8.139  11.575
37286SOL     OW11881   5.940   8.958  12.501
37286SOL    HW111882   5.919   8.914  12.414
37286SOL    HW211883   6.037   8.984  12.504
37287SOL     OW11884   5.988   8.199  12.770
37287SOL    HW111885   6.056   8.254  12.723
37287SOL    HW211886   6.028   8.111  12.797
37288SOL     OW11887   7.173   8.227  12.842
37288SOL    HW111888   7.081   8.265  12.837
37288SOL    HW211889   7.233   8.274  12.777
37289SOL     OW11890   6.159   8.318  12.201
37289SOL    HW111891   6.203   8.407  12.192
37289SOL    HW211892   6.096   8.318  12.278
37290SOL     OW11893   6.946   8.310  12.217
37290SOL    HW111894   6.871   8.310  12.151
37290SOL    HW211895   6.983   8.218  12.226
37291SOL     OW11896   6.795   7.973  11.447
37291SOL    HW111897   6.808   7.889  11.501
37291SOL    HW211898   6.766   8.047  11.507
37292SOL     OW11899   5.893   7.661  12.403
37292SOL    HW111900   5.870   7.698  12.493
37292SOL    HW211901   5.863   7.566  12.397
37293SOL     OW11902   5.623   8.758  12.454
37293SOL    HW111903   5.676   8.709  12.522
37293SOL    HW211904   5.645   8.856  12.459
37294SOL     OW11905   6.318   8.082  12.236
37294SOL    HW111906   6.377   8.056  12.160
37294SOL    HW211907   6.290   8.178  12.225
37295SOL     OW11908   5.893   7.511  11.790
37295SOL    HW111909   5.882   7.605  11.823
37295SOL    HW211910   5.888   7.448  11.867
37296SOL     OW11911   7.208   7.815  11.546
37296SOL    HW111912   7.210   7.739  11.610
37296SOL    HW211913   7.160   7.892  11.586
37297SOL     OW11914   6.609   8.214  12.138
37297SOL    HW111915   6.624   8.235  12.234
37297SOL    HW211916   6.579   8.119  12.129
37298SOL     OW11917   7.126   7.722  11.297
37298SOL    HW111918   7.065   7.647  11.320
37298SOL    HW211919   7.148   7.774  11.380
37299SOL     OW11920   6.889   8.286  11.214
37299SOL    HW111921   6.923   8.193  11.229
37299SOL    HW211922   6.907   8.313  11.119
37300SOL     OW11923   6.654   8.781  12.021
37300SOL    HW111924   6.661   8.697  11.966
37300SOL    HW211925   6.716   8.850  11.985
37301SOL     OW11926   5.905   8.258  12.121
37301SOL    HW111927   5.998   8.294  12.126
37301SOL    HW211928   5.899   8.173  12.173
37302SOL     OW11929   5.925   7.957  12.178
37302SOL    HW111930   5.873   7.874  12.161
37302SOL    HW211931   6.002   7.962  12.114
37303SOL     OW11932   6.746   7.655  12.649
37303SOL    HW111933   6.746   7.719  12.726
37303SOL    HW211934   6.774   7.703  12.566
37304SOL     OW11935   5.594   8.774  11.372
37304SOL    HW111936   5.501   8.795  11.341
37304SOL    HW211937   5.604   8.675  11.385
37305SOL     OW11938   5.674   9.249  12.099
37305SOL    HW111939   5.632   9.163  12.072
37305SOL    HW211940   5.768   9.252  12.065
37306SOL     OW11941   6.090   9.016  12.082
37306SOL    HW111942   6.156   9.090  12.091
37306SOL    HW211943   6.134   8.937  12.040
37307SOL     OW11944   6.588   8.244  12.410
37307SOL    HW111945   6.629   8.212  12.496
37307SOL    HW211946   6.492   8.217  12.407
37308SOL     OW11947   5.626   7.992  12.286
37308SOL    HW111948   5.711   7.959  12.245
37308SOL    HW211949   5.639   8.007  12.384
37309SOL     OW11950   6.401   8.020  11.497
37309SOL    HW111951   6.408   7.931  11.451
37309SOL    HW211952   6.307   8.054  11.489
37310SOL     OW11953   7.243   8.052  12.378
37310SOL    HW111954   7.205   7.983  12.440
37310SOL    HW211955   7.325   8.016  12.334
37311SOL     OW11956   5.838   9.012  12.916
37311SOL    HW111957   5.808   9.069  12.992
37311SOL    HW211958   5.831   8.915  12.942
37312SOL     OW11959   6.257   7.912  12.441
37312SOL    HW111960   6.223   7.823  12.411
37312SOL    HW211961   6.283   7.966  12.361
37313SOL     OW11962   6.516   9.126  12.637
37313SOL    HW111963   6.492   9.108  12.542
37313SOL    HW211964   6.546   9.220  12.647
37314SOL     OW11965   6.059   7.948  11.363
37314SOL    HW111966   6.120   8.028  11.367
37314SOL    HW211967   5.964   7.979  11.370
37315SOL     OW11968   5.745   8.585  12.638
37315SOL    HW111969   5.767   8.524  12.714
37315SOL    HW211970   5.755   8.536  12.552
37316SOL     OW11971   6.933   8.507  12.406
37316SOL    HW111972   6.957   8.444  12.332
37316SOL    HW211973   6.843   8.547  12.388
37317SOL     OW11974   6.888   8.303  11.481
37317SOL    HW111975   6.802   8.272  11.523
37317SOL    HW211976   6.884   8.289  11.382
37318SOL     OW11977   7.345   9.195  12.326
37318SOL    HW111978   7.406   9.225  12.253
37318SOL    HW211979   7.307   9.106  12.304
37319SOL     OW11980   6.838   9.179  12.300
37319SOL    HW111981   6.922   9.184  12.246
37319SOL    HW211982   6.815   9.083  12.318
37320SOL     OW11983   5.669   8.706  12.194
37320SOL    HW111984   5.664   8.705  12.294
37320SOL    HW211985   5.586   8.665  12.156
37321SOL     OW11986   7.312   7.583  11.695
37321SOL    HW111987   7.385   7.566  11.628
37321SOL    HW211988   7.281   7.496  11.733
37322SOL     OW11989   6.974   9.021  11.649
37322SOL    HW111990   7.041   9.033  11.575
37322SOL    HW211991   6.934   9.110  11.672
37323SOL     OW11992   6.866   8.375  11.844
37323SOL    HW111993   6.926   8.294  11.846
37323SOL    HW211994   6.906   8.444  11.784
37324SOL     OW11995   6.416   8.721  12.594
37324SOL    HW111996   6.411   8.754  12.689
37324SOL    HW211997   6.330   8.740  12.548
37325SOL     OW11998   6.258   9.064  11.326
37325SOL    HW111999   6.267   9.074  11.227
37325SOL    HW212000   6.218   8.975  11.347
37326SOL     OW12001   7.236   9.168  12.566
37326SOL    HW112002   7.289   9.178  12.482
37326SOL    HW212003   7.209   9.258  12.600
37327SOL     OW12004   7.427   7.623  12.135
37327SOL    HW112005   7.466   7.538  12.099
37327SOL    HW212006   7.329   7.625  12.116
37328SOL     OW12007   5.849   7.774  11.892
37328SOL    HW112008   5.770   7.825  11.858
37328SOL    HW212009   5.840   7.759  11.990
37329SOL     OW12010   6.780   9.060  11.203
37329SOL    HW112011   6.786   8.967  11.240
37329SOL    HW212012   6.721   9.060  11.123
37330SOL     OW12013   6.408   8.450  12.544
37330SOL    HW112014   6.448   8.449  12.452
37330SOL    HW212015   6.418   8.542  12.584
37331SOL     OW12016   6.502   8.358  11.463
37331SOL    HW112017   6.565   8.396  11.395
37331SOL    HW212018   6.542   8.275  11.502
37332SOL     OW12019   7.090   9.055  11.216
37332SOL    HW112020   6.998   9.092  11.223
37332SOL    HW212021   7.128   9.075  11.126
37333SOL     OW12022   5.958   8.736  12.662
37333SOL    HW112023   5.945   8.829  12.628
37333SOL    HW212024   5.874   8.684  12.649
37334SOL     OW12025   7.200   8.740  12.461
37334SOL    HW112026   7.260   8.743  12.541
37334SOL    HW212027   7.125   8.804  12.474
37335SOL     OW12028   6.625   8.546  11.868
37335SOL    HW112029   6.555   8.499  11.922
37335SOL    HW212030   6.684   8.478  11.825
37336SOL     OW12031   6.600   7.684  12.143
37336SOL    HW112032   6.592   7.648  12.050
37336SOL    HW212033   6.598   7.608  12.208
37337SOL     OW12034   6.176   8.935  11.663
37337SOL    HW112035   6.218   8.877  11.593
37337SOL    HW212036   6.132   9.014  11.619
37338SOL     OW12037   7.295   7.833  12.553
37338SOL    HW112038   7.368   7.902  12.557
37338SOL    HW212039   7.323   7.758  12.494
37339SOL     OW12040   5.841   8.796  11.462
37339SOL    HW112041   5.745   8.797  11.435
37339SOL    HW212042   5.853   8.849  11.546
37340SOL     OW12043   5.691   8.461  12.898
37340SOL    HW112044   5.614   8.428  12.952
37340SOL    HW212045   5.776   8.431  12.940
37341SOL     OW12046   6.258   7.651  12.661
37341SOL    HW112047   6.348   7.635  12.621
37341SOL    HW212048   6.266   7.656  12.760
37342SOL     OW12049   5.661   7.793  11.205
37342SOL    HW112050   5.569   7.765  11.176
37342SOL    HW212051   5.692   7.870  11.149
37343SOL     OW12052   7.026   8.304  12.570
37343SOL    HW112053   6.969   8.356  12.507
37343SOL    HW212054   7.122   8.316  12.546
37344SOL     OW12055   5.658   7.614  11.490
37344SOL    HW112056   5.641   7.697  11.436
37344SOL    HW212057   5.748   7.577  11.468
37345SOL     OW12058   6.769   8.783  11.291
37345SOL    HW112059   6.670   8.772  11.293
37345SOL    HW212060   6.803   8.798  11.384
37346SOL     OW12061   6.199   8.290  12.603
37346SOL    HW112062   6.255   8.371  12.586
37346SOL    HW212063   6.258   8.210  12.606
37347SOL     OW12064   7.079   9.215  12.131
37347SOL    HW112065   7.112   9.279  12.062
37347SOL    HW212066   7.145   9.209  12.206
37348SOL     OW12067   6.302   8.013  12.880
37348SOL    HW112068   6.321   8.078  12.954
37348SOL    HW212069   6.362   7.933  12.889
37349SOL     OW12070   5.976   9.189  12.732
37349SOL    HW112071   5.885   9.230  12.730
37349SOL    HW212072   5.969   9.095  12.764
37350SOL     OW12073   7.260   8.331  12.426
37350SOL    HW112074   7.233   8.242  12.389
37350SOL    HW212075   7.261   8.399  12.353
37351SOL     OW12076   6.811   7.773  11.621
37351SOL    HW112077   6.876   7.699  11.610
37351SOL    HW212078   6.831   7.823  11.705
37352SOL     OW12079   6.180   8.193  11.824
37352SOL    HW112080   6.230   8.278  11.805
37352SOL    HW212081   6.092   8.195  11.776
37353SOL     OW12082   7.363   7.790  12.814
37353SOL    HW112083   7.346   7.821  12.720
37353SOL    HW212084   7.279   7.753  12.852
37354SOL     OW12085   7.316   8.382  12.689
37354SOL    HW112086   7.354   8.473  12.704
37354SOL    HW212087   7.308   8.365  12.590
37355SOL     OW12088   6.445   8.822  11.188
37355SOL    HW112089   6.399   8.837  11.276
37355SOL    HW212090   6.489   8.907  11.158
37356SOL     OW12091   6.247   9.238  12.125
37356SOL    HW112092   6.201   9.326  12.112
37356SOL    HW212093   6.346   9.250  12.118
37357SOL     OW12094   6.445   8.404  12.033
37357SOL    HW112095   6.499   8.335  12.081
37357SOL    HW212096   6.413   8.473  12.099
37358SOL     OW12097   6.669   8.432  11.259
37358SOL    HW112098   6.646   8.485  11.177
37358SOL    HW212099   6.750   8.376  11.240
37359SOL     OW12100   7.447   9.017  12.023
37359SOL    HW112101   7.376   9.005  11.953
37359SOL    HW212102   7.448   8.938  12.083
37360SOL     OW12103   5.665   8.688  11.825
37360SOL    HW112104   5.664   8.641  11.913
37360SOL    HW212105   5.747   8.660  11.774
37361SOL     OW12106   6.258   8.839  12.796
37361SOL    HW112107   6.180   8.789  12.834
37361SOL    HW212108   6.255   8.934  12.827
37362SOL     OW12109   7.410   7.640  12.399
37362SOL    HW112110   7.406   7.550  12.443
37362SOL    HW212111   7.413   7.629  12.300
37363SOL     OW12112   6.014   7.872  11.692
37363SOL    HW112113   6.044   7.800  11.630
37363SOL    HW212114   5.975   7.832  11.775
37364SOL     OW12115   7.291   8.935  12.276
37364SOL    HW112116   7.198   8.910  12.249
37364SOL    HW212117   7.317   8.885  12.358
37365SOL     OW12118   5.903   7.995  12.452
37365SOL    HW112119   5.941   7.936  12.524
37365SOL    HW212120   5.943   7.969  12.364
37366SOL     OW12121   6.398   9.034  11.859
37366SOL    HW112122   6.430   9.044  11.765
37366SOL    HW212123   6.319   8.972  11.861
37367SOL     OW12124   7.010   7.662  12.284
37367SOL    HW112125   7.062   7.597  12.339
37367SOL    HW212126   6.961   7.725  12.345
37368SOL     OW12127   6.587   7.482  12.326
37368SOL    HW112128   6.524   7.410  12.295
37368SOL    HW212129   6.680   7.446  12.326
37369SOL     OW12130   6.356   8.778  11.473
37369SOL    HW112131   6.310   8.691  11.490
37369SOL    HW212132   6.447   8.775  11.514
37370SOL     OW12133   6.204   9.015  12.456
37370SOL    HW112134   6.199   9.097  12.513
37370SOL    HW212135   6.293   9.012  12.411
37371SOL     OW12136   6.938   7.500  11.340
37371SOL    HW112137   6.973   7.459  11.256
37371SOL    HW212138   6.848   7.462  11.360
37372SOL     OW12139   6.886   7.901  11.863
37372SOL    HW112140   6.827   7.981  11.867
37372SOL    HW212141   6.901   7.866  11.956
37373SOL     OW12142   7.179   7.669  12.054
37373SOL    HW112143   7.095   7.668  12.108
37373SOL    HW212144   7.181   7.752  11.998
37374SOL     OW12145   5.625   8.525  11.472
37374SOL    HW112146   5.724   8.514  11.463
37374SOL    HW212147   5.585   8.439  11.504
37375SOL     OW12148   6.461   9.094  11.509
37375SOL    HW112149   6.384   9.059  11.455
37375SOL    HW212150   6.429   9.165  11.571
37376SOL     OW12151   5.816   9.938   0.113
37376SOL    HW112152   5.723   9.936   0.150
37376SOL    HW212153   5.817   9.899   0.021
37377SOL     OW12154   5.811   9.585   0.996
37377SOL    HW112155   5.846   9.568   1.088
37377SOL    HW212156   5.723   9.540   0.984
37378SOL     OW12157   5.605   9.678   0.647
37378SOL    HW112158   5.523   9.721   0.686
37378SOL    HW212159   5.577   9.605   0.584
37379SOL     OW12160   6.155  10.585   1.165
37379SOL    HW112161   6.062  10.578   1.128
37379SOL    HW212162   6.166  10.674   1.209
37380SOL     OW12163   7.141  10.821   0.703
37380SOL    HW112164   7.084  10.805   0.784
37380SOL    HW212165   7.082  10.831   0.623
37381SOL     OW12166   6.721  10.013   0.717
37381SOL    HW112167   6.778  10.091   0.692
37381SOL    HW212168   6.661  10.039   0.793
37382SOL     OW12169   7.341   9.917   0.231
37382SOL    HW112170   7.329   9.904   0.132
37382SOL    HW212171   7.311   9.836   0.280
37383SOL     OW12172   6.354  10.454   1.023
37383SOL    HW112173   6.276  10.471   1.083
37383SOL    HW212174   6.388  10.541   0.987
37384SOL     OW12175   6.436  10.108   1.823
37384SOL    HW112176   6.432  10.184   1.888
37384SOL    HW212177   6.458  10.144   1.732
37385SOL     OW12178   6.271  10.322   0.665
37385SOL    HW112179   6.340  10.306   0.735
37385SOL    HW212180   6.198  10.379   0.703
37386SOL     OW12181   6.272  10.471   1.803
37386SOL    HW112182   6.332  10.550   1.817
37386SOL    HW212183   6.186  10.502   1.762
37387SOL     OW12184   5.921  10.745   1.061
37387SOL    HW112185   5.843  10.714   1.008
37387SOL    HW212186   5.979  10.803   1.004
37388SOL     OW12187   7.046  10.815   1.339
37388SOL    HW112188   7.070  10.909   1.365
37388SOL    HW212189   7.030  10.761   1.421
37389SOL     OW12190   6.024   9.702   1.499
37389SOL    HW112191   6.106   9.646   1.508
37389SOL    HW212192   5.943   9.644   1.503
37390SOL     OW12193   7.189   9.757   0.737
37390SOL    HW112194   7.115   9.803   0.687
37390SOL    HW212195   7.240   9.825   0.790
37391SOL     OW12196   5.817  11.023   0.483
37391SOL    HW112197   5.851  11.100   0.537
37391SOL    HW212198   5.861  11.023   0.393
37392SOL     OW12199   6.713  10.651   1.690
37392SOL    HW112200   6.760  10.651   1.778
37392SOL    HW212201   6.665  10.564   1.679
37393SOL     OW12202   5.816  10.744   0.538
37393SOL    HW112203   5.790  10.840   0.538
37393SOL    HW212204   5.745  10.690   0.583
37394SOL     OW12205   5.826  10.401   0.886
37394SOL    HW112206   5.840  10.317   0.938
37394SOL    HW212207   5.771  10.465   0.941
37395SOL     OW12208   6.206  11.096   1.439
37395SOL    HW112209   6.114  11.079   1.474
37395SOL    HW212210   6.234  11.188   1.465
37396SOL     OW12211   6.192  10.274   0.123
37396SOL    HW112212   6.199  10.358   0.069
37396SOL    HW212213   6.238  10.287   0.211
37397SOL     OW12214   7.180   9.424   1.480
37397SOL    HW112215   7.162   9.491   1.408
37397SOL    HW212216   7.177   9.470   1.569
37398SOL     OW12217   5.708   9.953   0.563
37398SOL    HW112218   5.663   9.865   0.580
37398SOL    HW212219   5.707  10.007   0.647
37399SOL     OW12220   7.428  11.077   0.359
37399SOL    HW112221   7.482  11.048   0.439
37399SOL    HW212222   7.458  11.167   0.330
37400SOL     OW12223   5.613  10.906   0.117
37400SOL    HW112224   5.594  10.810   0.138
37400SOL    HW212225   5.580  10.964   0.192
37401SOL     OW12226   7.275  10.232   0.612
37401SOL    HW112227   7.370  10.203   0.620
37401SOL    HW212228   7.267  10.297   0.537
37402SOL     OW12229   7.227  10.418   0.432
37402SOL    HW112230   7.313  10.420   0.380
37402SOL    HW212231   7.241  10.465   0.520
37403SOL     OW12232   5.699  10.047   1.597
37403SOL    HW112233   5.787  10.034   1.642
37403SOL    HW212234   5.686  10.144   1.575
37404SOL     OW12235   6.199  10.675   0.726
37404SOL    HW112236   6.150  10.588   0.735
37404SOL    HW212237   6.176  10.718   0.639
37405SOL     OW12238   6.879  10.538   1.423
37405SOL    HW112239   6.916  10.465   1.365
37405SOL    HW212240   6.931  10.543   1.508
37406SOL     OW12241   6.395   9.314   0.502
37406SOL    HW112242   6.435   9.405   0.493
37406SOL    HW212243   6.295   9.322   0.508
37407SOL     OW12244   5.783  10.286   1.264
37407SOL    HW112245   5.872  10.241   1.250
37407SOL    HW212246   5.710  10.221   1.245
37408SOL     OW12247   7.111  10.309   0.190
37408SOL    HW112248   7.048  10.233   0.203
37408SOL    HW212249   7.159  10.327   0.276
37409SOL     OW12250   6.773  11.102   1.616
37409SOL    HW112251   6.797  11.162   1.540
37409SOL    HW212252   6.780  11.007   1.586
37410SOL     OW12253   5.903   9.561   1.801
37410SOL    HW112254   5.974   9.632   1.807
37410SOL    HW212255   5.815   9.600   1.829
37411SOL     OW12256   7.052  10.727   0.953
37411SOL    HW112257   6.993  10.733   1.033
37411SOL    HW212258   7.037  10.639   0.907
37412SOL     OW12259   7.253  11.024   0.572
37412SOL    HW112260   7.212  11.001   0.484
37412SOL    HW212261   7.235  10.950   0.637
37413SOL     OW12262   6.184  10.039   0.270
37413SOL    HW112263   6.208  10.108   0.202
37413SOL    HW212264   6.106  10.072   0.324
37414SOL     OW12265   6.867   9.655   0.944
37414SOL    HW112266   6.781   9.605   0.931
37414SOL    HW212267   6.929   9.601   1.000
37415SOL     OW12268   7.162  10.972   0.307
37415SOL    HW112269   7.251  11.018   0.310
37415SOL    HW212270   7.141  10.948   0.212
37416SOL     OW12271   6.393   9.915   1.465
37416SOL    HW112272   6.346   9.912   1.554
37416SOL    HW212273   6.342   9.860   1.399
37417SOL     OW12274   6.980   9.779   1.674
37417SOL    HW112275   6.960   9.822   1.762
37417SOL    HW212276   7.058   9.717   1.683
37418SOL     OW12277   6.559  10.200   1.572
37418SOL    HW112278   6.605  10.116   1.543
37418SOL    HW212279   6.503  10.234   1.497
37419SOL     OW12280   6.577   9.720   1.242
37419SOL    HW112281   6.500   9.754   1.296
37419SOL    HW212282   6.543   9.669   1.163
37420SOL     OW12283   6.627  10.011   0.429
37420SOL    HW112284   6.653  10.007   0.525
37420SOL    HW212285   6.542   9.960   0.415
37421SOL     OW12286   5.662  10.121   0.789
37421SOL    HW112287   5.761  10.109   0.798
37421SOL    HW212288   5.638  10.216   0.810
37422SOL     OW12289   5.716  11.131   1.571
37422SOL    HW112290   5.706  11.116   1.670
37422SOL    HW212291   5.630  11.167   1.535
37423SOL     OW12292   6.451   9.658   0.195
37423SOL    HW112293   6.510   9.721   0.146
37423SOL    HW212294   6.470   9.564   0.166
37424SOL     OW12295   7.305   9.895   1.831
37424SOL    HW112296   7.279   9.984   1.795
37424SOL    HW212297   7.303   9.827   1.758
37425SOL     OW12298   6.948  10.454   0.545
37425SOL    HW112299   7.031  10.425   0.497
37425SOL    HW212300   6.899  10.521   0.489
37426SOL     OW12301   6.136   9.506   0.885
37426SOL    HW112302   6.131   9.501   0.985
37426SOL    HW212303   6.138   9.602   0.856
37427SOL     OW12304   6.594  10.766   0.477
37427SOL    HW112305   6.548  10.838   0.425
37427SOL    HW212306   6.590  10.786   0.575
37428SOL     OW12307   5.937  11.111   0.853
37428SOL    HW112308   5.987  11.025   0.859
37428SOL    HW212309   6.002  11.188   0.850
37429SOL     OW12310   7.381  10.376   0.873
37429SOL    HW112311   7.319  10.361   0.797
37429SOL    HW212312   7.329  10.387   0.958
37430SOL     OW12313   6.813  10.860   1.506
37430SOL    HW112314   6.819  10.783   1.570
37430SOL    HW212315   6.761  10.834   1.426
37431SOL     OW12316   5.907  10.253   0.242
37431SOL    HW112317   5.989  10.292   0.200
37431SOL    HW212318   5.880  10.171   0.193
37432SOL     OW12319   7.044  10.045   0.728
37432SOL    HW112320   7.039   9.980   0.803
37432SOL    HW212321   7.124  10.104   0.741
37433SOL     OW12322   6.047  10.576   1.727
37433SOL    HW112323   5.997  10.577   1.641
37433SOL    HW212324   5.984  10.558   1.803
37434SOL     OW12325   6.697  11.086   0.237
37434SOL    HW112326   6.637  11.024   0.287
37434SOL    HW212327   6.728  11.042   0.152
37435SOL     OW12328   5.788   9.595   1.498
37435SOL    HW112329   5.708   9.655   1.485
37435SOL    HW212330   5.778   9.546   1.584
37436SOL     OW12331   7.218  10.687   0.081
37436SOL    HW112332   7.186  10.781   0.071
37436SOL    HW212333   7.142  10.624   0.069
37437SOL     OW12334   6.050  11.053   0.323
37437SOL    HW112335   6.083  11.092   0.409
37437SOL    HW212336   6.126  11.046   0.258
37438SOL     OW12337   6.986   9.417   0.426
37438SOL    HW112338   6.962   9.380   0.336
37438SOL    HW212339   7.085   9.433   0.430
37439SOL     OW12340   5.835  11.095   1.241
37439SOL    HW112341   5.892  11.030   1.291
37439SOL    HW212342   5.819  11.062   1.148
37440SOL     OW12343   6.526  11.008   0.904
37440SOL    HW112344   6.606  10.951   0.925
37440SOL    HW212345   6.477  10.968   0.827
37441SOL     OW12346   5.968  10.010   0.480
37441SOL    HW112347   6.013   9.920   0.477
37441SOL    HW212348   5.874   9.999   0.513
37442SOL     OW12349   7.133   9.532   1.729
37442SOL    HW112350   7.128   9.569   1.821
37442SOL    HW212351   7.061   9.463   1.717
37443SOL     OW12352   6.200   9.432   0.117
37443SOL    HW112353   6.298   9.410   0.124
37443SOL    HW212354   6.169   9.415   0.024
37444SOL     OW12355   6.367   9.574   1.749
37444SOL    HW112356   6.434   9.513   1.792
37444SOL    HW212357   6.294   9.593   1.814
37445SOL     OW12358   6.474  10.824   1.195
37445SOL    HW112359   6.451  10.799   1.101
37445SOL    HW212360   6.535  10.755   1.234
37446SOL     OW12361   6.937   9.900   1.433
37446SOL    HW112362   6.965   9.857   1.518
37446SOL    HW212363   6.962   9.996   1.434
37447SOL     OW12364   6.389  10.712   0.924
37447SOL    HW112365   6.479  10.726   0.882
37447SOL    HW212366   6.318  10.714   0.853
37448SOL     OW12367   6.508   9.813   0.899
37448SOL    HW112368   6.483   9.804   0.803
37448SOL    HW212369   6.556   9.731   0.930
37449SOL     OW12370   6.125   9.374   0.512
37449SOL    HW112371   6.044   9.375   0.570
37449SOL    HW212372   6.128   9.457   0.457
37450SOL     OW12373   7.020  10.498   0.041
37450SOL    HW112374   7.052  10.422   0.098
37450SOL    HW212375   6.928  10.525   0.071
37451SOL     OW12376   5.883   9.345   0.171
37451SOL    HW112377   5.932   9.429   0.150
37451SOL    HW212378   5.945   9.280   0.216
37452SOL     OW12379   6.521   9.546   0.480
37452SOL    HW112380   6.473   9.587   0.402
37452SOL    HW212381   6.620   9.544   0.461
37453SOL     OW12382   6.662   9.993   1.464
37453SOL    HW112383   6.582   9.932   1.467
37453SOL    HW212384   6.743   9.940   1.440
37454SOL     OW12385   6.813  10.880   0.793
37454SOL    HW112386   6.834  10.954   0.728
37454SOL    HW212387   6.881  10.880   0.866
37455SOL     OW12388   6.045  10.462   0.741
37455SOL    HW112389   5.974  10.435   0.806
37455SOL    HW212390   6.019  10.434   0.648
37456SOL     OW12391   6.857  11.107   0.591
37456SOL    HW112392   6.901  11.171   0.527
37456SOL    HW212393   6.807  11.159   0.661
37457SOL     OW12394   6.618   9.859   0.016
37457SOL    HW112395   6.577   9.941  -0.023
37457SOL    HW212396   6.682   9.885   0.089
37458SOL     OW12397   5.664   9.866   1.386
37458SOL    HW112398   5.756   9.865   1.345
37458SOL    HW212399   5.658   9.940   1.453
37459SOL     OW12400   6.147   9.532   1.147
37459SOL    HW112401   6.185   9.448   1.184
37459SOL    HW212402   6.059   9.551   1.191
37460SOL     OW12403   6.452   9.764   0.642
37460SOL    HW112404   6.420   9.836   0.580
37460SOL    HW212405   6.476   9.683   0.589
37461SOL     OW12406   6.603   9.349   0.753
37461SOL    HW112407   6.531   9.354   0.684
37461SOL    HW212408   6.579   9.280   0.822
37462SOL     OW12409   7.015  10.483   0.867
37462SOL    HW112410   6.960  10.399   0.860
37462SOL    HW212411   7.041  10.512   0.775
37463SOL     OW12412   7.052   9.900   0.992
37463SOL    HW112413   7.022   9.805   0.999
37463SOL    HW212414   7.125   9.916   1.058
37464SOL     OW12415   7.443  10.143   0.377
37464SOL    HW112416   7.485  10.079   0.441
37464SOL    HW212417   7.405  10.092   0.299
37465SOL     OW12418   6.074  10.695   0.174
37465SOL    HW112419   5.987  10.680   0.221
37465SOL    HW212420   6.057  10.721   0.079
37466SOL     OW12421   7.250  10.590   0.657
37466SOL    HW112422   7.349  10.598   0.671
37466SOL    HW212423   7.205  10.674   0.688
37467SOL     OW12424   6.976   9.885   0.078
37467SOL    HW112425   6.922   9.864   0.159
37467SOL    HW212426   7.067   9.844   0.087
37468SOL     OW12427   6.113   9.566   0.328
37468SOL    HW112428   6.140   9.507   0.253
37468SOL    HW212429   6.113   9.661   0.297
37469SOL     OW12430   7.340  10.533   1.588
37469SOL    HW112431   7.431  10.494   1.575
37469SOL    HW212432   7.348  10.629   1.612
37470SOL     OW12433   6.650  10.657   1.340
37470SOL    HW112434   6.570  10.634   1.395
37470SOL    HW212435   6.733  10.631   1.389
37471SOL     OW12436   7.178  10.939   1.625
37471SOL    HW112437   7.205  10.973   1.535
37471SOL    HW212438   7.257  10.901   1.671
37472SOL     OW12439   6.697  10.505   1.100
37472SOL    HW112440   6.657  10.549   1.181
37472SOL    HW212441   6.656  10.542   1.017
37473SOL     OW12442   7.224  10.409   1.079
37473SOL    HW112443   7.229  10.490   1.138
37473SOL    HW212444   7.138  10.411   1.028
37474SOL     OW12445   6.501   9.399   1.402
37474SOL    HW112446   6.526   9.379   1.307
37474SOL    HW212447   6.573   9.455   1.444
37475SOL     OW12448   6.566  10.426   1.719
37475SOL    HW112449   6.467  10.432   1.729
37475SOL    HW212450   6.589  10.346   1.663
37476SOL     OW12451   6.291  10.360   0.368
37476SOL    HW112452   6.277  10.367   0.467
37476SOL    HW212453   6.375  10.309   0.350
37477SOL     OW12454   5.996  10.123   1.251
37477SOL    HW112455   6.082  10.135   1.301
37477SOL    HW212456   5.954  10.036   1.278
37478SOL     OW12457   6.860   9.696   1.262
37478SOL    HW112458   6.881   9.770   1.326
37478SOL    HW212459   6.771   9.713   1.219
37479SOL     OW12460   5.650  10.874   1.331
37479SOL    HW112461   5.604  10.956   1.297
37479SOL    HW212462   5.748  10.893   1.340
37480SOL     OW12463   5.953  10.410   0.501
37480SOL    HW112464   5.946  10.493   0.445
37480SOL    HW212465   5.957  10.330   0.441
37481SOL     OW12466   6.152   9.847   0.865
37481SOL    HW112467   6.164   9.913   0.791
37481SOL    HW212468   6.198   9.881   0.948
37482SOL     OW12469   6.838  10.658   0.388
37482SOL    HW112470   6.888  10.735   0.428
37482SOL    HW212471   6.743  10.660   0.420
37483SOL     OW12472   6.858  10.755   1.142
37483SOL    HW112473   6.905  10.768   1.229
37483SOL    HW212474   6.792  10.681   1.151
37484SOL     OW12475   7.168   9.949   0.472
37484SOL    HW112476   7.137  10.010   0.545
37484SOL    HW212477   7.218  10.001   0.403
37485SOL     OW12478   5.940  10.820   1.329
37485SOL    HW112479   5.919  10.776   1.242
37485SOL    HW212480   6.037  10.846   1.332
37486SOL     OW12481   5.988  10.061   1.598
37486SOL    HW112482   6.056  10.116   1.551
37486SOL    HW212483   6.028   9.973   1.625
37487SOL     OW12484   7.173  10.089   1.670
37487SOL    HW112485   7.081  10.127   1.665
37487SOL    HW212486   7.233  10.136   1.605
37488SOL     OW12487   6.599   9.415   1.770
37488SOL    HW112488   6.605   9.500   1.718
37488SOL    HW212489   6.631   9.339   1.713
37489SOL     OW12490   6.090   9.360   1.740
37489SOL    HW112491   6.048   9.303   1.670
37489SOL    HW212492   6.024   9.429   1.772
37490SOL     OW12493   6.159  10.180   1.029
37490SOL    HW112494   6.203  10.269   1.020
37490SOL    HW212495   6.096  10.180   1.106
37491SOL     OW12496   6.946  10.172   1.045
37491SOL    HW112497   6.871  10.172   0.979
37491SOL    HW212498   6.983  10.080   1.054
37492SOL     OW12499   6.795   9.835   0.275
37492SOL    HW112500   6.808   9.751   0.329
37492SOL    HW212501   6.766   9.909   0.335
37493SOL     OW12502   5.893   9.523   1.231
37493SOL    HW112503   5.870   9.560   1.321
37493SOL    HW212504   5.863   9.428   1.225
37494SOL     OW12505   5.623  10.620   1.282
37494SOL    HW112506   5.676  10.571   1.350
37494SOL    HW212507   5.645  10.718   1.287
37495SOL     OW12508   6.318   9.944   1.064
37495SOL    HW112509   6.377   9.918   0.988
37495SOL    HW212510   6.290  10.040   1.053
37496SOL     OW12511   7.314  10.245   1.854
37496SOL    HW112512   7.268  10.238   1.765
37496SOL    HW212513   7.252  10.289   1.920
37497SOL     OW12514   5.893   9.373   0.618
37497SOL    HW112515   5.882   9.467   0.651
37497SOL    HW212516   5.888   9.310   0.695
37498SOL     OW12517   7.208   9.677   0.374
37498SOL    HW112518   7.210   9.601   0.438
37498SOL    HW212519   7.160   9.754   0.414
37499SOL     OW12520   6.609  10.076   0.966
37499SOL    HW112521   6.624  10.097   1.062
37499SOL    HW212522   6.579   9.981   0.957
37500SOL     OW12523   6.566  10.883   1.700
37500SOL    HW112524   6.546  10.927   1.612
37500SOL    HW212525   6.605  10.792   1.684
37501SOL     OW12526   7.445  10.828   1.605
37501SOL    HW112527   7.459  10.855   1.510
37501SOL    HW212528   7.528  10.850   1.658
37502SOL     OW12529   5.936  10.208   1.804
37502SOL    HW112530   6.012  10.252   1.852
37502SOL    HW212531   5.971  10.161   1.722
37503SOL     OW12532   7.126   9.584   0.125
37503SOL    HW112533   7.065   9.509   0.148
37503SOL    HW212534   7.148   9.636   0.208
37504SOL     OW12535   6.889  10.148   0.042
37504SOL    HW112536   6.923  10.055   0.057
37504SOL    HW212537   6.907  10.175  -0.053
37505SOL     OW12538   6.654  10.643   0.849
37505SOL    HW112539   6.661  10.559   0.794
37505SOL    HW212540   6.716  10.712   0.813
37506SOL     OW12541   5.905  10.120   0.949
37506SOL    HW112542   5.998  10.156   0.954
37506SOL    HW212543   5.899  10.035   1.001
37507SOL     OW12544   5.925   9.819   1.006
37507SOL    HW112545   5.873   9.736   0.989
37507SOL    HW212546   6.002   9.824   0.942
37508SOL     OW12547   6.724   9.690   1.678
37508SOL    HW112548   6.679   9.753   1.742
37508SOL    HW212549   6.817   9.721   1.661
37509SOL     OW12550   6.746   9.517   1.477
37509SOL    HW112551   6.746   9.581   1.554
37509SOL    HW212552   6.774   9.565   1.394
37510SOL     OW12553   5.594  10.636   0.200
37510SOL    HW112554   5.501  10.657   0.169
37510SOL    HW212555   5.604  10.537   0.213
37511SOL     OW12556   5.674  11.111   0.927
37511SOL    HW112557   5.632  11.025   0.900
37511SOL    HW212558   5.768  11.114   0.893
37512SOL     OW12559   6.090  10.878   0.910
37512SOL    HW112560   6.156  10.952   0.919
37512SOL    HW212561   6.134  10.799   0.868
37513SOL     OW12562   6.588  10.106   1.238
37513SOL    HW112563   6.629  10.074   1.324
37513SOL    HW212564   6.492  10.079   1.235
37514SOL     OW12565   5.626   9.854   1.114
37514SOL    HW112566   5.711   9.821   1.073
37514SOL    HW212567   5.639   9.869   1.212
37515SOL     OW12568   5.775   9.830   1.722
37515SOL    HW112569   5.834   9.790   1.652
37515SOL    HW212570   5.717   9.901   1.681
37516SOL     OW12571   6.955  10.260   1.660
37516SOL    HW112572   6.994  10.349   1.680
37516SOL    HW212573   6.965  10.240   1.563
37517SOL     OW12574   6.401   9.882   0.325
37517SOL    HW112575   6.408   9.793   0.279
37517SOL    HW212576   6.307   9.916   0.317
37518SOL     OW12577   7.243   9.914   1.206
37518SOL    HW112578   7.205   9.845   1.268
37518SOL    HW212579   7.325   9.878   1.162
37519SOL     OW12580   5.838  10.874   1.744
37519SOL    HW112581   5.808  10.931   1.820
37519SOL    HW212582   5.831  10.777   1.770
37520SOL     OW12583   6.257   9.774   1.269
37520SOL    HW112584   6.223   9.685   1.239
37520SOL    HW212585   6.283   9.828   1.189
37521SOL     OW12586   6.516  10.988   1.465
37521SOL    HW112587   6.492  10.970   1.370
37521SOL    HW212588   6.546  11.082   1.475
37522SOL     OW12589   6.059   9.810   0.191
37522SOL    HW112590   6.120   9.890   0.195
37522SOL    HW212591   5.964   9.841   0.198
37523SOL     OW12592   5.745  10.447   1.466
37523SOL    HW112593   5.767  10.386   1.542
37523SOL    HW212594   5.755  10.398   1.380
37524SOL     OW12595   6.933  10.369   1.234
37524SOL    HW112596   6.957  10.306   1.160
37524SOL    HW212597   6.843  10.409   1.216
37525SOL     OW12598   6.888  10.165   0.309
37525SOL    HW112599   6.802  10.134   0.351
37525SOL    HW212600   6.884  10.151   0.210
37526SOL     OW12601   7.345  11.057   1.154
37526SOL    HW112602   7.406  11.087   1.081
37526SOL    HW212603   7.307  10.968   1.132
37527SOL     OW12604   6.838  11.041   1.128
37527SOL    HW112605   6.922  11.046   1.074
37527SOL    HW212606   6.815  10.945   1.146
37528SOL     OW12607   5.669  10.568   1.022
37528SOL    HW112608   5.664  10.567   1.122
37528SOL    HW212609   5.586  10.527   0.984
37529SOL     OW12610   6.274  10.972   1.716
37529SOL    HW112611   6.218  11.053   1.725
37529SOL    HW212612   6.326  10.976   1.630
37530SOL     OW12613   6.489   9.396   0.133
37530SOL    HW112614   6.540   9.397   0.047
37530SOL    HW212615   6.545   9.354   0.204
37531SOL     OW12616   7.312   9.445   0.523
37531SOL    HW112617   7.385   9.428   0.456
37531SOL    HW212618   7.281   9.358   0.561
37532SOL     OW12619   6.974  10.883   0.477
37532SOL    HW112620   7.041  10.895   0.403
37532SOL    HW212621   6.934  10.972   0.500
37533SOL     OW12622   5.716  11.104   1.851
37533SOL    HW112623   5.675  11.030   1.904
37533SOL    HW212624   5.780  11.155   1.909
37534SOL     OW12625   6.866  10.237   0.672
37534SOL    HW112626   6.926  10.156   0.674
37534SOL    HW212627   6.906  10.306   0.612
37535SOL     OW12628   6.416  10.583   1.422
37535SOL    HW112629   6.411  10.616   1.517
37535SOL    HW212630   6.330  10.602   1.376
37536SOL     OW12631   6.258  10.926   0.154
37536SOL    HW112632   6.267  10.936   0.055
37536SOL    HW212633   6.218  10.837   0.175
37537SOL     OW12634   7.236  11.030   1.394
37537SOL    HW112635   7.289  11.040   1.310
37537SOL    HW212636   7.209  11.120   1.428
37538SOL     OW12637   7.427   9.485   0.963
37538SOL    HW112638   7.466   9.400   0.927
37538SOL    HW212639   7.329   9.487   0.944
37539SOL     OW12640   5.849   9.636   0.720
37539SOL    HW112641   5.770   9.687   0.686
37539SOL    HW212642   5.840   9.621   0.818
37540SOL     OW12643   6.780  10.922   0.031
37540SOL    HW112644   6.786  10.829   0.068
37540SOL    HW212645   6.721  10.922  -0.049
37541SOL     OW12646   6.408  10.312   1.372
37541SOL    HW112647   6.448  10.311   1.280
37541SOL    HW212648   6.418  10.404   1.412
37542SOL     OW12649   6.502  10.220   0.291
37542SOL    HW112650   6.565  10.258   0.223
37542SOL    HW212651   6.542  10.137   0.330
37543SOL     OW12652   7.090  10.917   0.044
37543SOL    HW112653   6.998  10.954   0.051
37543SOL    HW212654   7.128  10.937  -0.046
37544SOL     OW12655   5.958  10.598   1.490
37544SOL    HW112656   5.945  10.691   1.456
37544SOL    HW212657   5.874  10.546   1.477
37545SOL     OW12658   7.200  10.602   1.289
37545SOL    HW112659   7.260  10.605   1.369
37545SOL    HW212660   7.125  10.666   1.302
37546SOL     OW12661   6.625  10.408   0.696
37546SOL    HW112662   6.555  10.361   0.750
37546SOL    HW212663   6.684  10.340   0.653
37547SOL     OW12664   6.600   9.546   0.971
37547SOL    HW112665   6.592   9.510   0.878
37547SOL    HW212666   6.598   9.470   1.036
37548SOL     OW12667   6.176  10.797   0.491
37548SOL    HW112668   6.218  10.739   0.421
37548SOL    HW212669   6.132  10.876   0.447
37549SOL     OW12670   7.295   9.695   1.381
37549SOL    HW112671   7.368   9.764   1.385
37549SOL    HW212672   7.323   9.620   1.322
37550SOL     OW12673   5.841  10.658   0.290
37550SOL    HW112674   5.745  10.659   0.263
37550SOL    HW212675   5.853  10.711   0.374
37551SOL     OW12676   5.691  10.323   1.726
37551SOL    HW112677   5.614  10.290   1.780
37551SOL    HW212678   5.776  10.293   1.768
37552SOL     OW12679   6.258   9.513   1.489
37552SOL    HW112680   6.348   9.497   1.449
37552SOL    HW212681   6.266   9.518   1.588
37553SOL     OW12682   5.661   9.655   0.033
37553SOL    HW112683   5.569   9.627   0.004
37553SOL    HW212684   5.692   9.732  -0.023
37554SOL     OW12685   7.026  10.166   1.398
37554SOL    HW112686   6.969  10.218   1.335
37554SOL    HW212687   7.122  10.178   1.374
37555SOL     OW12688   5.658   9.476   0.318
37555SOL    HW112689   5.641   9.559   0.264
37555SOL    HW212690   5.748   9.439   0.296
37556SOL     OW12691   6.769  10.645   0.119
37556SOL    HW112692   6.670  10.634   0.121
37556SOL    HW212693   6.803  10.660   0.212
37557SOL     OW12694   6.199  10.152   1.431
37557SOL    HW112695   6.255  10.233   1.414
37557SOL    HW212696   6.258  10.072   1.434
37558SOL     OW12697   7.079  11.077   0.959
37558SOL    HW112698   7.112  11.141   0.890
37558SOL    HW212699   7.145  11.071   1.034
37559SOL     OW12700   6.302   9.875   1.708
37559SOL    HW112701   6.321   9.940   1.782
37559SOL    HW212702   6.362   9.795   1.717
37560SOL     OW12703   7.036  10.530   1.633
37560SOL    HW112704   7.027  10.520   1.732
37560SOL    HW212705   7.132  10.523   1.607
37561SOL     OW12706   5.976  11.051   1.560
37561SOL    HW112707   5.885  11.092   1.558
37561SOL    HW212708   5.969  10.957   1.592
37562SOL     OW12709   7.260  10.193   1.254
37562SOL    HW112710   7.233  10.104   1.217
37562SOL    HW212711   7.261  10.261   1.181
37563SOL     OW12712   6.811   9.635   0.449
37563SOL    HW112713   6.876   9.561   0.438
37563SOL    HW212714   6.831   9.685   0.533
37564SOL     OW12715   6.180  10.055   0.652
37564SOL    HW112716   6.230  10.140   0.633
37564SOL    HW212717   6.092  10.057   0.604
37565SOL     OW12718   7.363   9.652   1.642
37565SOL    HW112719   7.346   9.683   1.548
37565SOL    HW212720   7.279   9.615   1.680
37566SOL     OW12721   7.316  10.244   1.517
37566SOL    HW112722   7.354  10.335   1.532
37566SOL    HW212723   7.308  10.227   1.418
37567SOL     OW12724   6.445  10.684   0.016
37567SOL    HW112725   6.399  10.699   0.104
37567SOL    HW212726   6.489  10.769  -0.014
37568SOL     OW12727   6.247  11.100   0.953
37568SOL    HW112728   6.201  11.188   0.940
37568SOL    HW212729   6.346  11.112   0.946
37569SOL     OW12730   6.445  10.266   0.861
37569SOL    HW112731   6.499  10.197   0.909
37569SOL    HW212732   6.413  10.335   0.927
37570SOL     OW12733   6.669  10.294   0.087
37570SOL    HW112734   6.646  10.347   0.005
37570SOL    HW212735   6.750  10.238   0.068
37571SOL     OW12736   7.447  10.879   0.851
37571SOL    HW112737   7.376  10.867   0.781
37571SOL    HW212738   7.448  10.800   0.911
37572SOL     OW12739   5.807  10.624   1.844
37572SOL    HW112740   5.742  10.551   1.823
37572SOL    HW212741   5.811  10.638   1.942
37573SOL     OW12742   5.665  10.550   0.653
37573SOL    HW112743   5.664  10.503   0.741
37573SOL    HW212744   5.747  10.522   0.602
37574SOL     OW12745   6.258  10.701   1.624
37574SOL    HW112746   6.180  10.651   1.662
37574SOL    HW212747   6.255  10.796   1.655
37575SOL     OW12748   7.410   9.502   1.227
37575SOL    HW112749   7.406   9.412   1.271
37575SOL    HW212750   7.413   9.491   1.128
37576SOL     OW12751   6.014   9.734   0.520
37576SOL    HW112752   6.044   9.662   0.458
37576SOL    HW212753   5.975   9.694   0.603
37577SOL     OW12754   7.291  10.797   1.104
37577SOL    HW112755   7.198  10.772   1.077
37577SOL    HW212756   7.317  10.747   1.186
37578SOL     OW12757   5.903   9.857   1.280
37578SOL    HW112758   5.941   9.798   1.352
37578SOL    HW212759   5.943   9.831   1.192
37579SOL     OW12760   6.398  10.896   0.687
37579SOL    HW112761   6.430  10.906   0.593
37579SOL    HW212762   6.319  10.834   0.689
37580SOL     OW12763   7.010   9.524   1.112
37580SOL    HW112764   7.062   9.459   1.167
37580SOL    HW212765   6.961   9.587   1.173
37581SOL     OW12766   6.587   9.344   1.154
37581SOL    HW112767   6.524   9.272   1.123
37581SOL    HW212768   6.680   9.308   1.154
37582SOL     OW12769   6.356  10.640   0.301
37582SOL    HW112770   6.310  10.553   0.318
37582SOL    HW212771   6.447  10.637   0.342
37583SOL     OW12772   6.204  10.877   1.284
37583SOL    HW112773   6.199  10.959   1.341
37583SOL    HW212774   6.293  10.874   1.239
37584SOL     OW12775   6.938   9.362   0.168
37584SOL    HW112776   6.973   9.321   0.084
37584SOL    HW212777   6.848   9.324   0.188
37585SOL     OW12778   6.886   9.763   0.691
37585SOL    HW112779   6.827   9.843   0.695
37585SOL    HW212780   6.901   9.728   0.784
37586SOL     OW12781   7.179   9.531   0.882
37586SOL    HW112782   7.095   9.530   0.936
37586SOL    HW212783   7.181   9.614   0.826
37587SOL     OW12784   5.625  10.387   0.300
37587SOL    HW112785   5.724  10.376   0.291
37587SOL    HW212786   5.585  10.301   0.332
37588SOL     OW12787   6.461  10.956   0.337
37588SOL    HW112788   6.384  10.921   0.283
37588SOL    HW212789   6.429  11.027   0.399
37589SOL     OW12790   5.816   9.938   1.975
37589SOL    HW112791   5.723   9.936   2.012
37589SOL    HW212792   5.817   9.899   1.883
37590SOL     OW12793   5.811   9.585   2.858
37590SOL    HW112794   5.846   9.568   2.950
37590SOL    HW212795   5.723   9.540   2.846
37591SOL     OW12796   5.605   9.678   2.509
37591SOL    HW112797   5.523   9.721   2.548
37591SOL    HW212798   5.577   9.605   2.446
37592SOL     OW12799   6.155  10.585   3.027
37592SOL    HW112800   6.062  10.578   2.990
37592SOL    HW212801   6.166  10.674   3.071
37593SOL     OW12802   7.141  10.821   2.565
37593SOL    HW112803   7.084  10.805   2.646
37593SOL    HW212804   7.082  10.831   2.485
37594SOL     OW12805   6.721  10.013   2.579
37594SOL    HW112806   6.778  10.091   2.554
37594SOL    HW212807   6.661  10.039   2.655
37595SOL     OW12808   7.341   9.917   2.093
37595SOL    HW112809   7.329   9.904   1.994
37595SOL    HW212810   7.311   9.836   2.142
37596SOL     OW12811   6.354  10.454   2.885
37596SOL    HW112812   6.276  10.471   2.945
37596SOL    HW212813   6.388  10.541   2.849
37597SOL     OW12814   6.436  10.108   3.685
37597SOL    HW112815   6.432  10.184   3.750
37597SOL    HW212816   6.458  10.144   3.594
37598SOL     OW12817   6.271  10.322   2.527
37598SOL    HW112818   6.340  10.306   2.597
37598SOL    HW212819   6.198  10.379   2.565
37599SOL     OW12820   6.272  10.471   3.665
37599SOL    HW112821   6.332  10.550   3.679
37599SOL    HW212822   6.186  10.502   3.624
37600SOL     OW12823   5.921  10.745   2.923
37600SOL    HW112824   5.843  10.714   2.870
37600SOL    HW212825   5.979  10.803   2.866
37601SOL     OW12826   7.046  10.815   3.201
37601SOL    HW112827   7.070  10.909   3.227
37601SOL    HW212828   7.030  10.761   3.283
37602SOL     OW12829   6.024   9.702   3.361
37602SOL    HW112830   6.106   9.646   3.370
37602SOL    HW212831   5.943   9.644   3.365
37603SOL     OW12832   7.189   9.757   2.599
37603SOL    HW112833   7.115   9.803   2.549
37603SOL    HW212834   7.240   9.825   2.652
37604SOL     OW12835   5.817  11.023   2.345
37604SOL    HW112836   5.851  11.100   2.399
37604SOL    HW212837   5.861  11.023   2.255
37605SOL     OW12838   6.713  10.651   3.552
37605SOL    HW112839   6.760  10.651   3.640
37605SOL    HW212840   6.665  10.564   3.541
37606SOL     OW12841   5.816  10.744   2.400
37606SOL    HW112842   5.790  10.840   2.400
37606SOL    HW212843   5.745  10.690   2.445
37607SOL     OW12844   5.826  10.401   2.748
37607SOL    HW112845   5.840  10.317   2.800
37607SOL    HW212846   5.771  10.465   2.803
37608SOL     OW12847   6.206  11.096   3.301
37608SOL    HW112848   6.114  11.079   3.336
37608SOL    HW212849   6.234  11.188   3.327
37609SOL     OW12850   6.192  10.274   1.985
37609SOL    HW112851   6.199  10.358   1.931
37609SOL    HW212852   6.238  10.287   2.073
37610SOL     OW12853   7.180   9.424   3.342
37610SOL    HW112854   7.162   9.491   3.270
37610SOL    HW212855   7.177   9.470   3.431
37611SOL     OW12856   5.708   9.953   2.425
37611SOL    HW112857   5.663   9.865   2.442
37611SOL    HW212858   5.707  10.007   2.509
37612SOL     OW12859   7.428  11.077   2.221
37612SOL    HW112860   7.482  11.048   2.301
37612SOL    HW212861   7.458  11.167   2.192
37613SOL     OW12862   5.613  10.906   1.979
37613SOL    HW112863   5.594  10.810   2.000
37613SOL    HW212864   5.580  10.964   2.054
37614SOL     OW12865   7.275  10.232   2.474
37614SOL    HW112866   7.370  10.203   2.482
37614SOL    HW212867   7.267  10.297   2.399
37615SOL     OW12868   7.227  10.418   2.294
37615SOL    HW112869   7.313  10.420   2.242
37615SOL    HW212870   7.241  10.465   2.382
37616SOL     OW12871   5.699  10.047   3.459
37616SOL    HW112872   5.787  10.034   3.504
37616SOL    HW212873   5.686  10.144   3.437
37617SOL     OW12874   6.199  10.675   2.588
37617SOL    HW112875   6.150  10.588   2.597
37617SOL    HW212876   6.176  10.718   2.501
37618SOL     OW12877   6.879  10.538   3.285
37618SOL    HW112878   6.916  10.465   3.227
37618SOL    HW212879   6.931  10.543   3.370
37619SOL     OW12880   6.395   9.314   2.364
37619SOL    HW112881   6.435   9.405   2.355
37619SOL    HW212882   6.295   9.322   2.370
37620SOL     OW12883   5.783  10.286   3.126
37620SOL    HW112884   5.872  10.241   3.112
37620SOL    HW212885   5.710  10.221   3.107
37621SOL     OW12886   7.111  10.309   2.052
37621SOL    HW112887   7.048  10.233   2.065
37621SOL    HW212888   7.159  10.327   2.138
37622SOL     OW12889   6.773  11.102   3.478
37622SOL    HW112890   6.797  11.162   3.402
37622SOL    HW212891   6.780  11.007   3.448
37623SOL     OW12892   5.903   9.561   3.663
37623SOL    HW112893   5.974   9.632   3.669
37623SOL    HW212894   5.815   9.600   3.691
37624SOL     OW12895   7.052  10.727   2.815
37624SOL    HW112896   6.993  10.733   2.895
37624SOL    HW212897   7.037  10.639   2.769
37625SOL     OW12898   7.253  11.024   2.434
37625SOL    HW112899   7.212  11.001   2.346
37625SOL    HW212900   7.235  10.950   2.499
37626SOL     OW12901   6.184  10.039   2.132
37626SOL    HW112902   6.208  10.108   2.064
37626SOL    HW212903   6.106  10.072   2.186
37627SOL     OW12904   6.867   9.655   2.806
37627SOL    HW112905   6.781   9.605   2.793
37627SOL    HW212906   6.929   9.601   2.862
37628SOL     OW12907   7.162  10.972   2.169
37628SOL    HW112908   7.251  11.018   2.172
37628SOL    HW212909   7.141  10.948   2.074
37629SOL     OW12910   6.393   9.915   3.327
37629SOL    HW112911   6.346   9.912   3.416
37629SOL    HW212912   6.342   9.860   3.261
37630SOL     OW12913   6.980   9.779   3.536
37630SOL    HW112914   6.960   9.822   3.624
37630SOL    HW212915   7.058   9.717   3.545
37631SOL     OW12916   6.559  10.200   3.434
37631SOL    HW112917   6.605  10.116   3.405
37631SOL    HW212918   6.503  10.234   3.359
37632SOL     OW12919   6.577   9.720   3.104
37632SOL    HW112920   6.500   9.754   3.158
37632SOL    HW212921   6.543   9.669   3.025
37633SOL     OW12922   6.627  10.011   2.291
37633SOL    HW112923   6.653  10.007   2.387
37633SOL    HW212924   6.542   9.960   2.277
37634SOL     OW12925   5.662  10.121   2.651
37634SOL    HW112926   5.761  10.109   2.660
37634SOL    HW212927   5.638  10.216   2.672
37635SOL     OW12928   5.716  11.131   3.433
37635SOL    HW112929   5.706  11.116   3.532
37635SOL    HW212930   5.630  11.167   3.397
37636SOL     OW12931   6.451   9.658   2.057
37636SOL    HW112932   6.510   9.721   2.008
37636SOL    HW212933   6.470   9.564   2.028
37637SOL     OW12934   7.305   9.895   3.693
37637SOL    HW112935   7.279   9.984   3.657
37637SOL    HW212936   7.303   9.827   3.620
37638SOL     OW12937   6.948  10.454   2.407
37638SOL    HW112938   7.031  10.425   2.359
37638SOL    HW212939   6.899  10.521   2.351
37639SOL     OW12940   6.136   9.506   2.747
37639SOL    HW112941   6.131   9.501   2.847
37639SOL    HW212942   6.138   9.602   2.718
37640SOL     OW12943   6.594  10.766   2.339
37640SOL    HW112944   6.548  10.838   2.287
37640SOL    HW212945   6.590  10.786   2.437
37641SOL     OW12946   5.937  11.111   2.715
37641SOL    HW112947   5.987  11.025   2.721
37641SOL    HW212948   6.002  11.188   2.712
37642SOL     OW12949   7.381  10.376   2.735
37642SOL    HW112950   7.319  10.361   2.659
37642SOL    HW212951   7.329  10.387   2.820
37643SOL     OW12952   6.813  10.860   3.368
37643SOL    HW112953   6.819  10.783   3.432
37643SOL    HW212954   6.761  10.834   3.288
37644SOL     OW12955   5.907  10.253   2.104
37644SOL    HW112956   5.989  10.292   2.062
37644SOL    HW212957   5.880  10.171   2.055
37645SOL     OW12958   7.044  10.045   2.590
37645SOL    HW112959   7.039   9.980   2.665
37645SOL    HW212960   7.124  10.104   2.603
37646SOL     OW12961   6.047  10.576   3.589
37646SOL    HW112962   5.997  10.577   3.503
37646SOL    HW212963   5.984  10.558   3.665
37647SOL     OW12964   6.697  11.086   2.099
37647SOL    HW112965   6.637  11.024   2.149
37647SOL    HW212966   6.728  11.042   2.014
37648SOL     OW12967   5.788   9.595   3.360
37648SOL    HW112968   5.708   9.655   3.347
37648SOL    HW212969   5.778   9.546   3.446
37649SOL     OW12970   7.218  10.687   1.943
37649SOL    HW112971   7.186  10.781   1.933
37649SOL    HW212972   7.142  10.624   1.931
37650SOL     OW12973   6.050  11.053   2.185
37650SOL    HW112974   6.083  11.092   2.271
37650SOL    HW212975   6.126  11.046   2.120
37651SOL     OW12976   6.986   9.417   2.288
37651SOL    HW112977   6.962   9.380   2.198
37651SOL    HW212978   7.085   9.433   2.292
37652SOL     OW12979   5.835  11.095   3.103
37652SOL    HW112980   5.892  11.030   3.153
37652SOL    HW212981   5.819  11.062   3.010
37653SOL     OW12982   6.526  11.008   2.766
37653SOL    HW112983   6.606  10.951   2.787
37653SOL    HW212984   6.477  10.968   2.689
37654SOL     OW12985   5.968  10.010   2.342
37654SOL    HW112986   6.013   9.920   2.339
37654SOL    HW212987   5.874   9.999   2.375
37655SOL     OW12988   7.133   9.532   3.591
37655SOL    HW112989   7.128   9.569   3.683
37655SOL    HW212990   7.061   9.463   3.579
37656SOL     OW12991   6.200   9.432   1.979
37656SOL    HW112992   6.298   9.410   1.986
37656SOL    HW212993   6.169   9.415   1.886
37657SOL     OW12994   6.367   9.574   3.611
37657SOL    HW112995   6.434   9.513   3.654
37657SOL    HW212996   6.294   9.593   3.676
37658SOL     OW12997   6.474  10.824   3.057
37658SOL    HW112998   6.451  10.799   2.963
37658SOL    HW212999   6.535  10.755   3.096
37659SOL     OW13000   6.937   9.900   3.295
37659SOL    HW113001   6.965   9.857   3.380
37659SOL    HW213002   6.962   9.996   3.296
37660SOL     OW13003   6.389  10.712   2.786
37660SOL    HW113004   6.479  10.726   2.744
37660SOL    HW213005   6.318  10.714   2.715
37661SOL     OW13006   6.508   9.813   2.761
37661SOL    HW113007   6.483   9.804   2.665
37661SOL    HW213008   6.556   9.731   2.792
37662SOL     OW13009   6.125   9.374   2.374
37662SOL    HW113010   6.044   9.375   2.432
37662SOL    HW213011   6.128   9.457   2.319
37663SOL     OW13012   7.020  10.498   1.903
37663SOL    HW113013   7.052  10.422   1.960
37663SOL    HW213014   6.928  10.525   1.933
37664SOL     OW13015   5.883   9.345   2.033
37664SOL    HW113016   5.932   9.429   2.012
37664SOL    HW213017   5.945   9.280   2.078
37665SOL     OW13018   6.521   9.546   2.342
37665SOL    HW113019   6.473   9.587   2.264
37665SOL    HW213020   6.620   9.544   2.323
37666SOL     OW13021   6.662   9.993   3.326
37666SOL    HW113022   6.582   9.932   3.329
37666SOL    HW213023   6.743   9.940   3.302
37667SOL     OW13024   6.813  10.880   2.655
37667SOL    HW113025   6.834  10.954   2.590
37667SOL    HW213026   6.881  10.880   2.728
37668SOL     OW13027   6.045  10.462   2.603
37668SOL    HW113028   5.974  10.435   2.668
37668SOL    HW213029   6.019  10.434   2.510
37669SOL     OW13030   6.857  11.107   2.453
37669SOL    HW113031   6.901  11.171   2.389
37669SOL    HW213032   6.807  11.159   2.523
37670SOL     OW13033   6.618   9.859   1.878
37670SOL    HW113034   6.577   9.941   1.839
37670SOL    HW213035   6.682   9.885   1.951
37671SOL     OW13036   5.664   9.866   3.248
37671SOL    HW113037   5.756   9.865   3.207
37671SOL    HW213038   5.658   9.940   3.315
37672SOL     OW13039   6.147   9.532   3.009
37672SOL    HW113040   6.185   9.448   3.046
37672SOL    HW213041   6.059   9.551   3.053
37673SOL     OW13042   6.452   9.764   2.504
37673SOL    HW113043   6.420   9.836   2.442
37673SOL    HW213044   6.476   9.683   2.451
37674SOL     OW13045   6.603   9.349   2.615
37674SOL    HW113046   6.531   9.354   2.546
37674SOL    HW213047   6.579   9.280   2.684
37675SOL     OW13048   7.015  10.483   2.729
37675SOL    HW113049   6.960  10.399   2.722
37675SOL    HW213050   7.041  10.512   2.637
37676SOL     OW13051   7.052   9.900   2.854
37676SOL    HW113052   7.022   9.805   2.861
37676SOL    HW213053   7.125   9.916   2.920
37677SOL     OW13054   7.443  10.143   2.239
37677SOL    HW113055   7.485  10.079   2.303
37677SOL    HW213056   7.405  10.092   2.161
37678SOL     OW13057   6.074  10.695   2.036
37678SOL    HW113058   5.987  10.680   2.083
37678SOL    HW213059   6.057  10.721   1.941
37679SOL     OW13060   7.250  10.590   2.519
37679SOL    HW113061   7.349  10.598   2.533
37679SOL    HW213062   7.205  10.674   2.550
37680SOL     OW13063   6.976   9.885   1.940
37680SOL    HW113064   6.922   9.864   2.021
37680SOL    HW213065   7.067   9.844   1.949
37681SOL     OW13066   6.113   9.566   2.190
37681SOL    HW113067   6.140   9.507   2.115
37681SOL    HW213068   6.113   9.661   2.159
37682SOL     OW13069   7.340  10.533   3.450
37682SOL    HW113070   7.431  10.494   3.437
37682SOL    HW213071   7.348  10.629   3.474
37683SOL     OW13072   6.650  10.657   3.202
37683SOL    HW113073   6.570  10.634   3.257
37683SOL    HW213074   6.733  10.631   3.251
37684SOL     OW13075   7.178  10.939   3.487
37684SOL    HW113076   7.205  10.973   3.397
37684SOL    HW213077   7.257  10.901   3.533
37685SOL     OW13078   6.697  10.505   2.962
37685SOL    HW113079   6.657  10.549   3.043
37685SOL    HW213080   6.656  10.542   2.879
37686SOL     OW13081   7.224  10.409   2.941
37686SOL    HW113082   7.229  10.490   3.000
37686SOL    HW213083   7.138  10.411   2.890
37687SOL     OW13084   6.501   9.399   3.264
37687SOL    HW113085   6.526   9.379   3.169
37687SOL    HW213086   6.573   9.455   3.306
37688SOL     OW13087   6.566  10.426   3.581
37688SOL    HW113088   6.467  10.432   3.591
37688SOL    HW213089   6.589  10.346   3.525
37689SOL     OW13090   6.291  10.360   2.230
37689SOL    HW113091   6.277  10.367   2.329
37689SOL    HW213092   6.375  10.309   2.212
37690SOL     OW13093   5.996  10.123   3.113
37690SOL    HW113094   6.082  10.135   3.163
37690SOL    HW213095   5.954  10.036   3.140
37691SOL     OW13096   6.860   9.696   3.124
37691SOL    HW113097   6.881   9.770   3.188
37691SOL    HW213098   6.771   9.713   3.081
37692SOL     OW13099   5.650  10.874   3.193
37692SOL    HW113100   5.604  10.956   3.159
37692SOL    HW213101   5.748  10.893   3.202
37693SOL     OW13102   5.953  10.410   2.363
37693SOL    HW113103   5.946  10.493   2.307
37693SOL    HW213104   5.957  10.330   2.303
37694SOL     OW13105   6.152   9.847   2.727
37694SOL    HW113106   6.164   9.913   2.653
37694SOL    HW213107   6.198   9.881   2.810
37695SOL     OW13108   6.838  10.658   2.250
37695SOL    HW113109   6.888  10.735   2.290
37695SOL    HW213110   6.743  10.660   2.282
37696SOL     OW13111   6.858  10.755   3.004
37696SOL    HW113112   6.905  10.768   3.091
37696SOL    HW213113   6.792  10.681   3.013
37697SOL     OW13114   7.168   9.949   2.334
37697SOL    HW113115   7.137  10.010   2.407
37697SOL    HW213116   7.218  10.001   2.265
37698SOL     OW13117   5.940  10.820   3.191
37698SOL    HW113118   5.919  10.776   3.104
37698SOL    HW213119   6.037  10.846   3.194
37699SOL     OW13120   5.988  10.061   3.460
37699SOL    HW113121   6.056  10.116   3.413
37699SOL    HW213122   6.028   9.973   3.487
37700SOL     OW13123   7.173  10.089   3.532
37700SOL    HW113124   7.081  10.127   3.527
37700SOL    HW213125   7.233  10.136   3.467
37701SOL     OW13126   6.599   9.415   3.632
37701SOL    HW113127   6.605   9.500   3.580
37701SOL    HW213128   6.631   9.339   3.575
37702SOL     OW13129   6.090   9.360   3.602
37702SOL    HW113130   6.048   9.303   3.532
37702SOL    HW213131   6.024   9.429   3.634
37703SOL     OW13132   6.159  10.180   2.891
37703SOL    HW113133   6.203  10.269   2.882
37703SOL    HW213134   6.096  10.180   2.968
37704SOL     OW13135   6.946  10.172   2.907
37704SOL    HW113136   6.871  10.172   2.841
37704SOL    HW213137   6.983  10.080   2.916
37705SOL     OW13138   6.795   9.835   2.137
37705SOL    HW113139   6.808   9.751   2.191
37705SOL    HW213140   6.766   9.909   2.197
37706SOL     OW13141   5.893   9.523   3.093
37706SOL    HW113142   5.870   9.560   3.183
37706SOL    HW213143   5.863   9.428   3.087
37707SOL     OW13144   5.623  10.620   3.144
37707SOL    HW113145   5.676  10.571   3.212
37707SOL    HW213146   5.645  10.718   3.149
37708SOL     OW13147   6.318   9.944   2.926
37708SOL    HW113148   6.377   9.918   2.850
37708SOL    HW213149   6.290  10.040   2.915
37709SOL     OW13150   7.314  10.245   3.716
37709SOL    HW113151   7.268  10.238   3.627
37709SOL    HW213152   7.252  10.289   3.782
37710SOL     OW13153   5.893   9.373   2.480
37710SOL    HW113154   5.882   9.467   2.513
37710SOL    HW213155   5.888   9.310   2.557
37711SOL     OW13156   7.208   9.677   2.236
37711SOL    HW113157   7.210   9.601   2.300
37711SOL    HW213158   7.160   9.754   2.276
37712SOL     OW13159   6.609  10.076   2.828
37712SOL    HW113160   6.624  10.097   2.924
37712SOL    HW213161   6.579   9.981   2.819
37713SOL     OW13162   6.566  10.883   3.562
37713SOL    HW113163   6.546  10.927   3.474
37713SOL    HW213164   6.605  10.792   3.546
37714SOL     OW13165   7.445  10.828   3.467
37714SOL    HW113166   7.459  10.855   3.372
37714SOL    HW213167   7.528  10.850   3.520
37715SOL     OW13168   5.936  10.208   3.666
37715SOL    HW113169   6.012  10.252   3.714
37715SOL    HW213170   5.971  10.161   3.584
37716SOL     OW13171   7.126   9.584   1.987
37716SOL    HW113172   7.065   9.509   2.010
37716SOL    HW213173   7.148   9.636   2.070
37717SOL     OW13174   6.889  10.148   1.904
37717SOL    HW113175   6.923  10.055   1.919
37717SOL    HW213176   6.907  10.175   1.809
37718SOL     OW13177   6.654  10.643   2.711
37718SOL    HW113178   6.661  10.559   2.656
37718SOL    HW213179   6.716  10.712   2.675
37719SOL     OW13180   5.905  10.120   2.811
37719SOL    HW113181   5.998  10.156   2.816
37719SOL    HW213182   5.899  10.035   2.863
37720SOL     OW13183   5.925   9.819   2.868
37720SOL    HW113184   5.873   9.736   2.851
37720SOL    HW213185   6.002   9.824   2.804
37721SOL     OW13186   6.724   9.690   3.540
37721SOL    HW113187   6.679   9.753   3.604
37721SOL    HW213188   6.817   9.721   3.523
37722SOL     OW13189   6.746   9.517   3.339
37722SOL    HW113190   6.746   9.581   3.416
37722SOL    HW213191   6.774   9.565   3.256
37723SOL     OW13192   5.594  10.636   2.062
37723SOL    HW113193   5.501  10.657   2.031
37723SOL    HW213194   5.604  10.537   2.075
37724SOL     OW13195   5.674  11.111   2.789
37724SOL    HW113196   5.632  11.025   2.762
37724SOL    HW213197   5.768  11.114   2.755
37725SOL     OW13198   6.090  10.878   2.772
37725SOL    HW113199   6.156  10.952   2.781
37725SOL    HW213200   6.134  10.799   2.730
37726SOL     OW13201   6.588  10.106   3.100
37726SOL    HW113202   6.629  10.074   3.186
37726SOL    HW213203   6.492  10.079   3.097
37727SOL     OW13204   5.626   9.854   2.976
37727SOL    HW113205   5.711   9.821   2.935
37727SOL    HW213206   5.639   9.869   3.074
37728SOL     OW13207   5.775   9.830   3.584
37728SOL    HW113208   5.834   9.790   3.514
37728SOL    HW213209   5.717   9.901   3.543
37729SOL     OW13210   6.955  10.260   3.522
37729SOL    HW113211   6.994  10.349   3.542
37729SOL    HW213212   6.965  10.240   3.425
37730SOL     OW13213   6.401   9.882   2.187
37730SOL    HW113214   6.408   9.793   2.141
37730SOL    HW213215   6.307   9.916   2.179
37731SOL     OW13216   7.243   9.914   3.068
37731SOL    HW113217   7.205   9.845   3.130
37731SOL    HW213218   7.325   9.878   3.024
37732SOL     OW13219   5.838  10.874   3.606
37732SOL    HW113220   5.808  10.931   3.682
37732SOL    HW213221   5.831  10.777   3.632
37733SOL     OW13222   6.257   9.774   3.131
37733SOL    HW113223   6.223   9.685   3.101
37733SOL    HW213224   6.283   9.828   3.051
37734SOL     OW13225   6.516  10.988   3.327
37734SOL    HW113226   6.492  10.970   3.232
37734SOL    HW213227   6.546  11.082   3.337
37735SOL     OW13228   6.059   9.810   2.053
37735SOL    HW113229   6.120   9.890   2.057
37735SOL    HW213230   5.964   9.841   2.060
37736SOL     OW13231   5.745  10.447   3.328
37736SOL    HW113232   5.767  10.386   3.404
37736SOL    HW213233   5.755  10.398   3.242
37737SOL     OW13234   6.933  10.369   3.096
37737SOL    HW113235   6.957  10.306   3.022
37737SOL    HW213236   6.843  10.409   3.078
37738SOL     OW13237   6.888  10.165   2.171
37738SOL    HW113238   6.802  10.134   2.213
37738SOL    HW213239   6.884  10.151   2.072
37739SOL     OW13240   7.345  11.057   3.016
37739SOL    HW113241   7.406  11.087   2.943
37739SOL    HW213242   7.307  10.968   2.994
37740SOL     OW13243   6.838  11.041   2.990
37740SOL    HW113244   6.922  11.046   2.936
37740SOL    HW213245   6.815  10.945   3.008
37741SOL     OW13246   5.669  10.568   2.884
37741SOL    HW113247   5.664  10.567   2.984
37741SOL    HW213248   5.586  10.527   2.846
37742SOL     OW13249   6.274  10.972   3.578
37742SOL    HW113250   6.218  11.053   3.587
37742SOL    HW213251   6.326  10.976   3.492
37743SOL     OW13252   7.312   9.445   2.385
37743SOL    HW113253   7.385   9.428   2.318
37743SOL    HW213254   7.281   9.358   2.423
37744SOL     OW13255   6.974  10.883   2.339
37744SOL    HW113256   7.041  10.895   2.265
37744SOL    HW213257   6.934  10.972   2.362
37745SOL     OW13258   5.716  11.104   3.713
37745SOL    HW113259   5.675  11.030   3.766
37745SOL    HW213260   5.780  11.155   3.771
37746SOL     OW13261   6.866  10.237   2.534
37746SOL    HW113262   6.926  10.156   2.536
37746SOL    HW213263   6.906  10.306   2.474
37747SOL     OW13264   6.416  10.583   3.284
37747SOL    HW113265   6.411  10.616   3.379
37747SOL    HW213266   6.330  10.602   3.238
37748SOL     OW13267   6.258  10.926   2.016
37748SOL    HW113268   6.267  10.936   1.917
37748SOL    HW213269   6.218  10.837   2.037
37749SOL     OW13270   7.236  11.030   3.256
37749SOL    HW113271   7.289  11.040   3.172
37749SOL    HW213272   7.209  11.120   3.290
37750SOL     OW13273   7.427   9.485   2.825
37750SOL    HW113274   7.466   9.400   2.789
37750SOL    HW213275   7.329   9.487   2.806
37751SOL     OW13276   5.849   9.636   2.582
37751SOL    HW113277   5.770   9.687   2.548
37751SOL    HW213278   5.840   9.621   2.680
37752SOL     OW13279   6.780  10.922   1.893
37752SOL    HW113280   6.786  10.829   1.930
37752SOL    HW213281   6.721  10.922   1.813
37753SOL     OW13282   6.408  10.312   3.234
37753SOL    HW113283   6.448  10.311   3.142
37753SOL    HW213284   6.418  10.404   3.274
37754SOL     OW13285   6.502  10.220   2.153
37754SOL    HW113286   6.565  10.258   2.085
37754SOL    HW213287   6.542  10.137   2.192
37755SOL     OW13288   7.090  10.917   1.906
37755SOL    HW113289   6.998  10.954   1.913
37755SOL    HW213290   7.128  10.937   1.816
37756SOL     OW13291   5.958  10.598   3.352
37756SOL    HW113292   5.945  10.691   3.318
37756SOL    HW213293   5.874  10.546   3.339
37757SOL     OW13294   7.200  10.602   3.151
37757SOL    HW113295   7.260  10.605   3.231
37757SOL    HW213296   7.125  10.666   3.164
37758SOL     OW13297   6.625  10.408   2.558
37758SOL    HW113298   6.555  10.361   2.612
37758SOL    HW213299   6.684  10.340   2.515
37759SOL     OW13300   6.600   9.546   2.833
37759SOL    HW113301   6.592   9.510   2.740
37759SOL    HW213302   6.598   9.470   2.898
37760SOL     OW13303   6.176  10.797   2.353
37760SOL    HW113304   6.218  10.739   2.283
37760SOL    HW213305   6.132  10.876   2.309
37761SOL     OW13306   7.295   9.695   3.243
37761SOL    HW113307   7.368   9.764   3.247
37761SOL    HW213308   7.323   9.620   3.184
37762SOL     OW13309   5.841  10.658   2.152
37762SOL    HW113310   5.745  10.659   2.125
37762SOL    HW213311   5.853  10.711   2.236
37763SOL     OW13312   5.691  10.323   3.588
37763SOL    HW113313   5.614  10.290   3.642
37763SOL    HW213314   5.776  10.293   3.630
37764SOL     OW13315   6.258   9.513   3.351
37764SOL    HW113316   6.348   9.497   3.311
37764SOL    HW213317   6.266   9.518   3.450
37765SOL     OW13318   5.661   9.655   1.895
37765SOL    HW113319   5.569   9.627   1.866
37765SOL    HW213320   5.692   9.732   1.839
37766SOL     OW13321   7.026  10.166   3.260
37766SOL    HW113322   6.969  10.218   3.197
37766SOL    HW213323   7.122  10.178   3.236
37767SOL     OW13324   5.658   9.476   2.180
37767SOL    HW113325   5.641   9.559   2.126
37767SOL    HW213326   5.748   9.439   2.158
37768SOL     OW13327   6.769  10.645   1.981
37768SOL    HW113328   6.670  10.634   1.983
37768SOL    HW213329   6.803  10.660   2.074
37769SOL     OW13330   6.199  10.152   3.293
37769SOL    HW113331   6.255  10.233   3.276
37769SOL    HW213332   6.258  10.072   3.296
37770SOL     OW13333   7.079  11.077   2.821
37770SOL    HW113334   7.112  11.141   2.752
37770SOL    HW213335   7.145  11.071   2.896
37771SOL     OW13336   6.302   9.875   3.570
37771SOL    HW113337   6.321   9.940   3.644
37771SOL    HW213338   6.362   9.795   3.579
37772SOL     OW13339   7.036  10.530   3.495
37772SOL    HW113340   7.027  10.520   3.594
37772SOL    HW213341   7.132  10.523   3.469
37773SOL     OW13342   5.976  11.051   3.422
37773SOL    HW113343   5.885  11.092   3.420
37773SOL    HW213344   5.969  10.957   3.454
37774SOL     OW13345   7.260  10.193   3.116
37774SOL    HW113346   7.233  10.104   3.079
37774SOL    HW213347   7.261  10.261   3.043
37775SOL     OW13348   6.811   9.635   2.311
37775SOL    HW113349   6.876   9.561   2.300
37775SOL    HW213350   6.831   9.685   2.395
37776SOL     OW13351   6.180  10.055   2.514
37776SOL    HW113352   6.230  10.140   2.495
37776SOL    HW213353   6.092  10.057   2.466
37777SOL     OW13354   7.363   9.652   3.504
37777SOL    HW113355   7.346   9.683   3.410
37777SOL    HW213356   7.279   9.615   3.542
37778SOL     OW13357   7.316  10.244   3.379
37778SOL    HW113358   7.354  10.335   3.394
37778SOL    HW213359   7.308  10.227   3.280
37779SOL     OW13360   6.445  10.684   1.878
37779SOL    HW113361   6.399  10.699   1.966
37779SOL    HW213362   6.489  10.769   1.848
37780SOL     OW13363   6.247  11.100   2.815
37780SOL    HW113364   6.201  11.188   2.802
37780SOL    HW213365   6.346  11.112   2.808
37781SOL     OW13366   6.445  10.266   2.723
37781SOL    HW113367   6.499  10.197   2.771
37781SOL    HW213368   6.413  10.335   2.789
37782SOL     OW13369   6.669  10.294   1.949
37782SOL    HW113370   6.646  10.347   1.867
37782SOL    HW213371   6.750  10.238   1.930
37783SOL     OW13372   7.447  10.879   2.713
37783SOL    HW113373   7.376  10.867   2.643
37783SOL    HW213374   7.448  10.800   2.773
37784SOL     OW13375   5.807  10.624   3.706
37784SOL    HW113376   5.742  10.551   3.685
37784SOL    HW213377   5.811  10.638   3.804
37785SOL     OW13378   5.665  10.550   2.515
37785SOL    HW113379   5.664  10.503   2.603
37785SOL    HW213380   5.747  10.522   2.464
37786SOL     OW13381   6.258  10.701   3.486
37786SOL    HW113382   6.180  10.651   3.524
37786SOL    HW213383   6.255  10.796   3.517
37787SOL     OW13384   7.410   9.502   3.089
37787SOL    HW113385   7.406   9.412   3.133
37787SOL    HW213386   7.413   9.491   2.990
37788SOL     OW13387   6.014   9.734   2.382
37788SOL    HW113388   6.044   9.662   2.320
37788SOL    HW213389   5.975   9.694   2.465
37789SOL     OW13390   7.291  10.797   2.966
37789SOL    HW113391   7.198  10.772   2.939
37789SOL    HW213392   7.317  10.747   3.048
37790SOL     OW13393   5.903   9.857   3.142
37790SOL    HW113394   5.941   9.798   3.214
37790SOL    HW213395   5.943   9.831   3.054
37791SOL     OW13396   6.398  10.896   2.549
37791SOL    HW113397   6.430  10.906   2.455
37791SOL    HW213398   6.319  10.834   2.551
37792SOL     OW13399   7.010   9.524   2.974
37792SOL    HW113400   7.062   9.459   3.029
37792SOL    HW213401   6.961   9.587   3.035
37793SOL     OW13402   6.587   9.344   3.016
37793SOL    HW113403   6.524   9.272   2.985
37793SOL    HW213404   6.680   9.308   3.016
37794SOL     OW13405   6.356  10.640   2.163
37794SOL    HW113406   6.310  10.553   2.180
37794SOL    HW213407   6.447  10.637   2.204
37795SOL     OW13408   6.204  10.877   3.146
37795SOL    HW113409   6.199  10.959   3.203
37795SOL    HW213410   6.293  10.874   3.101
37796SOL     OW13411   6.938   9.362   2.030
37796SOL    HW113412   6.973   9.321   1.946
37796SOL    HW213413   6.848   9.324   2.050
37797SOL     OW13414   6.886   9.763   2.553
37797SOL    HW113415   6.827   9.843   2.557
37797SOL    HW213416   6.901   9.728   2.646
37798SOL     OW13417   7.179   9.531   2.744
37798SOL    HW113418   7.095   9.530   2.798
37798SOL    HW213419   7.181   9.614   2.688
37799SOL     OW13420   5.625  10.387   2.162
37799SOL    HW113421   5.724  10.376   2.153
37799SOL    HW213422   5.585  10.301   2.194
37800SOL     OW13423   6.461  10.956   2.199
37800SOL    HW113424   6.384  10.921   2.145
37800SOL    HW213425   6.429  11.027   2.261
37801SOL     OW13426   5.816   9.938   3.837
37801SOL    HW113427   5.723   9.936   3.874
37801SOL    HW213428   5.817   9.899   3.745
37802SOL     OW13429   5.811   9.585   4.720
37802SOL    HW113430   5.846   9.568   4.812
37802SOL    HW213431   5.723   9.540   4.708
37803SOL     OW13432   5.605   9.678   4.371
37803SOL    HW113433   5.523   9.721   4.410
37803SOL    HW213434   5.577   9.605   4.308
37804SOL     OW13435   6.155  10.585   4.889
37804SOL    HW113436   6.062  10.578   4.852
37804SOL    HW213437   6.166  10.674   4.933
37805SOL     OW13438   7.141  10.821   4.427
37805SOL    HW113439   7.084  10.805   4.508
37805SOL    HW213440   7.082  10.831   4.347
37806SOL     OW13441   6.721  10.013   4.441
37806SOL    HW113442   6.778  10.091   4.416
37806SOL    HW213443   6.661  10.039   4.517
37807SOL     OW13444   7.341   9.917   3.955
37807SOL    HW113445   7.329   9.904   3.856
37807SOL    HW213446   7.311   9.836   4.004
37808SOL     OW13447   6.354  10.454   4.747
37808SOL    HW113448   6.276  10.471   4.807
37808SOL    HW213449   6.388  10.541   4.711
37809SOL     OW13450   6.436  10.108   5.547
37809SOL    HW113451   6.432  10.184   5.612
37809SOL    HW213452   6.458  10.144   5.456
37810SOL     OW13453   6.271  10.322   4.389
37810SOL    HW113454   6.340  10.306   4.459
37810SOL    HW213455   6.198  10.379   4.427
37811SOL     OW13456   6.272  10.471   5.527
37811SOL    HW113457   6.332  10.550   5.541
37811SOL    HW213458   6.186  10.502   5.486
37812SOL     OW13459   5.921  10.745   4.785
37812SOL    HW113460   5.843  10.714   4.732
37812SOL    HW213461   5.979  10.803   4.728
37813SOL     OW13462   7.046  10.815   5.063
37813SOL    HW113463   7.070  10.909   5.089
37813SOL    HW213464   7.030  10.761   5.145
37814SOL     OW13465   6.024   9.702   5.223
37814SOL    HW113466   6.106   9.646   5.232
37814SOL    HW213467   5.943   9.644   5.227
37815SOL     OW13468   7.189   9.757   4.461
37815SOL    HW113469   7.115   9.803   4.411
37815SOL    HW213470   7.240   9.825   4.514
37816SOL     OW13471   5.817  11.023   4.207
37816SOL    HW113472   5.851  11.100   4.261
37816SOL    HW213473   5.861  11.023   4.117
37817SOL     OW13474   6.713  10.651   5.414
37817SOL    HW113475   6.760  10.651   5.502
37817SOL    HW213476   6.665  10.564   5.403
37818SOL     OW13477   5.816  10.744   4.262
37818SOL    HW113478   5.790  10.840   4.262
37818SOL    HW213479   5.745  10.690   4.307
37819SOL     OW13480   5.826  10.401   4.610
37819SOL    HW113481   5.840  10.317   4.662
37819SOL    HW213482   5.771  10.465   4.665
37820SOL     OW13483   6.206  11.096   5.163
37820SOL    HW113484   6.114  11.079   5.198
37820SOL    HW213485   6.234  11.188   5.189
37821SOL     OW13486   6.192  10.274   3.847
37821SOL    HW113487   6.199  10.358   3.793
37821SOL    HW213488   6.238  10.287   3.935
37822SOL     OW13489   7.180   9.424   5.204
37822SOL    HW113490   7.162   9.491   5.132
37822SOL    HW213491   7.177   9.470   5.293
37823SOL     OW13492   5.708   9.953   4.287
37823SOL    HW113493   5.663   9.865   4.304
37823SOL    HW213494   5.707  10.007   4.371
37824SOL     OW13495   7.428  11.077   4.083
37824SOL    HW113496   7.482  11.048   4.163
37824SOL    HW213497   7.458  11.167   4.054
37825SOL     OW13498   5.613  10.906   3.841
37825SOL    HW113499   5.594  10.810   3.862
37825SOL    HW213500   5.580  10.964   3.916
37826SOL     OW13501   7.275  10.232   4.336
37826SOL    HW113502   7.370  10.203   4.344
37826SOL    HW213503   7.267  10.297   4.261
37827SOL     OW13504   7.227  10.418   4.156
37827SOL    HW113505   7.313  10.420   4.104
37827SOL    HW213506   7.241  10.465   4.244
37828SOL     OW13507   5.699  10.047   5.321
37828SOL    HW113508   5.787  10.034   5.366
37828SOL    HW213509   5.686  10.144   5.299
37829SOL     OW13510   6.199  10.675   4.450
37829SOL    HW113511   6.150  10.588   4.459
37829SOL    HW213512   6.176  10.718   4.363
37830SOL     OW13513   6.879  10.538   5.147
37830SOL    HW113514   6.916  10.465   5.089
37830SOL    HW213515   6.931  10.543   5.232
37831SOL     OW13516   6.395   9.314   4.226
37831SOL    HW113517   6.435   9.405   4.217
37831SOL    HW213518   6.295   9.322   4.232
37832SOL     OW13519   5.783  10.286   4.988
37832SOL    HW113520   5.872  10.241   4.974
37832SOL    HW213521   5.710  10.221   4.969
37833SOL     OW13522   7.111  10.309   3.914
37833SOL    HW113523   7.048  10.233   3.927
37833SOL    HW213524   7.159  10.327   4.000
37834SOL     OW13525   6.773  11.102   5.340
37834SOL    HW113526   6.797  11.162   5.264
37834SOL    HW213527   6.780  11.007   5.310
37835SOL     OW13528   5.903   9.561   5.525
37835SOL    HW113529   5.974   9.632   5.531
37835SOL    HW213530   5.815   9.600   5.553
37836SOL     OW13531   7.052  10.727   4.677
37836SOL    HW113532   6.993  10.733   4.757
37836SOL    HW213533   7.037  10.639   4.631
37837SOL     OW13534   7.253  11.024   4.296
37837SOL    HW113535   7.212  11.001   4.208
37837SOL    HW213536   7.235  10.950   4.361
37838SOL     OW13537   6.184  10.039   3.994
37838SOL    HW113538   6.208  10.108   3.926
37838SOL    HW213539   6.106  10.072   4.048
37839SOL     OW13540   6.867   9.655   4.668
37839SOL    HW113541   6.781   9.605   4.655
37839SOL    HW213542   6.929   9.601   4.724
37840SOL     OW13543   7.162  10.972   4.031
37840SOL    HW113544   7.251  11.018   4.034
37840SOL    HW213545   7.141  10.948   3.936
37841SOL     OW13546   6.393   9.915   5.189
37841SOL    HW113547   6.346   9.912   5.278
37841SOL    HW213548   6.342   9.860   5.123
37842SOL     OW13549   6.980   9.779   5.398
37842SOL    HW113550   6.960   9.822   5.486
37842SOL    HW213551   7.058   9.717   5.407
37843SOL     OW13552   6.559  10.200   5.296
37843SOL    HW113553   6.605  10.116   5.267
37843SOL    HW213554   6.503  10.234   5.221
37844SOL     OW13555   6.577   9.720   4.966
37844SOL    HW113556   6.500   9.754   5.020
37844SOL    HW213557   6.543   9.669   4.887
37845SOL     OW13558   6.627  10.011   4.153
37845SOL    HW113559   6.653  10.007   4.249
37845SOL    HW213560   6.542   9.960   4.139
37846SOL     OW13561   5.662  10.121   4.513
37846SOL    HW113562   5.761  10.109   4.522
37846SOL    HW213563   5.638  10.216   4.534
37847SOL     OW13564   5.716  11.131   5.295
37847SOL    HW113565   5.706  11.116   5.394
37847SOL    HW213566   5.630  11.167   5.259
37848SOL     OW13567   6.451   9.658   3.919
37848SOL    HW113568   6.510   9.721   3.870
37848SOL    HW213569   6.470   9.564   3.890
37849SOL     OW13570   7.305   9.895   5.555
37849SOL    HW113571   7.279   9.984   5.519
37849SOL    HW213572   7.303   9.827   5.482
37850SOL     OW13573   6.948  10.454   4.269
37850SOL    HW113574   7.031  10.425   4.221
37850SOL    HW213575   6.899  10.521   4.213
37851SOL     OW13576   6.136   9.506   4.609
37851SOL    HW113577   6.131   9.501   4.709
37851SOL    HW213578   6.138   9.602   4.580
37852SOL     OW13579   6.594  10.766   4.201
37852SOL    HW113580   6.548  10.838   4.149
37852SOL    HW213581   6.590  10.786   4.299
37853SOL     OW13582   5.937  11.111   4.577
37853SOL    HW113583   5.987  11.025   4.583
37853SOL    HW213584   6.002  11.188   4.574
37854SOL     OW13585   7.381  10.376   4.597
37854SOL    HW113586   7.319  10.361   4.521
37854SOL    HW213587   7.329  10.387   4.682
37855SOL     OW13588   6.813  10.860   5.230
37855SOL    HW113589   6.819  10.783   5.294
37855SOL    HW213590   6.761  10.834   5.150
37856SOL     OW13591   5.907  10.253   3.966
37856SOL    HW113592   5.989  10.292   3.924
37856SOL    HW213593   5.880  10.171   3.917
37857SOL     OW13594   7.044  10.045   4.452
37857SOL    HW113595   7.039   9.980   4.527
37857SOL    HW213596   7.124  10.104   4.465
37858SOL     OW13597   6.047  10.576   5.451
37858SOL    HW113598   5.997  10.577   5.365
37858SOL    HW213599   5.984  10.558   5.527
37859SOL     OW13600   6.697  11.086   3.961
37859SOL    HW113601   6.637  11.024   4.011
37859SOL    HW213602   6.728  11.042   3.876
37860SOL     OW13603   5.788   9.595   5.222
37860SOL    HW113604   5.708   9.655   5.209
37860SOL    HW213605   5.778   9.546   5.308
37861SOL     OW13606   7.218  10.687   3.805
37861SOL    HW113607   7.186  10.781   3.795
37861SOL    HW213608   7.142  10.624   3.793
37862SOL     OW13609   6.050  11.053   4.047
37862SOL    HW113610   6.083  11.092   4.133
37862SOL    HW213611   6.126  11.046   3.982
37863SOL     OW13612   6.986   9.417   4.150
37863SOL    HW113613   6.962   9.380   4.060
37863SOL    HW213614   7.085   9.433   4.154
37864SOL     OW13615   5.835  11.095   4.965
37864SOL    HW113616   5.892  11.030   5.015
37864SOL    HW213617   5.819  11.062   4.872
37865SOL     OW13618   6.526  11.008   4.628
37865SOL    HW113619   6.606  10.951   4.649
37865SOL    HW213620   6.477  10.968   4.551
37866SOL     OW13621   5.968  10.010   4.204
37866SOL    HW113622   6.013   9.920   4.201
37866SOL    HW213623   5.874   9.999   4.237
37867SOL     OW13624   7.133   9.532   5.453
37867SOL    HW113625   7.128   9.569   5.545
37867SOL    HW213626   7.061   9.463   5.441
37868SOL     OW13627   6.200   9.432   3.841
37868SOL    HW113628   6.298   9.410   3.848
37868SOL    HW213629   6.169   9.415   3.748
37869SOL     OW13630   6.367   9.574   5.473
37869SOL    HW113631   6.434   9.513   5.516
37869SOL    HW213632   6.294   9.593   5.538
37870SOL     OW13633   6.474  10.824   4.919
37870SOL    HW113634   6.451  10.799   4.825
37870SOL    HW213635   6.535  10.755   4.958
37871SOL     OW13636   6.937   9.900   5.157
37871SOL    HW113637   6.965   9.857   5.242
37871SOL    HW213638   6.962   9.996   5.158
37872SOL     OW13639   6.389  10.712   4.648
37872SOL    HW113640   6.479  10.726   4.606
37872SOL    HW213641   6.318  10.714   4.577
37873SOL     OW13642   6.508   9.813   4.623
37873SOL    HW113643   6.483   9.804   4.527
37873SOL    HW213644   6.556   9.731   4.654
37874SOL     OW13645   6.125   9.374   4.236
37874SOL    HW113646   6.044   9.375   4.294
37874SOL    HW213647   6.128   9.457   4.181
37875SOL     OW13648   7.020  10.498   3.765
37875SOL    HW113649   7.052  10.422   3.822
37875SOL    HW213650   6.928  10.525   3.795
37876SOL     OW13651   5.883   9.345   3.895
37876SOL    HW113652   5.932   9.429   3.874
37876SOL    HW213653   5.945   9.280   3.940
37877SOL     OW13654   6.521   9.546   4.204
37877SOL    HW113655   6.473   9.587   4.126
37877SOL    HW213656   6.620   9.544   4.185
37878SOL     OW13657   6.662   9.993   5.188
37878SOL    HW113658   6.582   9.932   5.191
37878SOL    HW213659   6.743   9.940   5.164
37879SOL     OW13660   6.813  10.880   4.517
37879SOL    HW113661   6.834  10.954   4.452
37879SOL    HW213662   6.881  10.880   4.590
37880SOL     OW13663   6.045  10.462   4.465
37880SOL    HW113664   5.974  10.435   4.530
37880SOL    HW213665   6.019  10.434   4.372
37881SOL     OW13666   6.857  11.107   4.315
37881SOL    HW113667   6.901  11.171   4.251
37881SOL    HW213668   6.807  11.159   4.385
37882SOL     OW13669   6.618   9.859   3.740
37882SOL    HW113670   6.577   9.941   3.701
37882SOL    HW213671   6.682   9.885   3.813
37883SOL     OW13672   5.664   9.866   5.110
37883SOL    HW113673   5.756   9.865   5.069
37883SOL    HW213674   5.658   9.940   5.177
37884SOL     OW13675   6.147   9.532   4.871
37884SOL    HW113676   6.185   9.448   4.908
37884SOL    HW213677   6.059   9.551   4.915
37885SOL     OW13678   6.452   9.764   4.366
37885SOL    HW113679   6.420   9.836   4.304
37885SOL    HW213680   6.476   9.683   4.313
37886SOL     OW13681   6.603   9.349   4.477
37886SOL    HW113682   6.531   9.354   4.408
37886SOL    HW213683   6.579   9.280   4.546
37887SOL     OW13684   7.015  10.483   4.591
37887SOL    HW113685   6.960  10.399   4.584
37887SOL    HW213686   7.041  10.512   4.499
37888SOL     OW13687   7.052   9.900   4.716
37888SOL    HW113688   7.022   9.805   4.723
37888SOL    HW213689   7.125   9.916   4.782
37889SOL     OW13690   7.443  10.143   4.101
37889SOL    HW113691   7.485  10.079   4.165
37889SOL    HW213692   7.405  10.092   4.023
37890SOL     OW13693   6.074  10.695   3.898
37890SOL    HW113694   5.987  10.680   3.945
37890SOL    HW213695   6.057  10.721   3.803
37891SOL     OW13696   7.250  10.590   4.381
37891SOL    HW113697   7.349  10.598   4.395
37891SOL    HW213698   7.205  10.674   4.412
37892SOL     OW13699   6.976   9.885   3.802
37892SOL    HW113700   6.922   9.864   3.883
37892SOL    HW213701   7.067   9.844   3.811
37893SOL     OW13702   6.113   9.566   4.052
37893SOL    HW113703   6.140   9.507   3.977
37893SOL    HW213704   6.113   9.661   4.021
37894SOL     OW13705   7.340  10.533   5.312
37894SOL    HW113706   7.431  10.494   5.299
37894SOL    HW213707   7.348  10.629   5.336
37895SOL     OW13708   6.650  10.657   5.064
37895SOL    HW113709   6.570  10.634   5.119
37895SOL    HW213710   6.733  10.631   5.113
37896SOL     OW13711   7.178  10.939   5.349
37896SOL    HW113712   7.205  10.973   5.259
37896SOL    HW213713   7.257  10.901   5.395
37897SOL     OW13714   6.697  10.505   4.824
37897SOL    HW113715   6.657  10.549   4.905
37897SOL    HW213716   6.656  10.542   4.741
37898SOL     OW13717   7.224  10.409   4.803
37898SOL    HW113718   7.229  10.490   4.862
37898SOL    HW213719   7.138  10.411   4.752
37899SOL     OW13720   6.501   9.399   5.126
37899SOL    HW113721   6.526   9.379   5.031
37899SOL    HW213722   6.573   9.455   5.168
37900SOL     OW13723   6.566  10.426   5.443
37900SOL    HW113724   6.467  10.432   5.453
37900SOL    HW213725   6.589  10.346   5.387
37901SOL     OW13726   6.291  10.360   4.092
37901SOL    HW113727   6.277  10.367   4.191
37901SOL    HW213728   6.375  10.309   4.074
37902SOL     OW13729   5.996  10.123   4.975
37902SOL    HW113730   6.082  10.135   5.025
37902SOL    HW213731   5.954  10.036   5.002
37903SOL     OW13732   6.860   9.696   4.986
37903SOL    HW113733   6.881   9.770   5.050
37903SOL    HW213734   6.771   9.713   4.943
37904SOL     OW13735   5.650  10.874   5.055
37904SOL    HW113736   5.604  10.956   5.021
37904SOL    HW213737   5.748  10.893   5.064
37905SOL     OW13738   5.953  10.410   4.225
37905SOL    HW113739   5.946  10.493   4.169
37905SOL    HW213740   5.957  10.330   4.165
37906SOL     OW13741   6.152   9.847   4.589
37906SOL    HW113742   6.164   9.913   4.515
37906SOL    HW213743   6.198   9.881   4.672
37907SOL     OW13744   6.838  10.658   4.112
37907SOL    HW113745   6.888  10.735   4.152
37907SOL    HW213746   6.743  10.660   4.144
37908SOL     OW13747   6.858  10.755   4.866
37908SOL    HW113748   6.905  10.768   4.953
37908SOL    HW213749   6.792  10.681   4.875
37909SOL     OW13750   7.168   9.949   4.196
37909SOL    HW113751   7.137  10.010   4.269
37909SOL    HW213752   7.218  10.001   4.127
37910SOL     OW13753   5.940  10.820   5.053
37910SOL    HW113754   5.919  10.776   4.966
37910SOL    HW213755   6.037  10.846   5.056
37911SOL     OW13756   5.988  10.061   5.322
37911SOL    HW113757   6.056  10.116   5.275
37911SOL    HW213758   6.028   9.973   5.349
37912SOL     OW13759   7.173  10.089   5.394
37912SOL    HW113760   7.081  10.127   5.389
37912SOL    HW213761   7.233  10.136   5.329
37913SOL     OW13762   6.599   9.415   5.494
37913SOL    HW113763   6.605   9.500   5.442
37913SOL    HW213764   6.631   9.339   5.437
37914SOL     OW13765   6.090   9.360   5.464
37914SOL    HW113766   6.048   9.303   5.394
37914SOL    HW213767   6.024   9.429   5.496
37915SOL     OW13768   6.159  10.180   4.753
37915SOL    HW113769   6.203  10.269   4.744
37915SOL    HW213770   6.096  10.180   4.830
37916SOL     OW13771   6.946  10.172   4.769
37916SOL    HW113772   6.871  10.172   4.703
37916SOL    HW213773   6.983  10.080   4.778
37917SOL     OW13774   6.795   9.835   3.999
37917SOL    HW113775   6.808   9.751   4.053
37917SOL    HW213776   6.766   9.909   4.059
37918SOL     OW13777   5.893   9.523   4.955
37918SOL    HW113778   5.870   9.560   5.045
37918SOL    HW213779   5.863   9.428   4.949
37919SOL     OW13780   5.623  10.620   5.006
37919SOL    HW113781   5.676  10.571   5.074
37919SOL    HW213782   5.645  10.718   5.011
37920SOL     OW13783   6.318   9.944   4.788
37920SOL    HW113784   6.377   9.918   4.712
37920SOL    HW213785   6.290  10.040   4.777
37921SOL     OW13786   7.314  10.245   5.578
37921SOL    HW113787   7.268  10.238   5.489
37921SOL    HW213788   7.252  10.289   5.644
37922SOL     OW13789   5.893   9.373   4.342
37922SOL    HW113790   5.882   9.467   4.375
37922SOL    HW213791   5.888   9.310   4.419
37923SOL     OW13792   7.208   9.677   4.098
37923SOL    HW113793   7.210   9.601   4.162
37923SOL    HW213794   7.160   9.754   4.138
37924SOL     OW13795   6.609  10.076   4.690
37924SOL    HW113796   6.624  10.097   4.786
37924SOL    HW213797   6.579   9.981   4.681
37925SOL     OW13798   6.566  10.883   5.424
37925SOL    HW113799   6.546  10.927   5.336
37925SOL    HW213800   6.605  10.792   5.408
37926SOL     OW13801   7.445  10.828   5.329
37926SOL    HW113802   7.459  10.855   5.234
37926SOL    HW213803   7.528  10.850   5.382
37927SOL     OW13804   5.936  10.208   5.528
37927SOL    HW113805   6.012  10.252   5.576
37927SOL    HW213806   5.971  10.161   5.446
37928SOL     OW13807   7.126   9.584   3.849
37928SOL    HW113808   7.065   9.509   3.872
37928SOL    HW213809   7.148   9.636   3.932
37929SOL     OW13810   6.889  10.148   3.766
37929SOL    HW113811   6.923  10.055   3.781
37929SOL    HW213812   6.907  10.175   3.671
37930SOL     OW13813   6.654  10.643   4.573
37930SOL    HW113814   6.661  10.559   4.518
37930SOL    HW213815   6.716  10.712   4.537
37931SOL     OW13816   5.905  10.120   4.673
37931SOL    HW113817   5.998  10.156   4.678
37931SOL    HW213818   5.899  10.035   4.725
37932SOL     OW13819   5.925   9.819   4.730
37932SOL    HW113820   5.873   9.736   4.713
37932SOL    HW213821   6.002   9.824   4.666
37933SOL     OW13822   6.724   9.690   5.402
37933SOL    HW113823   6.679   9.753   5.466
37933SOL    HW213824   6.817   9.721   5.385
37934SOL     OW13825   6.746   9.517   5.201
37934SOL    HW113826   6.746   9.581   5.278
37934SOL    HW213827   6.774   9.565   5.118
37935SOL     OW13828   5.594  10.636   3.924
37935SOL    HW113829   5.501  10.657   3.893
37935SOL    HW213830   5.604  10.537   3.937
37936SOL     OW13831   5.674  11.111   4.651
37936SOL    HW113832   5.632  11.025   4.624
37936SOL    HW213833   5.768  11.114   4.617
37937SOL     OW13834   6.090  10.878   4.634
37937SOL    HW113835   6.156  10.952   4.643
37937SOL    HW213836   6.134  10.799   4.592
37938SOL     OW13837   6.588  10.106   4.962
37938SOL    HW113838   6.629  10.074   5.048
37938SOL    HW213839   6.492  10.079   4.959
37939SOL     OW13840   5.626   9.854   4.838
37939SOL    HW113841   5.711   9.821   4.797
37939SOL    HW213842   5.639   9.869   4.936
37940SOL     OW13843   5.775   9.830   5.446
37940SOL    HW113844   5.834   9.790   5.376
37940SOL    HW213845   5.717   9.901   5.405
37941SOL     OW13846   6.955  10.260   5.384
37941SOL    HW113847   6.994  10.349   5.404
37941SOL    HW213848   6.965  10.240   5.287
37942SOL     OW13849   6.401   9.882   4.049
37942SOL    HW113850   6.408   9.793   4.003
37942SOL    HW213851   6.307   9.916   4.041
37943SOL     OW13852   7.243   9.914   4.930
37943SOL    HW113853   7.205   9.845   4.992
37943SOL    HW213854   7.325   9.878   4.886
37944SOL     OW13855   5.838  10.874   5.468
37944SOL    HW113856   5.808  10.931   5.544
37944SOL    HW213857   5.831  10.777   5.494
37945SOL     OW13858   6.257   9.774   4.993
37945SOL    HW113859   6.223   9.685   4.963
37945SOL    HW213860   6.283   9.828   4.913
37946SOL     OW13861   6.516  10.988   5.189
37946SOL    HW113862   6.492  10.970   5.094
37946SOL    HW213863   6.546  11.082   5.199
37947SOL     OW13864   6.059   9.810   3.915
37947SOL    HW113865   6.120   9.890   3.919
37947SOL    HW213866   5.964   9.841   3.922
37948SOL     OW13867   5.745  10.447   5.190
37948SOL    HW113868   5.767  10.386   5.266
37948SOL    HW213869   5.755  10.398   5.104
37949SOL     OW13870   6.933  10.369   4.958
37949SOL    HW113871   6.957  10.306   4.884
37949SOL    HW213872   6.843  10.409   4.940
37950SOL     OW13873   6.888  10.165   4.033
37950SOL    HW113874   6.802  10.134   4.075
37950SOL    HW213875   6.884  10.151   3.934
37951SOL     OW13876   7.345  11.057   4.878
37951SOL    HW113877   7.406  11.087   4.805
37951SOL    HW213878   7.307  10.968   4.856
37952SOL     OW13879   6.838  11.041   4.852
37952SOL    HW113880   6.922  11.046   4.798
37952SOL    HW213881   6.815  10.945   4.870
37953SOL     OW13882   5.669  10.568   4.746
37953SOL    HW113883   5.664  10.567   4.846
37953SOL    HW213884   5.586  10.527   4.708
37954SOL     OW13885   6.274  10.972   5.440
37954SOL    HW113886   6.218  11.053   5.449
37954SOL    HW213887   6.326  10.976   5.354
37955SOL     OW13888   7.312   9.445   4.247
37955SOL    HW113889   7.385   9.428   4.180
37955SOL    HW213890   7.281   9.358   4.285
37956SOL     OW13891   6.974  10.883   4.201
37956SOL    HW113892   7.041  10.895   4.127
37956SOL    HW213893   6.934  10.972   4.224
37957SOL     OW13894   5.716  11.104   5.575
37957SOL    HW113895   5.675  11.030   5.628
37957SOL    HW213896   5.780  11.155   5.633
37958SOL     OW13897   6.866  10.237   4.396
37958SOL    HW113898   6.926  10.156   4.398
37958SOL    HW213899   6.906  10.306   4.336
37959SOL     OW13900   6.416  10.583   5.146
37959SOL    HW113901   6.411  10.616   5.241
37959SOL    HW213902   6.330  10.602   5.100
37960SOL     OW13903   6.258  10.926   3.878
37960SOL    HW113904   6.267  10.936   3.779
37960SOL    HW213905   6.218  10.837   3.899
37961SOL     OW13906   7.236  11.030   5.118
37961SOL    HW113907   7.289  11.040   5.034
37961SOL    HW213908   7.209  11.120   5.152
37962SOL     OW13909   7.427   9.485   4.687
37962SOL    HW113910   7.466   9.400   4.651
37962SOL    HW213911   7.329   9.487   4.668
37963SOL     OW13912   5.849   9.636   4.444
37963SOL    HW113913   5.770   9.687   4.410
37963SOL    HW213914   5.840   9.621   4.542
37964SOL     OW13915   6.780  10.922   3.755
37964SOL    HW113916   6.786  10.829   3.792
37964SOL    HW213917   6.721  10.922   3.675
37965SOL     OW13918   6.408  10.312   5.096
37965SOL    HW113919   6.448  10.311   5.004
37965SOL    HW213920   6.418  10.404   5.136
37966SOL     OW13921   6.502  10.220   4.015
37966SOL    HW113922   6.565  10.258   3.947
37966SOL    HW213923   6.542  10.137   4.054
37967SOL     OW13924   7.090  10.917   3.768
37967SOL    HW113925   6.998  10.954   3.775
37967SOL    HW213926   7.128  10.937   3.678
37968SOL     OW13927   5.958  10.598   5.214
37968SOL    HW113928   5.945  10.691   5.180
37968SOL    HW213929   5.874  10.546   5.201
37969SOL     OW13930   7.200  10.602   5.013
37969SOL    HW113931   7.260  10.605   5.093
37969SOL    HW213932   7.125  10.666   5.026
37970SOL     OW13933   6.625  10.408   4.420
37970SOL    HW113934   6.555  10.361   4.474
37970SOL    HW213935   6.684  10.340   4.377
37971SOL     OW13936   6.600   9.546   4.695
37971SOL    HW113937   6.592   9.510   4.602
37971SOL    HW213938   6.598   9.470   4.760
37972SOL     OW13939   6.176  10.797   4.215
37972SOL    HW113940   6.218  10.739   4.145
37972SOL    HW213941   6.132  10.876   4.171
37973SOL     OW13942   7.295   9.695   5.105
37973SOL    HW113943   7.368   9.764   5.109
37973SOL    HW213944   7.323   9.620   5.046
37974SOL     OW13945   5.841  10.658   4.014
37974SOL    HW113946   5.745  10.659   3.987
37974SOL    HW213947   5.853  10.711   4.098
37975SOL     OW13948   5.691  10.323   5.450
37975SOL    HW113949   5.614  10.290   5.504
37975SOL    HW213950   5.776  10.293   5.492
37976SOL     OW13951   6.258   9.513   5.213
37976SOL    HW113952   6.348   9.497   5.173
37976SOL    HW213953   6.266   9.518   5.312
37977SOL     OW13954   5.661   9.655   3.757
37977SOL    HW113955   5.569   9.627   3.728
37977SOL    HW213956   5.692   9.732   3.701
37978SOL     OW13957   7.026  10.166   5.122
37978SOL    HW113958   6.969  10.218   5.059
37978SOL    HW213959   7.122  10.178   5.098
37979SOL     OW13960   5.658   9.476   4.042
37979SOL    HW113961   5.641   9.559   3.988
37979SOL    HW213962   5.748   9.439   4.020
37980SOL     OW13963   6.769  10.645   3.843
37980SOL    HW113964   6.670  10.634   3.845
37980SOL    HW213965   6.803  10.660   3.936
37981SOL     OW13966   6.199  10.152   5.155
37981SOL    HW113967   6.255  10.233   5.138
37981SOL    HW213968   6.258  10.072   5.158
37982SOL     OW13969   7.079  11.077   4.683
37982SOL    HW113970   7.112  11.141   4.614
37982SOL    HW213971   7.145  11.071   4.758
37983SOL     OW13972   6.302   9.875   5.432
37983SOL    HW113973   6.321   9.940   5.506
37983SOL    HW213974   6.362   9.795   5.441
37984SOL     OW13975   7.036  10.530   5.357
37984SOL    HW113976   7.027  10.520   5.456
37984SOL    HW213977   7.132  10.523   5.331
37985SOL     OW13978   5.976  11.051   5.284
37985SOL    HW113979   5.885  11.092   5.282
37985SOL    HW213980   5.969  10.957   5.316
37986SOL     OW13981   7.260  10.193   4.978
37986SOL    HW113982   7.233  10.104   4.941
37986SOL    HW213983   7.261  10.261   4.905
37987SOL     OW13984   6.811   9.635   4.173
37987SOL    HW113985   6.876   9.561   4.162
37987SOL    HW213986   6.831   9.685   4.257
37988SOL     OW13987   6.180  10.055   4.376
37988SOL    HW113988   6.230  10.140   4.357
37988SOL    HW213989   6.092  10.057   4.328
37989SOL     OW13990   7.363   9.652   5.366
37989SOL    HW113991   7.346   9.683   5.272
37989SOL    HW213992   7.279   9.615   5.404
37990SOL     OW13993   7.316  10.244   5.241
37990SOL    HW113994   7.354  10.335   5.256
37990SOL    HW213995   7.308  10.227   5.142
37991SOL     OW13996   6.445  10.684   3.740
37991SOL    HW113997   6.399  10.699   3.828
37991SOL    HW213998   6.489  10.769   3.710
37992SOL     OW13999   6.247  11.100   4.677
37992SOL    HW114000   6.201  11.188   4.664
37992SOL    HW214001   6.346  11.112   4.670
37993SOL     OW14002   6.445  10.266   4.585
37993SOL    HW114003   6.499  10.197   4.633
37993SOL    HW214004   6.413  10.335   4.651
37994SOL     OW14005   6.669  10.294   3.811
37994SOL    HW114006   6.646  10.347   3.729
37994SOL    HW214007   6.750  10.238   3.792
37995SOL     OW14008   7.447  10.879   4.575
37995SOL    HW114009   7.376  10.867   4.505
37995SOL    HW214010   7.448  10.800   4.635
37996SOL     OW14011   5.807  10.624   5.568
37996SOL    HW114012   5.742  10.551   5.547
37996SOL    HW214013   5.811  10.638   5.666
37997SOL     OW14014   5.665  10.550   4.377
37997SOL    HW114015   5.664  10.503   4.465
37997SOL    HW214016   5.747  10.522   4.326
37998SOL     OW14017   6.258  10.701   5.348
37998SOL    HW114018   6.180  10.651   5.386
37998SOL    HW214019   6.255  10.796   5.379
37999SOL     OW14020   7.410   9.502   4.951
37999SOL    HW114021   7.406   9.412   4.995
37999SOL    HW214022   7.413   9.491   4.852
38000SOL     OW14023   6.014   9.734   4.244
38000SOL    HW114024   6.044   9.662   4.182
38000SOL    HW214025   5.975   9.694   4.327
38001SOL     OW14026   7.291  10.797   4.828
38001SOL    HW114027   7.198  10.772   4.801
38001SOL    HW214028   7.317  10.747   4.910
38002SOL     OW14029   5.903   9.857   5.004
38002SOL    HW114030   5.941   9.798   5.076
38002SOL    HW214031   5.943   9.831   4.916
38003SOL     OW14032   6.398  10.896   4.411
38003SOL    HW114033   6.430  10.906   4.317
38003SOL    HW214034   6.319  10.834   4.413
38004SOL     OW14035   7.010   9.524   4.836
38004SOL    HW114036   7.062   9.459   4.891
38004SOL    HW214037   6.961   9.587   4.897
38005SOL     OW14038   6.587   9.344   4.878
38005SOL    HW114039   6.524   9.272   4.847
38005SOL    HW214040   6.680   9.308   4.878
38006SOL     OW14041   6.356  10.640   4.025
38006SOL    HW114042   6.310  10.553   4.042
38006SOL    HW214043   6.447  10.637   4.066
38007SOL     OW14044   6.204  10.877   5.008
38007SOL    HW114045   6.199  10.959   5.065
38007SOL    HW214046   6.293  10.874   4.963
38008SOL     OW14047   6.938   9.362   3.892
38008SOL    HW114048   6.973   9.321   3.808
38008SOL    HW214049   6.848   9.324   3.912
38009SOL     OW14050   6.886   9.763   4.415
38009SOL    HW114051   6.827   9.843   4.419
38009SOL    HW214052   6.901   9.728   4.508
38010SOL     OW14053   7.179   9.531   4.606
38010SOL    HW114054   7.095   9.530   4.660
38010SOL    HW214055   7.181   9.614   4.550
38011SOL     OW14056   5.625  10.387   4.024
38011SOL    HW114057   5.724  10.376   4.015
38011SOL    HW214058   5.585  10.301   4.056
38012SOL     OW14059   6.461  10.956   4.061
38012SOL    HW114060   6.384  10.921   4.007
38012SOL    HW214061   6.429  11.027   4.123
38013SOL     OW14062   5.816   9.938   5.699
38013SOL    HW114063   5.723   9.936   5.736
38013SOL    HW214064   5.817   9.899   5.607
38014SOL     OW14065   5.811   9.585   6.582
38014SOL    HW114066   5.846   9.568   6.674
38014SOL    HW214067   5.723   9.540   6.570
38015SOL     OW14068   5.605   9.678   6.233
38015SOL    HW114069   5.523   9.721   6.272
38015SOL    HW214070   5.577   9.605   6.170
38016SOL     OW14071   6.155  10.585   6.751
38016SOL    HW114072   6.062  10.578   6.714
38016SOL    HW214073   6.166  10.674   6.795
38017SOL     OW14074   7.141  10.821   6.289
38017SOL    HW114075   7.084  10.805   6.370
38017SOL    HW214076   7.082  10.831   6.209
38018SOL     OW14077   6.721  10.013   6.303
38018SOL    HW114078   6.778  10.091   6.278
38018SOL    HW214079   6.661  10.039   6.379
38019SOL     OW14080   7.341   9.917   5.817
38019SOL    HW114081   7.329   9.904   5.718
38019SOL    HW214082   7.311   9.836   5.866
38020SOL     OW14083   6.354  10.454   6.609
38020SOL    HW114084   6.276  10.471   6.669
38020SOL    HW214085   6.388  10.541   6.573
38021SOL     OW14086   6.436  10.108   7.409
38021SOL    HW114087   6.432  10.184   7.474
38021SOL    HW214088   6.458  10.144   7.318
38022SOL     OW14089   6.271  10.322   6.251
38022SOL    HW114090   6.340  10.306   6.321
38022SOL    HW214091   6.198  10.379   6.289
38023SOL     OW14092   6.272  10.471   7.389
38023SOL    HW114093   6.332  10.550   7.403
38023SOL    HW214094   6.186  10.502   7.348
38024SOL     OW14095   5.921  10.745   6.647
38024SOL    HW114096   5.843  10.714   6.594
38024SOL    HW214097   5.979  10.803   6.590
38025SOL     OW14098   7.046  10.815   6.925
38025SOL    HW114099   7.070  10.909   6.951
38025SOL    HW214100   7.030  10.761   7.007
38026SOL     OW14101   6.024   9.702   7.085
38026SOL    HW114102   6.106   9.646   7.094
38026SOL    HW214103   5.943   9.644   7.089
38027SOL     OW14104   7.189   9.757   6.323
38027SOL    HW114105   7.115   9.803   6.273
38027SOL    HW214106   7.240   9.825   6.376
38028SOL     OW14107   5.817  11.023   6.069
38028SOL    HW114108   5.851  11.100   6.123
38028SOL    HW214109   5.861  11.023   5.979
38029SOL     OW14110   6.713  10.651   7.276
38029SOL    HW114111   6.760  10.651   7.364
38029SOL    HW214112   6.665  10.564   7.265
38030SOL     OW14113   5.816  10.744   6.124
38030SOL    HW114114   5.790  10.840   6.124
38030SOL    HW214115   5.745  10.690   6.169
38031SOL     OW14116   5.826  10.401   6.472
38031SOL    HW114117   5.840  10.317   6.524
38031SOL    HW214118   5.771  10.465   6.527
38032SOL     OW14119   6.206  11.096   7.025
38032SOL    HW114120   6.114  11.079   7.060
38032SOL    HW214121   6.234  11.188   7.051
38033SOL     OW14122   6.192  10.274   5.709
38033SOL    HW114123   6.199  10.358   5.655
38033SOL    HW214124   6.238  10.287   5.797
38034SOL     OW14125   7.180   9.424   7.066
38034SOL    HW114126   7.162   9.491   6.994
38034SOL    HW214127   7.177   9.470   7.155
38035SOL     OW14128   5.708   9.953   6.149
38035SOL    HW114129   5.663   9.865   6.166
38035SOL    HW214130   5.707  10.007   6.233
38036SOL     OW14131   7.428  11.077   5.945
38036SOL    HW114132   7.482  11.048   6.025
38036SOL    HW214133   7.458  11.167   5.916
38037SOL     OW14134   5.613  10.906   5.703
38037SOL    HW114135   5.594  10.810   5.724
38037SOL    HW214136   5.580  10.964   5.778
38038SOL     OW14137   7.275  10.232   6.198
38038SOL    HW114138   7.370  10.203   6.206
38038SOL    HW214139   7.267  10.297   6.123
38039SOL     OW14140   7.227  10.418   6.018
38039SOL    HW114141   7.313  10.420   5.966
38039SOL    HW214142   7.241  10.465   6.106
38040SOL     OW14143   5.699  10.047   7.183
38040SOL    HW114144   5.787  10.034   7.228
38040SOL    HW214145   5.686  10.144   7.161
38041SOL     OW14146   6.199  10.675   6.312
38041SOL    HW114147   6.150  10.588   6.321
38041SOL    HW214148   6.176  10.718   6.225
38042SOL     OW14149   6.879  10.538   7.009
38042SOL    HW114150   6.916  10.465   6.951
38042SOL    HW214151   6.931  10.543   7.094
38043SOL     OW14152   6.395   9.314   6.088
38043SOL    HW114153   6.435   9.405   6.079
38043SOL    HW214154   6.295   9.322   6.094
38044SOL     OW14155   5.783  10.286   6.850
38044SOL    HW114156   5.872  10.241   6.836
38044SOL    HW214157   5.710  10.221   6.831
38045SOL     OW14158   7.111  10.309   5.776
38045SOL    HW114159   7.048  10.233   5.789
38045SOL    HW214160   7.159  10.327   5.862
38046SOL     OW14161   6.773  11.102   7.202
38046SOL    HW114162   6.797  11.162   7.126
38046SOL    HW214163   6.780  11.007   7.172
38047SOL     OW14164   5.903   9.561   7.387
38047SOL    HW114165   5.974   9.632   7.393
38047SOL    HW214166   5.815   9.600   7.415
38048SOL     OW14167   7.052  10.727   6.539
38048SOL    HW114168   6.993  10.733   6.619
38048SOL    HW214169   7.037  10.639   6.493
38049SOL     OW14170   7.253  11.024   6.158
38049SOL    HW114171   7.212  11.001   6.070
38049SOL    HW214172   7.235  10.950   6.223
38050SOL     OW14173   6.184  10.039   5.856
38050SOL    HW114174   6.208  10.108   5.788
38050SOL    HW214175   6.106  10.072   5.910
38051SOL     OW14176   6.867   9.655   6.530
38051SOL    HW114177   6.781   9.605   6.517
38051SOL    HW214178   6.929   9.601   6.586
38052SOL     OW14179   7.162  10.972   5.893
38052SOL    HW114180   7.251  11.018   5.896
38052SOL    HW214181   7.141  10.948   5.798
38053SOL     OW14182   6.393   9.915   7.051
38053SOL    HW114183   6.346   9.912   7.140
38053SOL    HW214184   6.342   9.860   6.985
38054SOL     OW14185   6.980   9.779   7.260
38054SOL    HW114186   6.960   9.822   7.348
38054SOL    HW214187   7.058   9.717   7.269
38055SOL     OW14188   6.559  10.200   7.158
38055SOL    HW114189   6.605  10.116   7.129
38055SOL    HW214190   6.503  10.234   7.083
38056SOL     OW14191   6.577   9.720   6.828
38056SOL    HW114192   6.500   9.754   6.882
38056SOL    HW214193   6.543   9.669   6.749
38057SOL     OW14194   6.627  10.011   6.015
38057SOL    HW114195   6.653  10.007   6.111
38057SOL    HW214196   6.542   9.960   6.001
38058SOL     OW14197   5.662  10.121   6.375
38058SOL    HW114198   5.761  10.109   6.384
38058SOL    HW214199   5.638  10.216   6.396
38059SOL     OW14200   5.716  11.131   7.157
38059SOL    HW114201   5.706  11.116   7.256
38059SOL    HW214202   5.630  11.167   7.121
38060SOL     OW14203   6.451   9.658   5.781
38060SOL    HW114204   6.510   9.721   5.732
38060SOL    HW214205   6.470   9.564   5.752
38061SOL     OW14206   7.305   9.895   7.417
38061SOL    HW114207   7.279   9.984   7.381
38061SOL    HW214208   7.303   9.827   7.344
38062SOL     OW14209   6.948  10.454   6.131
38062SOL    HW114210   7.031  10.425   6.083
38062SOL    HW214211   6.899  10.521   6.075
38063SOL     OW14212   6.136   9.506   6.471
38063SOL    HW114213   6.131   9.501   6.571
38063SOL    HW214214   6.138   9.602   6.442
38064SOL     OW14215   6.594  10.766   6.063
38064SOL    HW114216   6.548  10.838   6.011
38064SOL    HW214217   6.590  10.786   6.161
38065SOL     OW14218   5.937  11.111   6.439
38065SOL    HW114219   5.987  11.025   6.445
38065SOL    HW214220   6.002  11.188   6.436
38066SOL     OW14221   7.381  10.376   6.459
38066SOL    HW114222   7.319  10.361   6.383
38066SOL    HW214223   7.329  10.387   6.544
38067SOL     OW14224   6.813  10.860   7.092
38067SOL    HW114225   6.819  10.783   7.156
38067SOL    HW214226   6.761  10.834   7.012
38068SOL     OW14227   5.907  10.253   5.828
38068SOL    HW114228   5.989  10.292   5.786
38068SOL    HW214229   5.880  10.171   5.779
38069SOL     OW14230   7.044  10.045   6.314
38069SOL    HW114231   7.039   9.980   6.389
38069SOL    HW214232   7.124  10.104   6.327
38070SOL     OW14233   6.047  10.576   7.313
38070SOL    HW114234   5.997  10.577   7.227
38070SOL    HW214235   5.984  10.558   7.389
38071SOL     OW14236   6.697  11.086   5.823
38071SOL    HW114237   6.637  11.024   5.873
38071SOL    HW214238   6.728  11.042   5.738
38072SOL     OW14239   5.788   9.595   7.084
38072SOL    HW114240   5.708   9.655   7.071
38072SOL    HW214241   5.778   9.546   7.170
38073SOL     OW14242   7.218  10.687   5.667
38073SOL    HW114243   7.186  10.781   5.657
38073SOL    HW214244   7.142  10.624   5.655
38074SOL     OW14245   6.050  11.053   5.909
38074SOL    HW114246   6.083  11.092   5.995
38074SOL    HW214247   6.126  11.046   5.844
38075SOL     OW14248   6.986   9.417   6.012
38075SOL    HW114249   6.962   9.380   5.922
38075SOL    HW214250   7.085   9.433   6.016
38076SOL     OW14251   5.835  11.095   6.827
38076SOL    HW114252   5.892  11.030   6.877
38076SOL    HW214253   5.819  11.062   6.734
38077SOL     OW14254   6.526  11.008   6.490
38077SOL    HW114255   6.606  10.951   6.511
38077SOL    HW214256   6.477  10.968   6.413
38078SOL     OW14257   5.968  10.010   6.066
38078SOL    HW114258   6.013   9.920   6.063
38078SOL    HW214259   5.874   9.999   6.099
38079SOL     OW14260   7.133   9.532   7.315
38079SOL    HW114261   7.128   9.569   7.407
38079SOL    HW214262   7.061   9.463   7.303
38080SOL     OW14263   6.200   9.432   5.703
38080SOL    HW114264   6.298   9.410   5.710
38080SOL    HW214265   6.169   9.415   5.610
38081SOL     OW14266   6.367   9.574   7.335
38081SOL    HW114267   6.434   9.513   7.378
38081SOL    HW214268   6.294   9.593   7.400
38082SOL     OW14269   6.474  10.824   6.781
38082SOL    HW114270   6.451  10.799   6.687
38082SOL    HW214271   6.535  10.755   6.820
38083SOL     OW14272   6.937   9.900   7.019
38083SOL    HW114273   6.965   9.857   7.104
38083SOL    HW214274   6.962   9.996   7.020
38084SOL     OW14275   6.389  10.712   6.510
38084SOL    HW114276   6.479  10.726   6.468
38084SOL    HW214277   6.318  10.714   6.439
38085SOL     OW14278   6.508   9.813   6.485
38085SOL    HW114279   6.483   9.804   6.389
38085SOL    HW214280   6.556   9.731   6.516
38086SOL     OW14281   6.125   9.374   6.098
38086SOL    HW114282   6.044   9.375   6.156
38086SOL    HW214283   6.128   9.457   6.043
38087SOL     OW14284   7.020  10.498   5.627
38087SOL    HW114285   7.052  10.422   5.684
38087SOL    HW214286   6.928  10.525   5.657
38088SOL     OW14287   5.883   9.345   5.757
38088SOL    HW114288   5.932   9.429   5.736
38088SOL    HW214289   5.945   9.280   5.802
38089SOL     OW14290   6.521   9.546   6.066
38089SOL    HW114291   6.473   9.587   5.988
38089SOL    HW214292   6.620   9.544   6.047
38090SOL     OW14293   6.662   9.993   7.050
38090SOL    HW114294   6.582   9.932   7.053
38090SOL    HW214295   6.743   9.940   7.026
38091SOL     OW14296   6.813  10.880   6.379
38091SOL    HW114297   6.834  10.954   6.314
38091SOL    HW214298   6.881  10.880   6.452
38092SOL     OW14299   6.045  10.462   6.327
38092SOL    HW114300   5.974  10.435   6.392
38092SOL    HW214301   6.019  10.434   6.234
38093SOL     OW14302   6.857  11.107   6.177
38093SOL    HW114303   6.901  11.171   6.113
38093SOL    HW214304   6.807  11.159   6.247
38094SOL     OW14305   6.618   9.859   5.602
38094SOL    HW114306   6.577   9.941   5.563
38094SOL    HW214307   6.682   9.885   5.675
38095SOL     OW14308   5.664   9.866   6.972
38095SOL    HW114309   5.756   9.865   6.931
38095SOL    HW214310   5.658   9.940   7.039
38096SOL     OW14311   6.147   9.532   6.733
38096SOL    HW114312   6.185   9.448   6.770
38096SOL    HW214313   6.059   9.551   6.777
38097SOL     OW14314   6.452   9.764   6.228
38097SOL    HW114315   6.420   9.836   6.166
38097SOL    HW214316   6.476   9.683   6.175
38098SOL     OW14317   6.603   9.349   6.339
38098SOL    HW114318   6.531   9.354   6.270
38098SOL    HW214319   6.579   9.280   6.408
38099SOL     OW14320   7.015  10.483   6.453
38099SOL    HW114321   6.960  10.399   6.446
38099SOL    HW214322   7.041  10.512   6.361
38100SOL     OW14323   7.052   9.900   6.578
38100SOL    HW114324   7.022   9.805   6.585
38100SOL    HW214325   7.125   9.916   6.644
38101SOL     OW14326   7.443  10.143   5.963
38101SOL    HW114327   7.485  10.079   6.027
38101SOL    HW214328   7.405  10.092   5.885
38102SOL     OW14329   6.074  10.695   5.760
38102SOL    HW114330   5.987  10.680   5.807
38102SOL    HW214331   6.057  10.721   5.665
38103SOL     OW14332   7.250  10.590   6.243
38103SOL    HW114333   7.349  10.598   6.257
38103SOL    HW214334   7.205  10.674   6.274
38104SOL     OW14335   6.976   9.885   5.664
38104SOL    HW114336   6.922   9.864   5.745
38104SOL    HW214337   7.067   9.844   5.673
38105SOL     OW14338   6.113   9.566   5.914
38105SOL    HW114339   6.140   9.507   5.839
38105SOL    HW214340   6.113   9.661   5.883
38106SOL     OW14341   7.340  10.533   7.174
38106SOL    HW114342   7.431  10.494   7.161
38106SOL    HW214343   7.348  10.629   7.198
38107SOL     OW14344   6.650  10.657   6.926
38107SOL    HW114345   6.570  10.634   6.981
38107SOL    HW214346   6.733  10.631   6.975
38108SOL     OW14347   7.178  10.939   7.211
38108SOL    HW114348   7.205  10.973   7.121
38108SOL    HW214349   7.257  10.901   7.257
38109SOL     OW14350   6.697  10.505   6.686
38109SOL    HW114351   6.657  10.549   6.767
38109SOL    HW214352   6.656  10.542   6.603
38110SOL     OW14353   7.224  10.409   6.665
38110SOL    HW114354   7.229  10.490   6.724
38110SOL    HW214355   7.138  10.411   6.614
38111SOL     OW14356   6.501   9.399   6.988
38111SOL    HW114357   6.526   9.379   6.893
38111SOL    HW214358   6.573   9.455   7.030
38112SOL     OW14359   6.566  10.426   7.305
38112SOL    HW114360   6.467  10.432   7.315
38112SOL    HW214361   6.589  10.346   7.249
38113SOL     OW14362   6.291  10.360   5.954
38113SOL    HW114363   6.277  10.367   6.053
38113SOL    HW214364   6.375  10.309   5.936
38114SOL     OW14365   5.996  10.123   6.837
38114SOL    HW114366   6.082  10.135   6.887
38114SOL    HW214367   5.954  10.036   6.864
38115SOL     OW14368   6.860   9.696   6.848
38115SOL    HW114369   6.881   9.770   6.912
38115SOL    HW214370   6.771   9.713   6.805
38116SOL     OW14371   5.650  10.874   6.917
38116SOL    HW114372   5.604  10.956   6.883
38116SOL    HW214373   5.748  10.893   6.926
38117SOL     OW14374   5.953  10.410   6.087
38117SOL    HW114375   5.946  10.493   6.031
38117SOL    HW214376   5.957  10.330   6.027
38118SOL     OW14377   6.152   9.847   6.451
38118SOL    HW114378   6.164   9.913   6.377
38118SOL    HW214379   6.198   9.881   6.534
38119SOL     OW14380   6.838  10.658   5.974
38119SOL    HW114381   6.888  10.735   6.014
38119SOL    HW214382   6.743  10.660   6.006
38120SOL     OW14383   6.858  10.755   6.728
38120SOL    HW114384   6.905  10.768   6.815
38120SOL    HW214385   6.792  10.681   6.737
38121SOL     OW14386   7.168   9.949   6.058
38121SOL    HW114387   7.137  10.010   6.131
38121SOL    HW214388   7.218  10.001   5.989
38122SOL     OW14389   5.940  10.820   6.915
38122SOL    HW114390   5.919  10.776   6.828
38122SOL    HW214391   6.037  10.846   6.918
38123SOL     OW14392   5.988  10.061   7.184
38123SOL    HW114393   6.056  10.116   7.137
38123SOL    HW214394   6.028   9.973   7.211
38124SOL     OW14395   7.173  10.089   7.256
38124SOL    HW114396   7.081  10.127   7.251
38124SOL    HW214397   7.233  10.136   7.191
38125SOL     OW14398   6.599   9.415   7.356
38125SOL    HW114399   6.605   9.500   7.304
38125SOL    HW214400   6.631   9.339   7.299
38126SOL     OW14401   6.090   9.360   7.326
38126SOL    HW114402   6.048   9.303   7.256
38126SOL    HW214403   6.024   9.429   7.358
38127SOL     OW14404   6.159  10.180   6.615
38127SOL    HW114405   6.203  10.269   6.606
38127SOL    HW214406   6.096  10.180   6.692
38128SOL     OW14407   6.946  10.172   6.631
38128SOL    HW114408   6.871  10.172   6.565
38128SOL    HW214409   6.983  10.080   6.640
38129SOL     OW14410   6.795   9.835   5.861
38129SOL    HW114411   6.808   9.751   5.915
38129SOL    HW214412   6.766   9.909   5.921
38130SOL     OW14413   5.893   9.523   6.817
38130SOL    HW114414   5.870   9.560   6.907
38130SOL    HW214415   5.863   9.428   6.811
38131SOL     OW14416   5.623  10.620   6.868
38131SOL    HW114417   5.676  10.571   6.936
38131SOL    HW214418   5.645  10.718   6.873
38132SOL     OW14419   6.318   9.944   6.650
38132SOL    HW114420   6.377   9.918   6.574
38132SOL    HW214421   6.290  10.040   6.639
38133SOL     OW14422   7.314  10.245   7.440
38133SOL    HW114423   7.268  10.238   7.351
38133SOL    HW214424   7.252  10.289   7.506
38134SOL     OW14425   5.893   9.373   6.204
38134SOL    HW114426   5.882   9.467   6.237
38134SOL    HW214427   5.888   9.310   6.281
38135SOL     OW14428   7.208   9.677   5.960
38135SOL    HW114429   7.210   9.601   6.024
38135SOL    HW214430   7.160   9.754   6.000
38136SOL     OW14431   6.609  10.076   6.552
38136SOL    HW114432   6.624  10.097   6.648
38136SOL    HW214433   6.579   9.981   6.543
38137SOL     OW14434   6.566  10.883   7.286
38137SOL    HW114435   6.546  10.927   7.198
38137SOL    HW214436   6.605  10.792   7.270
38138SOL     OW14437   7.445  10.828   7.191
38138SOL    HW114438   7.459  10.855   7.096
38138SOL    HW214439   7.528  10.850   7.244
38139SOL     OW14440   5.936  10.208   7.390
38139SOL    HW114441   6.012  10.252   7.438
38139SOL    HW214442   5.971  10.161   7.308
38140SOL     OW14443   7.126   9.584   5.711
38140SOL    HW114444   7.065   9.509   5.734
38140SOL    HW214445   7.148   9.636   5.794
38141SOL     OW14446   6.889  10.148   5.628
38141SOL    HW114447   6.923  10.055   5.643
38141SOL    HW214448   6.907  10.175   5.533
38142SOL     OW14449   6.654  10.643   6.435
38142SOL    HW114450   6.661  10.559   6.380
38142SOL    HW214451   6.716  10.712   6.399
38143SOL     OW14452   5.905  10.120   6.535
38143SOL    HW114453   5.998  10.156   6.540
38143SOL    HW214454   5.899  10.035   6.587
38144SOL     OW14455   5.925   9.819   6.592
38144SOL    HW114456   5.873   9.736   6.575
38144SOL    HW214457   6.002   9.824   6.528
38145SOL     OW14458   6.724   9.690   7.264
38145SOL    HW114459   6.679   9.753   7.328
38145SOL    HW214460   6.817   9.721   7.247
38146SOL     OW14461   6.746   9.517   7.063
38146SOL    HW114462   6.746   9.581   7.140
38146SOL    HW214463   6.774   9.565   6.980
38147SOL     OW14464   5.594  10.636   5.786
38147SOL    HW114465   5.501  10.657   5.755
38147SOL    HW214466   5.604  10.537   5.799
38148SOL     OW14467   5.674  11.111   6.513
38148SOL    HW114468   5.632  11.025   6.486
38148SOL    HW214469   5.768  11.114   6.479
38149SOL     OW14470   6.090  10.878   6.496
38149SOL    HW114471   6.156  10.952   6.505
38149SOL    HW214472   6.134  10.799   6.454
38150SOL     OW14473   6.588  10.106   6.824
38150SOL    HW114474   6.629  10.074   6.910
38150SOL    HW214475   6.492  10.079   6.821
38151SOL     OW14476   5.626   9.854   6.700
38151SOL    HW114477   5.711   9.821   6.659
38151SOL    HW214478   5.639   9.869   6.798
38152SOL     OW14479   5.775   9.830   7.308
38152SOL    HW114480   5.834   9.790   7.238
38152SOL    HW214481   5.717   9.901   7.267
38153SOL     OW14482   6.955  10.260   7.246
38153SOL    HW114483   6.994  10.349   7.266
38153SOL    HW214484   6.965  10.240   7.149
38154SOL     OW14485   6.401   9.882   5.911
38154SOL    HW114486   6.408   9.793   5.865
38154SOL    HW214487   6.307   9.916   5.903
38155SOL     OW14488   7.243   9.914   6.792
38155SOL    HW114489   7.205   9.845   6.854
38155SOL    HW214490   7.325   9.878   6.748
38156SOL     OW14491   5.838  10.874   7.330
38156SOL    HW114492   5.808  10.931   7.406
38156SOL    HW214493   5.831  10.777   7.356
38157SOL     OW14494   6.257   9.774   6.855
38157SOL    HW114495   6.223   9.685   6.825
38157SOL    HW214496   6.283   9.828   6.775
38158SOL     OW14497   6.516  10.988   7.051
38158SOL    HW114498   6.492  10.970   6.956
38158SOL    HW214499   6.546  11.082   7.061
38159SOL     OW14500   6.059   9.810   5.777
38159SOL    HW114501   6.120   9.890   5.781
38159SOL    HW214502   5.964   9.841   5.784
38160SOL     OW14503   5.745  10.447   7.052
38160SOL    HW114504   5.767  10.386   7.128
38160SOL    HW214505   5.755  10.398   6.966
38161SOL     OW14506   6.933  10.369   6.820
38161SOL    HW114507   6.957  10.306   6.746
38161SOL    HW214508   6.843  10.409   6.802
38162SOL     OW14509   6.888  10.165   5.895
38162SOL    HW114510   6.802  10.134   5.937
38162SOL    HW214511   6.884  10.151   5.796
38163SOL     OW14512   7.345  11.057   6.740
38163SOL    HW114513   7.406  11.087   6.667
38163SOL    HW214514   7.307  10.968   6.718
38164SOL     OW14515   6.838  11.041   6.714
38164SOL    HW114516   6.922  11.046   6.660
38164SOL    HW214517   6.815  10.945   6.732
38165SOL     OW14518   5.669  10.568   6.608
38165SOL    HW114519   5.664  10.567   6.708
38165SOL    HW214520   5.586  10.527   6.570
38166SOL     OW14521   6.274  10.972   7.302
38166SOL    HW114522   6.218  11.053   7.311
38166SOL    HW214523   6.326  10.976   7.216
38167SOL     OW14524   7.312   9.445   6.109
38167SOL    HW114525   7.385   9.428   6.042
38167SOL    HW214526   7.281   9.358   6.147
38168SOL     OW14527   6.974  10.883   6.063
38168SOL    HW114528   7.041  10.895   5.989
38168SOL    HW214529   6.934  10.972   6.086
38169SOL     OW14530   5.716  11.104   7.437
38169SOL    HW114531   5.675  11.030   7.490
38169SOL    HW214532   5.780  11.155   7.495
38170SOL     OW14533   6.866  10.237   6.258
38170SOL    HW114534   6.926  10.156   6.260
38170SOL    HW214535   6.906  10.306   6.198
38171SOL     OW14536   6.416  10.583   7.008
38171SOL    HW114537   6.411  10.616   7.103
38171SOL    HW214538   6.330  10.602   6.962
38172SOL     OW14539   6.258  10.926   5.740
38172SOL    HW114540   6.267  10.936   5.641
38172SOL    HW214541   6.218  10.837   5.761
38173SOL     OW14542   7.236  11.030   6.980
38173SOL    HW114543   7.289  11.040   6.896
38173SOL    HW214544   7.209  11.120   7.014
38174SOL     OW14545   7.427   9.485   6.549
38174SOL    HW114546   7.466   9.400   6.513
38174SOL    HW214547   7.329   9.487   6.530
38175SOL     OW14548   5.849   9.636   6.306
38175SOL    HW114549   5.770   9.687   6.272
38175SOL    HW214550   5.840   9.621   6.404
38176SOL     OW14551   6.780  10.922   5.617
38176SOL    HW114552   6.786  10.829   5.654
38176SOL    HW214553   6.721  10.922   5.537
38177SOL     OW14554   6.408  10.312   6.958
38177SOL    HW114555   6.448  10.311   6.866
38177SOL    HW214556   6.418  10.404   6.998
38178SOL     OW14557   6.502  10.220   5.877
38178SOL    HW114558   6.565  10.258   5.809
38178SOL    HW214559   6.542  10.137   5.916
38179SOL     OW14560   7.090  10.917   5.630
38179SOL    HW114561   6.998  10.954   5.637
38179SOL    HW214562   7.128  10.937   5.540
38180SOL     OW14563   5.958  10.598   7.076
38180SOL    HW114564   5.945  10.691   7.042
38180SOL    HW214565   5.874  10.546   7.063
38181SOL     OW14566   7.200  10.602   6.875
38181SOL    HW114567   7.260  10.605   6.955
38181SOL    HW214568   7.125  10.666   6.888
38182SOL     OW14569   6.625  10.408   6.282
38182SOL    HW114570   6.555  10.361   6.336
38182SOL    HW214571   6.684  10.340   6.239
38183SOL     OW14572   6.600   9.546   6.557
38183SOL    HW114573   6.592   9.510   6.464
38183SOL    HW214574   6.598   9.470   6.622
38184SOL     OW14575   6.176  10.797   6.077
38184SOL    HW114576   6.218  10.739   6.007
38184SOL    HW214577   6.132  10.876   6.033
38185SOL     OW14578   7.295   9.695   6.967
38185SOL    HW114579   7.368   9.764   6.971
38185SOL    HW214580   7.323   9.620   6.908
38186SOL     OW14581   5.841  10.658   5.876
38186SOL    HW114582   5.745  10.659   5.849
38186SOL    HW214583   5.853  10.711   5.960
38187SOL     OW14584   5.691  10.323   7.312
38187SOL    HW114585   5.614  10.290   7.366
38187SOL    HW214586   5.776  10.293   7.354
38188SOL     OW14587   6.258   9.513   7.075
38188SOL    HW114588   6.348   9.497   7.035
38188SOL    HW214589   6.266   9.518   7.174
38189SOL     OW14590   5.661   9.655   5.619
38189SOL    HW114591   5.569   9.627   5.590
38189SOL    HW214592   5.692   9.732   5.563
38190SOL     OW14593   7.026  10.166   6.984
38190SOL    HW114594   6.969  10.218   6.921
38190SOL    HW214595   7.122  10.178   6.960
38191SOL     OW14596   5.658   9.476   5.904
38191SOL    HW114597   5.641   9.559   5.850
38191SOL    HW214598   5.748   9.439   5.882
38192SOL     OW14599   6.769  10.645   5.705
38192SOL    HW114600   6.670  10.634   5.707
38192SOL    HW214601   6.803  10.660   5.798
38193SOL     OW14602   6.199  10.152   7.017
38193SOL    HW114603   6.255  10.233   7.000
38193SOL    HW214604   6.258  10.072   7.020
38194SOL     OW14605   7.079  11.077   6.545
38194SOL    HW114606   7.112  11.141   6.476
38194SOL    HW214607   7.145  11.071   6.620
38195SOL     OW14608   6.302   9.875   7.294
38195SOL    HW114609   6.321   9.940   7.368
38195SOL    HW214610   6.362   9.795   7.303
38196SOL     OW14611   7.036  10.530   7.219
38196SOL    HW114612   7.027  10.520   7.318
38196SOL    HW214613   7.132  10.523   7.193
38197SOL     OW14614   5.976  11.051   7.146
38197SOL    HW114615   5.885  11.092   7.144
38197SOL    HW214616   5.969  10.957   7.178
38198SOL     OW14617   7.260  10.193   6.840
38198SOL    HW114618   7.233  10.104   6.803
38198SOL    HW214619   7.261  10.261   6.767
38199SOL     OW14620   6.811   9.635   6.035
38199SOL    HW114621   6.876   9.561   6.024
38199SOL    HW214622   6.831   9.685   6.119
38200SOL     OW14623   6.180  10.055   6.238
38200SOL    HW114624   6.230  10.140   6.219
38200SOL    HW214625   6.092  10.057   6.190
38201SOL     OW14626   7.363   9.652   7.228
38201SOL    HW114627   7.346   9.683   7.134
38201SOL    HW214628   7.279   9.615   7.266
38202SOL     OW14629   7.316  10.244   7.103
38202SOL    HW114630   7.354  10.335   7.118
38202SOL    HW214631   7.308  10.227   7.004
38203SOL     OW14632   6.445  10.684   5.602
38203SOL    HW114633   6.399  10.699   5.690
38203SOL    HW214634   6.489  10.769   5.572
38204SOL     OW14635   6.247  11.100   6.539
38204SOL    HW114636   6.201  11.188   6.526
38204SOL    HW214637   6.346  11.112   6.532
38205SOL     OW14638   6.445  10.266   6.447
38205SOL    HW114639   6.499  10.197   6.495
38205SOL    HW214640   6.413  10.335   6.513
38206SOL     OW14641   6.669  10.294   5.673
38206SOL    HW114642   6.646  10.347   5.591
38206SOL    HW214643   6.750  10.238   5.654
38207SOL     OW14644   7.447  10.879   6.437
38207SOL    HW114645   7.376  10.867   6.367
38207SOL    HW214646   7.448  10.800   6.497
38208SOL     OW14647   5.807  10.624   7.430
38208SOL    HW114648   5.742  10.551   7.409
38208SOL    HW214649   5.811  10.638   7.528
38209SOL     OW14650   5.665  10.550   6.239
38209SOL    HW114651   5.664  10.503   6.327
38209SOL    HW214652   5.747  10.522   6.188
38210SOL     OW14653   6.258  10.701   7.210
38210SOL    HW114654   6.180  10.651   7.248
38210SOL    HW214655   6.255  10.796   7.241
38211SOL     OW14656   7.410   9.502   6.813
38211SOL    HW114657   7.406   9.412   6.857
38211SOL    HW214658   7.413   9.491   6.714
38212SOL     OW14659   6.014   9.734   6.106
38212SOL    HW114660   6.044   9.662   6.044
38212SOL    HW214661   5.975   9.694   6.189
38213SOL     OW14662   7.291  10.797   6.690
38213SOL    HW114663   7.198  10.772   6.663
38213SOL    HW214664   7.317  10.747   6.772
38214SOL     OW14665   5.903   9.857   6.866
38214SOL    HW114666   5.941   9.798   6.938
38214SOL    HW214667   5.943   9.831   6.778
38215SOL     OW14668   6.398  10.896   6.273
38215SOL    HW114669   6.430  10.906   6.179
38215SOL    HW214670   6.319  10.834   6.275
38216SOL     OW14671   7.010   9.524   6.698
38216SOL    HW114672   7.062   9.459   6.753
38216SOL    HW214673   6.961   9.587   6.759
38217SOL     OW14674   6.587   9.344   6.740
38217SOL    HW114675   6.524   9.272   6.709
38217SOL    HW214676   6.680   9.308   6.740
38218SOL     OW14677   6.356  10.640   5.887
38218SOL    HW114678   6.310  10.553   5.904
38218SOL    HW214679   6.447  10.637   5.928
38219SOL     OW14680   6.204  10.877   6.870
38219SOL    HW114681   6.199  10.959   6.927
38219SOL    HW214682   6.293  10.874   6.825
38220SOL     OW14683   6.938   9.362   5.754
38220SOL    HW114684   6.973   9.321   5.670
38220SOL    HW214685   6.848   9.324   5.774
38221SOL     OW14686   6.886   9.763   6.277
38221SOL    HW114687   6.827   9.843   6.281
38221SOL    HW214688   6.901   9.728   6.370
38222SOL     OW14689   7.179   9.531   6.468
38222SOL    HW114690   7.095   9.530   6.522
38222SOL    HW214691   7.181   9.614   6.412
38223SOL     OW14692   5.625  10.387   5.886
38223SOL    HW114693   5.724  10.376   5.877
38223SOL    HW214694   5.585  10.301   5.918
38224SOL     OW14695   6.461  10.956   5.923
38224SOL    HW114696   6.384  10.921   5.869
38224SOL    HW214697   6.429  11.027   5.985
38225SOL     OW14698   5.816   9.938   7.561
38225SOL    HW114699   5.723   9.936   7.598
38225SOL    HW214700   5.817   9.899   7.469
38226SOL     OW14701   5.811   9.585   8.444
38226SOL    HW114702   5.846   9.568   8.536
38226SOL    HW214703   5.723   9.540   8.432
38227SOL     OW14704   5.605   9.678   8.095
38227SOL    HW114705   5.523   9.721   8.134
38227SOL    HW214706   5.577   9.605   8.032
38228SOL     OW14707   6.155  10.585   8.613
38228SOL    HW114708   6.062  10.578   8.576
38228SOL    HW214709   6.166  10.674   8.657
38229SOL     OW14710   7.141  10.821   8.151
38229SOL    HW114711   7.084  10.805   8.232
38229SOL    HW214712   7.082  10.831   8.071
38230SOL     OW14713   6.721  10.013   8.165
38230SOL    HW114714   6.778  10.091   8.140
38230SOL    HW214715   6.661  10.039   8.241
38231SOL     OW14716   7.341   9.917   7.679
38231SOL    HW114717   7.329   9.904   7.580
38231SOL    HW214718   7.311   9.836   7.728
38232SOL     OW14719   6.354  10.454   8.471
38232SOL    HW114720   6.276  10.471   8.531
38232SOL    HW214721   6.388  10.541   8.435
38233SOL     OW14722   6.436  10.108   9.271
38233SOL    HW114723   6.432  10.184   9.336
38233SOL    HW214724   6.458  10.144   9.180
38234SOL     OW14725   6.271  10.322   8.113
38234SOL    HW114726   6.340  10.306   8.183
38234SOL    HW214727   6.198  10.379   8.151
38235SOL     OW14728   6.272  10.471   9.251
38235SOL    HW114729   6.332  10.550   9.265
38235SOL    HW214730   6.186  10.502   9.210
38236SOL     OW14731   5.921  10.745   8.509
38236SOL    HW114732   5.843  10.714   8.456
38236SOL    HW214733   5.979  10.803   8.452
38237SOL     OW14734   7.046  10.815   8.787
38237SOL    HW114735   7.070  10.909   8.813
38237SOL    HW214736   7.030  10.761   8.869
38238SOL     OW14737   6.024   9.702   8.947
38238SOL    HW114738   6.106   9.646   8.956
38238SOL    HW214739   5.943   9.644   8.951
38239SOL     OW14740   7.189   9.757   8.185
38239SOL    HW114741   7.115   9.803   8.135
38239SOL    HW214742   7.240   9.825   8.238
38240SOL     OW14743   5.817  11.023   7.931
38240SOL    HW114744   5.851  11.100   7.985
38240SOL    HW214745   5.861  11.023   7.841
38241SOL     OW14746   6.713  10.651   9.138
38241SOL    HW114747   6.760  10.651   9.226
38241SOL    HW214748   6.665  10.564   9.127
38242SOL     OW14749   5.816  10.744   7.986
38242SOL    HW114750   5.790  10.840   7.986
38242SOL    HW214751   5.745  10.690   8.031
38243SOL     OW14752   5.826  10.401   8.334
38243SOL    HW114753   5.840  10.317   8.386
38243SOL    HW214754   5.771  10.465   8.389
38244SOL     OW14755   6.206  11.096   8.887
38244SOL    HW114756   6.114  11.079   8.922
38244SOL    HW214757   6.234  11.188   8.913
38245SOL     OW14758   6.192  10.274   7.571
38245SOL    HW114759   6.199  10.358   7.517
38245SOL    HW214760   6.238  10.287   7.659
38246SOL     OW14761   7.180   9.424   8.928
38246SOL    HW114762   7.162   9.491   8.856
38246SOL    HW214763   7.177   9.470   9.017
38247SOL     OW14764   5.708   9.953   8.011
38247SOL    HW114765   5.663   9.865   8.028
38247SOL    HW214766   5.707  10.007   8.095
38248SOL     OW14767   7.428  11.077   7.807
38248SOL    HW114768   7.482  11.048   7.887
38248SOL    HW214769   7.458  11.167   7.778
38249SOL     OW14770   5.613  10.906   7.565
38249SOL    HW114771   5.594  10.810   7.586
38249SOL    HW214772   5.580  10.964   7.640
38250SOL     OW14773   7.275  10.232   8.060
38250SOL    HW114774   7.370  10.203   8.068
38250SOL    HW214775   7.267  10.297   7.985
38251SOL     OW14776   7.227  10.418   7.880
38251SOL    HW114777   7.313  10.420   7.828
38251SOL    HW214778   7.241  10.465   7.968
38252SOL     OW14779   5.699  10.047   9.045
38252SOL    HW114780   5.787  10.034   9.090
38252SOL    HW214781   5.686  10.144   9.023
38253SOL     OW14782   6.199  10.675   8.174
38253SOL    HW114783   6.150  10.588   8.183
38253SOL    HW214784   6.176  10.718   8.087
38254SOL     OW14785   6.879  10.538   8.871
38254SOL    HW114786   6.916  10.465   8.813
38254SOL    HW214787   6.931  10.543   8.956
38255SOL     OW14788   6.395   9.314   7.950
38255SOL    HW114789   6.435   9.405   7.941
38255SOL    HW214790   6.295   9.322   7.956
38256SOL     OW14791   5.783  10.286   8.712
38256SOL    HW114792   5.872  10.241   8.698
38256SOL    HW214793   5.710  10.221   8.693
38257SOL     OW14794   7.111  10.309   7.638
38257SOL    HW114795   7.048  10.233   7.651
38257SOL    HW214796   7.159  10.327   7.724
38258SOL     OW14797   6.773  11.102   9.064
38258SOL    HW114798   6.797  11.162   8.988
38258SOL    HW214799   6.780  11.007   9.034
38259SOL     OW14800   5.903   9.561   9.249
38259SOL    HW114801   5.974   9.632   9.255
38259SOL    HW214802   5.815   9.600   9.277
38260SOL     OW14803   7.052  10.727   8.401
38260SOL    HW114804   6.993  10.733   8.481
38260SOL    HW214805   7.037  10.639   8.355
38261SOL     OW14806   7.253  11.024   8.020
38261SOL    HW114807   7.212  11.001   7.932
38261SOL    HW214808   7.235  10.950   8.085
38262SOL     OW14809   6.184  10.039   7.718
38262SOL    HW114810   6.208  10.108   7.650
38262SOL    HW214811   6.106  10.072   7.772
38263SOL     OW14812   6.867   9.655   8.392
38263SOL    HW114813   6.781   9.605   8.379
38263SOL    HW214814   6.929   9.601   8.448
38264SOL     OW14815   7.162  10.972   7.755
38264SOL    HW114816   7.251  11.018   7.758
38264SOL    HW214817   7.141  10.948   7.660
38265SOL     OW14818   6.393   9.915   8.913
38265SOL    HW114819   6.346   9.912   9.002
38265SOL    HW214820   6.342   9.860   8.847
38266SOL     OW14821   6.980   9.779   9.122
38266SOL    HW114822   6.960   9.822   9.210
38266SOL    HW214823   7.058   9.717   9.131
38267SOL     OW14824   6.559  10.200   9.020
38267SOL    HW114825   6.605  10.116   8.991
38267SOL    HW214826   6.503  10.234   8.945
38268SOL     OW14827   6.577   9.720   8.690
38268SOL    HW114828   6.500   9.754   8.744
38268SOL    HW214829   6.543   9.669   8.611
38269SOL     OW14830   6.627  10.011   7.877
38269SOL    HW114831   6.653  10.007   7.973
38269SOL    HW214832   6.542   9.960   7.863
38270SOL     OW14833   5.662  10.121   8.237
38270SOL    HW114834   5.761  10.109   8.246
38270SOL    HW214835   5.638  10.216   8.258
38271SOL     OW14836   5.716  11.131   9.019
38271SOL    HW114837   5.706  11.116   9.118
38271SOL    HW214838   5.630  11.167   8.983
38272SOL     OW14839   6.451   9.658   7.643
38272SOL    HW114840   6.510   9.721   7.594
38272SOL    HW214841   6.470   9.564   7.614
38273SOL     OW14842   7.305   9.895   9.279
38273SOL    HW114843   7.279   9.984   9.243
38273SOL    HW214844   7.303   9.827   9.206
38274SOL     OW14845   6.948  10.454   7.993
38274SOL    HW114846   7.031  10.425   7.945
38274SOL    HW214847   6.899  10.521   7.937
38275SOL     OW14848   6.136   9.506   8.333
38275SOL    HW114849   6.131   9.501   8.433
38275SOL    HW214850   6.138   9.602   8.304
38276SOL     OW14851   6.594  10.766   7.925
38276SOL    HW114852   6.548  10.838   7.873
38276SOL    HW214853   6.590  10.786   8.023
38277SOL     OW14854   5.937  11.111   8.301
38277SOL    HW114855   5.987  11.025   8.307
38277SOL    HW214856   6.002  11.188   8.298
38278SOL     OW14857   7.381  10.376   8.321
38278SOL    HW114858   7.319  10.361   8.245
38278SOL    HW214859   7.329  10.387   8.406
38279SOL     OW14860   6.813  10.860   8.954
38279SOL    HW114861   6.819  10.783   9.018
38279SOL    HW214862   6.761  10.834   8.874
38280SOL     OW14863   5.907  10.253   7.690
38280SOL    HW114864   5.989  10.292   7.648
38280SOL    HW214865   5.880  10.171   7.641
38281SOL     OW14866   7.044  10.045   8.176
38281SOL    HW114867   7.039   9.980   8.251
38281SOL    HW214868   7.124  10.104   8.189
38282SOL     OW14869   6.047  10.576   9.175
38282SOL    HW114870   5.997  10.577   9.089
38282SOL    HW214871   5.984  10.558   9.251
38283SOL     OW14872   6.697  11.086   7.685
38283SOL    HW114873   6.637  11.024   7.735
38283SOL    HW214874   6.728  11.042   7.600
38284SOL     OW14875   5.788   9.595   8.946
38284SOL    HW114876   5.708   9.655   8.933
38284SOL    HW214877   5.778   9.546   9.032
38285SOL     OW14878   7.218  10.687   7.529
38285SOL    HW114879   7.186  10.781   7.519
38285SOL    HW214880   7.142  10.624   7.517
38286SOL     OW14881   6.050  11.053   7.771
38286SOL    HW114882   6.083  11.092   7.857
38286SOL    HW214883   6.126  11.046   7.706
38287SOL     OW14884   6.986   9.417   7.874
38287SOL    HW114885   6.962   9.380   7.784
38287SOL    HW214886   7.085   9.433   7.878
38288SOL     OW14887   5.835  11.095   8.689
38288SOL    HW114888   5.892  11.030   8.739
38288SOL    HW214889   5.819  11.062   8.596
38289SOL     OW14890   6.526  11.008   8.352
38289SOL    HW114891   6.606  10.951   8.373
38289SOL    HW214892   6.477  10.968   8.275
38290SOL     OW14893   5.968  10.010   7.928
38290SOL    HW114894   6.013   9.920   7.925
38290SOL    HW214895   5.874   9.999   7.961
38291SOL     OW14896   7.133   9.532   9.177
38291SOL    HW114897   7.128   9.569   9.269
38291SOL    HW214898   7.061   9.463   9.165
38292SOL     OW14899   6.200   9.432   7.565
38292SOL    HW114900   6.298   9.410   7.572
38292SOL    HW214901   6.169   9.415   7.472
38293SOL     OW14902   6.367   9.574   9.197
38293SOL    HW114903   6.434   9.513   9.240
38293SOL    HW214904   6.294   9.593   9.262
38294SOL     OW14905   6.474  10.824   8.643
38294SOL    HW114906   6.451  10.799   8.549
38294SOL    HW214907   6.535  10.755   8.682
38295SOL     OW14908   6.937   9.900   8.881
38295SOL    HW114909   6.965   9.857   8.966
38295SOL    HW214910   6.962   9.996   8.882
38296SOL     OW14911   6.389  10.712   8.372
38296SOL    HW114912   6.479  10.726   8.330
38296SOL    HW214913   6.318  10.714   8.301
38297SOL     OW14914   6.508   9.813   8.347
38297SOL    HW114915   6.483   9.804   8.251
38297SOL    HW214916   6.556   9.731   8.378
38298SOL     OW14917   6.125   9.374   7.960
38298SOL    HW114918   6.044   9.375   8.018
38298SOL    HW214919   6.128   9.457   7.905
38299SOL     OW14920   7.020  10.498   7.489
38299SOL    HW114921   7.052  10.422   7.546
38299SOL    HW214922   6.928  10.525   7.519
38300SOL     OW14923   5.883   9.345   7.619
38300SOL    HW114924   5.932   9.429   7.598
38300SOL    HW214925   5.945   9.280   7.664
38301SOL     OW14926   6.521   9.546   7.928
38301SOL    HW114927   6.473   9.587   7.850
38301SOL    HW214928   6.620   9.544   7.909
38302SOL     OW14929   6.662   9.993   8.912
38302SOL    HW114930   6.582   9.932   8.915
38302SOL    HW214931   6.743   9.940   8.888
38303SOL     OW14932   6.813  10.880   8.241
38303SOL    HW114933   6.834  10.954   8.176
38303SOL    HW214934   6.881  10.880   8.314
38304SOL     OW14935   6.045  10.462   8.189
38304SOL    HW114936   5.974  10.435   8.254
38304SOL    HW214937   6.019  10.434   8.096
38305SOL     OW14938   6.857  11.107   8.039
38305SOL    HW114939   6.901  11.171   7.975
38305SOL    HW214940   6.807  11.159   8.109
38306SOL     OW14941   6.618   9.859   7.464
38306SOL    HW114942   6.577   9.941   7.425
38306SOL    HW214943   6.682   9.885   7.537
38307SOL     OW14944   5.664   9.866   8.834
38307SOL    HW114945   5.756   9.865   8.793
38307SOL    HW214946   5.658   9.940   8.901
38308SOL     OW14947   6.147   9.532   8.595
38308SOL    HW114948   6.185   9.448   8.632
38308SOL    HW214949   6.059   9.551   8.639
38309SOL     OW14950   6.452   9.764   8.090
38309SOL    HW114951   6.420   9.836   8.028
38309SOL    HW214952   6.476   9.683   8.037
38310SOL     OW14953   6.603   9.349   8.201
38310SOL    HW114954   6.531   9.354   8.132
38310SOL    HW214955   6.579   9.280   8.270
38311SOL     OW14956   7.015  10.483   8.315
38311SOL    HW114957   6.960  10.399   8.308
38311SOL    HW214958   7.041  10.512   8.223
38312SOL     OW14959   7.052   9.900   8.440
38312SOL    HW114960   7.022   9.805   8.447
38312SOL    HW214961   7.125   9.916   8.506
38313SOL     OW14962   7.443  10.143   7.825
38313SOL    HW114963   7.485  10.079   7.889
38313SOL    HW214964   7.405  10.092   7.747
38314SOL     OW14965   6.074  10.695   7.622
38314SOL    HW114966   5.987  10.680   7.669
38314SOL    HW214967   6.057  10.721   7.527
38315SOL     OW14968   7.250  10.590   8.105
38315SOL    HW114969   7.349  10.598   8.119
38315SOL    HW214970   7.205  10.674   8.136
38316SOL     OW14971   6.976   9.885   7.526
38316SOL    HW114972   6.922   9.864   7.607
38316SOL    HW214973   7.067   9.844   7.535
38317SOL     OW14974   6.113   9.566   7.776
38317SOL    HW114975   6.140   9.507   7.701
38317SOL    HW214976   6.113   9.661   7.745
38318SOL     OW14977   7.340  10.533   9.036
38318SOL    HW114978   7.431  10.494   9.023
38318SOL    HW214979   7.348  10.629   9.060
38319SOL     OW14980   6.650  10.657   8.788
38319SOL    HW114981   6.570  10.634   8.843
38319SOL    HW214982   6.733  10.631   8.837
38320SOL     OW14983   7.178  10.939   9.073
38320SOL    HW114984   7.205  10.973   8.983
38320SOL    HW214985   7.257  10.901   9.119
38321SOL     OW14986   6.697  10.505   8.548
38321SOL    HW114987   6.657  10.549   8.629
38321SOL    HW214988   6.656  10.542   8.465
38322SOL     OW14989   7.224  10.409   8.527
38322SOL    HW114990   7.229  10.490   8.586
38322SOL    HW214991   7.138  10.411   8.476
38323SOL     OW14992   6.501   9.399   8.850
38323SOL    HW114993   6.526   9.379   8.755
38323SOL    HW214994   6.573   9.455   8.892
38324SOL     OW14995   6.566  10.426   9.167
38324SOL    HW114996   6.467  10.432   9.177
38324SOL    HW214997   6.589  10.346   9.111
38325SOL     OW14998   6.291  10.360   7.816
38325SOL    HW114999   6.277  10.367   7.915
38325SOL    HW215000   6.375  10.309   7.798
38326SOL     OW15001   5.996  10.123   8.699
38326SOL    HW115002   6.082  10.135   8.749
38326SOL    HW215003   5.954  10.036   8.726
38327SOL     OW15004   6.860   9.696   8.710
38327SOL    HW115005   6.881   9.770   8.774
38327SOL    HW215006   6.771   9.713   8.667
38328SOL     OW15007   5.650  10.874   8.779
38328SOL    HW115008   5.604  10.956   8.745
38328SOL    HW215009   5.748  10.893   8.788
38329SOL     OW15010   5.953  10.410   7.949
38329SOL    HW115011   5.946  10.493   7.893
38329SOL    HW215012   5.957  10.330   7.889
38330SOL     OW15013   6.152   9.847   8.313
38330SOL    HW115014   6.164   9.913   8.239
38330SOL    HW215015   6.198   9.881   8.396
38331SOL     OW15016   6.838  10.658   7.836
38331SOL    HW115017   6.888  10.735   7.876
38331SOL    HW215018   6.743  10.660   7.868
38332SOL     OW15019   6.858  10.755   8.590
38332SOL    HW115020   6.905  10.768   8.677
38332SOL    HW215021   6.792  10.681   8.599
38333SOL     OW15022   7.168   9.949   7.920
38333SOL    HW115023   7.137  10.010   7.993
38333SOL    HW215024   7.218  10.001   7.851
38334SOL     OW15025   5.940  10.820   8.777
38334SOL    HW115026   5.919  10.776   8.690
38334SOL    HW215027   6.037  10.846   8.780
38335SOL     OW15028   5.988  10.061   9.046
38335SOL    HW115029   6.056  10.116   8.999
38335SOL    HW215030   6.028   9.973   9.073
38336SOL     OW15031   7.173  10.089   9.118
38336SOL    HW115032   7.081  10.127   9.113
38336SOL    HW215033   7.233  10.136   9.053
38337SOL     OW15034   6.599   9.415   9.218
38337SOL    HW115035   6.605   9.500   9.166
38337SOL    HW215036   6.631   9.339   9.161
38338SOL     OW15037   6.090   9.360   9.188
38338SOL    HW115038   6.048   9.303   9.118
38338SOL    HW215039   6.024   9.429   9.220
38339SOL     OW15040   6.159  10.180   8.477
38339SOL    HW115041   6.203  10.269   8.468
38339SOL    HW215042   6.096  10.180   8.554
38340SOL     OW15043   6.946  10.172   8.493
38340SOL    HW115044   6.871  10.172   8.427
38340SOL    HW215045   6.983  10.080   8.502
38341SOL     OW15046   6.795   9.835   7.723
38341SOL    HW115047   6.808   9.751   7.777
38341SOL    HW215048   6.766   9.909   7.783
38342SOL     OW15049   5.893   9.523   8.679
38342SOL    HW115050   5.870   9.560   8.769
38342SOL    HW215051   5.863   9.428   8.673
38343SOL     OW15052   5.623  10.620   8.730
38343SOL    HW115053   5.676  10.571   8.798
38343SOL    HW215054   5.645  10.718   8.735
38344SOL     OW15055   6.318   9.944   8.512
38344SOL    HW115056   6.377   9.918   8.436
38344SOL    HW215057   6.290  10.040   8.501
38345SOL     OW15058   7.314  10.245   9.302
38345SOL    HW115059   7.268  10.238   9.213
38345SOL    HW215060   7.252  10.289   9.368
38346SOL     OW15061   5.893   9.373   8.066
38346SOL    HW115062   5.882   9.467   8.099
38346SOL    HW215063   5.888   9.310   8.143
38347SOL     OW15064   7.208   9.677   7.822
38347SOL    HW115065   7.210   9.601   7.886
38347SOL    HW215066   7.160   9.754   7.862
38348SOL     OW15067   6.609  10.076   8.414
38348SOL    HW115068   6.624  10.097   8.510
38348SOL    HW215069   6.579   9.981   8.405
38349SOL     OW15070   6.566  10.883   9.148
38349SOL    HW115071   6.546  10.927   9.060
38349SOL    HW215072   6.605  10.792   9.132
38350SOL     OW15073   7.445  10.828   9.053
38350SOL    HW115074   7.459  10.855   8.958
38350SOL    HW215075   7.528  10.850   9.106
38351SOL     OW15076   5.936  10.208   9.252
38351SOL    HW115077   6.012  10.252   9.300
38351SOL    HW215078   5.971  10.161   9.170
38352SOL     OW15079   7.126   9.584   7.573
38352SOL    HW115080   7.065   9.509   7.596
38352SOL    HW215081   7.148   9.636   7.656
38353SOL     OW15082   6.889  10.148   7.490
38353SOL    HW115083   6.923  10.055   7.505
38353SOL    HW215084   6.907  10.175   7.395
38354SOL     OW15085   6.654  10.643   8.297
38354SOL    HW115086   6.661  10.559   8.242
38354SOL    HW215087   6.716  10.712   8.261
38355SOL     OW15088   5.905  10.120   8.397
38355SOL    HW115089   5.998  10.156   8.402
38355SOL    HW215090   5.899  10.035   8.449
38356SOL     OW15091   5.925   9.819   8.454
38356SOL    HW115092   5.873   9.736   8.437
38356SOL    HW215093   6.002   9.824   8.390
38357SOL     OW15094   6.724   9.690   9.126
38357SOL    HW115095   6.679   9.753   9.190
38357SOL    HW215096   6.817   9.721   9.109
38358SOL     OW15097   6.746   9.517   8.925
38358SOL    HW115098   6.746   9.581   9.002
38358SOL    HW215099   6.774   9.565   8.842
38359SOL     OW15100   5.594  10.636   7.648
38359SOL    HW115101   5.501  10.657   7.617
38359SOL    HW215102   5.604  10.537   7.661
38360SOL     OW15103   5.674  11.111   8.375
38360SOL    HW115104   5.632  11.025   8.348
38360SOL    HW215105   5.768  11.114   8.341
38361SOL     OW15106   6.090  10.878   8.358
38361SOL    HW115107   6.156  10.952   8.367
38361SOL    HW215108   6.134  10.799   8.316
38362SOL     OW15109   6.588  10.106   8.686
38362SOL    HW115110   6.629  10.074   8.772
38362SOL    HW215111   6.492  10.079   8.683
38363SOL     OW15112   5.626   9.854   8.562
38363SOL    HW115113   5.711   9.821   8.521
38363SOL    HW215114   5.639   9.869   8.660
38364SOL     OW15115   5.775   9.830   9.170
38364SOL    HW115116   5.834   9.790   9.100
38364SOL    HW215117   5.717   9.901   9.129
38365SOL     OW15118   6.955  10.260   9.108
38365SOL    HW115119   6.994  10.349   9.128
38365SOL    HW215120   6.965  10.240   9.011
38366SOL     OW15121   6.401   9.882   7.773
38366SOL    HW115122   6.408   9.793   7.727
38366SOL    HW215123   6.307   9.916   7.765
38367SOL     OW15124   7.243   9.914   8.654
38367SOL    HW115125   7.205   9.845   8.716
38367SOL    HW215126   7.325   9.878   8.610
38368SOL     OW15127   5.838  10.874   9.192
38368SOL    HW115128   5.808  10.931   9.268
38368SOL    HW215129   5.831  10.777   9.218
38369SOL     OW15130   6.257   9.774   8.717
38369SOL    HW115131   6.223   9.685   8.687
38369SOL    HW215132   6.283   9.828   8.637
38370SOL     OW15133   6.516  10.988   8.913
38370SOL    HW115134   6.492  10.970   8.818
38370SOL    HW215135   6.546  11.082   8.923
38371SOL     OW15136   6.059   9.810   7.639
38371SOL    HW115137   6.120   9.890   7.643
38371SOL    HW215138   5.964   9.841   7.646
38372SOL     OW15139   5.745  10.447   8.914
38372SOL    HW115140   5.767  10.386   8.990
38372SOL    HW215141   5.755  10.398   8.828
38373SOL     OW15142   6.933  10.369   8.682
38373SOL    HW115143   6.957  10.306   8.608
38373SOL    HW215144   6.843  10.409   8.664
38374SOL     OW15145   6.888  10.165   7.757
38374SOL    HW115146   6.802  10.134   7.799
38374SOL    HW215147   6.884  10.151   7.658
38375SOL     OW15148   7.345  11.057   8.602
38375SOL    HW115149   7.406  11.087   8.529
38375SOL    HW215150   7.307  10.968   8.580
38376SOL     OW15151   6.838  11.041   8.576
38376SOL    HW115152   6.922  11.046   8.522
38376SOL    HW215153   6.815  10.945   8.594
38377SOL     OW15154   5.669  10.568   8.470
38377SOL    HW115155   5.664  10.567   8.570
38377SOL    HW215156   5.586  10.527   8.432
38378SOL     OW15157   6.274  10.972   9.164
38378SOL    HW115158   6.218  11.053   9.173
38378SOL    HW215159   6.326  10.976   9.078
38379SOL     OW15160   7.312   9.445   7.971
38379SOL    HW115161   7.385   9.428   7.904
38379SOL    HW215162   7.281   9.358   8.009
38380SOL     OW15163   6.974  10.883   7.925
38380SOL    HW115164   7.041  10.895   7.851
38380SOL    HW215165   6.934  10.972   7.948
38381SOL     OW15166   5.716  11.104   9.299
38381SOL    HW115167   5.675  11.030   9.352
38381SOL    HW215168   5.780  11.155   9.357
38382SOL     OW15169   6.866  10.237   8.120
38382SOL    HW115170   6.926  10.156   8.122
38382SOL    HW215171   6.906  10.306   8.060
38383SOL     OW15172   6.416  10.583   8.870
38383SOL    HW115173   6.411  10.616   8.965
38383SOL    HW215174   6.330  10.602   8.824
38384SOL     OW15175   6.258  10.926   7.602
38384SOL    HW115176   6.267  10.936   7.503
38384SOL    HW215177   6.218  10.837   7.623
38385SOL     OW15178   7.236  11.030   8.842
38385SOL    HW115179   7.289  11.040   8.758
38385SOL    HW215180   7.209  11.120   8.876
38386SOL     OW15181   7.427   9.485   8.411
38386SOL    HW115182   7.466   9.400   8.375
38386SOL    HW215183   7.329   9.487   8.392
38387SOL     OW15184   5.849   9.636   8.168
38387SOL    HW115185   5.770   9.687   8.134
38387SOL    HW215186   5.840   9.621   8.266
38388SOL     OW15187   6.780  10.922   7.479
38388SOL    HW115188   6.786  10.829   7.516
38388SOL    HW215189   6.721  10.922   7.399
38389SOL     OW15190   6.408  10.312   8.820
38389SOL    HW115191   6.448  10.311   8.728
38389SOL    HW215192   6.418  10.404   8.860
38390SOL     OW15193   6.502  10.220   7.739
38390SOL    HW115194   6.565  10.258   7.671
38390SOL    HW215195   6.542  10.137   7.778
38391SOL     OW15196   7.090  10.917   7.492
38391SOL    HW115197   6.998  10.954   7.499
38391SOL    HW215198   7.128  10.937   7.402
38392SOL     OW15199   5.958  10.598   8.938
38392SOL    HW115200   5.945  10.691   8.904
38392SOL    HW215201   5.874  10.546   8.925
38393SOL     OW15202   7.200  10.602   8.737
38393SOL    HW115203   7.260  10.605   8.817
38393SOL    HW215204   7.125  10.666   8.750
38394SOL     OW15205   6.625  10.408   8.144
38394SOL    HW115206   6.555  10.361   8.198
38394SOL    HW215207   6.684  10.340   8.101
38395SOL     OW15208   6.600   9.546   8.419
38395SOL    HW115209   6.592   9.510   8.326
38395SOL    HW215210   6.598   9.470   8.484
38396SOL     OW15211   6.176  10.797   7.939
38396SOL    HW115212   6.218  10.739   7.869
38396SOL    HW215213   6.132  10.876   7.895
38397SOL     OW15214   7.295   9.695   8.829
38397SOL    HW115215   7.368   9.764   8.833
38397SOL    HW215216   7.323   9.620   8.770
38398SOL     OW15217   5.841  10.658   7.738
38398SOL    HW115218   5.745  10.659   7.711
38398SOL    HW215219   5.853  10.711   7.822
38399SOL     OW15220   5.691  10.323   9.174
38399SOL    HW115221   5.614  10.290   9.228
38399SOL    HW215222   5.776  10.293   9.216
38400SOL     OW15223   6.258   9.513   8.937
38400SOL    HW115224   6.348   9.497   8.897
38400SOL    HW215225   6.266   9.518   9.036
38401SOL     OW15226   5.661   9.655   7.481
38401SOL    HW115227   5.569   9.627   7.452
38401SOL    HW215228   5.692   9.732   7.425
38402SOL     OW15229   7.026  10.166   8.846
38402SOL    HW115230   6.969  10.218   8.783
38402SOL    HW215231   7.122  10.178   8.822
38403SOL     OW15232   5.658   9.476   7.766
38403SOL    HW115233   5.641   9.559   7.712
38403SOL    HW215234   5.748   9.439   7.744
38404SOL     OW15235   6.769  10.645   7.567
38404SOL    HW115236   6.670  10.634   7.569
38404SOL    HW215237   6.803  10.660   7.660
38405SOL     OW15238   6.199  10.152   8.879
38405SOL    HW115239   6.255  10.233   8.862
38405SOL    HW215240   6.258  10.072   8.882
38406SOL     OW15241   7.079  11.077   8.407
38406SOL    HW115242   7.112  11.141   8.338
38406SOL    HW215243   7.145  11.071   8.482
38407SOL     OW15244   6.302   9.875   9.156
38407SOL    HW115245   6.321   9.940   9.230
38407SOL    HW215246   6.362   9.795   9.165
38408SOL     OW15247   7.036  10.530   9.081
38408SOL    HW115248   7.027  10.520   9.180
38408SOL    HW215249   7.132  10.523   9.055
38409SOL     OW15250   5.976  11.051   9.008
38409SOL    HW115251   5.885  11.092   9.006
38409SOL    HW215252   5.969  10.957   9.040
38410SOL     OW15253   7.260  10.193   8.702
38410SOL    HW115254   7.233  10.104   8.665
38410SOL    HW215255   7.261  10.261   8.629
38411SOL     OW15256   6.811   9.635   7.897
38411SOL    HW115257   6.876   9.561   7.886
38411SOL    HW215258   6.831   9.685   7.981
38412SOL     OW15259   6.180  10.055   8.100
38412SOL    HW115260   6.230  10.140   8.081
38412SOL    HW215261   6.092  10.057   8.052
38413SOL     OW15262   7.363   9.652   9.090
38413SOL    HW115263   7.346   9.683   8.996
38413SOL    HW215264   7.279   9.615   9.128
38414SOL     OW15265   7.316  10.244   8.965
38414SOL    HW115266   7.354  10.335   8.980
38414SOL    HW215267   7.308  10.227   8.866
38415SOL     OW15268   6.445  10.684   7.464
38415SOL    HW115269   6.399  10.699   7.552
38415SOL    HW215270   6.489  10.769   7.434
38416SOL     OW15271   6.247  11.100   8.401
38416SOL    HW115272   6.201  11.188   8.388
38416SOL    HW215273   6.346  11.112   8.394
38417SOL     OW15274   6.445  10.266   8.309
38417SOL    HW115275   6.499  10.197   8.357
38417SOL    HW215276   6.413  10.335   8.375
38418SOL     OW15277   6.669  10.294   7.535
38418SOL    HW115278   6.646  10.347   7.453
38418SOL    HW215279   6.750  10.238   7.516
38419SOL     OW15280   7.447  10.879   8.299
38419SOL    HW115281   7.376  10.867   8.229
38419SOL    HW215282   7.448  10.800   8.359
38420SOL     OW15283   5.807  10.624   9.292
38420SOL    HW115284   5.742  10.551   9.271
38420SOL    HW215285   5.811  10.638   9.390
38421SOL     OW15286   5.665  10.550   8.101
38421SOL    HW115287   5.664  10.503   8.189
38421SOL    HW215288   5.747  10.522   8.050
38422SOL     OW15289   6.258  10.701   9.072
38422SOL    HW115290   6.180  10.651   9.110
38422SOL    HW215291   6.255  10.796   9.103
38423SOL     OW15292   7.410   9.502   8.675
38423SOL    HW115293   7.406   9.412   8.719
38423SOL    HW215294   7.413   9.491   8.576
38424SOL     OW15295   6.014   9.734   7.968
38424SOL    HW115296   6.044   9.662   7.906
38424SOL    HW215297   5.975   9.694   8.051
38425SOL     OW15298   7.291  10.797   8.552
38425SOL    HW115299   7.198  10.772   8.525
38425SOL    HW215300   7.317  10.747   8.634
38426SOL     OW15301   5.903   9.857   8.728
38426SOL    HW115302   5.941   9.798   8.800
38426SOL    HW215303   5.943   9.831   8.640
38427SOL     OW15304   6.398  10.896   8.135
38427SOL    HW115305   6.430  10.906   8.041
38427SOL    HW215306   6.319  10.834   8.137
38428SOL     OW15307   7.010   9.524   8.560
38428SOL    HW115308   7.062   9.459   8.615
38428SOL    HW215309   6.961   9.587   8.621
38429SOL     OW15310   6.587   9.344   8.602
38429SOL    HW115311   6.524   9.272   8.571
38429SOL    HW215312   6.680   9.308   8.602
38430SOL     OW15313   6.356  10.640   7.749
38430SOL    HW115314   6.310  10.553   7.766
38430SOL    HW215315   6.447  10.637   7.790
38431SOL     OW15316   6.204  10.877   8.732
38431SOL    HW115317   6.199  10.959   8.789
38431SOL    HW215318   6.293  10.874   8.687
38432SOL     OW15319   6.938   9.362   7.616
38432SOL    HW115320   6.973   9.321   7.532
38432SOL    HW215321   6.848   9.324   7.636
38433SOL     OW15322   6.886   9.763   8.139
38433SOL    HW115323   6.827   9.843   8.143
38433SOL    HW215324   6.901   9.728   8.232
38434SOL     OW15325   7.179   9.531   8.330
38434SOL    HW115326   7.095   9.530   8.384
38434SOL    HW215327   7.181   9.614   8.274
38435SOL     OW15328   5.625  10.387   7.748
38435SOL    HW115329   5.724  10.376   7.739
38435SOL    HW215330   5.585  10.301   7.780
38436SOL     OW15331   6.461  10.956   7.785
38436SOL    HW115332   6.384  10.921   7.731
38436SOL    HW215333   6.429  11.027   7.847
38437SOL     OW15334   5.816   9.938   9.423
38437SOL    HW115335   5.723   9.936   9.460
38437SOL    HW215336   5.817   9.899   9.331
38438SOL     OW15337   5.811   9.585  10.306
38438SOL    HW115338   5.846   9.568  10.398
38438SOL    HW215339   5.723   9.540  10.294
38439SOL     OW15340   5.605   9.678   9.957
38439SOL    HW115341   5.523   9.721   9.996
38439SOL    HW215342   5.577   9.605   9.894
38440SOL     OW15343   6.155  10.585  10.475
38440SOL    HW115344   6.062  10.578  10.438
38440SOL    HW215345   6.166  10.674  10.519
38441SOL     OW15346   7.141  10.821  10.013
38441SOL    HW115347   7.084  10.805  10.094
38441SOL    HW215348   7.082  10.831   9.933
38442SOL     OW15349   6.721  10.013  10.027
38442SOL    HW115350   6.778  10.091  10.002
38442SOL    HW215351   6.661  10.039  10.103
38443SOL     OW15352   7.341   9.917   9.541
38443SOL    HW115353   7.329   9.904   9.442
38443SOL    HW215354   7.311   9.836   9.590
38444SOL     OW15355   6.354  10.454  10.333
38444SOL    HW115356   6.276  10.471  10.393
38444SOL    HW215357   6.388  10.541  10.297
38445SOL     OW15358   6.436  10.108  11.133
38445SOL    HW115359   6.432  10.184  11.198
38445SOL    HW215360   6.458  10.144  11.042
38446SOL     OW15361   6.271  10.322   9.975
38446SOL    HW115362   6.340  10.306  10.045
38446SOL    HW215363   6.198  10.379  10.013
38447SOL     OW15364   6.272  10.471  11.113
38447SOL    HW115365   6.332  10.550  11.127
38447SOL    HW215366   6.186  10.502  11.072
38448SOL     OW15367   5.921  10.745  10.371
38448SOL    HW115368   5.843  10.714  10.318
38448SOL    HW215369   5.979  10.803  10.314
38449SOL     OW15370   7.046  10.815  10.649
38449SOL    HW115371   7.070  10.909  10.675
38449SOL    HW215372   7.030  10.761  10.731
38450SOL     OW15373   6.024   9.702  10.809
38450SOL    HW115374   6.106   9.646  10.818
38450SOL    HW215375   5.943   9.644  10.813
38451SOL     OW15376   7.189   9.757  10.047
38451SOL    HW115377   7.115   9.803   9.997
38451SOL    HW215378   7.240   9.825  10.100
38452SOL     OW15379   5.817  11.023   9.793
38452SOL    HW115380   5.851  11.100   9.847
38452SOL    HW215381   5.861  11.023   9.703
38453SOL     OW15382   6.713  10.651  11.000
38453SOL    HW115383   6.760  10.651  11.088
38453SOL    HW215384   6.665  10.564  10.989
38454SOL     OW15385   5.816  10.744   9.848
38454SOL    HW115386   5.790  10.840   9.848
38454SOL    HW215387   5.745  10.690   9.893
38455SOL     OW15388   5.826  10.401  10.196
38455SOL    HW115389   5.840  10.317  10.248
38455SOL    HW215390   5.771  10.465  10.251
38456SOL     OW15391   6.206  11.096  10.749
38456SOL    HW115392   6.114  11.079  10.784
38456SOL    HW215393   6.234  11.188  10.775
38457SOL     OW15394   6.192  10.274   9.433
38457SOL    HW115395   6.199  10.358   9.379
38457SOL    HW215396   6.238  10.287   9.521
38458SOL     OW15397   7.180   9.424  10.790
38458SOL    HW115398   7.162   9.491  10.718
38458SOL    HW215399   7.177   9.470  10.879
38459SOL     OW15400   5.708   9.953   9.873
38459SOL    HW115401   5.663   9.865   9.890
38459SOL    HW215402   5.707  10.007   9.957
38460SOL     OW15403   7.428  11.077   9.669
38460SOL    HW115404   7.482  11.048   9.749
38460SOL    HW215405   7.458  11.167   9.640
38461SOL     OW15406   5.613  10.906   9.427
38461SOL    HW115407   5.594  10.810   9.448
38461SOL    HW215408   5.580  10.964   9.502
38462SOL     OW15409   7.275  10.232   9.922
38462SOL    HW115410   7.370  10.203   9.930
38462SOL    HW215411   7.267  10.297   9.847
38463SOL     OW15412   7.227  10.418   9.742
38463SOL    HW115413   7.313  10.420   9.690
38463SOL    HW215414   7.241  10.465   9.830
38464SOL     OW15415   5.699  10.047  10.907
38464SOL    HW115416   5.787  10.034  10.952
38464SOL    HW215417   5.686  10.144  10.885
38465SOL     OW15418   6.199  10.675  10.036
38465SOL    HW115419   6.150  10.588  10.045
38465SOL    HW215420   6.176  10.718   9.949
38466SOL     OW15421   6.879  10.538  10.733
38466SOL    HW115422   6.916  10.465  10.675
38466SOL    HW215423   6.931  10.543  10.818
38467SOL     OW15424   6.395   9.314   9.812
38467SOL    HW115425   6.435   9.405   9.803
38467SOL    HW215426   6.295   9.322   9.818
38468SOL     OW15427   5.783  10.286  10.574
38468SOL    HW115428   5.872  10.241  10.560
38468SOL    HW215429   5.710  10.221  10.555
38469SOL     OW15430   7.111  10.309   9.500
38469SOL    HW115431   7.048  10.233   9.513
38469SOL    HW215432   7.159  10.327   9.586
38470SOL     OW15433   6.773  11.102  10.926
38470SOL    HW115434   6.797  11.162  10.850
38470SOL    HW215435   6.780  11.007  10.896
38471SOL     OW15436   5.903   9.561  11.111
38471SOL    HW115437   5.974   9.632  11.117
38471SOL    HW215438   5.815   9.600  11.139
38472SOL     OW15439   7.052  10.727  10.263
38472SOL    HW115440   6.993  10.733  10.343
38472SOL    HW215441   7.037  10.639  10.217
38473SOL     OW15442   7.253  11.024   9.882
38473SOL    HW115443   7.212  11.001   9.794
38473SOL    HW215444   7.235  10.950   9.947
38474SOL     OW15445   6.184  10.039   9.580
38474SOL    HW115446   6.208  10.108   9.512
38474SOL    HW215447   6.106  10.072   9.634
38475SOL     OW15448   6.867   9.655  10.254
38475SOL    HW115449   6.781   9.605  10.241
38475SOL    HW215450   6.929   9.601  10.310
38476SOL     OW15451   7.162  10.972   9.617
38476SOL    HW115452   7.251  11.018   9.620
38476SOL    HW215453   7.141  10.948   9.522
38477SOL     OW15454   6.393   9.915  10.775
38477SOL    HW115455   6.346   9.912  10.864
38477SOL    HW215456   6.342   9.860  10.709
38478SOL     OW15457   6.980   9.779  10.984
38478SOL    HW115458   6.960   9.822  11.072
38478SOL    HW215459   7.058   9.717  10.993
38479SOL     OW15460   6.559  10.200  10.882
38479SOL    HW115461   6.605  10.116  10.853
38479SOL    HW215462   6.503  10.234  10.807
38480SOL     OW15463   6.577   9.720  10.552
38480SOL    HW115464   6.500   9.754  10.606
38480SOL    HW215465   6.543   9.669  10.473
38481SOL     OW15466   6.627  10.011   9.739
38481SOL    HW115467   6.653  10.007   9.835
38481SOL    HW215468   6.542   9.960   9.725
38482SOL     OW15469   5.662  10.121  10.099
38482SOL    HW115470   5.761  10.109  10.108
38482SOL    HW215471   5.638  10.216  10.120
38483SOL     OW15472   5.716  11.131  10.881
38483SOL    HW115473   5.706  11.116  10.980
38483SOL    HW215474   5.630  11.167  10.845
38484SOL     OW15475   6.451   9.658   9.505
38484SOL    HW115476   6.510   9.721   9.456
38484SOL    HW215477   6.470   9.564   9.476
38485SOL     OW15478   7.305   9.895  11.141
38485SOL    HW115479   7.279   9.984  11.105
38485SOL    HW215480   7.303   9.827  11.068
38486SOL     OW15481   6.948  10.454   9.855
38486SOL    HW115482   7.031  10.425   9.807
38486SOL    HW215483   6.899  10.521   9.799
38487SOL     OW15484   6.136   9.506  10.195
38487SOL    HW115485   6.131   9.501  10.295
38487SOL    HW215486   6.138   9.602  10.166
38488SOL     OW15487   6.594  10.766   9.787
38488SOL    HW115488   6.548  10.838   9.735
38488SOL    HW215489   6.590  10.786   9.885
38489SOL     OW15490   5.937  11.111  10.163
38489SOL    HW115491   5.987  11.025  10.169
38489SOL    HW215492   6.002  11.188  10.160
38490SOL     OW15493   7.381  10.376  10.183
38490SOL    HW115494   7.319  10.361  10.107
38490SOL    HW215495   7.329  10.387  10.268
38491SOL     OW15496   6.813  10.860  10.816
38491SOL    HW115497   6.819  10.783  10.880
38491SOL    HW215498   6.761  10.834  10.736
38492SOL     OW15499   5.907  10.253   9.552
38492SOL    HW115500   5.989  10.292   9.510
38492SOL    HW215501   5.880  10.171   9.503
38493SOL     OW15502   7.044  10.045  10.038
38493SOL    HW115503   7.039   9.980  10.113
38493SOL    HW215504   7.124  10.104  10.051
38494SOL     OW15505   6.047  10.576  11.037
38494SOL    HW115506   5.997  10.577  10.951
38494SOL    HW215507   5.984  10.558  11.113
38495SOL     OW15508   6.697  11.086   9.547
38495SOL    HW115509   6.637  11.024   9.597
38495SOL    HW215510   6.728  11.042   9.462
38496SOL     OW15511   5.788   9.595  10.808
38496SOL    HW115512   5.708   9.655  10.795
38496SOL    HW215513   5.778   9.546  10.894
38497SOL     OW15514   7.218  10.687   9.391
38497SOL    HW115515   7.186  10.781   9.381
38497SOL    HW215516   7.142  10.624   9.379
38498SOL     OW15517   6.050  11.053   9.633
38498SOL    HW115518   6.083  11.092   9.719
38498SOL    HW215519   6.126  11.046   9.568
38499SOL     OW15520   6.986   9.417   9.736
38499SOL    HW115521   6.962   9.380   9.646
38499SOL    HW215522   7.085   9.433   9.740
38500SOL     OW15523   5.835  11.095  10.551
38500SOL    HW115524   5.892  11.030  10.601
38500SOL    HW215525   5.819  11.062  10.458
38501SOL     OW15526   6.526  11.008  10.214
38501SOL    HW115527   6.606  10.951  10.235
38501SOL    HW215528   6.477  10.968  10.137
38502SOL     OW15529   5.968  10.010   9.790
38502SOL    HW115530   6.013   9.920   9.787
38502SOL    HW215531   5.874   9.999   9.823
38503SOL     OW15532   7.133   9.532  11.039
38503SOL    HW115533   7.128   9.569  11.131
38503SOL    HW215534   7.061   9.463  11.027
38504SOL     OW15535   6.200   9.432   9.427
38504SOL    HW115536   6.298   9.410   9.434
38504SOL    HW215537   6.169   9.415   9.334
38505SOL     OW15538   6.367   9.574  11.059
38505SOL    HW115539   6.434   9.513  11.102
38505SOL    HW215540   6.294   9.593  11.124
38506SOL     OW15541   6.474  10.824  10.505
38506SOL    HW115542   6.451  10.799  10.411
38506SOL    HW215543   6.535  10.755  10.544
38507SOL     OW15544   6.937   9.900  10.743
38507SOL    HW115545   6.965   9.857  10.828
38507SOL    HW215546   6.962   9.996  10.744
38508SOL     OW15547   6.389  10.712  10.234
38508SOL    HW115548   6.479  10.726  10.192
38508SOL    HW215549   6.318  10.714  10.163
38509SOL     OW15550   6.508   9.813  10.209
38509SOL    HW115551   6.483   9.804  10.113
38509SOL    HW215552   6.556   9.731  10.240
38510SOL     OW15553   6.125   9.374   9.822
38510SOL    HW115554   6.044   9.375   9.880
38510SOL    HW215555   6.128   9.457   9.767
38511SOL     OW15556   7.020  10.498   9.351
38511SOL    HW115557   7.052  10.422   9.408
38511SOL    HW215558   6.928  10.525   9.381
38512SOL     OW15559   5.883   9.345   9.481
38512SOL    HW115560   5.932   9.429   9.460
38512SOL    HW215561   5.945   9.280   9.526
38513SOL     OW15562   6.521   9.546   9.790
38513SOL    HW115563   6.473   9.587   9.712
38513SOL    HW215564   6.620   9.544   9.771
38514SOL     OW15565   6.662   9.993  10.774
38514SOL    HW115566   6.582   9.932  10.777
38514SOL    HW215567   6.743   9.940  10.750
38515SOL     OW15568   6.813  10.880  10.103
38515SOL    HW115569   6.834  10.954  10.038
38515SOL    HW215570   6.881  10.880  10.176
38516SOL     OW15571   6.045  10.462  10.051
38516SOL    HW115572   5.974  10.435  10.116
38516SOL    HW215573   6.019  10.434   9.958
38517SOL     OW15574   6.857  11.107   9.901
38517SOL    HW115575   6.901  11.171   9.837
38517SOL    HW215576   6.807  11.159   9.971
38518SOL     OW15577   6.618   9.859   9.326
38518SOL    HW115578   6.577   9.941   9.287
38518SOL    HW215579   6.682   9.885   9.399
38519SOL     OW15580   5.664   9.866  10.696
38519SOL    HW115581   5.756   9.865  10.655
38519SOL    HW215582   5.658   9.940  10.763
38520SOL     OW15583   6.147   9.532  10.457
38520SOL    HW115584   6.185   9.448  10.494
38520SOL    HW215585   6.059   9.551  10.501
38521SOL     OW15586   6.452   9.764   9.952
38521SOL    HW115587   6.420   9.836   9.890
38521SOL    HW215588   6.476   9.683   9.899
38522SOL     OW15589   6.603   9.349  10.063
38522SOL    HW115590   6.531   9.354   9.994
38522SOL    HW215591   6.579   9.280  10.132
38523SOL     OW15592   7.015  10.483  10.177
38523SOL    HW115593   6.960  10.399  10.170
38523SOL    HW215594   7.041  10.512  10.085
38524SOL     OW15595   7.052   9.900  10.302
38524SOL    HW115596   7.022   9.805  10.309
38524SOL    HW215597   7.125   9.916  10.368
38525SOL     OW15598   7.443  10.143   9.687
38525SOL    HW115599   7.485  10.079   9.751
38525SOL    HW215600   7.405  10.092   9.609
38526SOL     OW15601   6.074  10.695   9.484
38526SOL    HW115602   5.987  10.680   9.531
38526SOL    HW215603   6.057  10.721   9.389
38527SOL     OW15604   7.250  10.590   9.967
38527SOL    HW115605   7.349  10.598   9.981
38527SOL    HW215606   7.205  10.674   9.998
38528SOL     OW15607   6.976   9.885   9.388
38528SOL    HW115608   6.922   9.864   9.469
38528SOL    HW215609   7.067   9.844   9.397
38529SOL     OW15610   6.113   9.566   9.638
38529SOL    HW115611   6.140   9.507   9.563
38529SOL    HW215612   6.113   9.661   9.607
38530SOL     OW15613   7.340  10.533  10.898
38530SOL    HW115614   7.431  10.494  10.885
38530SOL    HW215615   7.348  10.629  10.922
38531SOL     OW15616   6.650  10.657  10.650
38531SOL    HW115617   6.570  10.634  10.705
38531SOL    HW215618   6.733  10.631  10.699
38532SOL     OW15619   7.178  10.939  10.935
38532SOL    HW115620   7.205  10.973  10.845
38532SOL    HW215621   7.257  10.901  10.981
38533SOL     OW15622   6.697  10.505  10.410
38533SOL    HW115623   6.657  10.549  10.491
38533SOL    HW215624   6.656  10.542  10.327
38534SOL     OW15625   7.224  10.409  10.389
38534SOL    HW115626   7.229  10.490  10.448
38534SOL    HW215627   7.138  10.411  10.338
38535SOL     OW15628   6.501   9.399  10.712
38535SOL    HW115629   6.526   9.379  10.617
38535SOL    HW215630   6.573   9.455  10.754
38536SOL     OW15631   6.566  10.426  11.029
38536SOL    HW115632   6.467  10.432  11.039
38536SOL    HW215633   6.589  10.346  10.973
38537SOL     OW15634   6.291  10.360   9.678
38537SOL    HW115635   6.277  10.367   9.777
38537SOL    HW215636   6.375  10.309   9.660
38538SOL     OW15637   5.996  10.123  10.561
38538SOL    HW115638   6.082  10.135  10.611
38538SOL    HW215639   5.954  10.036  10.588
38539SOL     OW15640   6.860   9.696  10.572
38539SOL    HW115641   6.881   9.770  10.636
38539SOL    HW215642   6.771   9.713  10.529
38540SOL     OW15643   5.650  10.874  10.641
38540SOL    HW115644   5.604  10.956  10.607
38540SOL    HW215645   5.748  10.893  10.650
38541SOL     OW15646   5.953  10.410   9.811
38541SOL    HW115647   5.946  10.493   9.755
38541SOL    HW215648   5.957  10.330   9.751
38542SOL     OW15649   6.152   9.847  10.175
38542SOL    HW115650   6.164   9.913  10.101
38542SOL    HW215651   6.198   9.881  10.258
38543SOL     OW15652   6.838  10.658   9.698
38543SOL    HW115653   6.888  10.735   9.738
38543SOL    HW215654   6.743  10.660   9.730
38544SOL     OW15655   6.858  10.755  10.452
38544SOL    HW115656   6.905  10.768  10.539
38544SOL    HW215657   6.792  10.681  10.461
38545SOL     OW15658   7.168   9.949   9.782
38545SOL    HW115659   7.137  10.010   9.855
38545SOL    HW215660   7.218  10.001   9.713
38546SOL     OW15661   5.940  10.820  10.639
38546SOL    HW115662   5.919  10.776  10.552
38546SOL    HW215663   6.037  10.846  10.642
38547SOL     OW15664   5.988  10.061  10.908
38547SOL    HW115665   6.056  10.116  10.861
38547SOL    HW215666   6.028   9.973  10.935
38548SOL     OW15667   7.173  10.089  10.980
38548SOL    HW115668   7.081  10.127  10.975
38548SOL    HW215669   7.233  10.136  10.915
38549SOL     OW15670   6.599   9.415  11.080
38549SOL    HW115671   6.605   9.500  11.028
38549SOL    HW215672   6.631   9.339  11.023
38550SOL     OW15673   6.090   9.360  11.050
38550SOL    HW115674   6.048   9.303  10.980
38550SOL    HW215675   6.024   9.429  11.082
38551SOL     OW15676   6.159  10.180  10.339
38551SOL    HW115677   6.203  10.269  10.330
38551SOL    HW215678   6.096  10.180  10.416
38552SOL     OW15679   6.946  10.172  10.355
38552SOL    HW115680   6.871  10.172  10.289
38552SOL    HW215681   6.983  10.080  10.364
38553SOL     OW15682   6.795   9.835   9.585
38553SOL    HW115683   6.808   9.751   9.639
38553SOL    HW215684   6.766   9.909   9.645
38554SOL     OW15685   5.893   9.523  10.541
38554SOL    HW115686   5.870   9.560  10.631
38554SOL    HW215687   5.863   9.428  10.535
38555SOL     OW15688   5.623  10.620  10.592
38555SOL    HW115689   5.676  10.571  10.660
38555SOL    HW215690   5.645  10.718  10.597
38556SOL     OW15691   6.318   9.944  10.374
38556SOL    HW115692   6.377   9.918  10.298
38556SOL    HW215693   6.290  10.040  10.363
38557SOL     OW15694   7.314  10.245  11.164
38557SOL    HW115695   7.268  10.238  11.075
38557SOL    HW215696   7.252  10.289  11.230
38558SOL     OW15697   5.893   9.373   9.928
38558SOL    HW115698   5.882   9.467   9.961
38558SOL    HW215699   5.888   9.310  10.005
38559SOL     OW15700   7.208   9.677   9.684
38559SOL    HW115701   7.210   9.601   9.748
38559SOL    HW215702   7.160   9.754   9.724
38560SOL     OW15703   6.609  10.076  10.276
38560SOL    HW115704   6.624  10.097  10.372
38560SOL    HW215705   6.579   9.981  10.267
38561SOL     OW15706   6.566  10.883  11.010
38561SOL    HW115707   6.546  10.927  10.922
38561SOL    HW215708   6.605  10.792  10.994
38562SOL     OW15709   7.445  10.828  10.915
38562SOL    HW115710   7.459  10.855  10.820
38562SOL    HW215711   7.528  10.850  10.968
38563SOL     OW15712   5.936  10.208  11.114
38563SOL    HW115713   6.012  10.252  11.162
38563SOL    HW215714   5.971  10.161  11.032
38564SOL     OW15715   7.126   9.584   9.435
38564SOL    HW115716   7.065   9.509   9.458
38564SOL    HW215717   7.148   9.636   9.518
38565SOL     OW15718   6.889  10.148   9.352
38565SOL    HW115719   6.923  10.055   9.367
38565SOL    HW215720   6.907  10.175   9.257
38566SOL     OW15721   6.654  10.643  10.159
38566SOL    HW115722   6.661  10.559  10.104
38566SOL    HW215723   6.716  10.712  10.123
38567SOL     OW15724   5.905  10.120  10.259
38567SOL    HW115725   5.998  10.156  10.264
38567SOL    HW215726   5.899  10.035  10.311
38568SOL     OW15727   5.925   9.819  10.316
38568SOL    HW115728   5.873   9.736  10.299
38568SOL    HW215729   6.002   9.824  10.252
38569SOL     OW15730   6.724   9.690  10.988
38569SOL    HW115731   6.679   9.753  11.052
38569SOL    HW215732   6.817   9.721  10.971
38570SOL     OW15733   6.746   9.517  10.787
38570SOL    HW115734   6.746   9.581  10.864
38570SOL    HW215735   6.774   9.565  10.704
38571SOL     OW15736   5.594  10.636   9.510
38571SOL    HW115737   5.501  10.657   9.479
38571SOL    HW215738   5.604  10.537   9.523
38572SOL     OW15739   5.674  11.111  10.237
38572SOL    HW115740   5.632  11.025  10.210
38572SOL    HW215741   5.768  11.114  10.203
38573SOL     OW15742   6.090  10.878  10.220
38573SOL    HW115743   6.156  10.952  10.229
38573SOL    HW215744   6.134  10.799  10.178
38574SOL     OW15745   6.588  10.106  10.548
38574SOL    HW115746   6.629  10.074  10.634
38574SOL    HW215747   6.492  10.079  10.545
38575SOL     OW15748   5.626   9.854  10.424
38575SOL    HW115749   5.711   9.821  10.383
38575SOL    HW215750   5.639   9.869  10.522
38576SOL     OW15751   5.775   9.830  11.032
38576SOL    HW115752   5.834   9.790  10.962
38576SOL    HW215753   5.717   9.901  10.991
38577SOL     OW15754   6.955  10.260  10.970
38577SOL    HW115755   6.994  10.349  10.990
38577SOL    HW215756   6.965  10.240  10.873
38578SOL     OW15757   6.401   9.882   9.635
38578SOL    HW115758   6.408   9.793   9.589
38578SOL    HW215759   6.307   9.916   9.627
38579SOL     OW15760   7.243   9.914  10.516
38579SOL    HW115761   7.205   9.845  10.578
38579SOL    HW215762   7.325   9.878  10.472
38580SOL     OW15763   5.838  10.874  11.054
38580SOL    HW115764   5.808  10.931  11.130
38580SOL    HW215765   5.831  10.777  11.080
38581SOL     OW15766   6.257   9.774  10.579
38581SOL    HW115767   6.223   9.685  10.549
38581SOL    HW215768   6.283   9.828  10.499
38582SOL     OW15769   6.516  10.988  10.775
38582SOL    HW115770   6.492  10.970  10.680
38582SOL    HW215771   6.546  11.082  10.785
38583SOL     OW15772   6.059   9.810   9.501
38583SOL    HW115773   6.120   9.890   9.505
38583SOL    HW215774   5.964   9.841   9.508
38584SOL     OW15775   5.745  10.447  10.776
38584SOL    HW115776   5.767  10.386  10.852
38584SOL    HW215777   5.755  10.398  10.690
38585SOL     OW15778   6.933  10.369  10.544
38585SOL    HW115779   6.957  10.306  10.470
38585SOL    HW215780   6.843  10.409  10.526
38586SOL     OW15781   6.888  10.165   9.619
38586SOL    HW115782   6.802  10.134   9.661
38586SOL    HW215783   6.884  10.151   9.520
38587SOL     OW15784   7.345  11.057  10.464
38587SOL    HW115785   7.406  11.087  10.391
38587SOL    HW215786   7.307  10.968  10.442
38588SOL     OW15787   6.838  11.041  10.438
38588SOL    HW115788   6.922  11.046  10.384
38588SOL    HW215789   6.815  10.945  10.456
38589SOL     OW15790   5.669  10.568  10.332
38589SOL    HW115791   5.664  10.567  10.432
38589SOL    HW215792   5.586  10.527  10.294
38590SOL     OW15793   6.274  10.972  11.026
38590SOL    HW115794   6.218  11.053  11.035
38590SOL    HW215795   6.326  10.976  10.940
38591SOL     OW15796   7.312   9.445   9.833
38591SOL    HW115797   7.385   9.428   9.766
38591SOL    HW215798   7.281   9.358   9.871
38592SOL     OW15799   6.974  10.883   9.787
38592SOL    HW115800   7.041  10.895   9.713
38592SOL    HW215801   6.934  10.972   9.810
38593SOL     OW15802   5.716  11.104  11.161
38593SOL    HW115803   5.675  11.030  11.214
38593SOL    HW215804   5.780  11.155  11.219
38594SOL     OW15805   6.866  10.237   9.982
38594SOL    HW115806   6.926  10.156   9.984
38594SOL    HW215807   6.906  10.306   9.922
38595SOL     OW15808   6.416  10.583  10.732
38595SOL    HW115809   6.411  10.616  10.827
38595SOL    HW215810   6.330  10.602  10.686
38596SOL     OW15811   6.258  10.926   9.464
38596SOL    HW115812   6.267  10.936   9.365
38596SOL    HW215813   6.218  10.837   9.485
38597SOL     OW15814   7.236  11.030  10.704
38597SOL    HW115815   7.289  11.040  10.620
38597SOL    HW215816   7.209  11.120  10.738
38598SOL     OW15817   7.427   9.485  10.273
38598SOL    HW115818   7.466   9.400  10.237
38598SOL    HW215819   7.329   9.487  10.254
38599SOL     OW15820   5.849   9.636  10.030
38599SOL    HW115821   5.770   9.687   9.996
38599SOL    HW215822   5.840   9.621  10.128
38600SOL     OW15823   6.780  10.922   9.341
38600SOL    HW115824   6.786  10.829   9.378
38600SOL    HW215825   6.721  10.922   9.261
38601SOL     OW15826   6.408  10.312  10.682
38601SOL    HW115827   6.448  10.311  10.590
38601SOL    HW215828   6.418  10.404  10.722
38602SOL     OW15829   6.502  10.220   9.601
38602SOL    HW115830   6.565  10.258   9.533
38602SOL    HW215831   6.542  10.137   9.640
38603SOL     OW15832   7.090  10.917   9.354
38603SOL    HW115833   6.998  10.954   9.361
38603SOL    HW215834   7.128  10.937   9.264
38604SOL     OW15835   5.958  10.598  10.800
38604SOL    HW115836   5.945  10.691  10.766
38604SOL    HW215837   5.874  10.546  10.787
38605SOL     OW15838   7.200  10.602  10.599
38605SOL    HW115839   7.260  10.605  10.679
38605SOL    HW215840   7.125  10.666  10.612
38606SOL     OW15841   6.625  10.408  10.006
38606SOL    HW115842   6.555  10.361  10.060
38606SOL    HW215843   6.684  10.340   9.963
38607SOL     OW15844   6.600   9.546  10.281
38607SOL    HW115845   6.592   9.510  10.188
38607SOL    HW215846   6.598   9.470  10.346
38608SOL     OW15847   6.176  10.797   9.801
38608SOL    HW115848   6.218  10.739   9.731
38608SOL    HW215849   6.132  10.876   9.757
38609SOL     OW15850   7.295   9.695  10.691
38609SOL    HW115851   7.368   9.764  10.695
38609SOL    HW215852   7.323   9.620  10.632
38610SOL     OW15853   5.841  10.658   9.600
38610SOL    HW115854   5.745  10.659   9.573
38610SOL    HW215855   5.853  10.711   9.684
38611SOL     OW15856   5.691  10.323  11.036
38611SOL    HW115857   5.614  10.290  11.090
38611SOL    HW215858   5.776  10.293  11.078
38612SOL     OW15859   6.258   9.513  10.799
38612SOL    HW115860   6.348   9.497  10.759
38612SOL    HW215861   6.266   9.518  10.898
38613SOL     OW15862   5.661   9.655   9.343
38613SOL    HW115863   5.569   9.627   9.314
38613SOL    HW215864   5.692   9.732   9.287
38614SOL     OW15865   7.026  10.166  10.708
38614SOL    HW115866   6.969  10.218  10.645
38614SOL    HW215867   7.122  10.178  10.684
38615SOL     OW15868   5.658   9.476   9.628
38615SOL    HW115869   5.641   9.559   9.574
38615SOL    HW215870   5.748   9.439   9.606
38616SOL     OW15871   6.769  10.645   9.429
38616SOL    HW115872   6.670  10.634   9.431
38616SOL    HW215873   6.803  10.660   9.522
38617SOL     OW15874   6.199  10.152  10.741
38617SOL    HW115875   6.255  10.233  10.724
38617SOL    HW215876   6.258  10.072  10.744
38618SOL     OW15877   7.079  11.077  10.269
38618SOL    HW115878   7.112  11.141  10.200
38618SOL    HW215879   7.145  11.071  10.344
38619SOL     OW15880   6.302   9.875  11.018
38619SOL    HW115881   6.321   9.940  11.092
38619SOL    HW215882   6.362   9.795  11.027
38620SOL     OW15883   7.036  10.530  10.943
38620SOL    HW115884   7.027  10.520  11.042
38620SOL    HW215885   7.132  10.523  10.917
38621SOL     OW15886   5.976  11.051  10.870
38621SOL    HW115887   5.885  11.092  10.868
38621SOL    HW215888   5.969  10.957  10.902
38622SOL     OW15889   7.260  10.193  10.564
38622SOL    HW115890   7.233  10.104  10.527
38622SOL    HW215891   7.261  10.261  10.491
38623SOL     OW15892   6.811   9.635   9.759
38623SOL    HW115893   6.876   9.561   9.748
38623SOL    HW215894   6.831   9.685   9.843
38624SOL     OW15895   6.180  10.055   9.962
38624SOL    HW115896   6.230  10.140   9.943
38624SOL    HW215897   6.092  10.057   9.914
38625SOL     OW15898   7.363   9.652  10.952
38625SOL    HW115899   7.346   9.683  10.858
38625SOL    HW215900   7.279   9.615  10.990
38626SOL     OW15901   7.316  10.244  10.827
38626SOL    HW115902   7.354  10.335  10.842
38626SOL    HW215903   7.308  10.227  10.728
38627SOL     OW15904   6.445  10.684   9.326
38627SOL    HW115905   6.399  10.699   9.414
38627SOL    HW215906   6.489  10.769   9.296
38628SOL     OW15907   6.247  11.100  10.263
38628SOL    HW115908   6.201  11.188  10.250
38628SOL    HW215909   6.346  11.112  10.256
38629SOL     OW15910   6.445  10.266  10.171
38629SOL    HW115911   6.499  10.197  10.219
38629SOL    HW215912   6.413  10.335  10.237
38630SOL     OW15913   6.669  10.294   9.397
38630SOL    HW115914   6.646  10.347   9.315
38630SOL    HW215915   6.750  10.238   9.378
38631SOL     OW15916   7.447  10.879  10.161
38631SOL    HW115917   7.376  10.867  10.091
38631SOL    HW215918   7.448  10.800  10.221
38632SOL     OW15919   5.807  10.624  11.154
38632SOL    HW115920   5.742  10.551  11.133
38632SOL    HW215921   5.811  10.638  11.252
38633SOL     OW15922   5.665  10.550   9.963
38633SOL    HW115923   5.664  10.503  10.051
38633SOL    HW215924   5.747  10.522   9.912
38634SOL     OW15925   6.258  10.701  10.934
38634SOL    HW115926   6.180  10.651  10.972
38634SOL    HW215927   6.255  10.796  10.965
38635SOL     OW15928   7.410   9.502  10.537
38635SOL    HW115929   7.406   9.412  10.581
38635SOL    HW215930   7.413   9.491  10.438
38636SOL     OW15931   6.014   9.734   9.830
38636SOL    HW115932   6.044   9.662   9.768
38636SOL    HW215933   5.975   9.694   9.913
38637SOL     OW15934   7.291  10.797  10.414
38637SOL    HW115935   7.198  10.772  10.387
38637SOL    HW215936   7.317  10.747  10.496
38638SOL     OW15937   5.903   9.857  10.590
38638SOL    HW115938   5.941   9.798  10.662
38638SOL    HW215939   5.943   9.831  10.502
38639SOL     OW15940   6.398  10.896   9.997
38639SOL    HW115941   6.430  10.906   9.903
38639SOL    HW215942   6.319  10.834   9.999
38640SOL     OW15943   7.010   9.524  10.422
38640SOL    HW115944   7.062   9.459  10.477
38640SOL    HW215945   6.961   9.587  10.483
38641SOL     OW15946   6.587   9.344  10.464
38641SOL    HW115947   6.524   9.272  10.433
38641SOL    HW215948   6.680   9.308  10.464
38642SOL     OW15949   6.356  10.640   9.611
38642SOL    HW115950   6.310  10.553   9.628
38642SOL    HW215951   6.447  10.637   9.652
38643SOL     OW15952   6.204  10.877  10.594
38643SOL    HW115953   6.199  10.959  10.651
38643SOL    HW215954   6.293  10.874  10.549
38644SOL     OW15955   6.938   9.362   9.478
38644SOL    HW115956   6.973   9.321   9.394
38644SOL    HW215957   6.848   9.324   9.498
38645SOL     OW15958   6.886   9.763  10.001
38645SOL    HW115959   6.827   9.843  10.005
38645SOL    HW215960   6.901   9.728  10.094
38646SOL     OW15961   7.179   9.531  10.192
38646SOL    HW115962   7.095   9.530  10.246
38646SOL    HW215963   7.181   9.614  10.136
38647SOL     OW15964   5.625  10.387   9.610
38647SOL    HW115965   5.724  10.376   9.601
38647SOL    HW215966   5.585  10.301   9.642
38648SOL     OW15967   6.461  10.956   9.647
38648SOL    HW115968   6.384  10.921   9.593
38648SOL    HW215969   6.429  11.027   9.709
38649SOL     OW15970   5.816   9.938  11.285
38649SOL    HW115971   5.723   9.936  11.322
38649SOL    HW215972   5.817   9.899  11.193
38650SOL     OW15973   5.811   9.585  12.168
38650SOL    HW115974   5.846   9.568  12.260
38650SOL    HW215975   5.723   9.540  12.156
38651SOL     OW15976   5.605   9.678  11.819
38651SOL    HW115977   5.523   9.721  11.858
38651SOL    HW215978   5.577   9.605  11.756
38652SOL     OW15979   6.155  10.585  12.337
38652SOL    HW115980   6.062  10.578  12.300
38652SOL    HW215981   6.166  10.674  12.381
38653SOL     OW15982   7.141  10.821  11.875
38653SOL    HW115983   7.084  10.805  11.956
38653SOL    HW215984   7.082  10.831  11.795
38654SOL     OW15985   6.721  10.013  11.889
38654SOL    HW115986   6.778  10.091  11.864
38654SOL    HW215987   6.661  10.039  11.965
38655SOL     OW15988   7.341   9.917  11.403
38655SOL    HW115989   7.329   9.904  11.304
38655SOL    HW215990   7.311   9.836  11.452
38656SOL     OW15991   6.354  10.454  12.195
38656SOL    HW115992   6.276  10.471  12.255
38656SOL    HW215993   6.388  10.541  12.159
38657SOL     OW15994   6.271  10.322  11.837
38657SOL    HW115995   6.340  10.306  11.907
38657SOL    HW215996   6.198  10.379  11.875
38658SOL     OW15997   5.921  10.745  12.233
38658SOL    HW115998   5.843  10.714  12.180
38658SOL    HW215999   5.979  10.803  12.176
38659SOL     OW16000   7.046  10.815  12.511
38659SOL    HW116001   7.070  10.909  12.537
38659SOL    HW216002   7.030  10.761  12.593
38660SOL     OW16003   6.024   9.702  12.671
38660SOL    HW116004   6.106   9.646  12.680
38660SOL    HW216005   5.943   9.644  12.675
38661SOL     OW16006   7.189   9.757  11.909
38661SOL    HW116007   7.115   9.803  11.859
38661SOL    HW216008   7.240   9.825  11.962
38662SOL     OW16009   5.817  11.023  11.655
38662SOL    HW116010   5.851  11.100  11.709
38662SOL    HW216011   5.861  11.023  11.565
38663SOL     OW16012   5.816  10.744  11.710
38663SOL    HW116013   5.790  10.840  11.710
38663SOL    HW216014   5.745  10.690  11.755
38664SOL     OW16015   5.826  10.401  12.058
38664SOL    HW116016   5.840  10.317  12.110
38664SOL    HW216017   5.771  10.465  12.113
38665SOL     OW16018   6.206  11.096  12.611
38665SOL    HW116019   6.114  11.079  12.646
38665SOL    HW216020   6.234  11.188  12.637
38666SOL     OW16021   6.192  10.274  11.295
38666SOL    HW116022   6.199  10.358  11.241
38666SOL    HW216023   6.238  10.287  11.383
38667SOL     OW16024   7.180   9.424  12.652
38667SOL    HW116025   7.162   9.491  12.580
38667SOL    HW216026   7.177   9.470  12.741
38668SOL     OW16027   5.708   9.953  11.735
38668SOL    HW116028   5.663   9.865  11.752
38668SOL    HW216029   5.707  10.007  11.819
38669SOL     OW16030   7.428  11.077  11.531
38669SOL    HW116031   7.482  11.048  11.611
38669SOL    HW216032   7.458  11.167  11.502
38670SOL     OW16033   5.613  10.906  11.289
38670SOL    HW116034   5.594  10.810  11.310
38670SOL    HW216035   5.580  10.964  11.364
38671SOL     OW16036   7.275  10.232  11.784
38671SOL    HW116037   7.370  10.203  11.792
38671SOL    HW216038   7.267  10.297  11.709
38672SOL     OW16039   7.227  10.418  11.604
38672SOL    HW116040   7.313  10.420  11.552
38672SOL    HW216041   7.241  10.465  11.692
38673SOL     OW16042   5.699  10.047  12.769
38673SOL    HW116043   5.787  10.034  12.814
38673SOL    HW216044   5.686  10.144  12.747
38674SOL     OW16045   6.199  10.675  11.898
38674SOL    HW116046   6.150  10.588  11.907
38674SOL    HW216047   6.176  10.718  11.811
38675SOL     OW16048   6.879  10.538  12.595
38675SOL    HW116049   6.916  10.465  12.537
38675SOL    HW216050   6.931  10.543  12.680
38676SOL     OW16051   6.395   9.314  11.674
38676SOL    HW116052   6.435   9.405  11.665
38676SOL    HW216053   6.295   9.322  11.680
38677SOL     OW16054   5.783  10.286  12.436
38677SOL    HW116055   5.872  10.241  12.422
38677SOL    HW216056   5.710  10.221  12.417
38678SOL     OW16057   7.111  10.309  11.362
38678SOL    HW116058   7.048  10.233  11.375
38678SOL    HW216059   7.159  10.327  11.448
38679SOL     OW16060   7.052  10.727  12.125
38679SOL    HW116061   6.993  10.733  12.205
38679SOL    HW216062   7.037  10.639  12.079
38680SOL     OW16063   7.253  11.024  11.744
38680SOL    HW116064   7.212  11.001  11.656
38680SOL    HW216065   7.235  10.950  11.809
38681SOL     OW16066   6.184  10.039  11.442
38681SOL    HW116067   6.208  10.108  11.374
38681SOL    HW216068   6.106  10.072  11.496
38682SOL     OW16069   6.867   9.655  12.116
38682SOL    HW116070   6.781   9.605  12.103
38682SOL    HW216071   6.929   9.601  12.172
38683SOL     OW16072   7.162  10.972  11.479
38683SOL    HW116073   7.251  11.018  11.482
38683SOL    HW216074   7.141  10.948  11.384
38684SOL     OW16075   6.393   9.915  12.637
38684SOL    HW116076   6.346   9.912  12.726
38684SOL    HW216077   6.342   9.860  12.571
38685SOL     OW16078   6.559  10.200  12.744
38685SOL    HW116079   6.605  10.116  12.715
38685SOL    HW216080   6.503  10.234  12.669
38686SOL     OW16081   6.577   9.720  12.414
38686SOL    HW116082   6.500   9.754  12.468
38686SOL    HW216083   6.543   9.669  12.335
38687SOL     OW16084   6.627  10.011  11.601
38687SOL    HW116085   6.653  10.007  11.697
38687SOL    HW216086   6.542   9.960  11.587
38688SOL     OW16087   5.662  10.121  11.961
38688SOL    HW116088   5.761  10.109  11.970
38688SOL    HW216089   5.638  10.216  11.982
38689SOL     OW16090   5.716  11.131  12.743
38689SOL    HW116091   5.706  11.116  12.842
38689SOL    HW216092   5.630  11.167  12.707
38690SOL     OW16093   6.451   9.658  11.367
38690SOL    HW116094   6.510   9.721  11.318
38690SOL    HW216095   6.470   9.564  11.338
38691SOL     OW16096   6.948  10.454  11.717
38691SOL    HW116097   7.031  10.425  11.669
38691SOL    HW216098   6.899  10.521  11.661
38692SOL     OW16099   6.136   9.506  12.057
38692SOL    HW116100   6.131   9.501  12.157
38692SOL    HW216101   6.138   9.602  12.028
38693SOL     OW16102   6.594  10.766  11.649
38693SOL    HW116103   6.548  10.838  11.597
38693SOL    HW216104   6.590  10.786  11.747
38694SOL     OW16105   5.937  11.111  12.025
38694SOL    HW116106   5.987  11.025  12.031
38694SOL    HW216107   6.002  11.188  12.022
38695SOL     OW16108   7.381  10.376  12.045
38695SOL    HW116109   7.319  10.361  11.969
38695SOL    HW216110   7.329  10.387  12.130
38696SOL     OW16111   6.813  10.860  12.678
38696SOL    HW116112   6.819  10.783  12.742
38696SOL    HW216113   6.761  10.834  12.598
38697SOL     OW16114   5.907  10.253  11.414
38697SOL    HW116115   5.989  10.292  11.372
38697SOL    HW216116   5.880  10.171  11.365
38698SOL     OW16117   7.044  10.045  11.900
38698SOL    HW116118   7.039   9.980  11.975
38698SOL    HW216119   7.124  10.104  11.913
38699SOL     OW16120   6.697  11.086  11.409
38699SOL    HW116121   6.637  11.024  11.459
38699SOL    HW216122   6.728  11.042  11.324
38700SOL     OW16123   5.788   9.595  12.670
38700SOL    HW116124   5.708   9.655  12.657
38700SOL    HW216125   5.778   9.546  12.756
38701SOL     OW16126   7.218  10.687  11.253
38701SOL    HW116127   7.186  10.781  11.243
38701SOL    HW216128   7.142  10.624  11.241
38702SOL     OW16129   6.050  11.053  11.495
38702SOL    HW116130   6.083  11.092  11.581
38702SOL    HW216131   6.126  11.046  11.430
38703SOL     OW16132   6.986   9.417  11.598
38703SOL    HW116133   6.962   9.380  11.508
38703SOL    HW216134   7.085   9.433  11.602
38704SOL     OW16135   5.835  11.095  12.413
38704SOL    HW116136   5.892  11.030  12.463
38704SOL    HW216137   5.819  11.062  12.320
38705SOL     OW16138   6.526  11.008  12.076
38705SOL    HW116139   6.606  10.951  12.097
38705SOL    HW216140   6.477  10.968  11.999
38706SOL     OW16141   5.968  10.010  11.652
38706SOL    HW116142   6.013   9.920  11.649
38706SOL    HW216143   5.874   9.999  11.685
38707SOL     OW16144   6.200   9.432  11.289
38707SOL    HW116145   6.298   9.410  11.296
38707SOL    HW216146   6.169   9.415  11.196
38708SOL     OW16147   6.474  10.824  12.367
38708SOL    HW116148   6.451  10.799  12.273
38708SOL    HW216149   6.535  10.755  12.406
38709SOL     OW16150   6.937   9.900  12.605
38709SOL    HW116151   6.965   9.857  12.690
38709SOL    HW216152   6.962   9.996  12.606
38710SOL     OW16153   6.389  10.712  12.096
38710SOL    HW116154   6.479  10.726  12.054
38710SOL    HW216155   6.318  10.714  12.025
38711SOL     OW16156   6.508   9.813  12.071
38711SOL    HW116157   6.483   9.804  11.975
38711SOL    HW216158   6.556   9.731  12.102
38712SOL     OW16159   6.125   9.374  11.684
38712SOL    HW116160   6.044   9.375  11.742
38712SOL    HW216161   6.128   9.457  11.629
38713SOL     OW16162   7.020  10.498  11.213
38713SOL    HW116163   7.052  10.422  11.270
38713SOL    HW216164   6.928  10.525  11.243
38714SOL     OW16165   5.883   9.345  11.343
38714SOL    HW116166   5.932   9.429  11.322
38714SOL    HW216167   5.945   9.280  11.388
38715SOL     OW16168   6.521   9.546  11.652
38715SOL    HW116169   6.473   9.587  11.574
38715SOL    HW216170   6.620   9.544  11.633
38716SOL     OW16171   6.662   9.993  12.636
38716SOL    HW116172   6.582   9.932  12.639
38716SOL    HW216173   6.743   9.940  12.612
38717SOL     OW16174   6.813  10.880  11.965
38717SOL    HW116175   6.834  10.954  11.900
38717SOL    HW216176   6.881  10.880  12.038
38718SOL     OW16177   6.045  10.462  11.913
38718SOL    HW116178   5.974  10.435  11.978
38718SOL    HW216179   6.019  10.434  11.820
38719SOL     OW16180   6.857  11.107  11.763
38719SOL    HW116181   6.901  11.171  11.699
38719SOL    HW216182   6.807  11.159  11.833
38720SOL     OW16183   6.618   9.859  11.188
38720SOL    HW116184   6.577   9.941  11.149
38720SOL    HW216185   6.682   9.885  11.261
38721SOL     OW16186   5.664   9.866  12.558
38721SOL    HW116187   5.756   9.865  12.517
38721SOL    HW216188   5.658   9.940  12.625
38722SOL     OW16189   6.147   9.532  12.319
38722SOL    HW116190   6.185   9.448  12.356
38722SOL    HW216191   6.059   9.551  12.363
38723SOL     OW16192   6.452   9.764  11.814
38723SOL    HW116193   6.420   9.836  11.752
38723SOL    HW216194   6.476   9.683  11.761
38724SOL     OW16195   6.603   9.349  11.925
38724SOL    HW116196   6.531   9.354  11.856
38724SOL    HW216197   6.579   9.280  11.994
38725SOL     OW16198   7.015  10.483  12.039
38725SOL    HW116199   6.960  10.399  12.032
38725SOL    HW216200   7.041  10.512  11.947
38726SOL     OW16201   7.052   9.900  12.164
38726SOL    HW116202   7.022   9.805  12.171
38726SOL    HW216203   7.125   9.916  12.230
38727SOL     OW16204   7.443  10.143  11.549
38727SOL    HW116205   7.485  10.079  11.613
38727SOL    HW216206   7.405  10.092  11.471
38728SOL     OW16207   6.074  10.695  11.346
38728SOL    HW116208   5.987  10.680  11.393
38728SOL    HW216209   6.057  10.721  11.251
38729SOL     OW16210   7.250  10.590  11.829
38729SOL    HW116211   7.349  10.598  11.843
38729SOL    HW216212   7.205  10.674  11.860
38730SOL     OW16213   6.976   9.885  11.250
38730SOL    HW116214   6.922   9.864  11.331
38730SOL    HW216215   7.067   9.844  11.259
38731SOL     OW16216   6.113   9.566  11.500
38731SOL    HW116217   6.140   9.507  11.425
38731SOL    HW216218   6.113   9.661  11.469
38732SOL     OW16219   7.340  10.533  12.760
38732SOL    HW116220   7.431  10.494  12.747
38732SOL    HW216221   7.348  10.629  12.784
38733SOL     OW16222   6.650  10.657  12.512
38733SOL    HW116223   6.570  10.634  12.567
38733SOL    HW216224   6.733  10.631  12.561
38734SOL     OW16225   6.697  10.505  12.272
38734SOL    HW116226   6.657  10.549  12.353
38734SOL    HW216227   6.656  10.542  12.189
38735SOL     OW16228   7.224  10.409  12.251
38735SOL    HW116229   7.229  10.490  12.310
38735SOL    HW216230   7.138  10.411  12.200
38736SOL     OW16231   6.501   9.399  12.574
38736SOL    HW116232   6.526   9.379  12.479
38736SOL    HW216233   6.573   9.455  12.616
38737SOL     OW16234   6.291  10.360  11.540
38737SOL    HW116235   6.277  10.367  11.639
38737SOL    HW216236   6.375  10.309  11.522
38738SOL     OW16237   5.996  10.123  12.423
38738SOL    HW116238   6.082  10.135  12.473
38738SOL    HW216239   5.954  10.036  12.450
38739SOL     OW16240   6.860   9.696  12.434
38739SOL    HW116241   6.881   9.770  12.498
38739SOL    HW216242   6.771   9.713  12.391
38740SOL     OW16243   5.650  10.874  12.503
38740SOL    HW116244   5.604  10.956  12.469
38740SOL    HW216245   5.748  10.893  12.512
38741SOL     OW16246   5.953  10.410  11.673
38741SOL    HW116247   5.946  10.493  11.617
38741SOL    HW216248   5.957  10.330  11.613
38742SOL     OW16249   6.152   9.847  12.037
38742SOL    HW116250   6.164   9.913  11.963
38742SOL    HW216251   6.198   9.881  12.120
38743SOL     OW16252   6.838  10.658  11.560
38743SOL    HW116253   6.888  10.735  11.600
38743SOL    HW216254   6.743  10.660  11.592
38744SOL     OW16255   6.858  10.755  12.314
38744SOL    HW116256   6.905  10.768  12.401
38744SOL    HW216257   6.792  10.681  12.323
38745SOL     OW16258   7.168   9.949  11.644
38745SOL    HW116259   7.137  10.010  11.717
38745SOL    HW216260   7.218  10.001  11.575
38746SOL     OW16261   5.940  10.820  12.501
38746SOL    HW116262   5.919  10.776  12.414
38746SOL    HW216263   6.037  10.846  12.504
38747SOL     OW16264   5.988  10.061  12.770
38747SOL    HW116265   6.056  10.116  12.723
38747SOL    HW216266   6.028   9.973  12.797
38748SOL     OW16267   7.173  10.089  12.842
38748SOL    HW116268   7.081  10.127  12.837
38748SOL    HW216269   7.233  10.136  12.777
38749SOL     OW16270   6.159  10.180  12.201
38749SOL    HW116271   6.203  10.269  12.192
38749SOL    HW216272   6.096  10.180  12.278
38750SOL     OW16273   6.946  10.172  12.217
38750SOL    HW116274   6.871  10.172  12.151
38750SOL    HW216275   6.983  10.080  12.226
38751SOL     OW16276   6.795   9.835  11.447
38751SOL    HW116277   6.808   9.751  11.501
38751SOL    HW216278   6.766   9.909  11.507
38752SOL     OW16279   5.893   9.523  12.403
38752SOL    HW116280   5.870   9.560  12.493
38752SOL    HW216281   5.863   9.428  12.397
38753SOL     OW16282   5.623  10.620  12.454
38753SOL    HW116283   5.676  10.571  12.522
38753SOL    HW216284   5.645  10.718  12.459
38754SOL     OW16285   6.318   9.944  12.236
38754SOL    HW116286   6.377   9.918  12.160
38754SOL    HW216287   6.290  10.040  12.225
38755SOL     OW16288   5.893   9.373  11.790
38755SOL    HW116289   5.882   9.467  11.823
38755SOL    HW216290   5.888   9.310  11.867
38756SOL     OW16291   7.208   9.677  11.546
38756SOL    HW116292   7.210   9.601  11.610
38756SOL    HW216293   7.160   9.754  11.586
38757SOL     OW16294   6.609  10.076  12.138
38757SOL    HW116295   6.624  10.097  12.234
38757SOL    HW216296   6.579   9.981  12.129
38758SOL     OW16297   7.126   9.584  11.297
38758SOL    HW116298   7.065   9.509  11.320
38758SOL    HW216299   7.148   9.636  11.380
38759SOL     OW16300   6.889  10.148  11.214
38759SOL    HW116301   6.923  10.055  11.229
38759SOL    HW216302   6.907  10.175  11.119
38760SOL     OW16303   6.654  10.643  12.021
38760SOL    HW116304   6.661  10.559  11.966
38760SOL    HW216305   6.716  10.712  11.985
38761SOL     OW16306   5.905  10.120  12.121
38761SOL    HW116307   5.998  10.156  12.126
38761SOL    HW216308   5.899  10.035  12.173
38762SOL     OW16309   5.925   9.819  12.178
38762SOL    HW116310   5.873   9.736  12.161
38762SOL    HW216311   6.002   9.824  12.114
38763SOL     OW16312   6.746   9.517  12.649
38763SOL    HW116313   6.746   9.581  12.726
38763SOL    HW216314   6.774   9.565  12.566
38764SOL     OW16315   5.594  10.636  11.372
38764SOL    HW116316   5.501  10.657  11.341
38764SOL    HW216317   5.604  10.537  11.385
38765SOL     OW16318   5.674  11.111  12.099
38765SOL    HW116319   5.632  11.025  12.072
38765SOL    HW216320   5.768  11.114  12.065
38766SOL     OW16321   6.090  10.878  12.082
38766SOL    HW116322   6.156  10.952  12.091
38766SOL    HW216323   6.134  10.799  12.040
38767SOL     OW16324   6.588  10.106  12.410
38767SOL    HW116325   6.629  10.074  12.496
38767SOL    HW216326   6.492  10.079  12.407
38768SOL     OW16327   5.626   9.854  12.286
38768SOL    HW116328   5.711   9.821  12.245
38768SOL    HW216329   5.639   9.869  12.384
38769SOL     OW16330   6.401   9.882  11.497
38769SOL    HW116331   6.408   9.793  11.451
38769SOL    HW216332   6.307   9.916  11.489
38770SOL     OW16333   7.243   9.914  12.378
38770SOL    HW116334   7.205   9.845  12.440
38770SOL    HW216335   7.325   9.878  12.334
38771SOL     OW16336   5.838  10.874  12.916
38771SOL    HW116337   5.808  10.931  12.992
38771SOL    HW216338   5.831  10.777  12.942
38772SOL     OW16339   6.257   9.774  12.441
38772SOL    HW116340   6.223   9.685  12.411
38772SOL    HW216341   6.283   9.828  12.361
38773SOL     OW16342   6.516  10.988  12.637
38773SOL    HW116343   6.492  10.970  12.542
38773SOL    HW216344   6.546  11.082  12.647
38774SOL     OW16345   6.059   9.810  11.363
38774SOL    HW116346   6.120   9.890  11.367
38774SOL    HW216347   5.964   9.841  11.370
38775SOL     OW16348   5.745  10.447  12.638
38775SOL    HW116349   5.767  10.386  12.714
38775SOL    HW216350   5.755  10.398  12.552
38776SOL     OW16351   6.933  10.369  12.406
38776SOL    HW116352   6.957  10.306  12.332
38776SOL    HW216353   6.843  10.409  12.388
38777SOL     OW16354   6.888  10.165  11.481
38777SOL    HW116355   6.802  10.134  11.523
38777SOL    HW216356   6.884  10.151  11.382
38778SOL     OW16357   7.345  11.057  12.326
38778SOL    HW116358   7.406  11.087  12.253
38778SOL    HW216359   7.307  10.968  12.304
38779SOL     OW16360   6.838  11.041  12.300
38779SOL    HW116361   6.922  11.046  12.246
38779SOL    HW216362   6.815  10.945  12.318
38780SOL     OW16363   5.669  10.568  12.194
38780SOL    HW116364   5.664  10.567  12.294
38780SOL    HW216365   5.586  10.527  12.156
38781SOL     OW16366   7.312   9.445  11.695
38781SOL    HW116367   7.385   9.428  11.628
38781SOL    HW216368   7.281   9.358  11.733
38782SOL     OW16369   6.974  10.883  11.649
38782SOL    HW116370   7.041  10.895  11.575
38782SOL    HW216371   6.934  10.972  11.672
38783SOL     OW16372   6.866  10.237  11.844
38783SOL    HW116373   6.926  10.156  11.846
38783SOL    HW216374   6.906  10.306  11.784
38784SOL     OW16375   6.416  10.583  12.594
38784SOL    HW116376   6.411  10.616  12.689
38784SOL    HW216377   6.330  10.602  12.548
38785SOL     OW16378   6.258  10.926  11.326
38785SOL    HW116379   6.267  10.936  11.227
38785SOL    HW216380   6.218  10.837  11.347
38786SOL     OW16381   7.236  11.030  12.566
38786SOL    HW116382   7.289  11.040  12.482
38786SOL    HW216383   7.209  11.120  12.600
38787SOL     OW16384   7.427   9.485  12.135
38787SOL    HW116385   7.466   9.400  12.099
38787SOL    HW216386   7.329   9.487  12.116
38788SOL     OW16387   5.849   9.636  11.892
38788SOL    HW116388   5.770   9.687  11.858
38788SOL    HW216389   5.840   9.621  11.990
38789SOL     OW16390   6.780  10.922  11.203
38789SOL    HW116391   6.786  10.829  11.240
38789SOL    HW216392   6.721  10.922  11.123
38790SOL     OW16393   6.408  10.312  12.544
38790SOL    HW116394   6.448  10.311  12.452
38790SOL    HW216395   6.418  10.404  12.584
38791SOL     OW16396   6.502  10.220  11.463
38791SOL    HW116397   6.565  10.258  11.395
38791SOL    HW216398   6.542  10.137  11.502
38792SOL     OW16399   7.090  10.917  11.216
38792SOL    HW116400   6.998  10.954  11.223
38792SOL    HW216401   7.128  10.937  11.126
38793SOL     OW16402   5.958  10.598  12.662
38793SOL    HW116403   5.945  10.691  12.628
38793SOL    HW216404   5.874  10.546  12.649
38794SOL     OW16405   7.200  10.602  12.461
38794SOL    HW116406   7.260  10.605  12.541
38794SOL    HW216407   7.125  10.666  12.474
38795SOL     OW16408   6.625  10.408  11.868
38795SOL    HW116409   6.555  10.361  11.922
38795SOL    HW216410   6.684  10.340  11.825
38796SOL     OW16411   6.600   9.546  12.143
38796SOL    HW116412   6.592   9.510  12.050
38796SOL    HW216413   6.598   9.470  12.208
38797SOL     OW16414   6.176  10.797  11.663
38797SOL    HW116415   6.218  10.739  11.593
38797SOL    HW216416   6.132  10.876  11.619
38798SOL     OW16417   7.295   9.695  12.553
38798SOL    HW116418   7.368   9.764  12.557
38798SOL    HW216419   7.323   9.620  12.494
38799SOL     OW16420   5.841  10.658  11.462
38799SOL    HW116421   5.745  10.659  11.435
38799SOL    HW216422   5.853  10.711  11.546
38800SOL     OW16423   5.691  10.323  12.898
38800SOL    HW116424   5.614  10.290  12.952
38800SOL    HW216425   5.776  10.293  12.940
38801SOL     OW16426   6.258   9.513  12.661
38801SOL    HW116427   6.348   9.497  12.621
38801SOL    HW216428   6.266   9.518  12.760
38802SOL     OW16429   5.661   9.655  11.205
38802SOL    HW116430   5.569   9.627  11.176
38802SOL    HW216431   5.692   9.732  11.149
38803SOL     OW16432   7.026  10.166  12.570
38803SOL    HW116433   6.969  10.218  12.507
38803SOL    HW216434   7.122  10.178  12.546
38804SOL     OW16435   5.658   9.476  11.490
38804SOL    HW116436   5.641   9.559  11.436
38804SOL    HW216437   5.748   9.439  11.468
38805SOL     OW16438   6.769  10.645  11.291
38805SOL    HW116439   6.670  10.634  11.293
38805SOL    HW216440   6.803  10.660  11.384
38806SOL     OW16441   6.199  10.152  12.603
38806SOL    HW116442   6.255  10.233  12.586
38806SOL    HW216443   6.258  10.072  12.606
38807SOL     OW16444   7.079  11.077  12.131
38807SOL    HW116445   7.112  11.141  12.062
38807SOL    HW216446   7.145  11.071  12.206
38808SOL     OW16447   6.302   9.875  12.880
38808SOL    HW116448   6.321   9.940  12.954
38808SOL    HW216449   6.362   9.795  12.889
38809SOL     OW16450   5.976  11.051  12.732
38809SOL    HW116451   5.885  11.092  12.730
38809SOL    HW216452   5.969  10.957  12.764
38810SOL     OW16453   7.260  10.193  12.426
38810SOL    HW116454   7.233  10.104  12.389
38810SOL    HW216455   7.261  10.261  12.353
38811SOL     OW16456   6.811   9.635  11.621
38811SOL    HW116457   6.876   9.561  11.610
38811SOL    HW216458   6.831   9.685  11.705
38812SOL     OW16459   6.180  10.055  11.824
38812SOL    HW116460   6.230  10.140  11.805
38812SOL    HW216461   6.092  10.057  11.776
38813SOL     OW16462   7.316  10.244  12.689
38813SOL    HW116463   7.354  10.335  12.704
38813SOL    HW216464   7.308  10.227  12.590
38814SOL     OW16465   6.445  10.684  11.188
38814SOL    HW116466   6.399  10.699  11.276
38814SOL    HW216467   6.489  10.769  11.158
38815SOL     OW16468   6.247  11.100  12.125
38815SOL    HW116469   6.201  11.188  12.112
38815SOL    HW216470   6.346  11.112  12.118
38816SOL     OW16471   6.445  10.266  12.033
38816SOL    HW116472   6.499  10.197  12.081
38816SOL    HW216473   6.413  10.335  12.099
38817SOL     OW16474   6.669  10.294  11.259
38817SOL    HW116475   6.646  10.347  11.177
38817SOL    HW216476   6.750  10.238  11.240
38818SOL     OW16477   7.447  10.879  12.023
38818SOL    HW116478   7.376  10.867  11.953
38818SOL    HW216479   7.448  10.800  12.083
38819SOL     OW16480   5.665  10.550  11.825
38819SOL    HW116481   5.664  10.503  11.913
38819SOL    HW216482   5.747  10.522  11.774
38820SOL     OW16483   6.258  10.701  12.796
38820SOL    HW116484   6.180  10.651  12.834
38820SOL    HW216485   6.255  10.796  12.827
38821SOL     OW16486   7.410   9.502  12.399
38821SOL    HW116487   7.406   9.412  12.443
38821SOL    HW216488   7.413   9.491  12.300
38822SOL     OW16489   6.014   9.734  11.692
38822SOL    HW116490   6.044   9.662  11.630
38822SOL    HW216491   5.975   9.694  11.775
38823SOL     OW16492   7.291  10.797  12.276
38823SOL    HW116493   7.198  10.772  12.249
38823SOL    HW216494   7.317  10.747  12.358
38824SOL     OW16495   5.903   9.857  12.452
38824SOL    HW116496   5.941   9.798  12.524
38824SOL    HW216497   5.943   9.831  12.364
38825SOL     OW16498   6.398  10.896  11.859
38825SOL    HW116499   6.430  10.906  11.765
38825SOL    HW216500   6.319  10.834  11.861
38826SOL     OW16501   7.010   9.524  12.284
38826SOL    HW116502   7.062   9.459  12.339
38826SOL    HW216503   6.961   9.587  12.345
38827SOL     OW16504   6.587   9.344  12.326
38827SOL    HW116505   6.524   9.272  12.295
38827SOL    HW216506   6.680   9.308  12.326
38828SOL     OW16507   6.356  10.640  11.473
38828SOL    HW116508   6.310  10.553  11.490
38828SOL    HW216509   6.447  10.637  11.514
38829SOL     OW16510   6.204  10.877  12.456
38829SOL    HW116511   6.199  10.959  12.513
38829SOL    HW216512   6.293  10.874  12.411
38830SOL     OW16513   6.938   9.362  11.340
38830SOL    HW116514   6.973   9.321  11.256
38830SOL    HW216515   6.848   9.324  11.360
38831SOL     OW16516   6.886   9.763  11.863
38831SOL    HW116517   6.827   9.843  11.867
38831SOL    HW216518   6.901   9.728  11.956
38832SOL     OW16519   7.179   9.531  12.054
38832SOL    HW116520   7.095   9.530  12.108
38832SOL    HW216521   7.181   9.614  11.998
38833SOL     OW16522   5.625  10.387  11.472
38833SOL    HW116523   5.724  10.376  11.463
38833SOL    HW216524   5.585  10.301  11.504
38834SOL     OW16525   6.461  10.956  11.509
38834SOL    HW116526   6.384  10.921  11.455
38834SOL    HW216527   6.429  11.027  11.571
38835SOL     OW16528   5.816  11.800   0.113
38835SOL    HW116529   5.723  11.798   0.150
38835SOL    HW216530   5.817  11.761   0.021
38836SOL     OW16531   5.811  11.447   0.996
38836SOL    HW116532   5.846  11.430   1.088
38836SOL    HW216533   5.723  11.402   0.984
38837SOL     OW16534   5.605  11.540   0.647
38837SOL    HW116535   5.523  11.583   0.686
38837SOL    HW216536   5.577  11.467   0.584
38838SOL     OW16537   6.155  12.447   1.165
38838SOL    HW116538   6.062  12.440   1.128
38838SOL    HW216539   6.166  12.536   1.209
38839SOL     OW16540   7.141  12.683   0.703
38839SOL    HW116541   7.084  12.667   0.784
38839SOL    HW216542   7.082  12.693   0.623
38840SOL     OW16543   6.721  11.875   0.717
38840SOL    HW116544   6.778  11.953   0.692
38840SOL    HW216545   6.661  11.901   0.793
38841SOL     OW16546   7.341  11.779   0.231
38841SOL    HW116547   7.329  11.766   0.132
38841SOL    HW216548   7.311  11.698   0.280
38842SOL     OW16549   6.354  12.316   1.023
38842SOL    HW116550   6.276  12.333   1.083
38842SOL    HW216551   6.388  12.403   0.987
38843SOL     OW16552   6.436  11.970   1.823
38843SOL    HW116553   6.432  12.046   1.888
38843SOL    HW216554   6.458  12.006   1.732
38844SOL     OW16555   6.271  12.184   0.665
38844SOL    HW116556   6.340  12.168   0.735
38844SOL    HW216557   6.198  12.241   0.703
38845SOL     OW16558   6.272  12.333   1.803
38845SOL    HW116559   6.332  12.412   1.817
38845SOL    HW216560   6.186  12.364   1.762
38846SOL     OW16561   5.921  12.607   1.061
38846SOL    HW116562   5.843  12.576   1.008
38846SOL    HW216563   5.979  12.665   1.004
38847SOL     OW16564   7.046  12.677   1.339
38847SOL    HW116565   7.070  12.771   1.365
38847SOL    HW216566   7.030  12.623   1.421
38848SOL     OW16567   6.024  11.564   1.499
38848SOL    HW116568   6.106  11.508   1.508
38848SOL    HW216569   5.943  11.506   1.503
38849SOL     OW16570   7.189  11.619   0.737
38849SOL    HW116571   7.115  11.665   0.687
38849SOL    HW216572   7.240  11.687   0.790
38850SOL     OW16573   6.713  12.513   1.690
38850SOL    HW116574   6.760  12.513   1.778
38850SOL    HW216575   6.665  12.426   1.679
38851SOL     OW16576   5.816  12.606   0.538
38851SOL    HW116577   5.790  12.702   0.538
38851SOL    HW216578   5.745  12.552   0.583
38852SOL     OW16579   5.826  12.263   0.886
38852SOL    HW116580   5.840  12.179   0.938
38852SOL    HW216581   5.771  12.327   0.941
38853SOL     OW16582   6.192  12.136   0.123
38853SOL    HW116583   6.199  12.220   0.069
38853SOL    HW216584   6.238  12.149   0.211
38854SOL     OW16585   7.180  11.286   1.480
38854SOL    HW116586   7.162  11.353   1.408
38854SOL    HW216587   7.177  11.332   1.569
38855SOL     OW16588   5.708  11.815   0.563
38855SOL    HW116589   5.663  11.727   0.580
38855SOL    HW216590   5.707  11.869   0.647
38856SOL     OW16591   5.613  12.768   0.117
38856SOL    HW116592   5.594  12.672   0.138
38856SOL    HW216593   5.580  12.826   0.192
38857SOL     OW16594   7.275  12.094   0.612
38857SOL    HW116595   7.370  12.065   0.620
38857SOL    HW216596   7.267  12.159   0.537
38858SOL     OW16597   7.227  12.280   0.432
38858SOL    HW116598   7.313  12.282   0.380
38858SOL    HW216599   7.241  12.327   0.520
38859SOL     OW16600   5.699  11.909   1.597
38859SOL    HW116601   5.787  11.896   1.642
38859SOL    HW216602   5.686  12.006   1.575
38860SOL     OW16603   6.199  12.537   0.726
38860SOL    HW116604   6.150  12.450   0.735
38860SOL    HW216605   6.176  12.580   0.639
38861SOL     OW16606   6.879  12.400   1.423
38861SOL    HW116607   6.916  12.327   1.365
38861SOL    HW216608   6.931  12.405   1.508
38862SOL     OW16609   6.395  11.176   0.502
38862SOL    HW116610   6.435  11.267   0.493
38862SOL    HW216611   6.295  11.184   0.508
38863SOL     OW16612   5.783  12.148   1.264
38863SOL    HW116613   5.872  12.103   1.250
38863SOL    HW216614   5.710  12.083   1.245
38864SOL     OW16615   7.111  12.171   0.190
38864SOL    HW116616   7.048  12.095   0.203
38864SOL    HW216617   7.159  12.189   0.276
38865SOL     OW16618   5.903  11.423   1.801
38865SOL    HW116619   5.974  11.494   1.807
38865SOL    HW216620   5.815  11.462   1.829
38866SOL     OW16621   7.052  12.589   0.953
38866SOL    HW116622   6.993  12.595   1.033
38866SOL    HW216623   7.037  12.501   0.907
38867SOL     OW16624   6.184  11.901   0.270
38867SOL    HW116625   6.208  11.970   0.202
38867SOL    HW216626   6.106  11.934   0.324
38868SOL     OW16627   6.867  11.517   0.944
38868SOL    HW116628   6.781  11.467   0.931
38868SOL    HW216629   6.929  11.463   1.000
38869SOL     OW16630   7.162  12.834   0.307
38869SOL    HW116631   7.251  12.880   0.310
38869SOL    HW216632   7.141  12.810   0.212
38870SOL     OW16633   6.393  11.777   1.465
38870SOL    HW116634   6.346  11.774   1.554
38870SOL    HW216635   6.342  11.722   1.399
38871SOL     OW16636   6.980  11.641   1.674
38871SOL    HW116637   6.960  11.684   1.762
38871SOL    HW216638   7.058  11.579   1.683
38872SOL     OW16639   6.559  12.062   1.572
38872SOL    HW116640   6.605  11.978   1.543
38872SOL    HW216641   6.503  12.096   1.497
38873SOL     OW16642   6.577  11.582   1.242
38873SOL    HW116643   6.500  11.616   1.296
38873SOL    HW216644   6.543  11.531   1.163
38874SOL     OW16645   6.627  11.873   0.429
38874SOL    HW116646   6.653  11.869   0.525
38874SOL    HW216647   6.542  11.822   0.415
38875SOL     OW16648   5.662  11.983   0.789
38875SOL    HW116649   5.761  11.971   0.798
38875SOL    HW216650   5.638  12.078   0.810
38876SOL     OW16651   6.451  11.520   0.195
38876SOL    HW116652   6.510  11.583   0.146
38876SOL    HW216653   6.470  11.426   0.166
38877SOL     OW16654   7.305  11.757   1.831
38877SOL    HW116655   7.279  11.846   1.795
38877SOL    HW216656   7.303  11.689   1.758
38878SOL     OW16657   6.948  12.316   0.545
38878SOL    HW116658   7.031  12.287   0.497
38878SOL    HW216659   6.899  12.383   0.489
38879SOL     OW16660   6.136  11.368   0.885
38879SOL    HW116661   6.131  11.363   0.985
38879SOL    HW216662   6.138  11.464   0.856
38880SOL     OW16663   6.594  12.628   0.477
38880SOL    HW116664   6.548  12.700   0.425
38880SOL    HW216665   6.590  12.648   0.575
38881SOL     OW16666   7.381  12.238   0.873
38881SOL    HW116667   7.319  12.223   0.797
38881SOL    HW216668   7.329  12.249   0.958
38882SOL     OW16669   6.813  12.722   1.506
38882SOL    HW116670   6.819  12.645   1.570
38882SOL    HW216671   6.761  12.696   1.426
38883SOL     OW16672   5.907  12.115   0.242
38883SOL    HW116673   5.989  12.154   0.200
38883SOL    HW216674   5.880  12.033   0.193
38884SOL     OW16675   7.044  11.907   0.728
38884SOL    HW116676   7.039  11.842   0.803
38884SOL    HW216677   7.124  11.966   0.741
38885SOL     OW16678   6.047  12.438   1.727
38885SOL    HW116679   5.997  12.439   1.641
38885SOL    HW216680   5.984  12.420   1.803
38886SOL     OW16681   5.788  11.457   1.498
38886SOL    HW116682   5.708  11.517   1.485
38886SOL    HW216683   5.778  11.408   1.584
38887SOL     OW16684   7.218  12.549   0.081
38887SOL    HW116685   7.186  12.643   0.071
38887SOL    HW216686   7.142  12.486   0.069
38888SOL     OW16687   6.986  11.279   0.426
38888SOL    HW116688   6.962  11.242   0.336
38888SOL    HW216689   7.085  11.295   0.430
38889SOL     OW16690   5.968  11.872   0.480
38889SOL    HW116691   6.013  11.782   0.477
38889SOL    HW216692   5.874  11.861   0.513
38890SOL     OW16693   7.133  11.394   1.729
38890SOL    HW116694   7.128  11.431   1.821
38890SOL    HW216695   7.061  11.325   1.717
38891SOL     OW16696   6.200  11.294   0.117
38891SOL    HW116697   6.298  11.272   0.124
38891SOL    HW216698   6.169  11.277   0.024
38892SOL     OW16699   6.367  11.436   1.749
38892SOL    HW116700   6.434  11.375   1.792
38892SOL    HW216701   6.294  11.455   1.814
38893SOL     OW16702   6.937  11.762   1.433
38893SOL    HW116703   6.965  11.719   1.518
38893SOL    HW216704   6.962  11.858   1.434
38894SOL     OW16705   6.389  12.574   0.924
38894SOL    HW116706   6.479  12.588   0.882
38894SOL    HW216707   6.318  12.576   0.853
38895SOL     OW16708   6.508  11.675   0.899
38895SOL    HW116709   6.483  11.666   0.803
38895SOL    HW216710   6.556  11.593   0.930
38896SOL     OW16711   6.125  11.236   0.512
38896SOL    HW116712   6.044  11.237   0.570
38896SOL    HW216713   6.128  11.319   0.457
38897SOL     OW16714   7.020  12.360   0.041
38897SOL    HW116715   7.052  12.284   0.098
38897SOL    HW216716   6.928  12.387   0.071
38898SOL     OW16717   5.883  11.207   0.171
38898SOL    HW116718   5.932  11.291   0.150
38898SOL    HW216719   5.945  11.142   0.216
38899SOL     OW16720   6.521  11.408   0.480
38899SOL    HW116721   6.473  11.449   0.402
38899SOL    HW216722   6.620  11.406   0.461
38900SOL     OW16723   6.662  11.855   1.464
38900SOL    HW116724   6.582  11.794   1.467
38900SOL    HW216725   6.743  11.802   1.440
38901SOL     OW16726   6.813  12.742   0.793
38901SOL    HW116727   6.834  12.816   0.728
38901SOL    HW216728   6.881  12.742   0.866
38902SOL     OW16729   6.045  12.324   0.741
38902SOL    HW116730   5.974  12.297   0.806
38902SOL    HW216731   6.019  12.296   0.648
38903SOL     OW16732   6.618  11.721   0.016
38903SOL    HW116733   6.577  11.803  -0.023
38903SOL    HW216734   6.682  11.747   0.089
38904SOL     OW16735   5.664  11.728   1.386
38904SOL    HW116736   5.756  11.727   1.345
38904SOL    HW216737   5.658  11.802   1.453
38905SOL     OW16738   6.147  11.394   1.147
38905SOL    HW116739   6.185  11.310   1.184
38905SOL    HW216740   6.059  11.413   1.191
38906SOL     OW16741   6.452  11.626   0.642
38906SOL    HW116742   6.420  11.698   0.580
38906SOL    HW216743   6.476  11.545   0.589
38907SOL     OW16744   6.603  11.211   0.753
38907SOL    HW116745   6.531  11.216   0.684
38907SOL    HW216746   6.579  11.142   0.822
38908SOL     OW16747   7.015  12.345   0.867
38908SOL    HW116748   6.960  12.261   0.860
38908SOL    HW216749   7.041  12.374   0.775
38909SOL     OW16750   7.052  11.762   0.992
38909SOL    HW116751   7.022  11.667   0.999
38909SOL    HW216752   7.125  11.778   1.058
38910SOL     OW16753   7.443  12.005   0.377
38910SOL    HW116754   7.485  11.941   0.441
38910SOL    HW216755   7.405  11.954   0.299
38911SOL     OW16756   6.074  12.557   0.174
38911SOL    HW116757   5.987  12.542   0.221
38911SOL    HW216758   6.057  12.583   0.079
38912SOL     OW16759   7.250  12.452   0.657
38912SOL    HW116760   7.349  12.460   0.671
38912SOL    HW216761   7.205  12.536   0.688
38913SOL     OW16762   6.976  11.747   0.078
38913SOL    HW116763   6.922  11.726   0.159
38913SOL    HW216764   7.067  11.706   0.087
38914SOL     OW16765   6.113  11.428   0.328
38914SOL    HW116766   6.140  11.369   0.253
38914SOL    HW216767   6.113  11.523   0.297
38915SOL     OW16768   7.340  12.395   1.588
38915SOL    HW116769   7.431  12.356   1.575
38915SOL    HW216770   7.348  12.491   1.612
38916SOL     OW16771   6.650  12.519   1.340
38916SOL    HW116772   6.570  12.496   1.395
38916SOL    HW216773   6.733  12.493   1.389
38917SOL     OW16774   6.697  12.367   1.100
38917SOL    HW116775   6.657  12.411   1.181
38917SOL    HW216776   6.656  12.404   1.017
38918SOL     OW16777   7.224  12.271   1.079
38918SOL    HW116778   7.229  12.352   1.138
38918SOL    HW216779   7.138  12.273   1.028
38919SOL     OW16780   6.501  11.261   1.402
38919SOL    HW116781   6.526  11.241   1.307
38919SOL    HW216782   6.573  11.317   1.444
38920SOL     OW16783   6.566  12.288   1.719
38920SOL    HW116784   6.467  12.294   1.729
38920SOL    HW216785   6.589  12.208   1.663
38921SOL     OW16786   6.291  12.222   0.368
38921SOL    HW116787   6.277  12.229   0.467
38921SOL    HW216788   6.375  12.171   0.350
38922SOL     OW16789   5.996  11.985   1.251
38922SOL    HW116790   6.082  11.997   1.301
38922SOL    HW216791   5.954  11.898   1.278
38923SOL     OW16792   6.860  11.558   1.262
38923SOL    HW116793   6.881  11.632   1.326
38923SOL    HW216794   6.771  11.575   1.219
38924SOL     OW16795   5.650  12.736   1.331
38924SOL    HW116796   5.604  12.818   1.297
38924SOL    HW216797   5.748  12.755   1.340
38925SOL     OW16798   5.953  12.272   0.501
38925SOL    HW116799   5.946  12.355   0.445
38925SOL    HW216800   5.957  12.192   0.441
38926SOL     OW16801   6.152  11.709   0.865
38926SOL    HW116802   6.164  11.775   0.791
38926SOL    HW216803   6.198  11.743   0.948
38927SOL     OW16804   6.838  12.520   0.388
38927SOL    HW116805   6.888  12.597   0.428
38927SOL    HW216806   6.743  12.522   0.420
38928SOL     OW16807   6.858  12.617   1.142
38928SOL    HW116808   6.905  12.630   1.229
38928SOL    HW216809   6.792  12.543   1.151
38929SOL     OW16810   7.168  11.811   0.472
38929SOL    HW116811   7.137  11.872   0.545
38929SOL    HW216812   7.218  11.863   0.403
38930SOL     OW16813   5.940  12.682   1.329
38930SOL    HW116814   5.919  12.638   1.242
38930SOL    HW216815   6.037  12.708   1.332
38931SOL     OW16816   5.988  11.923   1.598
38931SOL    HW116817   6.056  11.978   1.551
38931SOL    HW216818   6.028  11.835   1.625
38932SOL     OW16819   7.173  11.951   1.670
38932SOL    HW116820   7.081  11.989   1.665
38932SOL    HW216821   7.233  11.998   1.605
38933SOL     OW16822   6.599  11.277   1.770
38933SOL    HW116823   6.605  11.362   1.718
38933SOL    HW216824   6.631  11.201   1.713
38934SOL     OW16825   6.090  11.222   1.740
38934SOL    HW116826   6.048  11.165   1.670
38934SOL    HW216827   6.024  11.291   1.772
38935SOL     OW16828   6.159  12.042   1.029
38935SOL    HW116829   6.203  12.131   1.020
38935SOL    HW216830   6.096  12.042   1.106
38936SOL     OW16831   6.946  12.034   1.045
38936SOL    HW116832   6.871  12.034   0.979
38936SOL    HW216833   6.983  11.942   1.054
38937SOL     OW16834   6.795  11.697   0.275
38937SOL    HW116835   6.808  11.613   0.329
38937SOL    HW216836   6.766  11.771   0.335
38938SOL     OW16837   5.893  11.385   1.231
38938SOL    HW116838   5.870  11.422   1.321
38938SOL    HW216839   5.863  11.290   1.225
38939SOL     OW16840   5.623  12.482   1.282
38939SOL    HW116841   5.676  12.433   1.350
38939SOL    HW216842   5.645  12.580   1.287
38940SOL     OW16843   6.318  11.806   1.064
38940SOL    HW116844   6.377  11.780   0.988
38940SOL    HW216845   6.290  11.902   1.053
38941SOL     OW16846   7.314  12.107   1.854
38941SOL    HW116847   7.268  12.100   1.765
38941SOL    HW216848   7.252  12.151   1.920
38942SOL     OW16849   5.893  11.235   0.618
38942SOL    HW116850   5.882  11.329   0.651
38942SOL    HW216851   5.888  11.172   0.695
38943SOL     OW16852   7.208  11.539   0.374
38943SOL    HW116853   7.210  11.463   0.438
38943SOL    HW216854   7.160  11.616   0.414
38944SOL     OW16855   6.609  11.938   0.966
38944SOL    HW116856   6.624  11.959   1.062
38944SOL    HW216857   6.579  11.843   0.957
38945SOL     OW16858   7.445  12.690   1.605
38945SOL    HW116859   7.459  12.717   1.510
38945SOL    HW216860   7.528  12.712   1.658
38946SOL     OW16861   5.936  12.070   1.804
38946SOL    HW116862   6.012  12.114   1.852
38946SOL    HW216863   5.971  12.023   1.722
38947SOL     OW16864   7.126  11.446   0.125
38947SOL    HW116865   7.065  11.371   0.148
38947SOL    HW216866   7.148  11.498   0.208
38948SOL     OW16867   6.889  12.010   0.042
38948SOL    HW116868   6.923  11.917   0.057
38948SOL    HW216869   6.907  12.037  -0.053
38949SOL     OW16870   6.654  12.505   0.849
38949SOL    HW116871   6.661  12.421   0.794
38949SOL    HW216872   6.716  12.574   0.813
38950SOL     OW16873   5.905  11.982   0.949
38950SOL    HW116874   5.998  12.018   0.954
38950SOL    HW216875   5.899  11.897   1.001
38951SOL     OW16876   5.925  11.681   1.006
38951SOL    HW116877   5.873  11.598   0.989
38951SOL    HW216878   6.002  11.686   0.942
38952SOL     OW16879   6.724  11.552   1.678
38952SOL    HW116880   6.679  11.615   1.742
38952SOL    HW216881   6.817  11.583   1.661
38953SOL     OW16882   6.746  11.379   1.477
38953SOL    HW116883   6.746  11.443   1.554
38953SOL    HW216884   6.774  11.427   1.394
38954SOL     OW16885   5.594  12.498   0.200
38954SOL    HW116886   5.501  12.519   0.169
38954SOL    HW216887   5.604  12.399   0.213
38955SOL     OW16888   6.090  12.740   0.910
38955SOL    HW116889   6.156  12.814   0.919
38955SOL    HW216890   6.134  12.661   0.868
38956SOL     OW16891   6.588  11.968   1.238
38956SOL    HW116892   6.629  11.936   1.324
38956SOL    HW216893   6.492  11.941   1.235
38957SOL     OW16894   5.626  11.716   1.114
38957SOL    HW116895   5.711  11.683   1.073
38957SOL    HW216896   5.639  11.731   1.212
38958SOL     OW16897   5.775  11.692   1.722
38958SOL    HW116898   5.834  11.652   1.652
38958SOL    HW216899   5.717  11.763   1.681
38959SOL     OW16900   6.955  12.122   1.660
38959SOL    HW116901   6.994  12.211   1.680
38959SOL    HW216902   6.965  12.102   1.563
38960SOL     OW16903   6.401  11.744   0.325
38960SOL    HW116904   6.408  11.655   0.279
38960SOL    HW216905   6.307  11.778   0.317
38961SOL     OW16906   7.243  11.776   1.206
38961SOL    HW116907   7.205  11.707   1.268
38961SOL    HW216908   7.325  11.740   1.162
38962SOL     OW16909   5.838  12.736   1.744
38962SOL    HW116910   5.808  12.793   1.820
38962SOL    HW216911   5.831  12.639   1.770
38963SOL     OW16912   6.257  11.636   1.269
38963SOL    HW116913   6.223  11.547   1.239
38963SOL    HW216914   6.283  11.690   1.189
38964SOL     OW16915   6.059  11.672   0.191
38964SOL    HW116916   6.120  11.752   0.195
38964SOL    HW216917   5.964  11.703   0.198
38965SOL     OW16918   5.745  12.309   1.466
38965SOL    HW116919   5.767  12.248   1.542
38965SOL    HW216920   5.755  12.260   1.380
38966SOL     OW16921   6.933  12.231   1.234
38966SOL    HW116922   6.957  12.168   1.160
38966SOL    HW216923   6.843  12.271   1.216
38967SOL     OW16924   6.888  12.027   0.309
38967SOL    HW116925   6.802  11.996   0.351
38967SOL    HW216926   6.884  12.013   0.210
38968SOL     OW16927   6.838  12.903   1.128
38968SOL    HW116928   6.922  12.908   1.074
38968SOL    HW216929   6.815  12.807   1.146
38969SOL     OW16930   5.669  12.430   1.022
38969SOL    HW116931   5.664  12.429   1.122
38969SOL    HW216932   5.586  12.389   0.984
38970SOL     OW16933   6.489  11.258   0.133
38970SOL    HW116934   6.540  11.259   0.047
38970SOL    HW216935   6.545  11.216   0.204
38971SOL     OW16936   7.312  11.307   0.523
38971SOL    HW116937   7.385  11.290   0.456
38971SOL    HW216938   7.281  11.220   0.561
38972SOL     OW16939   5.716  12.966   1.851
38972SOL    HW116940   5.675  12.892   1.904
38972SOL    HW216941   5.780  13.017   1.909
38973SOL     OW16942   6.866  12.099   0.672
38973SOL    HW116943   6.926  12.018   0.674
38973SOL    HW216944   6.906  12.168   0.612
38974SOL     OW16945   6.416  12.445   1.422
38974SOL    HW116946   6.411  12.478   1.517
38974SOL    HW216947   6.330  12.464   1.376
38975SOL     OW16948   6.258  12.788   0.154
38975SOL    HW116949   6.267  12.798   0.055
38975SOL    HW216950   6.218  12.699   0.175
38976SOL     OW16951   7.427  11.347   0.963
38976SOL    HW116952   7.466  11.262   0.927
38976SOL    HW216953   7.329  11.349   0.944
38977SOL     OW16954   5.849  11.498   0.720
38977SOL    HW116955   5.770  11.549   0.686
38977SOL    HW216956   5.840  11.483   0.818
38978SOL     OW16957   6.780  12.784   0.031
38978SOL    HW116958   6.786  12.691   0.068
38978SOL    HW216959   6.721  12.784  -0.049
38979SOL     OW16960   6.408  12.174   1.372
38979SOL    HW116961   6.448  12.173   1.280
38979SOL    HW216962   6.418  12.266   1.412
38980SOL     OW16963   6.502  12.082   0.291
38980SOL    HW116964   6.565  12.120   0.223
38980SOL    HW216965   6.542  11.999   0.330
38981SOL     OW16966   5.958  12.460   1.490
38981SOL    HW116967   5.945  12.553   1.456
38981SOL    HW216968   5.874  12.408   1.477
38982SOL     OW16969   7.200  12.464   1.289
38982SOL    HW116970   7.260  12.467   1.369
38982SOL    HW216971   7.125  12.528   1.302
38983SOL     OW16972   6.625  12.270   0.696
38983SOL    HW116973   6.555  12.223   0.750
38983SOL    HW216974   6.684  12.202   0.653
38984SOL     OW16975   6.600  11.408   0.971
38984SOL    HW116976   6.592  11.372   0.878
38984SOL    HW216977   6.598  11.332   1.036
38985SOL     OW16978   6.176  12.659   0.491
38985SOL    HW116979   6.218  12.601   0.421
38985SOL    HW216980   6.132  12.738   0.447
38986SOL     OW16981   7.295  11.557   1.381
38986SOL    HW116982   7.368  11.626   1.385
38986SOL    HW216983   7.323  11.482   1.322
38987SOL     OW16984   5.841  12.520   0.290
38987SOL    HW116985   5.745  12.521   0.263
38987SOL    HW216986   5.853  12.573   0.374
38988SOL     OW16987   5.691  12.185   1.726
38988SOL    HW116988   5.614  12.152   1.780
38988SOL    HW216989   5.776  12.155   1.768
38989SOL     OW16990   6.258  11.375   1.489
38989SOL    HW116991   6.348  11.359   1.449
38989SOL    HW216992   6.266  11.380   1.588
38990SOL     OW16993   7.026  12.028   1.398
38990SOL    HW116994   6.969  12.080   1.335
38990SOL    HW216995   7.122  12.040   1.374
38991SOL     OW16996   5.658  11.338   0.318
38991SOL    HW116997   5.641  11.421   0.264
38991SOL    HW216998   5.748  11.301   0.296
38992SOL     OW16999   6.769  12.507   0.119
38992SOL    HW117000   6.670  12.496   0.121
38992SOL    HW217001   6.803  12.522   0.212
38993SOL     OW17002   6.199  12.014   1.431
38993SOL    HW117003   6.255  12.095   1.414
38993SOL    HW217004   6.258  11.934   1.434
38994SOL     OW17005   6.302  11.737   1.708
38994SOL    HW117006   6.321  11.802   1.782
38994SOL    HW217007   6.362  11.657   1.717
38995SOL     OW17008   7.036  12.392   1.633
38995SOL    HW117009   7.027  12.382   1.732
38995SOL    HW217010   7.132  12.385   1.607
38996SOL     OW17011   7.260  12.055   1.254
38996SOL    HW117012   7.233  11.966   1.217
38996SOL    HW217013   7.261  12.123   1.181
38997SOL     OW17014   6.811  11.497   0.449
38997SOL    HW117015   6.876  11.423   0.438
38997SOL    HW217016   6.831  11.547   0.533
38998SOL     OW17017   6.180  11.917   0.652
38998SOL    HW117018   6.230  12.002   0.633
38998SOL    HW217019   6.092  11.919   0.604
38999SOL     OW17020   7.363  11.514   1.642
38999SOL    HW117021   7.346  11.545   1.548
38999SOL    HW217022   7.279  11.477   1.680
39000SOL     OW17023   7.316  12.106   1.517
39000SOL    HW117024   7.354  12.197   1.532
39000SOL    HW217025   7.308  12.089   1.418
39001SOL     OW17026   6.445  12.546   0.016
39001SOL    HW117027   6.399  12.561   0.104
39001SOL    HW217028   6.489  12.631  -0.014
39002SOL     OW17029   6.445  12.128   0.861
39002SOL    HW117030   6.499  12.059   0.909
39002SOL    HW217031   6.413  12.197   0.927
39003SOL     OW17032   6.669  12.156   0.087
39003SOL    HW117033   6.646  12.209   0.005
39003SOL    HW217034   6.750  12.100   0.068
39004SOL     OW17035   7.447  12.741   0.851
39004SOL    HW117036   7.376  12.729   0.781
39004SOL    HW217037   7.448  12.662   0.911
39005SOL     OW17038   5.807  12.486   1.844
39005SOL    HW117039   5.742  12.413   1.823
39005SOL    HW217040   5.811  12.500   1.942
39006SOL     OW17041   5.665  12.412   0.653
39006SOL    HW117042   5.664  12.365   0.741
39006SOL    HW217043   5.747  12.384   0.602
39007SOL     OW17044   6.258  12.563   1.624
39007SOL    HW117045   6.180  12.513   1.662
39007SOL    HW217046   6.255  12.658   1.655
39008SOL     OW17047   7.410  11.364   1.227
39008SOL    HW117048   7.406  11.274   1.271
39008SOL    HW217049   7.413  11.353   1.128
39009SOL     OW17050   6.014  11.596   0.520
39009SOL    HW117051   6.044  11.524   0.458
39009SOL    HW217052   5.975  11.556   0.603
39010SOL     OW17053   7.291  12.659   1.104
39010SOL    HW117054   7.198  12.634   1.077
39010SOL    HW217055   7.317  12.609   1.186
39011SOL     OW17056   5.903  11.719   1.280
39011SOL    HW117057   5.941  11.660   1.352
39011SOL    HW217058   5.943  11.693   1.192
39012SOL     OW17059   7.010  11.386   1.112
39012SOL    HW117060   7.062  11.321   1.167
39012SOL    HW217061   6.961  11.449   1.173
39013SOL     OW17062   6.587  11.206   1.154
39013SOL    HW117063   6.524  11.134   1.123
39013SOL    HW217064   6.680  11.170   1.154
39014SOL     OW17065   6.356  12.502   0.301
39014SOL    HW117066   6.310  12.415   0.318
39014SOL    HW217067   6.447  12.499   0.342
39015SOL     OW17068   6.204  12.739   1.284
39015SOL    HW117069   6.199  12.821   1.341
39015SOL    HW217070   6.293  12.736   1.239
39016SOL     OW17071   6.938  11.224   0.168
39016SOL    HW117072   6.973  11.183   0.084
39016SOL    HW217073   6.848  11.186   0.188
39017SOL     OW17074   6.886  11.625   0.691
39017SOL    HW117075   6.827  11.705   0.695
39017SOL    HW217076   6.901  11.590   0.784
39018SOL     OW17077   7.179  11.393   0.882
39018SOL    HW117078   7.095  11.392   0.936
39018SOL    HW217079   7.181  11.476   0.826
39019SOL     OW17080   5.625  12.249   0.300
39019SOL    HW117081   5.724  12.238   0.291
39019SOL    HW217082   5.585  12.163   0.332
39020SOL     OW17083   5.816  11.800   1.975
39020SOL    HW117084   5.723  11.798   2.012
39020SOL    HW217085   5.817  11.761   1.883
39021SOL     OW17086   5.811  11.447   2.858
39021SOL    HW117087   5.846  11.430   2.950
39021SOL    HW217088   5.723  11.402   2.846
39022SOL     OW17089   5.605  11.540   2.509
39022SOL    HW117090   5.523  11.583   2.548
39022SOL    HW217091   5.577  11.467   2.446
39023SOL     OW17092   6.155  12.447   3.027
39023SOL    HW117093   6.062  12.440   2.990
39023SOL    HW217094   6.166  12.536   3.071
39024SOL     OW17095   7.141  12.683   2.565
39024SOL    HW117096   7.084  12.667   2.646
39024SOL    HW217097   7.082  12.693   2.485
39025SOL     OW17098   6.721  11.875   2.579
39025SOL    HW117099   6.778  11.953   2.554
39025SOL    HW217100   6.661  11.901   2.655
39026SOL     OW17101   7.341  11.779   2.093
39026SOL    HW117102   7.329  11.766   1.994
39026SOL    HW217103   7.311  11.698   2.142
39027SOL     OW17104   6.354  12.316   2.885
39027SOL    HW117105   6.276  12.333   2.945
39027SOL    HW217106   6.388  12.403   2.849
39028SOL     OW17107   6.436  11.970   3.685
39028SOL    HW117108   6.432  12.046   3.750
39028SOL    HW217109   6.458  12.006   3.594
39029SOL     OW17110   6.271  12.184   2.527
39029SOL    HW117111   6.340  12.168   2.597
39029SOL    HW217112   6.198  12.241   2.565
39030SOL     OW17113   6.272  12.333   3.665
39030SOL    HW117114   6.332  12.412   3.679
39030SOL    HW217115   6.186  12.364   3.624
39031SOL     OW17116   5.921  12.607   2.923
39031SOL    HW117117   5.843  12.576   2.870
39031SOL    HW217118   5.979  12.665   2.866
39032SOL     OW17119   7.046  12.677   3.201
39032SOL    HW117120   7.070  12.771   3.227
39032SOL    HW217121   7.030  12.623   3.283
39033SOL     OW17122   6.024  11.564   3.361
39033SOL    HW117123   6.106  11.508   3.370
39033SOL    HW217124   5.943  11.506   3.365
39034SOL     OW17125   7.189  11.619   2.599
39034SOL    HW117126   7.115  11.665   2.549
39034SOL    HW217127   7.240  11.687   2.652
39035SOL     OW17128   6.713  12.513   3.552
39035SOL    HW117129   6.760  12.513   3.640
39035SOL    HW217130   6.665  12.426   3.541
39036SOL     OW17131   5.816  12.606   2.400
39036SOL    HW117132   5.790  12.702   2.400
39036SOL    HW217133   5.745  12.552   2.445
39037SOL     OW17134   5.826  12.263   2.748
39037SOL    HW117135   5.840  12.179   2.800
39037SOL    HW217136   5.771  12.327   2.803
39038SOL     OW17137   6.192  12.136   1.985
39038SOL    HW117138   6.199  12.220   1.931
39038SOL    HW217139   6.238  12.149   2.073
39039SOL     OW17140   7.180  11.286   3.342
39039SOL    HW117141   7.162  11.353   3.270
39039SOL    HW217142   7.177  11.332   3.431
39040SOL     OW17143   5.708  11.815   2.425
39040SOL    HW117144   5.663  11.727   2.442
39040SOL    HW217145   5.707  11.869   2.509
39041SOL     OW17146   5.613  12.768   1.979
39041SOL    HW117147   5.594  12.672   2.000
39041SOL    HW217148   5.580  12.826   2.054
39042SOL     OW17149   7.275  12.094   2.474
39042SOL    HW117150   7.370  12.065   2.482
39042SOL    HW217151   7.267  12.159   2.399
39043SOL     OW17152   7.227  12.280   2.294
39043SOL    HW117153   7.313  12.282   2.242
39043SOL    HW217154   7.241  12.327   2.382
39044SOL     OW17155   5.699  11.909   3.459
39044SOL    HW117156   5.787  11.896   3.504
39044SOL    HW217157   5.686  12.006   3.437
39045SOL     OW17158   6.199  12.537   2.588
39045SOL    HW117159   6.150  12.450   2.597
39045SOL    HW217160   6.176  12.580   2.501
39046SOL     OW17161   6.879  12.400   3.285
39046SOL    HW117162   6.916  12.327   3.227
39046SOL    HW217163   6.931  12.405   3.370
39047SOL     OW17164   6.395  11.176   2.364
39047SOL    HW117165   6.435  11.267   2.355
39047SOL    HW217166   6.295  11.184   2.370
39048SOL     OW17167   5.783  12.148   3.126
39048SOL    HW117168   5.872  12.103   3.112
39048SOL    HW217169   5.710  12.083   3.107
39049SOL     OW17170   7.111  12.171   2.052
39049SOL    HW117171   7.048  12.095   2.065
39049SOL    HW217172   7.159  12.189   2.138
39050SOL     OW17173   5.903  11.423   3.663
39050SOL    HW117174   5.974  11.494   3.669
39050SOL    HW217175   5.815  11.462   3.691
39051SOL     OW17176   7.052  12.589   2.815
39051SOL    HW117177   6.993  12.595   2.895
39051SOL    HW217178   7.037  12.501   2.769
39052SOL     OW17179   6.184  11.901   2.132
39052SOL    HW117180   6.208  11.970   2.064
39052SOL    HW217181   6.106  11.934   2.186
39053SOL     OW17182   6.867  11.517   2.806
39053SOL    HW117183   6.781  11.467   2.793
39053SOL    HW217184   6.929  11.463   2.862
39054SOL     OW17185   7.162  12.834   2.169
39054SOL    HW117186   7.251  12.880   2.172
39054SOL    HW217187   7.141  12.810   2.074
39055SOL     OW17188   6.393  11.777   3.327
39055SOL    HW117189   6.346  11.774   3.416
39055SOL    HW217190   6.342  11.722   3.261
39056SOL     OW17191   6.980  11.641   3.536
39056SOL    HW117192   6.960  11.684   3.624
39056SOL    HW217193   7.058  11.579   3.545
39057SOL     OW17194   6.559  12.062   3.434
39057SOL    HW117195   6.605  11.978   3.405
39057SOL    HW217196   6.503  12.096   3.359
39058SOL     OW17197   6.577  11.582   3.104
39058SOL    HW117198   6.500  11.616   3.158
39058SOL    HW217199   6.543  11.531   3.025
39059SOL     OW17200   6.627  11.873   2.291
39059SOL    HW117201   6.653  11.869   2.387
39059SOL    HW217202   6.542  11.822   2.277
39060SOL     OW17203   5.662  11.983   2.651
39060SOL    HW117204   5.761  11.971   2.660
39060SOL    HW217205   5.638  12.078   2.672
39061SOL     OW17206   6.451  11.520   2.057
39061SOL    HW117207   6.510  11.583   2.008
39061SOL    HW217208   6.470  11.426   2.028
39062SOL     OW17209   7.305  11.757   3.693
39062SOL    HW117210   7.279  11.846   3.657
39062SOL    HW217211   7.303  11.689   3.620
39063SOL     OW17212   6.948  12.316   2.407
39063SOL    HW117213   7.031  12.287   2.359
39063SOL    HW217214   6.899  12.383   2.351
39064SOL     OW17215   6.136  11.368   2.747
39064SOL    HW117216   6.131  11.363   2.847
39064SOL    HW217217   6.138  11.464   2.718
39065SOL     OW17218   6.594  12.628   2.339
39065SOL    HW117219   6.548  12.700   2.287
39065SOL    HW217220   6.590  12.648   2.437
39066SOL     OW17221   7.381  12.238   2.735
39066SOL    HW117222   7.319  12.223   2.659
39066SOL    HW217223   7.329  12.249   2.820
39067SOL     OW17224   6.813  12.722   3.368
39067SOL    HW117225   6.819  12.645   3.432
39067SOL    HW217226   6.761  12.696   3.288
39068SOL     OW17227   5.907  12.115   2.104
39068SOL    HW117228   5.989  12.154   2.062
39068SOL    HW217229   5.880  12.033   2.055
39069SOL     OW17230   7.044  11.907   2.590
39069SOL    HW117231   7.039  11.842   2.665
39069SOL    HW217232   7.124  11.966   2.603
39070SOL     OW17233   6.047  12.438   3.589
39070SOL    HW117234   5.997  12.439   3.503
39070SOL    HW217235   5.984  12.420   3.665
39071SOL     OW17236   5.788  11.457   3.360
39071SOL    HW117237   5.708  11.517   3.347
39071SOL    HW217238   5.778  11.408   3.446
39072SOL     OW17239   7.218  12.549   1.943
39072SOL    HW117240   7.186  12.643   1.933
39072SOL    HW217241   7.142  12.486   1.931
39073SOL     OW17242   6.986  11.279   2.288
39073SOL    HW117243   6.962  11.242   2.198
39073SOL    HW217244   7.085  11.295   2.292
39074SOL     OW17245   5.968  11.872   2.342
39074SOL    HW117246   6.013  11.782   2.339
39074SOL    HW217247   5.874  11.861   2.375
39075SOL     OW17248   7.133  11.394   3.591
39075SOL    HW117249   7.128  11.431   3.683
39075SOL    HW217250   7.061  11.325   3.579
39076SOL     OW17251   6.200  11.294   1.979
39076SOL    HW117252   6.298  11.272   1.986
39076SOL    HW217253   6.169  11.277   1.886
39077SOL     OW17254   6.367  11.436   3.611
39077SOL    HW117255   6.434  11.375   3.654
39077SOL    HW217256   6.294  11.455   3.676
39078SOL     OW17257   6.937  11.762   3.295
39078SOL    HW117258   6.965  11.719   3.380
39078SOL    HW217259   6.962  11.858   3.296
39079SOL     OW17260   6.389  12.574   2.786
39079SOL    HW117261   6.479  12.588   2.744
39079SOL    HW217262   6.318  12.576   2.715
39080SOL     OW17263   6.508  11.675   2.761
39080SOL    HW117264   6.483  11.666   2.665
39080SOL    HW217265   6.556  11.593   2.792
39081SOL     OW17266   6.125  11.236   2.374
39081SOL    HW117267   6.044  11.237   2.432
39081SOL    HW217268   6.128  11.319   2.319
39082SOL     OW17269   7.020  12.360   1.903
39082SOL    HW117270   7.052  12.284   1.960
39082SOL    HW217271   6.928  12.387   1.933
39083SOL     OW17272   5.883  11.207   2.033
39083SOL    HW117273   5.932  11.291   2.012
39083SOL    HW217274   5.945  11.142   2.078
39084SOL     OW17275   6.521  11.408   2.342
39084SOL    HW117276   6.473  11.449   2.264
39084SOL    HW217277   6.620  11.406   2.323
39085SOL     OW17278   6.662  11.855   3.326
39085SOL    HW117279   6.582  11.794   3.329
39085SOL    HW217280   6.743  11.802   3.302
39086SOL     OW17281   6.813  12.742   2.655
39086SOL    HW117282   6.834  12.816   2.590
39086SOL    HW217283   6.881  12.742   2.728
39087SOL     OW17284   6.045  12.324   2.603
39087SOL    HW117285   5.974  12.297   2.668
39087SOL    HW217286   6.019  12.296   2.510
39088SOL     OW17287   6.618  11.721   1.878
39088SOL    HW117288   6.577  11.803   1.839
39088SOL    HW217289   6.682  11.747   1.951
39089SOL     OW17290   5.664  11.728   3.248
39089SOL    HW117291   5.756  11.727   3.207
39089SOL    HW217292   5.658  11.802   3.315
39090SOL     OW17293   6.147  11.394   3.009
39090SOL    HW117294   6.185  11.310   3.046
39090SOL    HW217295   6.059  11.413   3.053
39091SOL     OW17296   6.452  11.626   2.504
39091SOL    HW117297   6.420  11.698   2.442
39091SOL    HW217298   6.476  11.545   2.451
39092SOL     OW17299   6.603  11.211   2.615
39092SOL    HW117300   6.531  11.216   2.546
39092SOL    HW217301   6.579  11.142   2.684
39093SOL     OW17302   7.015  12.345   2.729
39093SOL    HW117303   6.960  12.261   2.722
39093SOL    HW217304   7.041  12.374   2.637
39094SOL     OW17305   7.052  11.762   2.854
39094SOL    HW117306   7.022  11.667   2.861
39094SOL    HW217307   7.125  11.778   2.920
39095SOL     OW17308   7.443  12.005   2.239
39095SOL    HW117309   7.485  11.941   2.303
39095SOL    HW217310   7.405  11.954   2.161
39096SOL     OW17311   6.074  12.557   2.036
39096SOL    HW117312   5.987  12.542   2.083
39096SOL    HW217313   6.057  12.583   1.941
39097SOL     OW17314   7.250  12.452   2.519
39097SOL    HW117315   7.349  12.460   2.533
39097SOL    HW217316   7.205  12.536   2.550
39098SOL     OW17317   6.976  11.747   1.940
39098SOL    HW117318   6.922  11.726   2.021
39098SOL    HW217319   7.067  11.706   1.949
39099SOL     OW17320   6.113  11.428   2.190
39099SOL    HW117321   6.140  11.369   2.115
39099SOL    HW217322   6.113  11.523   2.159
39100SOL     OW17323   7.340  12.395   3.450
39100SOL    HW117324   7.431  12.356   3.437
39100SOL    HW217325   7.348  12.491   3.474
39101SOL     OW17326   6.650  12.519   3.202
39101SOL    HW117327   6.570  12.496   3.257
39101SOL    HW217328   6.733  12.493   3.251
39102SOL     OW17329   6.697  12.367   2.962
39102SOL    HW117330   6.657  12.411   3.043
39102SOL    HW217331   6.656  12.404   2.879
39103SOL     OW17332   7.224  12.271   2.941
39103SOL    HW117333   7.229  12.352   3.000
39103SOL    HW217334   7.138  12.273   2.890
39104SOL     OW17335   6.501  11.261   3.264
39104SOL    HW117336   6.526  11.241   3.169
39104SOL    HW217337   6.573  11.317   3.306
39105SOL     OW17338   6.566  12.288   3.581
39105SOL    HW117339   6.467  12.294   3.591
39105SOL    HW217340   6.589  12.208   3.525
39106SOL     OW17341   6.291  12.222   2.230
39106SOL    HW117342   6.277  12.229   2.329
39106SOL    HW217343   6.375  12.171   2.212
39107SOL     OW17344   5.996  11.985   3.113
39107SOL    HW117345   6.082  11.997   3.163
39107SOL    HW217346   5.954  11.898   3.140
39108SOL     OW17347   6.860  11.558   3.124
39108SOL    HW117348   6.881  11.632   3.188
39108SOL    HW217349   6.771  11.575   3.081
39109SOL     OW17350   5.650  12.736   3.193
39109SOL    HW117351   5.604  12.818   3.159
39109SOL    HW217352   5.748  12.755   3.202
39110SOL     OW17353   5.953  12.272   2.363
39110SOL    HW117354   5.946  12.355   2.307
39110SOL    HW217355   5.957  12.192   2.303
39111SOL     OW17356   6.152  11.709   2.727
39111SOL    HW117357   6.164  11.775   2.653
39111SOL    HW217358   6.198  11.743   2.810
39112SOL     OW17359   6.838  12.520   2.250
39112SOL    HW117360   6.888  12.597   2.290
39112SOL    HW217361   6.743  12.522   2.282
39113SOL     OW17362   6.858  12.617   3.004
39113SOL    HW117363   6.905  12.630   3.091
39113SOL    HW217364   6.792  12.543   3.013
39114SOL     OW17365   7.168  11.811   2.334
39114SOL    HW117366   7.137  11.872   2.407
39114SOL    HW217367   7.218  11.863   2.265
39115SOL     OW17368   5.940  12.682   3.191
39115SOL    HW117369   5.919  12.638   3.104
39115SOL    HW217370   6.037  12.708   3.194
39116SOL     OW17371   5.988  11.923   3.460
39116SOL    HW117372   6.056  11.978   3.413
39116SOL    HW217373   6.028  11.835   3.487
39117SOL     OW17374   7.173  11.951   3.532
39117SOL    HW117375   7.081  11.989   3.527
39117SOL    HW217376   7.233  11.998   3.467
39118SOL     OW17377   6.599  11.277   3.632
39118SOL    HW117378   6.605  11.362   3.580
39118SOL    HW217379   6.631  11.201   3.575
39119SOL     OW17380   6.090  11.222   3.602
39119SOL    HW117381   6.048  11.165   3.532
39119SOL    HW217382   6.024  11.291   3.634
39120SOL     OW17383   6.159  12.042   2.891
39120SOL    HW117384   6.203  12.131   2.882
39120SOL    HW217385   6.096  12.042   2.968
39121SOL     OW17386   6.946  12.034   2.907
39121SOL    HW117387   6.871  12.034   2.841
39121SOL    HW217388   6.983  11.942   2.916
39122SOL     OW17389   6.795  11.697   2.137
39122SOL    HW117390   6.808  11.613   2.191
39122SOL    HW217391   6.766  11.771   2.197
39123SOL     OW17392   5.893  11.385   3.093
39123SOL    HW117393   5.870  11.422   3.183
39123SOL    HW217394   5.863  11.290   3.087
39124SOL     OW17395   5.623  12.482   3.144
39124SOL    HW117396   5.676  12.433   3.212
39124SOL    HW217397   5.645  12.580   3.149
39125SOL     OW17398   6.318  11.806   2.926
39125SOL    HW117399   6.377  11.780   2.850
39125SOL    HW217400   6.290  11.902   2.915
39126SOL     OW17401   7.314  12.107   3.716
39126SOL    HW117402   7.268  12.100   3.627
39126SOL    HW217403   7.252  12.151   3.782
39127SOL     OW17404   5.893  11.235   2.480
39127SOL    HW117405   5.882  11.329   2.513
39127SOL    HW217406   5.888  11.172   2.557
39128SOL     OW17407   7.208  11.539   2.236
39128SOL    HW117408   7.210  11.463   2.300
39128SOL    HW217409   7.160  11.616   2.276
39129SOL     OW17410   6.609  11.938   2.828
39129SOL    HW117411   6.624  11.959   2.924
39129SOL    HW217412   6.579  11.843   2.819
39130SOL     OW17413   7.445  12.690   3.467
39130SOL    HW117414   7.459  12.717   3.372
39130SOL    HW217415   7.528  12.712   3.520
39131SOL     OW17416   5.936  12.070   3.666
39131SOL    HW117417   6.012  12.114   3.714
39131SOL    HW217418   5.971  12.023   3.584
39132SOL     OW17419   7.126  11.446   1.987
39132SOL    HW117420   7.065  11.371   2.010
39132SOL    HW217421   7.148  11.498   2.070
39133SOL     OW17422   6.889  12.010   1.904
39133SOL    HW117423   6.923  11.917   1.919
39133SOL    HW217424   6.907  12.037   1.809
39134SOL     OW17425   6.654  12.505   2.711
39134SOL    HW117426   6.661  12.421   2.656
39134SOL    HW217427   6.716  12.574   2.675
39135SOL     OW17428   5.905  11.982   2.811
39135SOL    HW117429   5.998  12.018   2.816
39135SOL    HW217430   5.899  11.897   2.863
39136SOL     OW17431   5.925  11.681   2.868
39136SOL    HW117432   5.873  11.598   2.851
39136SOL    HW217433   6.002  11.686   2.804
39137SOL     OW17434   6.724  11.552   3.540
39137SOL    HW117435   6.679  11.615   3.604
39137SOL    HW217436   6.817  11.583   3.523
39138SOL     OW17437   6.746  11.379   3.339
39138SOL    HW117438   6.746  11.443   3.416
39138SOL    HW217439   6.774  11.427   3.256
39139SOL     OW17440   5.594  12.498   2.062
39139SOL    HW117441   5.501  12.519   2.031
39139SOL    HW217442   5.604  12.399   2.075
39140SOL     OW17443   6.090  12.740   2.772
39140SOL    HW117444   6.156  12.814   2.781
39140SOL    HW217445   6.134  12.661   2.730
39141SOL     OW17446   6.588  11.968   3.100
39141SOL    HW117447   6.629  11.936   3.186
39141SOL    HW217448   6.492  11.941   3.097
39142SOL     OW17449   5.626  11.716   2.976
39142SOL    HW117450   5.711  11.683   2.935
39142SOL    HW217451   5.639  11.731   3.074
39143SOL     OW17452   5.775  11.692   3.584
39143SOL    HW117453   5.834  11.652   3.514
39143SOL    HW217454   5.717  11.763   3.543
39144SOL     OW17455   6.955  12.122   3.522
39144SOL    HW117456   6.994  12.211   3.542
39144SOL    HW217457   6.965  12.102   3.425
39145SOL     OW17458   6.401  11.744   2.187
39145SOL    HW117459   6.408  11.655   2.141
39145SOL    HW217460   6.307  11.778   2.179
39146SOL     OW17461   7.243  11.776   3.068
39146SOL    HW117462   7.205  11.707   3.130
39146SOL    HW217463   7.325  11.740   3.024
39147SOL     OW17464   5.838  12.736   3.606
39147SOL    HW117465   5.808  12.793   3.682
39147SOL    HW217466   5.831  12.639   3.632
39148SOL     OW17467   6.257  11.636   3.131
39148SOL    HW117468   6.223  11.547   3.101
39148SOL    HW217469   6.283  11.690   3.051
39149SOL     OW17470   6.059  11.672   2.053
39149SOL    HW117471   6.120  11.752   2.057
39149SOL    HW217472   5.964  11.703   2.060
39150SOL     OW17473   5.745  12.309   3.328
39150SOL    HW117474   5.767  12.248   3.404
39150SOL    HW217475   5.755  12.260   3.242
39151SOL     OW17476   6.933  12.231   3.096
39151SOL    HW117477   6.957  12.168   3.022
39151SOL    HW217478   6.843  12.271   3.078
39152SOL     OW17479   6.888  12.027   2.171
39152SOL    HW117480   6.802  11.996   2.213
39152SOL    HW217481   6.884  12.013   2.072
39153SOL     OW17482   6.838  12.903   2.990
39153SOL    HW117483   6.922  12.908   2.936
39153SOL    HW217484   6.815  12.807   3.008
39154SOL     OW17485   5.669  12.430   2.884
39154SOL    HW117486   5.664  12.429   2.984
39154SOL    HW217487   5.586  12.389   2.846
39155SOL     OW17488   7.312  11.307   2.385
39155SOL    HW117489   7.385  11.290   2.318
39155SOL    HW217490   7.281  11.220   2.423
39156SOL     OW17491   5.716  12.966   3.713
39156SOL    HW117492   5.675  12.892   3.766
39156SOL    HW217493   5.780  13.017   3.771
39157SOL     OW17494   6.866  12.099   2.534
39157SOL    HW117495   6.926  12.018   2.536
39157SOL    HW217496   6.906  12.168   2.474
39158SOL     OW17497   6.416  12.445   3.284
39158SOL    HW117498   6.411  12.478   3.379
39158SOL    HW217499   6.330  12.464   3.238
39159SOL     OW17500   6.258  12.788   2.016
39159SOL    HW117501   6.267  12.798   1.917
39159SOL    HW217502   6.218  12.699   2.037
39160SOL     OW17503   7.427  11.347   2.825
39160SOL    HW117504   7.466  11.262   2.789
39160SOL    HW217505   7.329  11.349   2.806
39161SOL     OW17506   5.849  11.498   2.582
39161SOL    HW117507   5.770  11.549   2.548
39161SOL    HW217508   5.840  11.483   2.680
39162SOL     OW17509   6.780  12.784   1.893
39162SOL    HW117510   6.786  12.691   1.930
39162SOL    HW217511   6.721  12.784   1.813
39163SOL     OW17512   6.408  12.174   3.234
39163SOL    HW117513   6.448  12.173   3.142
39163SOL    HW217514   6.418  12.266   3.274
39164SOL     OW17515   6.502  12.082   2.153
39164SOL    HW117516   6.565  12.120   2.085
39164SOL    HW217517   6.542  11.999   2.192
39165SOL     OW17518   5.958  12.460   3.352
39165SOL    HW117519   5.945  12.553   3.318
39165SOL    HW217520   5.874  12.408   3.339
39166SOL     OW17521   7.200  12.464   3.151
39166SOL    HW117522   7.260  12.467   3.231
39166SOL    HW217523   7.125  12.528   3.164
39167SOL     OW17524   6.625  12.270   2.558
39167SOL    HW117525   6.555  12.223   2.612
39167SOL    HW217526   6.684  12.202   2.515
39168SOL     OW17527   6.600  11.408   2.833
39168SOL    HW117528   6.592  11.372   2.740
39168SOL    HW217529   6.598  11.332   2.898
39169SOL     OW17530   6.176  12.659   2.353
39169SOL    HW117531   6.218  12.601   2.283
39169SOL    HW217532   6.132  12.738   2.309
39170SOL     OW17533   7.295  11.557   3.243
39170SOL    HW117534   7.368  11.626   3.247
39170SOL    HW217535   7.323  11.482   3.184
39171SOL     OW17536   5.841  12.520   2.152
39171SOL    HW117537   5.745  12.521   2.125
39171SOL    HW217538   5.853  12.573   2.236
39172SOL     OW17539   5.691  12.185   3.588
39172SOL    HW117540   5.614  12.152   3.642
39172SOL    HW217541   5.776  12.155   3.630
39173SOL     OW17542   6.258  11.375   3.351
39173SOL    HW117543   6.348  11.359   3.311
39173SOL    HW217544   6.266  11.380   3.450
39174SOL     OW17545   5.661  11.517   1.895
39174SOL    HW117546   5.569  11.489   1.866
39174SOL    HW217547   5.692  11.594   1.839
39175SOL     OW17548   7.026  12.028   3.260
39175SOL    HW117549   6.969  12.080   3.197
39175SOL    HW217550   7.122  12.040   3.236
39176SOL     OW17551   5.658  11.338   2.180
39176SOL    HW117552   5.641  11.421   2.126
39176SOL    HW217553   5.748  11.301   2.158
39177SOL     OW17554   6.769  12.507   1.981
39177SOL    HW117555   6.670  12.496   1.983
39177SOL    HW217556   6.803  12.522   2.074
39178SOL     OW17557   6.199  12.014   3.293
39178SOL    HW117558   6.255  12.095   3.276
39178SOL    HW217559   6.258  11.934   3.296
39179SOL     OW17560   6.302  11.737   3.570
39179SOL    HW117561   6.321  11.802   3.644
39179SOL    HW217562   6.362  11.657   3.579
39180SOL     OW17563   7.036  12.392   3.495
39180SOL    HW117564   7.027  12.382   3.594
39180SOL    HW217565   7.132  12.385   3.469
39181SOL     OW17566   7.260  12.055   3.116
39181SOL    HW117567   7.233  11.966   3.079
39181SOL    HW217568   7.261  12.123   3.043
39182SOL     OW17569   6.811  11.497   2.311
39182SOL    HW117570   6.876  11.423   2.300
39182SOL    HW217571   6.831  11.547   2.395
39183SOL     OW17572   6.180  11.917   2.514
39183SOL    HW117573   6.230  12.002   2.495
39183SOL    HW217574   6.092  11.919   2.466
39184SOL     OW17575   7.363  11.514   3.504
39184SOL    HW117576   7.346  11.545   3.410
39184SOL    HW217577   7.279  11.477   3.542
39185SOL     OW17578   7.316  12.106   3.379
39185SOL    HW117579   7.354  12.197   3.394
39185SOL    HW217580   7.308  12.089   3.280
39186SOL     OW17581   6.445  12.546   1.878
39186SOL    HW117582   6.399  12.561   1.966
39186SOL    HW217583   6.489  12.631   1.848
39187SOL     OW17584   6.445  12.128   2.723
39187SOL    HW117585   6.499  12.059   2.771
39187SOL    HW217586   6.413  12.197   2.789
39188SOL     OW17587   6.669  12.156   1.949
39188SOL    HW117588   6.646  12.209   1.867
39188SOL    HW217589   6.750  12.100   1.930
39189SOL     OW17590   7.447  12.741   2.713
39189SOL    HW117591   7.376  12.729   2.643
39189SOL    HW217592   7.448  12.662   2.773
39190SOL     OW17593   5.807  12.486   3.706
39190SOL    HW117594   5.742  12.413   3.685
39190SOL    HW217595   5.811  12.500   3.804
39191SOL     OW17596   5.665  12.412   2.515
39191SOL    HW117597   5.664  12.365   2.603
39191SOL    HW217598   5.747  12.384   2.464
39192SOL     OW17599   6.258  12.563   3.486
39192SOL    HW117600   6.180  12.513   3.524
39192SOL    HW217601   6.255  12.658   3.517
39193SOL     OW17602   7.410  11.364   3.089
39193SOL    HW117603   7.406  11.274   3.133
39193SOL    HW217604   7.413  11.353   2.990
39194SOL     OW17605   6.014  11.596   2.382
39194SOL    HW117606   6.044  11.524   2.320
39194SOL    HW217607   5.975  11.556   2.465
39195SOL     OW17608   7.291  12.659   2.966
39195SOL    HW117609   7.198  12.634   2.939
39195SOL    HW217610   7.317  12.609   3.048
39196SOL     OW17611   5.903  11.719   3.142
39196SOL    HW117612   5.941  11.660   3.214
39196SOL    HW217613   5.943  11.693   3.054
39197SOL     OW17614   7.010  11.386   2.974
39197SOL    HW117615   7.062  11.321   3.029
39197SOL    HW217616   6.961  11.449   3.035
39198SOL     OW17617   6.587  11.206   3.016
39198SOL    HW117618   6.524  11.134   2.985
39198SOL    HW217619   6.680  11.170   3.016
39199SOL     OW17620   6.356  12.502   2.163
39199SOL    HW117621   6.310  12.415   2.180
39199SOL    HW217622   6.447  12.499   2.204
39200SOL     OW17623   6.204  12.739   3.146
39200SOL    HW117624   6.199  12.821   3.203
39200SOL    HW217625   6.293  12.736   3.101
39201SOL     OW17626   6.938  11.224   2.030
39201SOL    HW117627   6.973  11.183   1.946
39201SOL    HW217628   6.848  11.186   2.050
39202SOL     OW17629   6.886  11.625   2.553
39202SOL    HW117630   6.827  11.705   2.557
39202SOL    HW217631   6.901  11.590   2.646
39203SOL     OW17632   7.179  11.393   2.744
39203SOL    HW117633   7.095  11.392   2.798
39203SOL    HW217634   7.181  11.476   2.688
39204SOL     OW17635   5.625  12.249   2.162
39204SOL    HW117636   5.724  12.238   2.153
39204SOL    HW217637   5.585  12.163   2.194
39205SOL     OW17638   5.816  11.800   3.837
39205SOL    HW117639   5.723  11.798   3.874
39205SOL    HW217640   5.817  11.761   3.745
39206SOL     OW17641   5.811  11.447   4.720
39206SOL    HW117642   5.846  11.430   4.812
39206SOL    HW217643   5.723  11.402   4.708
39207SOL     OW17644   5.605  11.540   4.371
39207SOL    HW117645   5.523  11.583   4.410
39207SOL    HW217646   5.577  11.467   4.308
39208SOL     OW17647   6.155  12.447   4.889
39208SOL    HW117648   6.062  12.440   4.852
39208SOL    HW217649   6.166  12.536   4.933
39209SOL     OW17650   7.141  12.683   4.427
39209SOL    HW117651   7.084  12.667   4.508
39209SOL    HW217652   7.082  12.693   4.347
39210SOL     OW17653   6.721  11.875   4.441
39210SOL    HW117654   6.778  11.953   4.416
39210SOL    HW217655   6.661  11.901   4.517
39211SOL     OW17656   7.341  11.779   3.955
39211SOL    HW117657   7.329  11.766   3.856
39211SOL    HW217658   7.311  11.698   4.004
39212SOL     OW17659   6.354  12.316   4.747
39212SOL    HW117660   6.276  12.333   4.807
39212SOL    HW217661   6.388  12.403   4.711
39213SOL     OW17662   6.436  11.970   5.547
39213SOL    HW117663   6.432  12.046   5.612
39213SOL    HW217664   6.458  12.006   5.456
39214SOL     OW17665   6.271  12.184   4.389
39214SOL    HW117666   6.340  12.168   4.459
39214SOL    HW217667   6.198  12.241   4.427
39215SOL     OW17668   6.272  12.333   5.527
39215SOL    HW117669   6.332  12.412   5.541
39215SOL    HW217670   6.186  12.364   5.486
39216SOL     OW17671   5.921  12.607   4.785
39216SOL    HW117672   5.843  12.576   4.732
39216SOL    HW217673   5.979  12.665   4.728
39217SOL     OW17674   7.046  12.677   5.063
39217SOL    HW117675   7.070  12.771   5.089
39217SOL    HW217676   7.030  12.623   5.145
39218SOL     OW17677   6.024  11.564   5.223
39218SOL    HW117678   6.106  11.508   5.232
39218SOL    HW217679   5.943  11.506   5.227
39219SOL     OW17680   7.189  11.619   4.461
39219SOL    HW117681   7.115  11.665   4.411
39219SOL    HW217682   7.240  11.687   4.514
39220SOL     OW17683   6.713  12.513   5.414
39220SOL    HW117684   6.760  12.513   5.502
39220SOL    HW217685   6.665  12.426   5.403
39221SOL     OW17686   5.816  12.606   4.262
39221SOL    HW117687   5.790  12.702   4.262
39221SOL    HW217688   5.745  12.552   4.307
39222SOL     OW17689   5.826  12.263   4.610
39222SOL    HW117690   5.840  12.179   4.662
39222SOL    HW217691   5.771  12.327   4.665
39223SOL     OW17692   6.192  12.136   3.847
39223SOL    HW117693   6.199  12.220   3.793
39223SOL    HW217694   6.238  12.149   3.935
39224SOL     OW17695   7.180  11.286   5.204
39224SOL    HW117696   7.162  11.353   5.132
39224SOL    HW217697   7.177  11.332   5.293
39225SOL     OW17698   5.708  11.815   4.287
39225SOL    HW117699   5.663  11.727   4.304
39225SOL    HW217700   5.707  11.869   4.371
39226SOL     OW17701   5.613  12.768   3.841
39226SOL    HW117702   5.594  12.672   3.862
39226SOL    HW217703   5.580  12.826   3.916
39227SOL     OW17704   7.275  12.094   4.336
39227SOL    HW117705   7.370  12.065   4.344
39227SOL    HW217706   7.267  12.159   4.261
39228SOL     OW17707   7.227  12.280   4.156
39228SOL    HW117708   7.313  12.282   4.104
39228SOL    HW217709   7.241  12.327   4.244
39229SOL     OW17710   5.699  11.909   5.321
39229SOL    HW117711   5.787  11.896   5.366
39229SOL    HW217712   5.686  12.006   5.299
39230SOL     OW17713   6.199  12.537   4.450
39230SOL    HW117714   6.150  12.450   4.459
39230SOL    HW217715   6.176  12.580   4.363
39231SOL     OW17716   6.879  12.400   5.147
39231SOL    HW117717   6.916  12.327   5.089
39231SOL    HW217718   6.931  12.405   5.232
39232SOL     OW17719   6.395  11.176   4.226
39232SOL    HW117720   6.435  11.267   4.217
39232SOL    HW217721   6.295  11.184   4.232
39233SOL     OW17722   5.783  12.148   4.988
39233SOL    HW117723   5.872  12.103   4.974
39233SOL    HW217724   5.710  12.083   4.969
39234SOL     OW17725   7.111  12.171   3.914
39234SOL    HW117726   7.048  12.095   3.927
39234SOL    HW217727   7.159  12.189   4.000
39235SOL     OW17728   5.903  11.423   5.525
39235SOL    HW117729   5.974  11.494   5.531
39235SOL    HW217730   5.815  11.462   5.553
39236SOL     OW17731   7.052  12.589   4.677
39236SOL    HW117732   6.993  12.595   4.757
39236SOL    HW217733   7.037  12.501   4.631
39237SOL     OW17734   6.184  11.901   3.994
39237SOL    HW117735   6.208  11.970   3.926
39237SOL    HW217736   6.106  11.934   4.048
39238SOL     OW17737   6.867  11.517   4.668
39238SOL    HW117738   6.781  11.467   4.655
39238SOL    HW217739   6.929  11.463   4.724
39239SOL     OW17740   7.162  12.834   4.031
39239SOL    HW117741   7.251  12.880   4.034
39239SOL    HW217742   7.141  12.810   3.936
39240SOL     OW17743   6.393  11.777   5.189
39240SOL    HW117744   6.346  11.774   5.278
39240SOL    HW217745   6.342  11.722   5.123
39241SOL     OW17746   6.980  11.641   5.398
39241SOL    HW117747   6.960  11.684   5.486
39241SOL    HW217748   7.058  11.579   5.407
39242SOL     OW17749   6.559  12.062   5.296
39242SOL    HW117750   6.605  11.978   5.267
39242SOL    HW217751   6.503  12.096   5.221
39243SOL     OW17752   6.577  11.582   4.966
39243SOL    HW117753   6.500  11.616   5.020
39243SOL    HW217754   6.543  11.531   4.887
39244SOL     OW17755   6.627  11.873   4.153
39244SOL    HW117756   6.653  11.869   4.249
39244SOL    HW217757   6.542  11.822   4.139
39245SOL     OW17758   5.662  11.983   4.513
39245SOL    HW117759   5.761  11.971   4.522
39245SOL    HW217760   5.638  12.078   4.534
39246SOL     OW17761   6.451  11.520   3.919
39246SOL    HW117762   6.510  11.583   3.870
39246SOL    HW217763   6.470  11.426   3.890
39247SOL     OW17764   7.305  11.757   5.555
39247SOL    HW117765   7.279  11.846   5.519
39247SOL    HW217766   7.303  11.689   5.482
39248SOL     OW17767   6.948  12.316   4.269
39248SOL    HW117768   7.031  12.287   4.221
39248SOL    HW217769   6.899  12.383   4.213
39249SOL     OW17770   6.136  11.368   4.609
39249SOL    HW117771   6.131  11.363   4.709
39249SOL    HW217772   6.138  11.464   4.580
39250SOL     OW17773   6.594  12.628   4.201
39250SOL    HW117774   6.548  12.700   4.149
39250SOL    HW217775   6.590  12.648   4.299
39251SOL     OW17776   7.381  12.238   4.597
39251SOL    HW117777   7.319  12.223   4.521
39251SOL    HW217778   7.329  12.249   4.682
39252SOL     OW17779   6.813  12.722   5.230
39252SOL    HW117780   6.819  12.645   5.294
39252SOL    HW217781   6.761  12.696   5.150
39253SOL     OW17782   5.907  12.115   3.966
39253SOL    HW117783   5.989  12.154   3.924
39253SOL    HW217784   5.880  12.033   3.917
39254SOL     OW17785   7.044  11.907   4.452
39254SOL    HW117786   7.039  11.842   4.527
39254SOL    HW217787   7.124  11.966   4.465
39255SOL     OW17788   6.047  12.438   5.451
39255SOL    HW117789   5.997  12.439   5.365
39255SOL    HW217790   5.984  12.420   5.527
39256SOL     OW17791   5.788  11.457   5.222
39256SOL    HW117792   5.708  11.517   5.209
39256SOL    HW217793   5.778  11.408   5.308
39257SOL     OW17794   7.218  12.549   3.805
39257SOL    HW117795   7.186  12.643   3.795
39257SOL    HW217796   7.142  12.486   3.793
39258SOL     OW17797   6.986  11.279   4.150
39258SOL    HW117798   6.962  11.242   4.060
39258SOL    HW217799   7.085  11.295   4.154
39259SOL     OW17800   5.968  11.872   4.204
39259SOL    HW117801   6.013  11.782   4.201
39259SOL    HW217802   5.874  11.861   4.237
39260SOL     OW17803   7.133  11.394   5.453
39260SOL    HW117804   7.128  11.431   5.545
39260SOL    HW217805   7.061  11.325   5.441
39261SOL     OW17806   6.200  11.294   3.841
39261SOL    HW117807   6.298  11.272   3.848
39261SOL    HW217808   6.169  11.277   3.748
39262SOL     OW17809   6.367  11.436   5.473
39262SOL    HW117810   6.434  11.375   5.516
39262SOL    HW217811   6.294  11.455   5.538
39263SOL     OW17812   6.937  11.762   5.157
39263SOL    HW117813   6.965  11.719   5.242
39263SOL    HW217814   6.962  11.858   5.158
39264SOL     OW17815   6.389  12.574   4.648
39264SOL    HW117816   6.479  12.588   4.606
39264SOL    HW217817   6.318  12.576   4.577
39265SOL     OW17818   6.508  11.675   4.623
39265SOL    HW117819   6.483  11.666   4.527
39265SOL    HW217820   6.556  11.593   4.654
39266SOL     OW17821   6.125  11.236   4.236
39266SOL    HW117822   6.044  11.237   4.294
39266SOL    HW217823   6.128  11.319   4.181
39267SOL     OW17824   7.020  12.360   3.765
39267SOL    HW117825   7.052  12.284   3.822
39267SOL    HW217826   6.928  12.387   3.795
39268SOL     OW17827   5.883  11.207   3.895
39268SOL    HW117828   5.932  11.291   3.874
39268SOL    HW217829   5.945  11.142   3.940
39269SOL     OW17830   6.521  11.408   4.204
39269SOL    HW117831   6.473  11.449   4.126
39269SOL    HW217832   6.620  11.406   4.185
39270SOL     OW17833   6.662  11.855   5.188
39270SOL    HW117834   6.582  11.794   5.191
39270SOL    HW217835   6.743  11.802   5.164
39271SOL     OW17836   6.813  12.742   4.517
39271SOL    HW117837   6.834  12.816   4.452
39271SOL    HW217838   6.881  12.742   4.590
39272SOL     OW17839   6.045  12.324   4.465
39272SOL    HW117840   5.974  12.297   4.530
39272SOL    HW217841   6.019  12.296   4.372
39273SOL     OW17842   6.618  11.721   3.740
39273SOL    HW117843   6.577  11.803   3.701
39273SOL    HW217844   6.682  11.747   3.813
39274SOL     OW17845   5.664  11.728   5.110
39274SOL    HW117846   5.756  11.727   5.069
39274SOL    HW217847   5.658  11.802   5.177
39275SOL     OW17848   6.147  11.394   4.871
39275SOL    HW117849   6.185  11.310   4.908
39275SOL    HW217850   6.059  11.413   4.915
39276SOL     OW17851   6.452  11.626   4.366
39276SOL    HW117852   6.420  11.698   4.304
39276SOL    HW217853   6.476  11.545   4.313
39277SOL     OW17854   6.603  11.211   4.477
39277SOL    HW117855   6.531  11.216   4.408
39277SOL    HW217856   6.579  11.142   4.546
39278SOL     OW17857   7.015  12.345   4.591
39278SOL    HW117858   6.960  12.261   4.584
39278SOL    HW217859   7.041  12.374   4.499
39279SOL     OW17860   7.052  11.762   4.716
39279SOL    HW117861   7.022  11.667   4.723
39279SOL    HW217862   7.125  11.778   4.782
39280SOL     OW17863   7.443  12.005   4.101
39280SOL    HW117864   7.485  11.941   4.165
39280SOL    HW217865   7.405  11.954   4.023
39281SOL     OW17866   6.074  12.557   3.898
39281SOL    HW117867   5.987  12.542   3.945
39281SOL    HW217868   6.057  12.583   3.803
39282SOL     OW17869   7.250  12.452   4.381
39282SOL    HW117870   7.349  12.460   4.395
39282SOL    HW217871   7.205  12.536   4.412
39283SOL     OW17872   6.976  11.747   3.802
39283SOL    HW117873   6.922  11.726   3.883
39283SOL    HW217874   7.067  11.706   3.811
39284SOL     OW17875   6.113  11.428   4.052
39284SOL    HW117876   6.140  11.369   3.977
39284SOL    HW217877   6.113  11.523   4.021
39285SOL     OW17878   7.340  12.395   5.312
39285SOL    HW117879   7.431  12.356   5.299
39285SOL    HW217880   7.348  12.491   5.336
39286SOL     OW17881   6.650  12.519   5.064
39286SOL    HW117882   6.570  12.496   5.119
39286SOL    HW217883   6.733  12.493   5.113
39287SOL     OW17884   6.697  12.367   4.824
39287SOL    HW117885   6.657  12.411   4.905
39287SOL    HW217886   6.656  12.404   4.741
39288SOL     OW17887   7.224  12.271   4.803
39288SOL    HW117888   7.229  12.352   4.862
39288SOL    HW217889   7.138  12.273   4.752
39289SOL     OW17890   6.501  11.261   5.126
39289SOL    HW117891   6.526  11.241   5.031
39289SOL    HW217892   6.573  11.317   5.168
39290SOL     OW17893   6.566  12.288   5.443
39290SOL    HW117894   6.467  12.294   5.453
39290SOL    HW217895   6.589  12.208   5.387
39291SOL     OW17896   6.291  12.222   4.092
39291SOL    HW117897   6.277  12.229   4.191
39291SOL    HW217898   6.375  12.171   4.074
39292SOL     OW17899   5.996  11.985   4.975
39292SOL    HW117900   6.082  11.997   5.025
39292SOL    HW217901   5.954  11.898   5.002
39293SOL     OW17902   6.860  11.558   4.986
39293SOL    HW117903   6.881  11.632   5.050
39293SOL    HW217904   6.771  11.575   4.943
39294SOL     OW17905   5.650  12.736   5.055
39294SOL    HW117906   5.604  12.818   5.021
39294SOL    HW217907   5.748  12.755   5.064
39295SOL     OW17908   5.953  12.272   4.225
39295SOL    HW117909   5.946  12.355   4.169
39295SOL    HW217910   5.957  12.192   4.165
39296SOL     OW17911   6.152  11.709   4.589
39296SOL    HW117912   6.164  11.775   4.515
39296SOL    HW217913   6.198  11.743   4.672
39297SOL     OW17914   6.838  12.520   4.112
39297SOL    HW117915   6.888  12.597   4.152
39297SOL    HW217916   6.743  12.522   4.144
39298SOL     OW17917   6.858  12.617   4.866
39298SOL    HW117918   6.905  12.630   4.953
39298SOL    HW217919   6.792  12.543   4.875
39299SOL     OW17920   7.168  11.811   4.196
39299SOL    HW117921   7.137  11.872   4.269
39299SOL    HW217922   7.218  11.863   4.127
39300SOL     OW17923   5.940  12.682   5.053
39300SOL    HW117924   5.919  12.638   4.966
39300SOL    HW217925   6.037  12.708   5.056
39301SOL     OW17926   5.988  11.923   5.322
39301SOL    HW117927   6.056  11.978   5.275
39301SOL    HW217928   6.028  11.835   5.349
39302SOL     OW17929   7.173  11.951   5.394
39302SOL    HW117930   7.081  11.989   5.389
39302SOL    HW217931   7.233  11.998   5.329
39303SOL     OW17932   6.599  11.277   5.494
39303SOL    HW117933   6.605  11.362   5.442
39303SOL    HW217934   6.631  11.201   5.437
39304SOL     OW17935   6.090  11.222   5.464
39304SOL    HW117936   6.048  11.165   5.394
39304SOL    HW217937   6.024  11.291   5.496
39305SOL     OW17938   6.159  12.042   4.753
39305SOL    HW117939   6.203  12.131   4.744
39305SOL    HW217940   6.096  12.042   4.830
39306SOL     OW17941   6.946  12.034   4.769
39306SOL    HW117942   6.871  12.034   4.703
39306SOL    HW217943   6.983  11.942   4.778
39307SOL     OW17944   6.795  11.697   3.999
39307SOL    HW117945   6.808  11.613   4.053
39307SOL    HW217946   6.766  11.771   4.059
39308SOL     OW17947   5.893  11.385   4.955
39308SOL    HW117948   5.870  11.422   5.045
39308SOL    HW217949   5.863  11.290   4.949
39309SOL     OW17950   5.623  12.482   5.006
39309SOL    HW117951   5.676  12.433   5.074
39309SOL    HW217952   5.645  12.580   5.011
39310SOL     OW17953   6.318  11.806   4.788
39310SOL    HW117954   6.377  11.780   4.712
39310SOL    HW217955   6.290  11.902   4.777
39311SOL     OW17956   7.314  12.107   5.578
39311SOL    HW117957   7.268  12.100   5.489
39311SOL    HW217958   7.252  12.151   5.644
39312SOL     OW17959   5.893  11.235   4.342
39312SOL    HW117960   5.882  11.329   4.375
39312SOL    HW217961   5.888  11.172   4.419
39313SOL     OW17962   7.208  11.539   4.098
39313SOL    HW117963   7.210  11.463   4.162
39313SOL    HW217964   7.160  11.616   4.138
39314SOL     OW17965   6.609  11.938   4.690
39314SOL    HW117966   6.624  11.959   4.786
39314SOL    HW217967   6.579  11.843   4.681
39315SOL     OW17968   7.445  12.690   5.329
39315SOL    HW117969   7.459  12.717   5.234
39315SOL    HW217970   7.528  12.712   5.382
39316SOL     OW17971   5.936  12.070   5.528
39316SOL    HW117972   6.012  12.114   5.576
39316SOL    HW217973   5.971  12.023   5.446
39317SOL     OW17974   7.126  11.446   3.849
39317SOL    HW117975   7.065  11.371   3.872
39317SOL    HW217976   7.148  11.498   3.932
39318SOL     OW17977   6.889  12.010   3.766
39318SOL    HW117978   6.923  11.917   3.781
39318SOL    HW217979   6.907  12.037   3.671
39319SOL     OW17980   6.654  12.505   4.573
39319SOL    HW117981   6.661  12.421   4.518
39319SOL    HW217982   6.716  12.574   4.537
39320SOL     OW17983   5.905  11.982   4.673
39320SOL    HW117984   5.998  12.018   4.678
39320SOL    HW217985   5.899  11.897   4.725
39321SOL     OW17986   5.925  11.681   4.730
39321SOL    HW117987   5.873  11.598   4.713
39321SOL    HW217988   6.002  11.686   4.666
39322SOL     OW17989   6.724  11.552   5.402
39322SOL    HW117990   6.679  11.615   5.466
39322SOL    HW217991   6.817  11.583   5.385
39323SOL     OW17992   6.746  11.379   5.201
39323SOL    HW117993   6.746  11.443   5.278
39323SOL    HW217994   6.774  11.427   5.118
39324SOL     OW17995   5.594  12.498   3.924
39324SOL    HW117996   5.501  12.519   3.893
39324SOL    HW217997   5.604  12.399   3.937
39325SOL     OW17998   6.090  12.740   4.634
39325SOL    HW117999   6.156  12.814   4.643
39325SOL    HW218000   6.134  12.661   4.592
39326SOL     OW18001   6.588  11.968   4.962
39326SOL    HW118002   6.629  11.936   5.048
39326SOL    HW218003   6.492  11.941   4.959
39327SOL     OW18004   5.626  11.716   4.838
39327SOL    HW118005   5.711  11.683   4.797
39327SOL    HW218006   5.639  11.731   4.936
39328SOL     OW18007   5.775  11.692   5.446
39328SOL    HW118008   5.834  11.652   5.376
39328SOL    HW218009   5.717  11.763   5.405
39329SOL     OW18010   6.955  12.122   5.384
39329SOL    HW118011   6.994  12.211   5.404
39329SOL    HW218012   6.965  12.102   5.287
39330SOL     OW18013   6.401  11.744   4.049
39330SOL    HW118014   6.408  11.655   4.003
39330SOL    HW218015   6.307  11.778   4.041
39331SOL     OW18016   7.243  11.776   4.930
39331SOL    HW118017   7.205  11.707   4.992
39331SOL    HW218018   7.325  11.740   4.886
39332SOL     OW18019   5.838  12.736   5.468
39332SOL    HW118020   5.808  12.793   5.544
39332SOL    HW218021   5.831  12.639   5.494
39333SOL     OW18022   6.257  11.636   4.993
39333SOL    HW118023   6.223  11.547   4.963
39333SOL    HW218024   6.283  11.690   4.913
39334SOL     OW18025   6.059  11.672   3.915
39334SOL    HW118026   6.120  11.752   3.919
39334SOL    HW218027   5.964  11.703   3.922
39335SOL     OW18028   5.745  12.309   5.190
39335SOL    HW118029   5.767  12.248   5.266
39335SOL    HW218030   5.755  12.260   5.104
39336SOL     OW18031   6.933  12.231   4.958
39336SOL    HW118032   6.957  12.168   4.884
39336SOL    HW218033   6.843  12.271   4.940
39337SOL     OW18034   6.888  12.027   4.033
39337SOL    HW118035   6.802  11.996   4.075
39337SOL    HW218036   6.884  12.013   3.934
39338SOL     OW18037   6.838  12.903   4.852
39338SOL    HW118038   6.922  12.908   4.798
39338SOL    HW218039   6.815  12.807   4.870
39339SOL     OW18040   5.669  12.430   4.746
39339SOL    HW118041   5.664  12.429   4.846
39339SOL    HW218042   5.586  12.389   4.708
39340SOL     OW18043   7.312  11.307   4.247
39340SOL    HW118044   7.385  11.290   4.180
39340SOL    HW218045   7.281  11.220   4.285
39341SOL     OW18046   5.716  12.966   5.575
39341SOL    HW118047   5.675  12.892   5.628
39341SOL    HW218048   5.780  13.017   5.633
39342SOL     OW18049   6.866  12.099   4.396
39342SOL    HW118050   6.926  12.018   4.398
39342SOL    HW218051   6.906  12.168   4.336
39343SOL     OW18052   6.416  12.445   5.146
39343SOL    HW118053   6.411  12.478   5.241
39343SOL    HW218054   6.330  12.464   5.100
39344SOL     OW18055   6.258  12.788   3.878
39344SOL    HW118056   6.267  12.798   3.779
39344SOL    HW218057   6.218  12.699   3.899
39345SOL     OW18058   7.427  11.347   4.687
39345SOL    HW118059   7.466  11.262   4.651
39345SOL    HW218060   7.329  11.349   4.668
39346SOL     OW18061   5.849  11.498   4.444
39346SOL    HW118062   5.770  11.549   4.410
39346SOL    HW218063   5.840  11.483   4.542
39347SOL     OW18064   6.780  12.784   3.755
39347SOL    HW118065   6.786  12.691   3.792
39347SOL    HW218066   6.721  12.784   3.675
39348SOL     OW18067   6.408  12.174   5.096
39348SOL    HW118068   6.448  12.173   5.004
39348SOL    HW218069   6.418  12.266   5.136
39349SOL     OW18070   6.502  12.082   4.015
39349SOL    HW118071   6.565  12.120   3.947
39349SOL    HW218072   6.542  11.999   4.054
39350SOL     OW18073   5.958  12.460   5.214
39350SOL    HW118074   5.945  12.553   5.180
39350SOL    HW218075   5.874  12.408   5.201
39351SOL     OW18076   7.200  12.464   5.013
39351SOL    HW118077   7.260  12.467   5.093
39351SOL    HW218078   7.125  12.528   5.026
39352SOL     OW18079   6.625  12.270   4.420
39352SOL    HW118080   6.555  12.223   4.474
39352SOL    HW218081   6.684  12.202   4.377
39353SOL     OW18082   6.600  11.408   4.695
39353SOL    HW118083   6.592  11.372   4.602
39353SOL    HW218084   6.598  11.332   4.760
39354SOL     OW18085   6.176  12.659   4.215
39354SOL    HW118086   6.218  12.601   4.145
39354SOL    HW218087   6.132  12.738   4.171
39355SOL     OW18088   7.295  11.557   5.105
39355SOL    HW118089   7.368  11.626   5.109
39355SOL    HW218090   7.323  11.482   5.046
39356SOL     OW18091   5.841  12.520   4.014
39356SOL    HW118092   5.745  12.521   3.987
39356SOL    HW218093   5.853  12.573   4.098
39357SOL     OW18094   5.691  12.185   5.450
39357SOL    HW118095   5.614  12.152   5.504
39357SOL    HW218096   5.776  12.155   5.492
39358SOL     OW18097   6.258  11.375   5.213
39358SOL    HW118098   6.348  11.359   5.173
39358SOL    HW218099   6.266  11.380   5.312
39359SOL     OW18100   5.661  11.517   3.757
39359SOL    HW118101   5.569  11.489   3.728
39359SOL    HW218102   5.692  11.594   3.701
39360SOL     OW18103   7.026  12.028   5.122
39360SOL    HW118104   6.969  12.080   5.059
39360SOL    HW218105   7.122  12.040   5.098
39361SOL     OW18106   5.658  11.338   4.042
39361SOL    HW118107   5.641  11.421   3.988
39361SOL    HW218108   5.748  11.301   4.020
39362SOL     OW18109   6.769  12.507   3.843
39362SOL    HW118110   6.670  12.496   3.845
39362SOL    HW218111   6.803  12.522   3.936
39363SOL     OW18112   6.199  12.014   5.155
39363SOL    HW118113   6.255  12.095   5.138
39363SOL    HW218114   6.258  11.934   5.158
39364SOL     OW18115   6.302  11.737   5.432
39364SOL    HW118116   6.321  11.802   5.506
39364SOL    HW218117   6.362  11.657   5.441
39365SOL     OW18118   7.036  12.392   5.357
39365SOL    HW118119   7.027  12.382   5.456
39365SOL    HW218120   7.132  12.385   5.331
39366SOL     OW18121   7.260  12.055   4.978
39366SOL    HW118122   7.233  11.966   4.941
39366SOL    HW218123   7.261  12.123   4.905
39367SOL     OW18124   6.811  11.497   4.173
39367SOL    HW118125   6.876  11.423   4.162
39367SOL    HW218126   6.831  11.547   4.257
39368SOL     OW18127   6.180  11.917   4.376
39368SOL    HW118128   6.230  12.002   4.357
39368SOL    HW218129   6.092  11.919   4.328
39369SOL     OW18130   7.363  11.514   5.366
39369SOL    HW118131   7.346  11.545   5.272
39369SOL    HW218132   7.279  11.477   5.404
39370SOL     OW18133   7.316  12.106   5.241
39370SOL    HW118134   7.354  12.197   5.256
39370SOL    HW218135   7.308  12.089   5.142
39371SOL     OW18136   6.445  12.546   3.740
39371SOL    HW118137   6.399  12.561   3.828
39371SOL    HW218138   6.489  12.631   3.710
39372SOL     OW18139   6.445  12.128   4.585
39372SOL    HW118140   6.499  12.059   4.633
39372SOL    HW218141   6.413  12.197   4.651
39373SOL     OW18142   6.669  12.156   3.811
39373SOL    HW118143   6.646  12.209   3.729
39373SOL    HW218144   6.750  12.100   3.792
39374SOL     OW18145   7.447  12.741   4.575
39374SOL    HW118146   7.376  12.729   4.505
39374SOL    HW218147   7.448  12.662   4.635
39375SOL     OW18148   5.807  12.486   5.568
39375SOL    HW118149   5.742  12.413   5.547
39375SOL    HW218150   5.811  12.500   5.666
39376SOL     OW18151   5.665  12.412   4.377
39376SOL    HW118152   5.664  12.365   4.465
39376SOL    HW218153   5.747  12.384   4.326
39377SOL     OW18154   6.258  12.563   5.348
39377SOL    HW118155   6.180  12.513   5.386
39377SOL    HW218156   6.255  12.658   5.379
39378SOL     OW18157   7.410  11.364   4.951
39378SOL    HW118158   7.406  11.274   4.995
39378SOL    HW218159   7.413  11.353   4.852
39379SOL     OW18160   6.014  11.596   4.244
39379SOL    HW118161   6.044  11.524   4.182
39379SOL    HW218162   5.975  11.556   4.327
39380SOL     OW18163   7.291  12.659   4.828
39380SOL    HW118164   7.198  12.634   4.801
39380SOL    HW218165   7.317  12.609   4.910
39381SOL     OW18166   5.903  11.719   5.004
39381SOL    HW118167   5.941  11.660   5.076
39381SOL    HW218168   5.943  11.693   4.916
39382SOL     OW18169   7.010  11.386   4.836
39382SOL    HW118170   7.062  11.321   4.891
39382SOL    HW218171   6.961  11.449   4.897
39383SOL     OW18172   6.587  11.206   4.878
39383SOL    HW118173   6.524  11.134   4.847
39383SOL    HW218174   6.680  11.170   4.878
39384SOL     OW18175   6.356  12.502   4.025
39384SOL    HW118176   6.310  12.415   4.042
39384SOL    HW218177   6.447  12.499   4.066
39385SOL     OW18178   6.204  12.739   5.008
39385SOL    HW118179   6.199  12.821   5.065
39385SOL    HW218180   6.293  12.736   4.963
39386SOL     OW18181   6.938  11.224   3.892
39386SOL    HW118182   6.973  11.183   3.808
39386SOL    HW218183   6.848  11.186   3.912
39387SOL     OW18184   6.886  11.625   4.415
39387SOL    HW118185   6.827  11.705   4.419
39387SOL    HW218186   6.901  11.590   4.508
39388SOL     OW18187   7.179  11.393   4.606
39388SOL    HW118188   7.095  11.392   4.660
39388SOL    HW218189   7.181  11.476   4.550
39389SOL     OW18190   5.625  12.249   4.024
39389SOL    HW118191   5.724  12.238   4.015
39389SOL    HW218192   5.585  12.163   4.056
39390SOL     OW18193   5.816  11.800   5.699
39390SOL    HW118194   5.723  11.798   5.736
39390SOL    HW218195   5.817  11.761   5.607
39391SOL     OW18196   5.811  11.447   6.582
39391SOL    HW118197   5.846  11.430   6.674
39391SOL    HW218198   5.723  11.402   6.570
39392SOL     OW18199   5.605  11.540   6.233
39392SOL    HW118200   5.523  11.583   6.272
39392SOL    HW218201   5.577  11.467   6.170
39393SOL     OW18202   6.155  12.447   6.751
39393SOL    HW118203   6.062  12.440   6.714
39393SOL    HW218204   6.166  12.536   6.795
39394SOL     OW18205   7.141  12.683   6.289
39394SOL    HW118206   7.084  12.667   6.370
39394SOL    HW218207   7.082  12.693   6.209
39395SOL     OW18208   6.721  11.875   6.303
39395SOL    HW118209   6.778  11.953   6.278
39395SOL    HW218210   6.661  11.901   6.379
39396SOL     OW18211   7.341  11.779   5.817
39396SOL    HW118212   7.329  11.766   5.718
39396SOL    HW218213   7.311  11.698   5.866
39397SOL     OW18214   6.354  12.316   6.609
39397SOL    HW118215   6.276  12.333   6.669
39397SOL    HW218216   6.388  12.403   6.573
39398SOL     OW18217   6.436  11.970   7.409
39398SOL    HW118218   6.432  12.046   7.474
39398SOL    HW218219   6.458  12.006   7.318
39399SOL     OW18220   6.271  12.184   6.251
39399SOL    HW118221   6.340  12.168   6.321
39399SOL    HW218222   6.198  12.241   6.289
39400SOL     OW18223   6.272  12.333   7.389
39400SOL    HW118224   6.332  12.412   7.403
39400SOL    HW218225   6.186  12.364   7.348
39401SOL     OW18226   5.921  12.607   6.647
39401SOL    HW118227   5.843  12.576   6.594
39401SOL    HW218228   5.979  12.665   6.590
39402SOL     OW18229   7.046  12.677   6.925
39402SOL    HW118230   7.070  12.771   6.951
39402SOL    HW218231   7.030  12.623   7.007
39403SOL     OW18232   6.024  11.564   7.085
39403SOL    HW118233   6.106  11.508   7.094
39403SOL    HW218234   5.943  11.506   7.089
39404SOL     OW18235   7.189  11.619   6.323
39404SOL    HW118236   7.115  11.665   6.273
39404SOL    HW218237   7.240  11.687   6.376
39405SOL     OW18238   6.713  12.513   7.276
39405SOL    HW118239   6.760  12.513   7.364
39405SOL    HW218240   6.665  12.426   7.265
39406SOL     OW18241   5.816  12.606   6.124
39406SOL    HW118242   5.790  12.702   6.124
39406SOL    HW218243   5.745  12.552   6.169
39407SOL     OW18244   5.826  12.263   6.472
39407SOL    HW118245   5.840  12.179   6.524
39407SOL    HW218246   5.771  12.327   6.527
39408SOL     OW18247   6.192  12.136   5.709
39408SOL    HW118248   6.199  12.220   5.655
39408SOL    HW218249   6.238  12.149   5.797
39409SOL     OW18250   7.180  11.286   7.066
39409SOL    HW118251   7.162  11.353   6.994
39409SOL    HW218252   7.177  11.332   7.155
39410SOL     OW18253   5.708  11.815   6.149
39410SOL    HW118254   5.663  11.727   6.166
39410SOL    HW218255   5.707  11.869   6.233
39411SOL     OW18256   5.613  12.768   5.703
39411SOL    HW118257   5.594  12.672   5.724
39411SOL    HW218258   5.580  12.826   5.778
39412SOL     OW18259   7.275  12.094   6.198
39412SOL    HW118260   7.370  12.065   6.206
39412SOL    HW218261   7.267  12.159   6.123
39413SOL     OW18262   7.227  12.280   6.018
39413SOL    HW118263   7.313  12.282   5.966
39413SOL    HW218264   7.241  12.327   6.106
39414SOL     OW18265   5.699  11.909   7.183
39414SOL    HW118266   5.787  11.896   7.228
39414SOL    HW218267   5.686  12.006   7.161
39415SOL     OW18268   6.199  12.537   6.312
39415SOL    HW118269   6.150  12.450   6.321
39415SOL    HW218270   6.176  12.580   6.225
39416SOL     OW18271   6.879  12.400   7.009
39416SOL    HW118272   6.916  12.327   6.951
39416SOL    HW218273   6.931  12.405   7.094
39417SOL     OW18274   6.395  11.176   6.088
39417SOL    HW118275   6.435  11.267   6.079
39417SOL    HW218276   6.295  11.184   6.094
39418SOL     OW18277   5.783  12.148   6.850
39418SOL    HW118278   5.872  12.103   6.836
39418SOL    HW218279   5.710  12.083   6.831
39419SOL     OW18280   7.111  12.171   5.776
39419SOL    HW118281   7.048  12.095   5.789
39419SOL    HW218282   7.159  12.189   5.862
39420SOL     OW18283   5.903  11.423   7.387
39420SOL    HW118284   5.974  11.494   7.393
39420SOL    HW218285   5.815  11.462   7.415
39421SOL     OW18286   7.052  12.589   6.539
39421SOL    HW118287   6.993  12.595   6.619
39421SOL    HW218288   7.037  12.501   6.493
39422SOL     OW18289   6.184  11.901   5.856
39422SOL    HW118290   6.208  11.970   5.788
39422SOL    HW218291   6.106  11.934   5.910
39423SOL     OW18292   6.867  11.517   6.530
39423SOL    HW118293   6.781  11.467   6.517
39423SOL    HW218294   6.929  11.463   6.586
39424SOL     OW18295   7.162  12.834   5.893
39424SOL    HW118296   7.251  12.880   5.896
39424SOL    HW218297   7.141  12.810   5.798
39425SOL     OW18298   6.393  11.777   7.051
39425SOL    HW118299   6.346  11.774   7.140
39425SOL    HW218300   6.342  11.722   6.985
39426SOL     OW18301   6.980  11.641   7.260
39426SOL    HW118302   6.960  11.684   7.348
39426SOL    HW218303   7.058  11.579   7.269
39427SOL     OW18304   6.559  12.062   7.158
39427SOL    HW118305   6.605  11.978   7.129
39427SOL    HW218306   6.503  12.096   7.083
39428SOL     OW18307   6.577  11.582   6.828
39428SOL    HW118308   6.500  11.616   6.882
39428SOL    HW218309   6.543  11.531   6.749
39429SOL     OW18310   6.627  11.873   6.015
39429SOL    HW118311   6.653  11.869   6.111
39429SOL    HW218312   6.542  11.822   6.001
39430SOL     OW18313   5.662  11.983   6.375
39430SOL    HW118314   5.761  11.971   6.384
39430SOL    HW218315   5.638  12.078   6.396
39431SOL     OW18316   6.451  11.520   5.781
39431SOL    HW118317   6.510  11.583   5.732
39431SOL    HW218318   6.470  11.426   5.752
39432SOL     OW18319   7.305  11.757   7.417
39432SOL    HW118320   7.279  11.846   7.381
39432SOL    HW218321   7.303  11.689   7.344
39433SOL     OW18322   6.948  12.316   6.131
39433SOL    HW118323   7.031  12.287   6.083
39433SOL    HW218324   6.899  12.383   6.075
39434SOL     OW18325   6.136  11.368   6.471
39434SOL    HW118326   6.131  11.363   6.571
39434SOL    HW218327   6.138  11.464   6.442
39435SOL     OW18328   6.594  12.628   6.063
39435SOL    HW118329   6.548  12.700   6.011
39435SOL    HW218330   6.590  12.648   6.161
39436SOL     OW18331   7.381  12.238   6.459
39436SOL    HW118332   7.319  12.223   6.383
39436SOL    HW218333   7.329  12.249   6.544
39437SOL     OW18334   6.813  12.722   7.092
39437SOL    HW118335   6.819  12.645   7.156
39437SOL    HW218336   6.761  12.696   7.012
39438SOL     OW18337   5.907  12.115   5.828
39438SOL    HW118338   5.989  12.154   5.786
39438SOL    HW218339   5.880  12.033   5.779
39439SOL     OW18340   7.044  11.907   6.314
39439SOL    HW118341   7.039  11.842   6.389
39439SOL    HW218342   7.124  11.966   6.327
39440SOL     OW18343   6.047  12.438   7.313
39440SOL    HW118344   5.997  12.439   7.227
39440SOL    HW218345   5.984  12.420   7.389
39441SOL     OW18346   5.788  11.457   7.084
39441SOL    HW118347   5.708  11.517   7.071
39441SOL    HW218348   5.778  11.408   7.170
39442SOL     OW18349   7.218  12.549   5.667
39442SOL    HW118350   7.186  12.643   5.657
39442SOL    HW218351   7.142  12.486   5.655
39443SOL     OW18352   6.986  11.279   6.012
39443SOL    HW118353   6.962  11.242   5.922
39443SOL    HW218354   7.085  11.295   6.016
39444SOL     OW18355   5.968  11.872   6.066
39444SOL    HW118356   6.013  11.782   6.063
39444SOL    HW218357   5.874  11.861   6.099
39445SOL     OW18358   7.133  11.394   7.315
39445SOL    HW118359   7.128  11.431   7.407
39445SOL    HW218360   7.061  11.325   7.303
39446SOL     OW18361   6.200  11.294   5.703
39446SOL    HW118362   6.298  11.272   5.710
39446SOL    HW218363   6.169  11.277   5.610
39447SOL     OW18364   6.367  11.436   7.335
39447SOL    HW118365   6.434  11.375   7.378
39447SOL    HW218366   6.294  11.455   7.400
39448SOL     OW18367   6.937  11.762   7.019
39448SOL    HW118368   6.965  11.719   7.104
39448SOL    HW218369   6.962  11.858   7.020
39449SOL     OW18370   6.389  12.574   6.510
39449SOL    HW118371   6.479  12.588   6.468
39449SOL    HW218372   6.318  12.576   6.439
39450SOL     OW18373   6.508  11.675   6.485
39450SOL    HW118374   6.483  11.666   6.389
39450SOL    HW218375   6.556  11.593   6.516
39451SOL     OW18376   6.125  11.236   6.098
39451SOL    HW118377   6.044  11.237   6.156
39451SOL    HW218378   6.128  11.319   6.043
39452SOL     OW18379   7.020  12.360   5.627
39452SOL    HW118380   7.052  12.284   5.684
39452SOL    HW218381   6.928  12.387   5.657
39453SOL     OW18382   5.883  11.207   5.757
39453SOL    HW118383   5.932  11.291   5.736
39453SOL    HW218384   5.945  11.142   5.802
39454SOL     OW18385   6.521  11.408   6.066
39454SOL    HW118386   6.473  11.449   5.988
39454SOL    HW218387   6.620  11.406   6.047
39455SOL     OW18388   6.662  11.855   7.050
39455SOL    HW118389   6.582  11.794   7.053
39455SOL    HW218390   6.743  11.802   7.026
39456SOL     OW18391   6.813  12.742   6.379
39456SOL    HW118392   6.834  12.816   6.314
39456SOL    HW218393   6.881  12.742   6.452
39457SOL     OW18394   6.045  12.324   6.327
39457SOL    HW118395   5.974  12.297   6.392
39457SOL    HW218396   6.019  12.296   6.234
39458SOL     OW18397   6.618  11.721   5.602
39458SOL    HW118398   6.577  11.803   5.563
39458SOL    HW218399   6.682  11.747   5.675
39459SOL     OW18400   5.664  11.728   6.972
39459SOL    HW118401   5.756  11.727   6.931
39459SOL    HW218402   5.658  11.802   7.039
39460SOL     OW18403   6.147  11.394   6.733
39460SOL    HW118404   6.185  11.310   6.770
39460SOL    HW218405   6.059  11.413   6.777
39461SOL     OW18406   6.452  11.626   6.228
39461SOL    HW118407   6.420  11.698   6.166
39461SOL    HW218408   6.476  11.545   6.175
39462SOL     OW18409   6.603  11.211   6.339
39462SOL    HW118410   6.531  11.216   6.270
39462SOL    HW218411   6.579  11.142   6.408
39463SOL     OW18412   7.015  12.345   6.453
39463SOL    HW118413   6.960  12.261   6.446
39463SOL    HW218414   7.041  12.374   6.361
39464SOL     OW18415   7.052  11.762   6.578
39464SOL    HW118416   7.022  11.667   6.585
39464SOL    HW218417   7.125  11.778   6.644
39465SOL     OW18418   7.443  12.005   5.963
39465SOL    HW118419   7.485  11.941   6.027
39465SOL    HW218420   7.405  11.954   5.885
39466SOL     OW18421   6.074  12.557   5.760
39466SOL    HW118422   5.987  12.542   5.807
39466SOL    HW218423   6.057  12.583   5.665
39467SOL     OW18424   7.250  12.452   6.243
39467SOL    HW118425   7.349  12.460   6.257
39467SOL    HW218426   7.205  12.536   6.274
39468SOL     OW18427   6.976  11.747   5.664
39468SOL    HW118428   6.922  11.726   5.745
39468SOL    HW218429   7.067  11.706   5.673
39469SOL     OW18430   6.113  11.428   5.914
39469SOL    HW118431   6.140  11.369   5.839
39469SOL    HW218432   6.113  11.523   5.883
39470SOL     OW18433   7.340  12.395   7.174
39470SOL    HW118434   7.431  12.356   7.161
39470SOL    HW218435   7.348  12.491   7.198
39471SOL     OW18436   6.650  12.519   6.926
39471SOL    HW118437   6.570  12.496   6.981
39471SOL    HW218438   6.733  12.493   6.975
39472SOL     OW18439   6.697  12.367   6.686
39472SOL    HW118440   6.657  12.411   6.767
39472SOL    HW218441   6.656  12.404   6.603
39473SOL     OW18442   7.224  12.271   6.665
39473SOL    HW118443   7.229  12.352   6.724
39473SOL    HW218444   7.138  12.273   6.614
39474SOL     OW18445   6.501  11.261   6.988
39474SOL    HW118446   6.526  11.241   6.893
39474SOL    HW218447   6.573  11.317   7.030
39475SOL     OW18448   6.566  12.288   7.305
39475SOL    HW118449   6.467  12.294   7.315
39475SOL    HW218450   6.589  12.208   7.249
39476SOL     OW18451   6.291  12.222   5.954
39476SOL    HW118452   6.277  12.229   6.053
39476SOL    HW218453   6.375  12.171   5.936
39477SOL     OW18454   5.996  11.985   6.837
39477SOL    HW118455   6.082  11.997   6.887
39477SOL    HW218456   5.954  11.898   6.864
39478SOL     OW18457   6.860  11.558   6.848
39478SOL    HW118458   6.881  11.632   6.912
39478SOL    HW218459   6.771  11.575   6.805
39479SOL     OW18460   5.650  12.736   6.917
39479SOL    HW118461   5.604  12.818   6.883
39479SOL    HW218462   5.748  12.755   6.926
39480SOL     OW18463   5.953  12.272   6.087
39480SOL    HW118464   5.946  12.355   6.031
39480SOL    HW218465   5.957  12.192   6.027
39481SOL     OW18466   6.152  11.709   6.451
39481SOL    HW118467   6.164  11.775   6.377
39481SOL    HW218468   6.198  11.743   6.534
39482SOL     OW18469   6.838  12.520   5.974
39482SOL    HW118470   6.888  12.597   6.014
39482SOL    HW218471   6.743  12.522   6.006
39483SOL     OW18472   6.858  12.617   6.728
39483SOL    HW118473   6.905  12.630   6.815
39483SOL    HW218474   6.792  12.543   6.737
39484SOL     OW18475   7.168  11.811   6.058
39484SOL    HW118476   7.137  11.872   6.131
39484SOL    HW218477   7.218  11.863   5.989
39485SOL     OW18478   5.940  12.682   6.915
39485SOL    HW118479   5.919  12.638   6.828
39485SOL    HW218480   6.037  12.708   6.918
39486SOL     OW18481   5.988  11.923   7.184
39486SOL    HW118482   6.056  11.978   7.137
39486SOL    HW218483   6.028  11.835   7.211
39487SOL     OW18484   7.173  11.951   7.256
39487SOL    HW118485   7.081  11.989   7.251
39487SOL    HW218486   7.233  11.998   7.191
39488SOL     OW18487   6.599  11.277   7.356
39488SOL    HW118488   6.605  11.362   7.304
39488SOL    HW218489   6.631  11.201   7.299
39489SOL     OW18490   6.090  11.222   7.326
39489SOL    HW118491   6.048  11.165   7.256
39489SOL    HW218492   6.024  11.291   7.358
39490SOL     OW18493   6.159  12.042   6.615
39490SOL    HW118494   6.203  12.131   6.606
39490SOL    HW218495   6.096  12.042   6.692
39491SOL     OW18496   6.946  12.034   6.631
39491SOL    HW118497   6.871  12.034   6.565
39491SOL    HW218498   6.983  11.942   6.640
39492SOL     OW18499   6.795  11.697   5.861
39492SOL    HW118500   6.808  11.613   5.915
39492SOL    HW218501   6.766  11.771   5.921
39493SOL     OW18502   5.893  11.385   6.817
39493SOL    HW118503   5.870  11.422   6.907
39493SOL    HW218504   5.863  11.290   6.811
39494SOL     OW18505   5.623  12.482   6.868
39494SOL    HW118506   5.676  12.433   6.936
39494SOL    HW218507   5.645  12.580   6.873
39495SOL     OW18508   6.318  11.806   6.650
39495SOL    HW118509   6.377  11.780   6.574
39495SOL    HW218510   6.290  11.902   6.639
39496SOL     OW18511   7.314  12.107   7.440
39496SOL    HW118512   7.268  12.100   7.351
39496SOL    HW218513   7.252  12.151   7.506
39497SOL     OW18514   5.893  11.235   6.204
39497SOL    HW118515   5.882  11.329   6.237
39497SOL    HW218516   5.888  11.172   6.281
39498SOL     OW18517   7.208  11.539   5.960
39498SOL    HW118518   7.210  11.463   6.024
39498SOL    HW218519   7.160  11.616   6.000
39499SOL     OW18520   6.609  11.938   6.552
39499SOL    HW118521   6.624  11.959   6.648
39499SOL    HW218522   6.579  11.843   6.543
39500SOL     OW18523   7.445  12.690   7.191
39500SOL    HW118524   7.459  12.717   7.096
39500SOL    HW218525   7.528  12.712   7.244
39501SOL     OW18526   5.936  12.070   7.390
39501SOL    HW118527   6.012  12.114   7.438
39501SOL    HW218528   5.971  12.023   7.308
39502SOL     OW18529   7.126  11.446   5.711
39502SOL    HW118530   7.065  11.371   5.734
39502SOL    HW218531   7.148  11.498   5.794
39503SOL     OW18532   6.889  12.010   5.628
39503SOL    HW118533   6.923  11.917   5.643
39503SOL    HW218534   6.907  12.037   5.533
39504SOL     OW18535   6.654  12.505   6.435
39504SOL    HW118536   6.661  12.421   6.380
39504SOL    HW218537   6.716  12.574   6.399
39505SOL     OW18538   5.905  11.982   6.535
39505SOL    HW118539   5.998  12.018   6.540
39505SOL    HW218540   5.899  11.897   6.587
39506SOL     OW18541   5.925  11.681   6.592
39506SOL    HW118542   5.873  11.598   6.575
39506SOL    HW218543   6.002  11.686   6.528
39507SOL     OW18544   6.724  11.552   7.264
39507SOL    HW118545   6.679  11.615   7.328
39507SOL    HW218546   6.817  11.583   7.247
39508SOL     OW18547   6.746  11.379   7.063
39508SOL    HW118548   6.746  11.443   7.140
39508SOL    HW218549   6.774  11.427   6.980
39509SOL     OW18550   5.594  12.498   5.786
39509SOL    HW118551   5.501  12.519   5.755
39509SOL    HW218552   5.604  12.399   5.799
39510SOL     OW18553   6.090  12.740   6.496
39510SOL    HW118554   6.156  12.814   6.505
39510SOL    HW218555   6.134  12.661   6.454
39511SOL     OW18556   6.588  11.968   6.824
39511SOL    HW118557   6.629  11.936   6.910
39511SOL    HW218558   6.492  11.941   6.821
39512SOL     OW18559   5.626  11.716   6.700
39512SOL    HW118560   5.711  11.683   6.659
39512SOL    HW218561   5.639  11.731   6.798
39513SOL     OW18562   5.775  11.692   7.308
39513SOL    HW118563   5.834  11.652   7.238
39513SOL    HW218564   5.717  11.763   7.267
39514SOL     OW18565   6.955  12.122   7.246
39514SOL    HW118566   6.994  12.211   7.266
39514SOL    HW218567   6.965  12.102   7.149
39515SOL     OW18568   6.401  11.744   5.911
39515SOL    HW118569   6.408  11.655   5.865
39515SOL    HW218570   6.307  11.778   5.903
39516SOL     OW18571   7.243  11.776   6.792
39516SOL    HW118572   7.205  11.707   6.854
39516SOL    HW218573   7.325  11.740   6.748
39517SOL     OW18574   5.838  12.736   7.330
39517SOL    HW118575   5.808  12.793   7.406
39517SOL    HW218576   5.831  12.639   7.356
39518SOL     OW18577   6.257  11.636   6.855
39518SOL    HW118578   6.223  11.547   6.825
39518SOL    HW218579   6.283  11.690   6.775
39519SOL     OW18580   6.059  11.672   5.777
39519SOL    HW118581   6.120  11.752   5.781
39519SOL    HW218582   5.964  11.703   5.784
39520SOL     OW18583   5.745  12.309   7.052
39520SOL    HW118584   5.767  12.248   7.128
39520SOL    HW218585   5.755  12.260   6.966
39521SOL     OW18586   6.933  12.231   6.820
39521SOL    HW118587   6.957  12.168   6.746
39521SOL    HW218588   6.843  12.271   6.802
39522SOL     OW18589   6.888  12.027   5.895
39522SOL    HW118590   6.802  11.996   5.937
39522SOL    HW218591   6.884  12.013   5.796
39523SOL     OW18592   6.838  12.903   6.714
39523SOL    HW118593   6.922  12.908   6.660
39523SOL    HW218594   6.815  12.807   6.732
39524SOL     OW18595   5.669  12.430   6.608
39524SOL    HW118596   5.664  12.429   6.708
39524SOL    HW218597   5.586  12.389   6.570
39525SOL     OW18598   7.312  11.307   6.109
39525SOL    HW118599   7.385  11.290   6.042
39525SOL    HW218600   7.281  11.220   6.147
39526SOL     OW18601   5.716  12.966   7.437
39526SOL    HW118602   5.675  12.892   7.490
39526SOL    HW218603   5.780  13.017   7.495
39527SOL     OW18604   6.866  12.099   6.258
39527SOL    HW118605   6.926  12.018   6.260
39527SOL    HW218606   6.906  12.168   6.198
39528SOL     OW18607   6.416  12.445   7.008
39528SOL    HW118608   6.411  12.478   7.103
39528SOL    HW218609   6.330  12.464   6.962
39529SOL     OW18610   6.258  12.788   5.740
39529SOL    HW118611   6.267  12.798   5.641
39529SOL    HW218612   6.218  12.699   5.761
39530SOL     OW18613   7.427  11.347   6.549
39530SOL    HW118614   7.466  11.262   6.513
39530SOL    HW218615   7.329  11.349   6.530
39531SOL     OW18616   5.849  11.498   6.306
39531SOL    HW118617   5.770  11.549   6.272
39531SOL    HW218618   5.840  11.483   6.404
39532SOL     OW18619   6.780  12.784   5.617
39532SOL    HW118620   6.786  12.691   5.654
39532SOL    HW218621   6.721  12.784   5.537
39533SOL     OW18622   6.408  12.174   6.958
39533SOL    HW118623   6.448  12.173   6.866
39533SOL    HW218624   6.418  12.266   6.998
39534SOL     OW18625   6.502  12.082   5.877
39534SOL    HW118626   6.565  12.120   5.809
39534SOL    HW218627   6.542  11.999   5.916
39535SOL     OW18628   5.958  12.460   7.076
39535SOL    HW118629   5.945  12.553   7.042
39535SOL    HW218630   5.874  12.408   7.063
39536SOL     OW18631   7.200  12.464   6.875
39536SOL    HW118632   7.260  12.467   6.955
39536SOL    HW218633   7.125  12.528   6.888
39537SOL     OW18634   6.625  12.270   6.282
39537SOL    HW118635   6.555  12.223   6.336
39537SOL    HW218636   6.684  12.202   6.239
39538SOL     OW18637   6.600  11.408   6.557
39538SOL    HW118638   6.592  11.372   6.464
39538SOL    HW218639   6.598  11.332   6.622
39539SOL     OW18640   6.176  12.659   6.077
39539SOL    HW118641   6.218  12.601   6.007
39539SOL    HW218642   6.132  12.738   6.033
39540SOL     OW18643   7.295  11.557   6.967
39540SOL    HW118644   7.368  11.626   6.971
39540SOL    HW218645   7.323  11.482   6.908
39541SOL     OW18646   5.841  12.520   5.876
39541SOL    HW118647   5.745  12.521   5.849
39541SOL    HW218648   5.853  12.573   5.960
39542SOL     OW18649   5.691  12.185   7.312
39542SOL    HW118650   5.614  12.152   7.366
39542SOL    HW218651   5.776  12.155   7.354
39543SOL     OW18652   6.258  11.375   7.075
39543SOL    HW118653   6.348  11.359   7.035
39543SOL    HW218654   6.266  11.380   7.174
39544SOL     OW18655   5.661  11.517   5.619
39544SOL    HW118656   5.569  11.489   5.590
39544SOL    HW218657   5.692  11.594   5.563
39545SOL     OW18658   7.026  12.028   6.984
39545SOL    HW118659   6.969  12.080   6.921
39545SOL    HW218660   7.122  12.040   6.960
39546SOL     OW18661   5.658  11.338   5.904
39546SOL    HW118662   5.641  11.421   5.850
39546SOL    HW218663   5.748  11.301   5.882
39547SOL     OW18664   6.769  12.507   5.705
39547SOL    HW118665   6.670  12.496   5.707
39547SOL    HW218666   6.803  12.522   5.798
39548SOL     OW18667   6.199  12.014   7.017
39548SOL    HW118668   6.255  12.095   7.000
39548SOL    HW218669   6.258  11.934   7.020
39549SOL     OW18670   6.302  11.737   7.294
39549SOL    HW118671   6.321  11.802   7.368
39549SOL    HW218672   6.362  11.657   7.303
39550SOL     OW18673   7.036  12.392   7.219
39550SOL    HW118674   7.027  12.382   7.318
39550SOL    HW218675   7.132  12.385   7.193
39551SOL     OW18676   7.260  12.055   6.840
39551SOL    HW118677   7.233  11.966   6.803
39551SOL    HW218678   7.261  12.123   6.767
39552SOL     OW18679   6.811  11.497   6.035
39552SOL    HW118680   6.876  11.423   6.024
39552SOL    HW218681   6.831  11.547   6.119
39553SOL     OW18682   6.180  11.917   6.238
39553SOL    HW118683   6.230  12.002   6.219
39553SOL    HW218684   6.092  11.919   6.190
39554SOL     OW18685   7.363  11.514   7.228
39554SOL    HW118686   7.346  11.545   7.134
39554SOL    HW218687   7.279  11.477   7.266
39555SOL     OW18688   7.316  12.106   7.103
39555SOL    HW118689   7.354  12.197   7.118
39555SOL    HW218690   7.308  12.089   7.004
39556SOL     OW18691   6.445  12.546   5.602
39556SOL    HW118692   6.399  12.561   5.690
39556SOL    HW218693   6.489  12.631   5.572
39557SOL     OW18694   6.445  12.128   6.447
39557SOL    HW118695   6.499  12.059   6.495
39557SOL    HW218696   6.413  12.197   6.513
39558SOL     OW18697   6.669  12.156   5.673
39558SOL    HW118698   6.646  12.209   5.591
39558SOL    HW218699   6.750  12.100   5.654
39559SOL     OW18700   7.447  12.741   6.437
39559SOL    HW118701   7.376  12.729   6.367
39559SOL    HW218702   7.448  12.662   6.497
39560SOL     OW18703   5.807  12.486   7.430
39560SOL    HW118704   5.742  12.413   7.409
39560SOL    HW218705   5.811  12.500   7.528
39561SOL     OW18706   5.665  12.412   6.239
39561SOL    HW118707   5.664  12.365   6.327
39561SOL    HW218708   5.747  12.384   6.188
39562SOL     OW18709   6.258  12.563   7.210
39562SOL    HW118710   6.180  12.513   7.248
39562SOL    HW218711   6.255  12.658   7.241
39563SOL     OW18712   7.410  11.364   6.813
39563SOL    HW118713   7.406  11.274   6.857
39563SOL    HW218714   7.413  11.353   6.714
39564SOL     OW18715   6.014  11.596   6.106
39564SOL    HW118716   6.044  11.524   6.044
39564SOL    HW218717   5.975  11.556   6.189
39565SOL     OW18718   7.291  12.659   6.690
39565SOL    HW118719   7.198  12.634   6.663
39565SOL    HW218720   7.317  12.609   6.772
39566SOL     OW18721   5.903  11.719   6.866
39566SOL    HW118722   5.941  11.660   6.938
39566SOL    HW218723   5.943  11.693   6.778
39567SOL     OW18724   7.010  11.386   6.698
39567SOL    HW118725   7.062  11.321   6.753
39567SOL    HW218726   6.961  11.449   6.759
39568SOL     OW18727   6.587  11.206   6.740
39568SOL    HW118728   6.524  11.134   6.709
39568SOL    HW218729   6.680  11.170   6.740
39569SOL     OW18730   6.356  12.502   5.887
39569SOL    HW118731   6.310  12.415   5.904
39569SOL    HW218732   6.447  12.499   5.928
39570SOL     OW18733   6.204  12.739   6.870
39570SOL    HW118734   6.199  12.821   6.927
39570SOL    HW218735   6.293  12.736   6.825
39571SOL     OW18736   6.938  11.224   5.754
39571SOL    HW118737   6.973  11.183   5.670
39571SOL    HW218738   6.848  11.186   5.774
39572SOL     OW18739   6.886  11.625   6.277
39572SOL    HW118740   6.827  11.705   6.281
39572SOL    HW218741   6.901  11.590   6.370
39573SOL     OW18742   7.179  11.393   6.468
39573SOL    HW118743   7.095  11.392   6.522
39573SOL    HW218744   7.181  11.476   6.412
39574SOL     OW18745   5.625  12.249   5.886
39574SOL    HW118746   5.724  12.238   5.877
39574SOL    HW218747   5.585  12.163   5.918
39575SOL     OW18748   5.816  11.800   7.561
39575SOL    HW118749   5.723  11.798   7.598
39575SOL    HW218750   5.817  11.761   7.469
39576SOL     OW18751   5.811  11.447   8.444
39576SOL    HW118752   5.846  11.430   8.536
39576SOL    HW218753   5.723  11.402   8.432
39577SOL     OW18754   5.605  11.540   8.095
39577SOL    HW118755   5.523  11.583   8.134
39577SOL    HW218756   5.577  11.467   8.032
39578SOL     OW18757   6.155  12.447   8.613
39578SOL    HW118758   6.062  12.440   8.576
39578SOL    HW218759   6.166  12.536   8.657
39579SOL     OW18760   7.141  12.683   8.151
39579SOL    HW118761   7.084  12.667   8.232
39579SOL    HW218762   7.082  12.693   8.071
39580SOL     OW18763   6.721  11.875   8.165
39580SOL    HW118764   6.778  11.953   8.140
39580SOL    HW218765   6.661  11.901   8.241
39581SOL     OW18766   7.341  11.779   7.679
39581SOL    HW118767   7.329  11.766   7.580
39581SOL    HW218768   7.311  11.698   7.728
39582SOL     OW18769   6.354  12.316   8.471
39582SOL    HW118770   6.276  12.333   8.531
39582SOL    HW218771   6.388  12.403   8.435
39583SOL     OW18772   6.436  11.970   9.271
39583SOL    HW118773   6.432  12.046   9.336
39583SOL    HW218774   6.458  12.006   9.180
39584SOL     OW18775   6.271  12.184   8.113
39584SOL    HW118776   6.340  12.168   8.183
39584SOL    HW218777   6.198  12.241   8.151
39585SOL     OW18778   6.272  12.333   9.251
39585SOL    HW118779   6.332  12.412   9.265
39585SOL    HW218780   6.186  12.364   9.210
39586SOL     OW18781   5.921  12.607   8.509
39586SOL    HW118782   5.843  12.576   8.456
39586SOL    HW218783   5.979  12.665   8.452
39587SOL     OW18784   7.046  12.677   8.787
39587SOL    HW118785   7.070  12.771   8.813
39587SOL    HW218786   7.030  12.623   8.869
39588SOL     OW18787   6.024  11.564   8.947
39588SOL    HW118788   6.106  11.508   8.956
39588SOL    HW218789   5.943  11.506   8.951
39589SOL     OW18790   7.189  11.619   8.185
39589SOL    HW118791   7.115  11.665   8.135
39589SOL    HW218792   7.240  11.687   8.238
39590SOL     OW18793   6.713  12.513   9.138
39590SOL    HW118794   6.760  12.513   9.226
39590SOL    HW218795   6.665  12.426   9.127
39591SOL     OW18796   5.816  12.606   7.986
39591SOL    HW118797   5.790  12.702   7.986
39591SOL    HW218798   5.745  12.552   8.031
39592SOL     OW18799   5.826  12.263   8.334
39592SOL    HW118800   5.840  12.179   8.386
39592SOL    HW218801   5.771  12.327   8.389
39593SOL     OW18802   6.192  12.136   7.571
39593SOL    HW118803   6.199  12.220   7.517
39593SOL    HW218804   6.238  12.149   7.659
39594SOL     OW18805   7.180  11.286   8.928
39594SOL    HW118806   7.162  11.353   8.856
39594SOL    HW218807   7.177  11.332   9.017
39595SOL     OW18808   5.708  11.815   8.011
39595SOL    HW118809   5.663  11.727   8.028
39595SOL    HW218810   5.707  11.869   8.095
39596SOL     OW18811   5.613  12.768   7.565
39596SOL    HW118812   5.594  12.672   7.586
39596SOL    HW218813   5.580  12.826   7.640
39597SOL     OW18814   7.275  12.094   8.060
39597SOL    HW118815   7.370  12.065   8.068
39597SOL    HW218816   7.267  12.159   7.985
39598SOL     OW18817   7.227  12.280   7.880
39598SOL    HW118818   7.313  12.282   7.828
39598SOL    HW218819   7.241  12.327   7.968
39599SOL     OW18820   5.699  11.909   9.045
39599SOL    HW118821   5.787  11.896   9.090
39599SOL    HW218822   5.686  12.006   9.023
39600SOL     OW18823   6.199  12.537   8.174
39600SOL    HW118824   6.150  12.450   8.183
39600SOL    HW218825   6.176  12.580   8.087
39601SOL     OW18826   6.879  12.400   8.871
39601SOL    HW118827   6.916  12.327   8.813
39601SOL    HW218828   6.931  12.405   8.956
39602SOL     OW18829   6.395  11.176   7.950
39602SOL    HW118830   6.435  11.267   7.941
39602SOL    HW218831   6.295  11.184   7.956
39603SOL     OW18832   5.783  12.148   8.712
39603SOL    HW118833   5.872  12.103   8.698
39603SOL    HW218834   5.710  12.083   8.693
39604SOL     OW18835   7.111  12.171   7.638
39604SOL    HW118836   7.048  12.095   7.651
39604SOL    HW218837   7.159  12.189   7.724
39605SOL     OW18838   5.903  11.423   9.249
39605SOL    HW118839   5.974  11.494   9.255
39605SOL    HW218840   5.815  11.462   9.277
39606SOL     OW18841   7.052  12.589   8.401
39606SOL    HW118842   6.993  12.595   8.481
39606SOL    HW218843   7.037  12.501   8.355
39607SOL     OW18844   6.184  11.901   7.718
39607SOL    HW118845   6.208  11.970   7.650
39607SOL    HW218846   6.106  11.934   7.772
39608SOL     OW18847   6.867  11.517   8.392
39608SOL    HW118848   6.781  11.467   8.379
39608SOL    HW218849   6.929  11.463   8.448
39609SOL     OW18850   7.162  12.834   7.755
39609SOL    HW118851   7.251  12.880   7.758
39609SOL    HW218852   7.141  12.810   7.660
39610SOL     OW18853   6.393  11.777   8.913
39610SOL    HW118854   6.346  11.774   9.002
39610SOL    HW218855   6.342  11.722   8.847
39611SOL     OW18856   6.980  11.641   9.122
39611SOL    HW118857   6.960  11.684   9.210
39611SOL    HW218858   7.058  11.579   9.131
39612SOL     OW18859   6.559  12.062   9.020
39612SOL    HW118860   6.605  11.978   8.991
39612SOL    HW218861   6.503  12.096   8.945
39613SOL     OW18862   6.577  11.582   8.690
39613SOL    HW118863   6.500  11.616   8.744
39613SOL    HW218864   6.543  11.531   8.611
39614SOL     OW18865   6.627  11.873   7.877
39614SOL    HW118866   6.653  11.869   7.973
39614SOL    HW218867   6.542  11.822   7.863
39615SOL     OW18868   5.662  11.983   8.237
39615SOL    HW118869   5.761  11.971   8.246
39615SOL    HW218870   5.638  12.078   8.258
39616SOL     OW18871   6.451  11.520   7.643
39616SOL    HW118872   6.510  11.583   7.594
39616SOL    HW218873   6.470  11.426   7.614
39617SOL     OW18874   7.305  11.757   9.279
39617SOL    HW118875   7.279  11.846   9.243
39617SOL    HW218876   7.303  11.689   9.206
39618SOL     OW18877   6.948  12.316   7.993
39618SOL    HW118878   7.031  12.287   7.945
39618SOL    HW218879   6.899  12.383   7.937
39619SOL     OW18880   6.136  11.368   8.333
39619SOL    HW118881   6.131  11.363   8.433
39619SOL    HW218882   6.138  11.464   8.304
39620SOL     OW18883   6.594  12.628   7.925
39620SOL    HW118884   6.548  12.700   7.873
39620SOL    HW218885   6.590  12.648   8.023
39621SOL     OW18886   7.381  12.238   8.321
39621SOL    HW118887   7.319  12.223   8.245
39621SOL    HW218888   7.329  12.249   8.406
39622SOL     OW18889   6.813  12.722   8.954
39622SOL    HW118890   6.819  12.645   9.018
39622SOL    HW218891   6.761  12.696   8.874
39623SOL     OW18892   5.907  12.115   7.690
39623SOL    HW118893   5.989  12.154   7.648
39623SOL    HW218894   5.880  12.033   7.641
39624SOL     OW18895   7.044  11.907   8.176
39624SOL    HW118896   7.039  11.842   8.251
39624SOL    HW218897   7.124  11.966   8.189
39625SOL     OW18898   6.047  12.438   9.175
39625SOL    HW118899   5.997  12.439   9.089
39625SOL    HW218900   5.984  12.420   9.251
39626SOL     OW18901   5.788  11.457   8.946
39626SOL    HW118902   5.708  11.517   8.933
39626SOL    HW218903   5.778  11.408   9.032
39627SOL     OW18904   7.218  12.549   7.529
39627SOL    HW118905   7.186  12.643   7.519
39627SOL    HW218906   7.142  12.486   7.517
39628SOL     OW18907   6.986  11.279   7.874
39628SOL    HW118908   6.962  11.242   7.784
39628SOL    HW218909   7.085  11.295   7.878
39629SOL     OW18910   5.968  11.872   7.928
39629SOL    HW118911   6.013  11.782   7.925
39629SOL    HW218912   5.874  11.861   7.961
39630SOL     OW18913   7.133  11.394   9.177
39630SOL    HW118914   7.128  11.431   9.269
39630SOL    HW218915   7.061  11.325   9.165
39631SOL     OW18916   6.200  11.294   7.565
39631SOL    HW118917   6.298  11.272   7.572
39631SOL    HW218918   6.169  11.277   7.472
39632SOL     OW18919   6.367  11.436   9.197
39632SOL    HW118920   6.434  11.375   9.240
39632SOL    HW218921   6.294  11.455   9.262
39633SOL     OW18922   6.937  11.762   8.881
39633SOL    HW118923   6.965  11.719   8.966
39633SOL    HW218924   6.962  11.858   8.882
39634SOL     OW18925   6.389  12.574   8.372
39634SOL    HW118926   6.479  12.588   8.330
39634SOL    HW218927   6.318  12.576   8.301
39635SOL     OW18928   6.508  11.675   8.347
39635SOL    HW118929   6.483  11.666   8.251
39635SOL    HW218930   6.556  11.593   8.378
39636SOL     OW18931   6.125  11.236   7.960
39636SOL    HW118932   6.044  11.237   8.018
39636SOL    HW218933   6.128  11.319   7.905
39637SOL     OW18934   7.020  12.360   7.489
39637SOL    HW118935   7.052  12.284   7.546
39637SOL    HW218936   6.928  12.387   7.519
39638SOL     OW18937   5.883  11.207   7.619
39638SOL    HW118938   5.932  11.291   7.598
39638SOL    HW218939   5.945  11.142   7.664
39639SOL     OW18940   6.521  11.408   7.928
39639SOL    HW118941   6.473  11.449   7.850
39639SOL    HW218942   6.620  11.406   7.909
39640SOL     OW18943   6.662  11.855   8.912
39640SOL    HW118944   6.582  11.794   8.915
39640SOL    HW218945   6.743  11.802   8.888
39641SOL     OW18946   6.813  12.742   8.241
39641SOL    HW118947   6.834  12.816   8.176
39641SOL    HW218948   6.881  12.742   8.314
39642SOL     OW18949   6.045  12.324   8.189
39642SOL    HW118950   5.974  12.297   8.254
39642SOL    HW218951   6.019  12.296   8.096
39643SOL     OW18952   6.618  11.721   7.464
39643SOL    HW118953   6.577  11.803   7.425
39643SOL    HW218954   6.682  11.747   7.537
39644SOL     OW18955   5.664  11.728   8.834
39644SOL    HW118956   5.756  11.727   8.793
39644SOL    HW218957   5.658  11.802   8.901
39645SOL     OW18958   6.147  11.394   8.595
39645SOL    HW118959   6.185  11.310   8.632
39645SOL    HW218960   6.059  11.413   8.639
39646SOL     OW18961   6.452  11.626   8.090
39646SOL    HW118962   6.420  11.698   8.028
39646SOL    HW218963   6.476  11.545   8.037
39647SOL     OW18964   6.603  11.211   8.201
39647SOL    HW118965   6.531  11.216   8.132
39647SOL    HW218966   6.579  11.142   8.270
39648SOL     OW18967   7.015  12.345   8.315
39648SOL    HW118968   6.960  12.261   8.308
39648SOL    HW218969   7.041  12.374   8.223
39649SOL     OW18970   7.052  11.762   8.440
39649SOL    HW118971   7.022  11.667   8.447
39649SOL    HW218972   7.125  11.778   8.506
39650SOL     OW18973   7.443  12.005   7.825
39650SOL    HW118974   7.485  11.941   7.889
39650SOL    HW218975   7.405  11.954   7.747
39651SOL     OW18976   6.074  12.557   7.622
39651SOL    HW118977   5.987  12.542   7.669
39651SOL    HW218978   6.057  12.583   7.527
39652SOL     OW18979   7.250  12.452   8.105
39652SOL    HW118980   7.349  12.460   8.119
39652SOL    HW218981   7.205  12.536   8.136
39653SOL     OW18982   6.976  11.747   7.526
39653SOL    HW118983   6.922  11.726   7.607
39653SOL    HW218984   7.067  11.706   7.535
39654SOL     OW18985   6.113  11.428   7.776
39654SOL    HW118986   6.140  11.369   7.701
39654SOL    HW218987   6.113  11.523   7.745
39655SOL     OW18988   7.340  12.395   9.036
39655SOL    HW118989   7.431  12.356   9.023
39655SOL    HW218990   7.348  12.491   9.060
39656SOL     OW18991   6.650  12.519   8.788
39656SOL    HW118992   6.570  12.496   8.843
39656SOL    HW218993   6.733  12.493   8.837
39657SOL     OW18994   6.697  12.367   8.548
39657SOL    HW118995   6.657  12.411   8.629
39657SOL    HW218996   6.656  12.404   8.465
39658SOL     OW18997   7.224  12.271   8.527
39658SOL    HW118998   7.229  12.352   8.586
39658SOL    HW218999   7.138  12.273   8.476
39659SOL     OW19000   6.501  11.261   8.850
39659SOL    HW119001   6.526  11.241   8.755
39659SOL    HW219002   6.573  11.317   8.892
39660SOL     OW19003   6.566  12.288   9.167
39660SOL    HW119004   6.467  12.294   9.177
39660SOL    HW219005   6.589  12.208   9.111
39661SOL     OW19006   6.291  12.222   7.816
39661SOL    HW119007   6.277  12.229   7.915
39661SOL    HW219008   6.375  12.171   7.798
39662SOL     OW19009   5.996  11.985   8.699
39662SOL    HW119010   6.082  11.997   8.749
39662SOL    HW219011   5.954  11.898   8.726
39663SOL     OW19012   6.860  11.558   8.710
39663SOL    HW119013   6.881  11.632   8.774
39663SOL    HW219014   6.771  11.575   8.667
39664SOL     OW19015   5.650  12.736   8.779
39664SOL    HW119016   5.604  12.818   8.745
39664SOL    HW219017   5.748  12.755   8.788
39665SOL     OW19018   5.953  12.272   7.949
39665SOL    HW119019   5.946  12.355   7.893
39665SOL    HW219020   5.957  12.192   7.889
39666SOL     OW19021   6.152  11.709   8.313
39666SOL    HW119022   6.164  11.775   8.239
39666SOL    HW219023   6.198  11.743   8.396
39667SOL     OW19024   6.838  12.520   7.836
39667SOL    HW119025   6.888  12.597   7.876
39667SOL    HW219026   6.743  12.522   7.868
39668SOL     OW19027   6.858  12.617   8.590
39668SOL    HW119028   6.905  12.630   8.677
39668SOL    HW219029   6.792  12.543   8.599
39669SOL     OW19030   7.168  11.811   7.920
39669SOL    HW119031   7.137  11.872   7.993
39669SOL    HW219032   7.218  11.863   7.851
39670SOL     OW19033   5.940  12.682   8.777
39670SOL    HW119034   5.919  12.638   8.690
39670SOL    HW219035   6.037  12.708   8.780
39671SOL     OW19036   5.988  11.923   9.046
39671SOL    HW119037   6.056  11.978   8.999
39671SOL    HW219038   6.028  11.835   9.073
39672SOL     OW19039   7.173  11.951   9.118
39672SOL    HW119040   7.081  11.989   9.113
39672SOL    HW219041   7.233  11.998   9.053
39673SOL     OW19042   6.599  11.277   9.218
39673SOL    HW119043   6.605  11.362   9.166
39673SOL    HW219044   6.631  11.201   9.161
39674SOL     OW19045   6.090  11.222   9.188
39674SOL    HW119046   6.048  11.165   9.118
39674SOL    HW219047   6.024  11.291   9.220
39675SOL     OW19048   6.159  12.042   8.477
39675SOL    HW119049   6.203  12.131   8.468
39675SOL    HW219050   6.096  12.042   8.554
39676SOL     OW19051   6.946  12.034   8.493
39676SOL    HW119052   6.871  12.034   8.427
39676SOL    HW219053   6.983  11.942   8.502
39677SOL     OW19054   6.795  11.697   7.723
39677SOL    HW119055   6.808  11.613   7.777
39677SOL    HW219056   6.766  11.771   7.783
39678SOL     OW19057   5.893  11.385   8.679
39678SOL    HW119058   5.870  11.422   8.769
39678SOL    HW219059   5.863  11.290   8.673
39679SOL     OW19060   5.623  12.482   8.730
39679SOL    HW119061   5.676  12.433   8.798
39679SOL    HW219062   5.645  12.580   8.735
39680SOL     OW19063   6.318  11.806   8.512
39680SOL    HW119064   6.377  11.780   8.436
39680SOL    HW219065   6.290  11.902   8.501
39681SOL     OW19066   7.314  12.107   9.302
39681SOL    HW119067   7.268  12.100   9.213
39681SOL    HW219068   7.252  12.151   9.368
39682SOL     OW19069   5.893  11.235   8.066
39682SOL    HW119070   5.882  11.329   8.099
39682SOL    HW219071   5.888  11.172   8.143
39683SOL     OW19072   7.208  11.539   7.822
39683SOL    HW119073   7.210  11.463   7.886
39683SOL    HW219074   7.160  11.616   7.862
39684SOL     OW19075   6.609  11.938   8.414
39684SOL    HW119076   6.624  11.959   8.510
39684SOL    HW219077   6.579  11.843   8.405
39685SOL     OW19078   7.445  12.690   9.053
39685SOL    HW119079   7.459  12.717   8.958
39685SOL    HW219080   7.528  12.712   9.106
39686SOL     OW19081   5.936  12.070   9.252
39686SOL    HW119082   6.012  12.114   9.300
39686SOL    HW219083   5.971  12.023   9.170
39687SOL     OW19084   7.126  11.446   7.573
39687SOL    HW119085   7.065  11.371   7.596
39687SOL    HW219086   7.148  11.498   7.656
39688SOL     OW19087   6.889  12.010   7.490
39688SOL    HW119088   6.923  11.917   7.505
39688SOL    HW219089   6.907  12.037   7.395
39689SOL     OW19090   6.654  12.505   8.297
39689SOL    HW119091   6.661  12.421   8.242
39689SOL    HW219092   6.716  12.574   8.261
39690SOL     OW19093   5.905  11.982   8.397
39690SOL    HW119094   5.998  12.018   8.402
39690SOL    HW219095   5.899  11.897   8.449
39691SOL     OW19096   5.925  11.681   8.454
39691SOL    HW119097   5.873  11.598   8.437
39691SOL    HW219098   6.002  11.686   8.390
39692SOL     OW19099   6.724  11.552   9.126
39692SOL    HW119100   6.679  11.615   9.190
39692SOL    HW219101   6.817  11.583   9.109
39693SOL     OW19102   6.746  11.379   8.925
39693SOL    HW119103   6.746  11.443   9.002
39693SOL    HW219104   6.774  11.427   8.842
39694SOL     OW19105   5.594  12.498   7.648
39694SOL    HW119106   5.501  12.519   7.617
39694SOL    HW219107   5.604  12.399   7.661
39695SOL     OW19108   6.090  12.740   8.358
39695SOL    HW119109   6.156  12.814   8.367
39695SOL    HW219110   6.134  12.661   8.316
39696SOL     OW19111   6.588  11.968   8.686
39696SOL    HW119112   6.629  11.936   8.772
39696SOL    HW219113   6.492  11.941   8.683
39697SOL     OW19114   5.626  11.716   8.562
39697SOL    HW119115   5.711  11.683   8.521
39697SOL    HW219116   5.639  11.731   8.660
39698SOL     OW19117   5.775  11.692   9.170
39698SOL    HW119118   5.834  11.652   9.100
39698SOL    HW219119   5.717  11.763   9.129
39699SOL     OW19120   6.955  12.122   9.108
39699SOL    HW119121   6.994  12.211   9.128
39699SOL    HW219122   6.965  12.102   9.011
39700SOL     OW19123   6.401  11.744   7.773
39700SOL    HW119124   6.408  11.655   7.727
39700SOL    HW219125   6.307  11.778   7.765
39701SOL     OW19126   7.243  11.776   8.654
39701SOL    HW119127   7.205  11.707   8.716
39701SOL    HW219128   7.325  11.740   8.610
39702SOL     OW19129   5.838  12.736   9.192
39702SOL    HW119130   5.808  12.793   9.268
39702SOL    HW219131   5.831  12.639   9.218
39703SOL     OW19132   6.257  11.636   8.717
39703SOL    HW119133   6.223  11.547   8.687
39703SOL    HW219134   6.283  11.690   8.637
39704SOL     OW19135   6.059  11.672   7.639
39704SOL    HW119136   6.120  11.752   7.643
39704SOL    HW219137   5.964  11.703   7.646
39705SOL     OW19138   5.745  12.309   8.914
39705SOL    HW119139   5.767  12.248   8.990
39705SOL    HW219140   5.755  12.260   8.828
39706SOL     OW19141   6.933  12.231   8.682
39706SOL    HW119142   6.957  12.168   8.608
39706SOL    HW219143   6.843  12.271   8.664
39707SOL     OW19144   6.888  12.027   7.757
39707SOL    HW119145   6.802  11.996   7.799
39707SOL    HW219146   6.884  12.013   7.658
39708SOL     OW19147   6.838  12.903   8.576
39708SOL    HW119148   6.922  12.908   8.522
39708SOL    HW219149   6.815  12.807   8.594
39709SOL     OW19150   5.669  12.430   8.470
39709SOL    HW119151   5.664  12.429   8.570
39709SOL    HW219152   5.586  12.389   8.432
39710SOL     OW19153   7.312  11.307   7.971
39710SOL    HW119154   7.385  11.290   7.904
39710SOL    HW219155   7.281  11.220   8.009
39711SOL     OW19156   5.716  12.966   9.299
39711SOL    HW119157   5.675  12.892   9.352
39711SOL    HW219158   5.780  13.017   9.357
39712SOL     OW19159   6.866  12.099   8.120
39712SOL    HW119160   6.926  12.018   8.122
39712SOL    HW219161   6.906  12.168   8.060
39713SOL     OW19162   6.416  12.445   8.870
39713SOL    HW119163   6.411  12.478   8.965
39713SOL    HW219164   6.330  12.464   8.824
39714SOL     OW19165   6.258  12.788   7.602
39714SOL    HW119166   6.267  12.798   7.503
39714SOL    HW219167   6.218  12.699   7.623
39715SOL     OW19168   7.427  11.347   8.411
39715SOL    HW119169   7.466  11.262   8.375
39715SOL    HW219170   7.329  11.349   8.392
39716SOL     OW19171   5.849  11.498   8.168
39716SOL    HW119172   5.770  11.549   8.134
39716SOL    HW219173   5.840  11.483   8.266
39717SOL     OW19174   6.780  12.784   7.479
39717SOL    HW119175   6.786  12.691   7.516
39717SOL    HW219176   6.721  12.784   7.399
39718SOL     OW19177   6.408  12.174   8.820
39718SOL    HW119178   6.448  12.173   8.728
39718SOL    HW219179   6.418  12.266   8.860
39719SOL     OW19180   6.502  12.082   7.739
39719SOL    HW119181   6.565  12.120   7.671
39719SOL    HW219182   6.542  11.999   7.778
39720SOL     OW19183   5.958  12.460   8.938
39720SOL    HW119184   5.945  12.553   8.904
39720SOL    HW219185   5.874  12.408   8.925
39721SOL     OW19186   7.200  12.464   8.737
39721SOL    HW119187   7.260  12.467   8.817
39721SOL    HW219188   7.125  12.528   8.750
39722SOL     OW19189   6.625  12.270   8.144
39722SOL    HW119190   6.555  12.223   8.198
39722SOL    HW219191   6.684  12.202   8.101
39723SOL     OW19192   6.600  11.408   8.419
39723SOL    HW119193   6.592  11.372   8.326
39723SOL    HW219194   6.598  11.332   8.484
39724SOL     OW19195   6.176  12.659   7.939
39724SOL    HW119196   6.218  12.601   7.869
39724SOL    HW219197   6.132  12.738   7.895
39725SOL     OW19198   7.295  11.557   8.829
39725SOL    HW119199   7.368  11.626   8.833
39725SOL    HW219200   7.323  11.482   8.770
39726SOL     OW19201   5.841  12.520   7.738
39726SOL    HW119202   5.745  12.521   7.711
39726SOL    HW219203   5.853  12.573   7.822
39727SOL     OW19204   5.691  12.185   9.174
39727SOL    HW119205   5.614  12.152   9.228
39727SOL    HW219206   5.776  12.155   9.216
39728SOL     OW19207   6.258  11.375   8.937
39728SOL    HW119208   6.348  11.359   8.897
39728SOL    HW219209   6.266  11.380   9.036
39729SOL     OW19210   5.661  11.517   7.481
39729SOL    HW119211   5.569  11.489   7.452
39729SOL    HW219212   5.692  11.594   7.425
39730SOL     OW19213   7.026  12.028   8.846
39730SOL    HW119214   6.969  12.080   8.783
39730SOL    HW219215   7.122  12.040   8.822
39731SOL     OW19216   5.658  11.338   7.766
39731SOL    HW119217   5.641  11.421   7.712
39731SOL    HW219218   5.748  11.301   7.744
39732SOL     OW19219   6.769  12.507   7.567
39732SOL    HW119220   6.670  12.496   7.569
39732SOL    HW219221   6.803  12.522   7.660
39733SOL     OW19222   6.199  12.014   8.879
39733SOL    HW119223   6.255  12.095   8.862
39733SOL    HW219224   6.258  11.934   8.882
39734SOL     OW19225   6.302  11.737   9.156
39734SOL    HW119226   6.321  11.802   9.230
39734SOL    HW219227   6.362  11.657   9.165
39735SOL     OW19228   7.036  12.392   9.081
39735SOL    HW119229   7.027  12.382   9.180
39735SOL    HW219230   7.132  12.385   9.055
39736SOL     OW19231   7.260  12.055   8.702
39736SOL    HW119232   7.233  11.966   8.665
39736SOL    HW219233   7.261  12.123   8.629
39737SOL     OW19234   6.811  11.497   7.897
39737SOL    HW119235   6.876  11.423   7.886
39737SOL    HW219236   6.831  11.547   7.981
39738SOL     OW19237   6.180  11.917   8.100
39738SOL    HW119238   6.230  12.002   8.081
39738SOL    HW219239   6.092  11.919   8.052
39739SOL     OW19240   7.363  11.514   9.090
39739SOL    HW119241   7.346  11.545   8.996
39739SOL    HW219242   7.279  11.477   9.128
39740SOL     OW19243   7.316  12.106   8.965
39740SOL    HW119244   7.354  12.197   8.980
39740SOL    HW219245   7.308  12.089   8.866
39741SOL     OW19246   6.445  12.546   7.464
39741SOL    HW119247   6.399  12.561   7.552
39741SOL    HW219248   6.489  12.631   7.434
39742SOL     OW19249   6.445  12.128   8.309
39742SOL    HW119250   6.499  12.059   8.357
39742SOL    HW219251   6.413  12.197   8.375
39743SOL     OW19252   6.669  12.156   7.535
39743SOL    HW119253   6.646  12.209   7.453
39743SOL    HW219254   6.750  12.100   7.516
39744SOL     OW19255   7.447  12.741   8.299
39744SOL    HW119256   7.376  12.729   8.229
39744SOL    HW219257   7.448  12.662   8.359
39745SOL     OW19258   5.807  12.486   9.292
39745SOL    HW119259   5.742  12.413   9.271
39745SOL    HW219260   5.811  12.500   9.390
39746SOL     OW19261   5.665  12.412   8.101
39746SOL    HW119262   5.664  12.365   8.189
39746SOL    HW219263   5.747  12.384   8.050
39747SOL     OW19264   6.258  12.563   9.072
39747SOL    HW119265   6.180  12.513   9.110
39747SOL    HW219266   6.255  12.658   9.103
39748SOL     OW19267   7.410  11.364   8.675
39748SOL    HW119268   7.406  11.274   8.719
39748SOL    HW219269   7.413  11.353   8.576
39749SOL     OW19270   6.014  11.596   7.968
39749SOL    HW119271   6.044  11.524   7.906
39749SOL    HW219272   5.975  11.556   8.051
39750SOL     OW19273   7.291  12.659   8.552
39750SOL    HW119274   7.198  12.634   8.525
39750SOL    HW219275   7.317  12.609   8.634
39751SOL     OW19276   5.903  11.719   8.728
39751SOL    HW119277   5.941  11.660   8.800
39751SOL    HW219278   5.943  11.693   8.640
39752SOL     OW19279   7.010  11.386   8.560
39752SOL    HW119280   7.062  11.321   8.615
39752SOL    HW219281   6.961  11.449   8.621
39753SOL     OW19282   6.587  11.206   8.602
39753SOL    HW119283   6.524  11.134   8.571
39753SOL    HW219284   6.680  11.170   8.602
39754SOL     OW19285   6.356  12.502   7.749
39754SOL    HW119286   6.310  12.415   7.766
39754SOL    HW219287   6.447  12.499   7.790
39755SOL     OW19288   6.204  12.739   8.732
39755SOL    HW119289   6.199  12.821   8.789
39755SOL    HW219290   6.293  12.736   8.687
39756SOL     OW19291   6.938  11.224   7.616
39756SOL    HW119292   6.973  11.183   7.532
39756SOL    HW219293   6.848  11.186   7.636
39757SOL     OW19294   6.886  11.625   8.139
39757SOL    HW119295   6.827  11.705   8.143
39757SOL    HW219296   6.901  11.590   8.232
39758SOL     OW19297   7.179  11.393   8.330
39758SOL    HW119298   7.095  11.392   8.384
39758SOL    HW219299   7.181  11.476   8.274
39759SOL     OW19300   5.625  12.249   7.748
39759SOL    HW119301   5.724  12.238   7.739
39759SOL    HW219302   5.585  12.163   7.780
39760SOL     OW19303   5.816  11.800   9.423
39760SOL    HW119304   5.723  11.798   9.460
39760SOL    HW219305   5.817  11.761   9.331
39761SOL     OW19306   5.811  11.447  10.306
39761SOL    HW119307   5.846  11.430  10.398
39761SOL    HW219308   5.723  11.402  10.294
39762SOL     OW19309   5.605  11.540   9.957
39762SOL    HW119310   5.523  11.583   9.996
39762SOL    HW219311   5.577  11.467   9.894
39763SOL     OW19312   6.155  12.447  10.475
39763SOL    HW119313   6.062  12.440  10.438
39763SOL    HW219314   6.166  12.536  10.519
39764SOL     OW19315   7.141  12.683  10.013
39764SOL    HW119316   7.084  12.667  10.094
39764SOL    HW219317   7.082  12.693   9.933
39765SOL     OW19318   6.721  11.875  10.027
39765SOL    HW119319   6.778  11.953  10.002
39765SOL    HW219320   6.661  11.901  10.103
39766SOL     OW19321   7.341  11.779   9.541
39766SOL    HW119322   7.329  11.766   9.442
39766SOL    HW219323   7.311  11.698   9.590
39767SOL     OW19324   6.354  12.316  10.333
39767SOL    HW119325   6.276  12.333  10.393
39767SOL    HW219326   6.388  12.403  10.297
39768SOL     OW19327   6.436  11.970  11.133
39768SOL    HW119328   6.432  12.046  11.198
39768SOL    HW219329   6.458  12.006  11.042
39769SOL     OW19330   6.271  12.184   9.975
39769SOL    HW119331   6.340  12.168  10.045
39769SOL    HW219332   6.198  12.241  10.013
39770SOL     OW19333   6.272  12.333  11.113
39770SOL    HW119334   6.332  12.412  11.127
39770SOL    HW219335   6.186  12.364  11.072
39771SOL     OW19336   5.921  12.607  10.371
39771SOL    HW119337   5.843  12.576  10.318
39771SOL    HW219338   5.979  12.665  10.314
39772SOL     OW19339   7.046  12.677  10.649
39772SOL    HW119340   7.070  12.771  10.675
39772SOL    HW219341   7.030  12.623  10.731
39773SOL     OW19342   6.024  11.564  10.809
39773SOL    HW119343   6.106  11.508  10.818
39773SOL    HW219344   5.943  11.506  10.813
39774SOL     OW19345   7.189  11.619  10.047
39774SOL    HW119346   7.115  11.665   9.997
39774SOL    HW219347   7.240  11.687  10.100
39775SOL     OW19348   6.713  12.513  11.000
39775SOL    HW119349   6.760  12.513  11.088
39775SOL    HW219350   6.665  12.426  10.989
39776SOL     OW19351   5.816  12.606   9.848
39776SOL    HW119352   5.790  12.702   9.848
39776SOL    HW219353   5.745  12.552   9.893
39777SOL     OW19354   5.826  12.263  10.196
39777SOL    HW119355   5.840  12.179  10.248
39777SOL    HW219356   5.771  12.327  10.251
39778SOL     OW19357   6.192  12.136   9.433
39778SOL    HW119358   6.199  12.220   9.379
39778SOL    HW219359   6.238  12.149   9.521
39779SOL     OW19360   7.180  11.286  10.790
39779SOL    HW119361   7.162  11.353  10.718
39779SOL    HW219362   7.177  11.332  10.879
39780SOL     OW19363   5.708  11.815   9.873
39780SOL    HW119364   5.663  11.727   9.890
39780SOL    HW219365   5.707  11.869   9.957
39781SOL     OW19366   5.613  12.768   9.427
39781SOL    HW119367   5.594  12.672   9.448
39781SOL    HW219368   5.580  12.826   9.502
39782SOL     OW19369   7.275  12.094   9.922
39782SOL    HW119370   7.370  12.065   9.930
39782SOL    HW219371   7.267  12.159   9.847
39783SOL     OW19372   7.227  12.280   9.742
39783SOL    HW119373   7.313  12.282   9.690
39783SOL    HW219374   7.241  12.327   9.830
39784SOL     OW19375   5.699  11.909  10.907
39784SOL    HW119376   5.787  11.896  10.952
39784SOL    HW219377   5.686  12.006  10.885
39785SOL     OW19378   6.199  12.537  10.036
39785SOL    HW119379   6.150  12.450  10.045
39785SOL    HW219380   6.176  12.580   9.949
39786SOL     OW19381   6.879  12.400  10.733
39786SOL    HW119382   6.916  12.327  10.675
39786SOL    HW219383   6.931  12.405  10.818
39787SOL     OW19384   6.395  11.176   9.812
39787SOL    HW119385   6.435  11.267   9.803
39787SOL    HW219386   6.295  11.184   9.818
39788SOL     OW19387   5.783  12.148  10.574
39788SOL    HW119388   5.872  12.103  10.560
39788SOL    HW219389   5.710  12.083  10.555
39789SOL     OW19390   7.111  12.171   9.500
39789SOL    HW119391   7.048  12.095   9.513
39789SOL    HW219392   7.159  12.189   9.586
39790SOL     OW19393   5.903  11.423  11.111
39790SOL    HW119394   5.974  11.494  11.117
39790SOL    HW219395   5.815  11.462  11.139
39791SOL     OW19396   7.052  12.589  10.263
39791SOL    HW119397   6.993  12.595  10.343
39791SOL    HW219398   7.037  12.501  10.217
39792SOL     OW19399   6.184  11.901   9.580
39792SOL    HW119400   6.208  11.970   9.512
39792SOL    HW219401   6.106  11.934   9.634
39793SOL     OW19402   6.867  11.517  10.254
39793SOL    HW119403   6.781  11.467  10.241
39793SOL    HW219404   6.929  11.463  10.310
39794SOL     OW19405   7.162  12.834   9.617
39794SOL    HW119406   7.251  12.880   9.620
39794SOL    HW219407   7.141  12.810   9.522
39795SOL     OW19408   6.393  11.777  10.775
39795SOL    HW119409   6.346  11.774  10.864
39795SOL    HW219410   6.342  11.722  10.709
39796SOL     OW19411   6.980  11.641  10.984
39796SOL    HW119412   6.960  11.684  11.072
39796SOL    HW219413   7.058  11.579  10.993
39797SOL     OW19414   6.559  12.062  10.882
39797SOL    HW119415   6.605  11.978  10.853
39797SOL    HW219416   6.503  12.096  10.807
39798SOL     OW19417   6.577  11.582  10.552
39798SOL    HW119418   6.500  11.616  10.606
39798SOL    HW219419   6.543  11.531  10.473
39799SOL     OW19420   6.627  11.873   9.739
39799SOL    HW119421   6.653  11.869   9.835
39799SOL    HW219422   6.542  11.822   9.725
39800SOL     OW19423   5.662  11.983  10.099
39800SOL    HW119424   5.761  11.971  10.108
39800SOL    HW219425   5.638  12.078  10.120
39801SOL     OW19426   6.451  11.520   9.505
39801SOL    HW119427   6.510  11.583   9.456
39801SOL    HW219428   6.470  11.426   9.476
39802SOL     OW19429   7.305  11.757  11.141
39802SOL    HW119430   7.279  11.846  11.105
39802SOL    HW219431   7.303  11.689  11.068
39803SOL     OW19432   6.948  12.316   9.855
39803SOL    HW119433   7.031  12.287   9.807
39803SOL    HW219434   6.899  12.383   9.799
39804SOL     OW19435   6.136  11.368  10.195
39804SOL    HW119436   6.131  11.363  10.295
39804SOL    HW219437   6.138  11.464  10.166
39805SOL     OW19438   6.594  12.628   9.787
39805SOL    HW119439   6.548  12.700   9.735
39805SOL    HW219440   6.590  12.648   9.885
39806SOL     OW19441   7.381  12.238  10.183
39806SOL    HW119442   7.319  12.223  10.107
39806SOL    HW219443   7.329  12.249  10.268
39807SOL     OW19444   6.813  12.722  10.816
39807SOL    HW119445   6.819  12.645  10.880
39807SOL    HW219446   6.761  12.696  10.736
39808SOL     OW19447   5.907  12.115   9.552
39808SOL    HW119448   5.989  12.154   9.510
39808SOL    HW219449   5.880  12.033   9.503
39809SOL     OW19450   7.044  11.907  10.038
39809SOL    HW119451   7.039  11.842  10.113
39809SOL    HW219452   7.124  11.966  10.051
39810SOL     OW19453   6.047  12.438  11.037
39810SOL    HW119454   5.997  12.439  10.951
39810SOL    HW219455   5.984  12.420  11.113
39811SOL     OW19456   5.788  11.457  10.808
39811SOL    HW119457   5.708  11.517  10.795
39811SOL    HW219458   5.778  11.408  10.894
39812SOL     OW19459   7.218  12.549   9.391
39812SOL    HW119460   7.186  12.643   9.381
39812SOL    HW219461   7.142  12.486   9.379
39813SOL     OW19462   6.986  11.279   9.736
39813SOL    HW119463   6.962  11.242   9.646
39813SOL    HW219464   7.085  11.295   9.740
39814SOL     OW19465   5.968  11.872   9.790
39814SOL    HW119466   6.013  11.782   9.787
39814SOL    HW219467   5.874  11.861   9.823
39815SOL     OW19468   7.133  11.394  11.039
39815SOL    HW119469   7.128  11.431  11.131
39815SOL    HW219470   7.061  11.325  11.027
39816SOL     OW19471   6.200  11.294   9.427
39816SOL    HW119472   6.298  11.272   9.434
39816SOL    HW219473   6.169  11.277   9.334
39817SOL     OW19474   6.367  11.436  11.059
39817SOL    HW119475   6.434  11.375  11.102
39817SOL    HW219476   6.294  11.455  11.124
39818SOL     OW19477   6.937  11.762  10.743
39818SOL    HW119478   6.965  11.719  10.828
39818SOL    HW219479   6.962  11.858  10.744
39819SOL     OW19480   6.389  12.574  10.234
39819SOL    HW119481   6.479  12.588  10.192
39819SOL    HW219482   6.318  12.576  10.163
39820SOL     OW19483   6.508  11.675  10.209
39820SOL    HW119484   6.483  11.666  10.113
39820SOL    HW219485   6.556  11.593  10.240
39821SOL     OW19486   6.125  11.236   9.822
39821SOL    HW119487   6.044  11.237   9.880
39821SOL    HW219488   6.128  11.319   9.767
39822SOL     OW19489   7.020  12.360   9.351
39822SOL    HW119490   7.052  12.284   9.408
39822SOL    HW219491   6.928  12.387   9.381
39823SOL     OW19492   5.883  11.207   9.481
39823SOL    HW119493   5.932  11.291   9.460
39823SOL    HW219494   5.945  11.142   9.526
39824SOL     OW19495   6.521  11.408   9.790
39824SOL    HW119496   6.473  11.449   9.712
39824SOL    HW219497   6.620  11.406   9.771
39825SOL     OW19498   6.662  11.855  10.774
39825SOL    HW119499   6.582  11.794  10.777
39825SOL    HW219500   6.743  11.802  10.750
39826SOL     OW19501   6.813  12.742  10.103
39826SOL    HW119502   6.834  12.816  10.038
39826SOL    HW219503   6.881  12.742  10.176
39827SOL     OW19504   6.045  12.324  10.051
39827SOL    HW119505   5.974  12.297  10.116
39827SOL    HW219506   6.019  12.296   9.958
39828SOL     OW19507   6.618  11.721   9.326
39828SOL    HW119508   6.577  11.803   9.287
39828SOL    HW219509   6.682  11.747   9.399
39829SOL     OW19510   5.664  11.728  10.696
39829SOL    HW119511   5.756  11.727  10.655
39829SOL    HW219512   5.658  11.802  10.763
39830SOL     OW19513   6.147  11.394  10.457
39830SOL    HW119514   6.185  11.310  10.494
39830SOL    HW219515   6.059  11.413  10.501
39831SOL     OW19516   6.452  11.626   9.952
39831SOL    HW119517   6.420  11.698   9.890
39831SOL    HW219518   6.476  11.545   9.899
39832SOL     OW19519   6.603  11.211  10.063
39832SOL    HW119520   6.531  11.216   9.994
39832SOL    HW219521   6.579  11.142  10.132
39833SOL     OW19522   7.015  12.345  10.177
39833SOL    HW119523   6.960  12.261  10.170
39833SOL    HW219524   7.041  12.374  10.085
39834SOL     OW19525   7.052  11.762  10.302
39834SOL    HW119526   7.022  11.667  10.309
39834SOL    HW219527   7.125  11.778  10.368
39835SOL     OW19528   7.443  12.005   9.687
39835SOL    HW119529   7.485  11.941   9.751
39835SOL    HW219530   7.405  11.954   9.609
39836SOL     OW19531   6.074  12.557   9.484
39836SOL    HW119532   5.987  12.542   9.531
39836SOL    HW219533   6.057  12.583   9.389
39837SOL     OW19534   7.250  12.452   9.967
39837SOL    HW119535   7.349  12.460   9.981
39837SOL    HW219536   7.205  12.536   9.998
39838SOL     OW19537   6.976  11.747   9.388
39838SOL    HW119538   6.922  11.726   9.469
39838SOL    HW219539   7.067  11.706   9.397
39839SOL     OW19540   6.113  11.428   9.638
39839SOL    HW119541   6.140  11.369   9.563
39839SOL    HW219542   6.113  11.523   9.607
39840SOL     OW19543   7.340  12.395  10.898
39840SOL    HW119544   7.431  12.356  10.885
39840SOL    HW219545   7.348  12.491  10.922
39841SOL     OW19546   6.650  12.519  10.650
39841SOL    HW119547   6.570  12.496  10.705
39841SOL    HW219548   6.733  12.493  10.699
39842SOL     OW19549   6.697  12.367  10.410
39842SOL    HW119550   6.657  12.411  10.491
39842SOL    HW219551   6.656  12.404  10.327
39843SOL     OW19552   7.224  12.271  10.389
39843SOL    HW119553   7.229  12.352  10.448
39843SOL    HW219554   7.138  12.273  10.338
39844SOL     OW19555   6.501  11.261  10.712
39844SOL    HW119556   6.526  11.241  10.617
39844SOL    HW219557   6.573  11.317  10.754
39845SOL     OW19558   6.566  12.288  11.029
39845SOL    HW119559   6.467  12.294  11.039
39845SOL    HW219560   6.589  12.208  10.973
39846SOL     OW19561   6.291  12.222   9.678
39846SOL    HW119562   6.277  12.229   9.777
39846SOL    HW219563   6.375  12.171   9.660
39847SOL     OW19564   5.996  11.985  10.561
39847SOL    HW119565   6.082  11.997  10.611
39847SOL    HW219566   5.954  11.898  10.588
39848SOL     OW19567   6.860  11.558  10.572
39848SOL    HW119568   6.881  11.632  10.636
39848SOL    HW219569   6.771  11.575  10.529
39849SOL     OW19570   5.650  12.736  10.641
39849SOL    HW119571   5.604  12.818  10.607
39849SOL    HW219572   5.748  12.755  10.650
39850SOL     OW19573   5.953  12.272   9.811
39850SOL    HW119574   5.946  12.355   9.755
39850SOL    HW219575   5.957  12.192   9.751
39851SOL     OW19576   6.152  11.709  10.175
39851SOL    HW119577   6.164  11.775  10.101
39851SOL    HW219578   6.198  11.743  10.258
39852SOL     OW19579   6.838  12.520   9.698
39852SOL    HW119580   6.888  12.597   9.738
39852SOL    HW219581   6.743  12.522   9.730
39853SOL     OW19582   6.858  12.617  10.452
39853SOL    HW119583   6.905  12.630  10.539
39853SOL    HW219584   6.792  12.543  10.461
39854SOL     OW19585   7.168  11.811   9.782
39854SOL    HW119586   7.137  11.872   9.855
39854SOL    HW219587   7.218  11.863   9.713
39855SOL     OW19588   5.940  12.682  10.639
39855SOL    HW119589   5.919  12.638  10.552
39855SOL    HW219590   6.037  12.708  10.642
39856SOL     OW19591   5.988  11.923  10.908
39856SOL    HW119592   6.056  11.978  10.861
39856SOL    HW219593   6.028  11.835  10.935
39857SOL     OW19594   7.173  11.951  10.980
39857SOL    HW119595   7.081  11.989  10.975
39857SOL    HW219596   7.233  11.998  10.915
39858SOL     OW19597   6.599  11.277  11.080
39858SOL    HW119598   6.605  11.362  11.028
39858SOL    HW219599   6.631  11.201  11.023
39859SOL     OW19600   6.090  11.222  11.050
39859SOL    HW119601   6.048  11.165  10.980
39859SOL    HW219602   6.024  11.291  11.082
39860SOL     OW19603   6.159  12.042  10.339
39860SOL    HW119604   6.203  12.131  10.330
39860SOL    HW219605   6.096  12.042  10.416
39861SOL     OW19606   6.946  12.034  10.355
39861SOL    HW119607   6.871  12.034  10.289
39861SOL    HW219608   6.983  11.942  10.364
39862SOL     OW19609   6.795  11.697   9.585
39862SOL    HW119610   6.808  11.613   9.639
39862SOL    HW219611   6.766  11.771   9.645
39863SOL     OW19612   5.893  11.385  10.541
39863SOL    HW119613   5.870  11.422  10.631
39863SOL    HW219614   5.863  11.290  10.535
39864SOL     OW19615   5.623  12.482  10.592
39864SOL    HW119616   5.676  12.433  10.660
39864SOL    HW219617   5.645  12.580  10.597
39865SOL     OW19618   6.318  11.806  10.374
39865SOL    HW119619   6.377  11.780  10.298
39865SOL    HW219620   6.290  11.902  10.363
39866SOL     OW19621   7.314  12.107  11.164
39866SOL    HW119622   7.268  12.100  11.075
39866SOL    HW219623   7.252  12.151  11.230
39867SOL     OW19624   5.893  11.235   9.928
39867SOL    HW119625   5.882  11.329   9.961
39867SOL    HW219626   5.888  11.172  10.005
39868SOL     OW19627   7.208  11.539   9.684
39868SOL    HW119628   7.210  11.463   9.748
39868SOL    HW219629   7.160  11.616   9.724
39869SOL     OW19630   6.609  11.938  10.276
39869SOL    HW119631   6.624  11.959  10.372
39869SOL    HW219632   6.579  11.843  10.267
39870SOL     OW19633   7.445  12.690  10.915
39870SOL    HW119634   7.459  12.717  10.820
39870SOL    HW219635   7.528  12.712  10.968
39871SOL     OW19636   5.936  12.070  11.114
39871SOL    HW119637   6.012  12.114  11.162
39871SOL    HW219638   5.971  12.023  11.032
39872SOL     OW19639   7.126  11.446   9.435
39872SOL    HW119640   7.065  11.371   9.458
39872SOL    HW219641   7.148  11.498   9.518
39873SOL     OW19642   6.889  12.010   9.352
39873SOL    HW119643   6.923  11.917   9.367
39873SOL    HW219644   6.907  12.037   9.257
39874SOL     OW19645   6.654  12.505  10.159
39874SOL    HW119646   6.661  12.421  10.104
39874SOL    HW219647   6.716  12.574  10.123
39875SOL     OW19648   5.905  11.982  10.259
39875SOL    HW119649   5.998  12.018  10.264
39875SOL    HW219650   5.899  11.897  10.311
39876SOL     OW19651   5.925  11.681  10.316
39876SOL    HW119652   5.873  11.598  10.299
39876SOL    HW219653   6.002  11.686  10.252
39877SOL     OW19654   6.724  11.552  10.988
39877SOL    HW119655   6.679  11.615  11.052
39877SOL    HW219656   6.817  11.583  10.971
39878SOL     OW19657   6.746  11.379  10.787
39878SOL    HW119658   6.746  11.443  10.864
39878SOL    HW219659   6.774  11.427  10.704
39879SOL     OW19660   5.594  12.498   9.510
39879SOL    HW119661   5.501  12.519   9.479
39879SOL    HW219662   5.604  12.399   9.523
39880SOL     OW19663   6.090  12.740  10.220
39880SOL    HW119664   6.156  12.814  10.229
39880SOL    HW219665   6.134  12.661  10.178
39881SOL     OW19666   6.588  11.968  10.548
39881SOL    HW119667   6.629  11.936  10.634
39881SOL    HW219668   6.492  11.941  10.545
39882SOL     OW19669   5.626  11.716  10.424
39882SOL    HW119670   5.711  11.683  10.383
39882SOL    HW219671   5.639  11.731  10.522
39883SOL     OW19672   5.775  11.692  11.032
39883SOL    HW119673   5.834  11.652  10.962
39883SOL    HW219674   5.717  11.763  10.991
39884SOL     OW19675   6.955  12.122  10.970
39884SOL    HW119676   6.994  12.211  10.990
39884SOL    HW219677   6.965  12.102  10.873
39885SOL     OW19678   6.401  11.744   9.635
39885SOL    HW119679   6.408  11.655   9.589
39885SOL    HW219680   6.307  11.778   9.627
39886SOL     OW19681   7.243  11.776  10.516
39886SOL    HW119682   7.205  11.707  10.578
39886SOL    HW219683   7.325  11.740  10.472
39887SOL     OW19684   5.838  12.736  11.054
39887SOL    HW119685   5.808  12.793  11.130
39887SOL    HW219686   5.831  12.639  11.080
39888SOL     OW19687   6.257  11.636  10.579
39888SOL    HW119688   6.223  11.547  10.549
39888SOL    HW219689   6.283  11.690  10.499
39889SOL     OW19690   6.059  11.672   9.501
39889SOL    HW119691   6.120  11.752   9.505
39889SOL    HW219692   5.964  11.703   9.508
39890SOL     OW19693   5.745  12.309  10.776
39890SOL    HW119694   5.767  12.248  10.852
39890SOL    HW219695   5.755  12.260  10.690
39891SOL     OW19696   6.933  12.231  10.544
39891SOL    HW119697   6.957  12.168  10.470
39891SOL    HW219698   6.843  12.271  10.526
39892SOL     OW19699   6.888  12.027   9.619
39892SOL    HW119700   6.802  11.996   9.661
39892SOL    HW219701   6.884  12.013   9.520
39893SOL     OW19702   6.838  12.903  10.438
39893SOL    HW119703   6.922  12.908  10.384
39893SOL    HW219704   6.815  12.807  10.456
39894SOL     OW19705   5.669  12.430  10.332
39894SOL    HW119706   5.664  12.429  10.432
39894SOL    HW219707   5.586  12.389  10.294
39895SOL     OW19708   7.312  11.307   9.833
39895SOL    HW119709   7.385  11.290   9.766
39895SOL    HW219710   7.281  11.220   9.871
39896SOL     OW19711   5.716  12.966  11.161
39896SOL    HW119712   5.675  12.892  11.214
39896SOL    HW219713   5.780  13.017  11.219
39897SOL     OW19714   6.866  12.099   9.982
39897SOL    HW119715   6.926  12.018   9.984
39897SOL    HW219716   6.906  12.168   9.922
39898SOL     OW19717   6.416  12.445  10.732
39898SOL    HW119718   6.411  12.478  10.827
39898SOL    HW219719   6.330  12.464  10.686
39899SOL     OW19720   6.258  12.788   9.464
39899SOL    HW119721   6.267  12.798   9.365
39899SOL    HW219722   6.218  12.699   9.485
39900SOL     OW19723   7.427  11.347  10.273
39900SOL    HW119724   7.466  11.262  10.237
39900SOL    HW219725   7.329  11.349  10.254
39901SOL     OW19726   5.849  11.498  10.030
39901SOL    HW119727   5.770  11.549   9.996
39901SOL    HW219728   5.840  11.483  10.128
39902SOL     OW19729   6.780  12.784   9.341
39902SOL    HW119730   6.786  12.691   9.378
39902SOL    HW219731   6.721  12.784   9.261
39903SOL     OW19732   6.408  12.174  10.682
39903SOL    HW119733   6.448  12.173  10.590
39903SOL    HW219734   6.418  12.266  10.722
39904SOL     OW19735   6.502  12.082   9.601
39904SOL    HW119736   6.565  12.120   9.533
39904SOL    HW219737   6.542  11.999   9.640
39905SOL     OW19738   5.958  12.460  10.800
39905SOL    HW119739   5.945  12.553  10.766
39905SOL    HW219740   5.874  12.408  10.787
39906SOL     OW19741   7.200  12.464  10.599
39906SOL    HW119742   7.260  12.467  10.679
39906SOL    HW219743   7.125  12.528  10.612
39907SOL     OW19744   6.625  12.270  10.006
39907SOL    HW119745   6.555  12.223  10.060
39907SOL    HW219746   6.684  12.202   9.963
39908SOL     OW19747   6.600  11.408  10.281
39908SOL    HW119748   6.592  11.372  10.188
39908SOL    HW219749   6.598  11.332  10.346
39909SOL     OW19750   6.176  12.659   9.801
39909SOL    HW119751   6.218  12.601   9.731
39909SOL    HW219752   6.132  12.738   9.757
39910SOL     OW19753   7.295  11.557  10.691
39910SOL    HW119754   7.368  11.626  10.695
39910SOL    HW219755   7.323  11.482  10.632
39911SOL     OW19756   5.841  12.520   9.600
39911SOL    HW119757   5.745  12.521   9.573
39911SOL    HW219758   5.853  12.573   9.684
39912SOL     OW19759   5.691  12.185  11.036
39912SOL    HW119760   5.614  12.152  11.090
39912SOL    HW219761   5.776  12.155  11.078
39913SOL     OW19762   6.258  11.375  10.799
39913SOL    HW119763   6.348  11.359  10.759
39913SOL    HW219764   6.266  11.380  10.898
39914SOL     OW19765   5.661  11.517   9.343
39914SOL    HW119766   5.569  11.489   9.314
39914SOL    HW219767   5.692  11.594   9.287
39915SOL     OW19768   7.026  12.028  10.708
39915SOL    HW119769   6.969  12.080  10.645
39915SOL    HW219770   7.122  12.040  10.684
39916SOL     OW19771   5.658  11.338   9.628
39916SOL    HW119772   5.641  11.421   9.574
39916SOL    HW219773   5.748  11.301   9.606
39917SOL     OW19774   6.769  12.507   9.429
39917SOL    HW119775   6.670  12.496   9.431
39917SOL    HW219776   6.803  12.522   9.522
39918SOL     OW19777   6.199  12.014  10.741
39918SOL    HW119778   6.255  12.095  10.724
39918SOL    HW219779   6.258  11.934  10.744
39919SOL     OW19780   6.302  11.737  11.018
39919SOL    HW119781   6.321  11.802  11.092
39919SOL    HW219782   6.362  11.657  11.027
39920SOL     OW19783   7.036  12.392  10.943
39920SOL    HW119784   7.027  12.382  11.042
39920SOL    HW219785   7.132  12.385  10.917
39921SOL     OW19786   7.260  12.055  10.564
39921SOL    HW119787   7.233  11.966  10.527
39921SOL    HW219788   7.261  12.123  10.491
39922SOL     OW19789   6.811  11.497   9.759
39922SOL    HW119790   6.876  11.423   9.748
39922SOL    HW219791   6.831  11.547   9.843
39923SOL     OW19792   6.180  11.917   9.962
39923SOL    HW119793   6.230  12.002   9.943
39923SOL    HW219794   6.092  11.919   9.914
39924SOL     OW19795   7.363  11.514  10.952
39924SOL    HW119796   7.346  11.545  10.858
39924SOL    HW219797   7.279  11.477  10.990
39925SOL     OW19798   7.316  12.106  10.827
39925SOL    HW119799   7.354  12.197  10.842
39925SOL    HW219800   7.308  12.089  10.728
39926SOL     OW19801   6.445  12.546   9.326
39926SOL    HW119802   6.399  12.561   9.414
39926SOL    HW219803   6.489  12.631   9.296
39927SOL     OW19804   6.445  12.128  10.171
39927SOL    HW119805   6.499  12.059  10.219
39927SOL    HW219806   6.413  12.197  10.237
39928SOL     OW19807   6.669  12.156   9.397
39928SOL    HW119808   6.646  12.209   9.315
39928SOL    HW219809   6.750  12.100   9.378
39929SOL     OW19810   7.447  12.741  10.161
39929SOL    HW119811   7.376  12.729  10.091
39929SOL    HW219812   7.448  12.662  10.221
39930SOL     OW19813   5.807  12.486  11.154
39930SOL    HW119814   5.742  12.413  11.133
39930SOL    HW219815   5.811  12.500  11.252
39931SOL     OW19816   5.665  12.412   9.963
39931SOL    HW119817   5.664  12.365  10.051
39931SOL    HW219818   5.747  12.384   9.912
39932SOL     OW19819   6.258  12.563  10.934
39932SOL    HW119820   6.180  12.513  10.972
39932SOL    HW219821   6.255  12.658  10.965
39933SOL     OW19822   7.410  11.364  10.537
39933SOL    HW119823   7.406  11.274  10.581
39933SOL    HW219824   7.413  11.353  10.438
39934SOL     OW19825   6.014  11.596   9.830
39934SOL    HW119826   6.044  11.524   9.768
39934SOL    HW219827   5.975  11.556   9.913
39935SOL     OW19828   7.291  12.659  10.414
39935SOL    HW119829   7.198  12.634  10.387
39935SOL    HW219830   7.317  12.609  10.496
39936SOL     OW19831   5.903  11.719  10.590
39936SOL    HW119832   5.941  11.660  10.662
39936SOL    HW219833   5.943  11.693  10.502
39937SOL     OW19834   7.010  11.386  10.422
39937SOL    HW119835   7.062  11.321  10.477
39937SOL    HW219836   6.961  11.449  10.483
39938SOL     OW19837   6.587  11.206  10.464
39938SOL    HW119838   6.524  11.134  10.433
39938SOL    HW219839   6.680  11.170  10.464
39939SOL     OW19840   6.356  12.502   9.611
39939SOL    HW119841   6.310  12.415   9.628
39939SOL    HW219842   6.447  12.499   9.652
39940SOL     OW19843   6.204  12.739  10.594
39940SOL    HW119844   6.199  12.821  10.651
39940SOL    HW219845   6.293  12.736  10.549
39941SOL     OW19846   6.938  11.224   9.478
39941SOL    HW119847   6.973  11.183   9.394
39941SOL    HW219848   6.848  11.186   9.498
39942SOL     OW19849   6.886  11.625  10.001
39942SOL    HW119850   6.827  11.705  10.005
39942SOL    HW219851   6.901  11.590  10.094
39943SOL     OW19852   7.179  11.393  10.192
39943SOL    HW119853   7.095  11.392  10.246
39943SOL    HW219854   7.181  11.476  10.136
39944SOL     OW19855   5.625  12.249   9.610
39944SOL    HW119856   5.724  12.238   9.601
39944SOL    HW219857   5.585  12.163   9.642
39945SOL     OW19858   5.816  11.800  11.285
39945SOL    HW119859   5.723  11.798  11.322
39945SOL    HW219860   5.817  11.761  11.193
39946SOL     OW19861   5.811  11.447  12.168
39946SOL    HW119862   5.846  11.430  12.260
39946SOL    HW219863   5.723  11.402  12.156
39947SOL     OW19864   5.605  11.540  11.819
39947SOL    HW119865   5.523  11.583  11.858
39947SOL    HW219866   5.577  11.467  11.756
39948SOL     OW19867   6.155  12.447  12.337
39948SOL    HW119868   6.062  12.440  12.300
39948SOL    HW219869   6.166  12.536  12.381
39949SOL     OW19870   7.141  12.683  11.875
39949SOL    HW119871   7.084  12.667  11.956
39949SOL    HW219872   7.082  12.693  11.795
39950SOL     OW19873   6.721  11.875  11.889
39950SOL    HW119874   6.778  11.953  11.864
39950SOL    HW219875   6.661  11.901  11.965
39951SOL     OW19876   7.341  11.779  11.403
39951SOL    HW119877   7.329  11.766  11.304
39951SOL    HW219878   7.311  11.698  11.452
39952SOL     OW19879   6.354  12.316  12.195
39952SOL    HW119880   6.276  12.333  12.255
39952SOL    HW219881   6.388  12.403  12.159
39953SOL     OW19882   6.271  12.184  11.837
39953SOL    HW119883   6.340  12.168  11.907
39953SOL    HW219884   6.198  12.241  11.875
39954SOL     OW19885   5.921  12.607  12.233
39954SOL    HW119886   5.843  12.576  12.180
39954SOL    HW219887   5.979  12.665  12.176
39955SOL     OW19888   7.046  12.677  12.511
39955SOL    HW119889   7.070  12.771  12.537
39955SOL    HW219890   7.030  12.623  12.593
39956SOL     OW19891   6.024  11.564  12.671
39956SOL    HW119892   6.106  11.508  12.680
39956SOL    HW219893   5.943  11.506  12.675
39957SOL     OW19894   7.189  11.619  11.909
39957SOL    HW119895   7.115  11.665  11.859
39957SOL    HW219896   7.240  11.687  11.962
39958SOL     OW19897   5.816  12.606  11.710
39958SOL    HW119898   5.790  12.702  11.710
39958SOL    HW219899   5.745  12.552  11.755
39959SOL     OW19900   5.826  12.263  12.058
39959SOL    HW119901   5.840  12.179  12.110
39959SOL    HW219902   5.771  12.327  12.113
39960SOL     OW19903   6.192  12.136  11.295
39960SOL    HW119904   6.199  12.220  11.241
39960SOL    HW219905   6.238  12.149  11.383
39961SOL     OW19906   7.180  11.286  12.652
39961SOL    HW119907   7.162  11.353  12.580
39961SOL    HW219908   7.177  11.332  12.741
39962SOL     OW19909   5.708  11.815  11.735
39962SOL    HW119910   5.663  11.727  11.752
39962SOL    HW219911   5.707  11.869  11.819
39963SOL     OW19912   5.613  12.768  11.289
39963SOL    HW119913   5.594  12.672  11.310
39963SOL    HW219914   5.580  12.826  11.364
39964SOL     OW19915   7.275  12.094  11.784
39964SOL    HW119916   7.370  12.065  11.792
39964SOL    HW219917   7.267  12.159  11.709
39965SOL     OW19918   7.227  12.280  11.604
39965SOL    HW119919   7.313  12.282  11.552
39965SOL    HW219920   7.241  12.327  11.692
39966SOL     OW19921   5.699  11.909  12.769
39966SOL    HW119922   5.787  11.896  12.814
39966SOL    HW219923   5.686  12.006  12.747
39967SOL     OW19924   6.199  12.537  11.898
39967SOL    HW119925   6.150  12.450  11.907
39967SOL    HW219926   6.176  12.580  11.811
39968SOL     OW19927   6.879  12.400  12.595
39968SOL    HW119928   6.916  12.327  12.537
39968SOL    HW219929   6.931  12.405  12.680
39969SOL     OW19930   6.395  11.176  11.674
39969SOL    HW119931   6.435  11.267  11.665
39969SOL    HW219932   6.295  11.184  11.680
39970SOL     OW19933   5.783  12.148  12.436
39970SOL    HW119934   5.872  12.103  12.422
39970SOL    HW219935   5.710  12.083  12.417
39971SOL     OW19936   7.111  12.171  11.362
39971SOL    HW119937   7.048  12.095  11.375
39971SOL    HW219938   7.159  12.189  11.448
39972SOL     OW19939   7.052  12.589  12.125
39972SOL    HW119940   6.993  12.595  12.205
39972SOL    HW219941   7.037  12.501  12.079
39973SOL     OW19942   6.184  11.901  11.442
39973SOL    HW119943   6.208  11.970  11.374
39973SOL    HW219944   6.106  11.934  11.496
39974SOL     OW19945   6.867  11.517  12.116
39974SOL    HW119946   6.781  11.467  12.103
39974SOL    HW219947   6.929  11.463  12.172
39975SOL     OW19948   7.162  12.834  11.479
39975SOL    HW119949   7.251  12.880  11.482
39975SOL    HW219950   7.141  12.810  11.384
39976SOL     OW19951   6.393  11.777  12.637
39976SOL    HW119952   6.346  11.774  12.726
39976SOL    HW219953   6.342  11.722  12.571
39977SOL     OW19954   6.559  12.062  12.744
39977SOL    HW119955   6.605  11.978  12.715
39977SOL    HW219956   6.503  12.096  12.669
39978SOL     OW19957   6.577  11.582  12.414
39978SOL    HW119958   6.500  11.616  12.468
39978SOL    HW219959   6.543  11.531  12.335
39979SOL     OW19960   6.627  11.873  11.601
39979SOL    HW119961   6.653  11.869  11.697
39979SOL    HW219962   6.542  11.822  11.587
39980SOL     OW19963   5.662  11.983  11.961
39980SOL    HW119964   5.761  11.971  11.970
39980SOL    HW219965   5.638  12.078  11.982
39981SOL     OW19966   6.451  11.520  11.367
39981SOL    HW119967   6.510  11.583  11.318
39981SOL    HW219968   6.470  11.426  11.338
39982SOL     OW19969   6.948  12.316  11.717
39982SOL    HW119970   7.031  12.287  11.669
39982SOL    HW219971   6.899  12.383  11.661
39983SOL     OW19972   6.136  11.368  12.057
39983SOL    HW119973   6.131  11.363  12.157
39983SOL    HW219974   6.138  11.464  12.028
39984SOL     OW19975   6.594  12.628  11.649
39984SOL    HW119976   6.548  12.700  11.597
39984SOL    HW219977   6.590  12.648  11.747
39985SOL     OW19978   7.381  12.238  12.045
39985SOL    HW119979   7.319  12.223  11.969
39985SOL    HW219980   7.329  12.249  12.130
39986SOL     OW19981   6.813  12.722  12.678
39986SOL    HW119982   6.819  12.645  12.742
39986SOL    HW219983   6.761  12.696  12.598
39987SOL     OW19984   5.907  12.115  11.414
39987SOL    HW119985   5.989  12.154  11.372
39987SOL    HW219986   5.880  12.033  11.365
39988SOL     OW19987   7.044  11.907  11.900
39988SOL    HW119988   7.039  11.842  11.975
39988SOL    HW219989   7.124  11.966  11.913
39989SOL     OW19990   5.788  11.457  12.670
39989SOL    HW119991   5.708  11.517  12.657
39989SOL    HW219992   5.778  11.408  12.756
39990SOL     OW19993   7.218  12.549  11.253
39990SOL    HW119994   7.186  12.643  11.243
39990SOL    HW219995   7.142  12.486  11.241
39991SOL     OW19996   6.986  11.279  11.598
39991SOL    HW119997   6.962  11.242  11.508
39991SOL    HW219998   7.085  11.295  11.602
39992SOL     OW19999   5.968  11.872  11.652
39992SOL    HW120000   6.013  11.782  11.649
39992SOL    HW220001   5.874  11.861  11.685
39993SOL     OW20002   6.200  11.294  11.289
39993SOL    HW120003   6.298  11.272  11.296
39993SOL    HW220004   6.169  11.277  11.196
39994SOL     OW20005   6.937  11.762  12.605
39994SOL    HW120006   6.965  11.719  12.690
39994SOL    HW220007   6.962  11.858  12.606
39995SOL     OW20008   6.389  12.574  12.096
39995SOL    HW120009   6.479  12.588  12.054
39995SOL    HW220010   6.318  12.576  12.025
39996SOL     OW20011   6.508  11.675  12.071
39996SOL    HW120012   6.483  11.666  11.975
39996SOL    HW220013   6.556  11.593  12.102
39997SOL     OW20014   6.125  11.236  11.684
39997SOL    HW120015   6.044  11.237  11.742
39997SOL    HW220016   6.128  11.319  11.629
39998SOL     OW20017   7.020  12.360  11.213
39998SOL    HW120018   7.052  12.284  11.270
39998SOL    HW220019   6.928  12.387  11.243
39999SOL     OW20020   5.883  11.207  11.343
39999SOL    HW120021   5.932  11.291  11.322
39999SOL    HW220022   5.945  11.142  11.388
40000SOL     OW20023   6.521  11.408  11.652
40000SOL    HW120024   6.473  11.449  11.574
40000SOL    HW220025   6.620  11.406  11.633
40001SOL     OW20026   6.662  11.855  12.636
40001SOL    HW120027   6.582  11.794  12.639
40001SOL    HW220028   6.743  11.802  12.612
40002SOL     OW20029   6.813  12.742  11.965
40002SOL    HW120030   6.834  12.816  11.900
40002SOL    HW220031   6.881  12.742  12.038
40003SOL     OW20032   6.045  12.324  11.913
40003SOL    HW120033   5.974  12.297  11.978
40003SOL    HW220034   6.019  12.296  11.820
40004SOL     OW20035   6.618  11.721  11.188
40004SOL    HW120036   6.577  11.803  11.149
40004SOL    HW220037   6.682  11.747  11.261
40005SOL     OW20038   5.664  11.728  12.558
40005SOL    HW120039   5.756  11.727  12.517
40005SOL    HW220040   5.658  11.802  12.625
40006SOL     OW20041   6.147  11.394  12.319
40006SOL    HW120042   6.185  11.310  12.356
40006SOL    HW220043   6.059  11.413  12.363
40007SOL     OW20044   6.452  11.626  11.814
40007SOL    HW120045   6.420  11.698  11.752
40007SOL    HW220046   6.476  11.545  11.761
40008SOL     OW20047   6.603  11.211  11.925
40008SOL    HW120048   6.531  11.216  11.856
40008SOL    HW220049   6.579  11.142  11.994
40009SOL     OW20050   7.015  12.345  12.039
40009SOL    HW120051   6.960  12.261  12.032
40009SOL    HW220052   7.041  12.374  11.947
40010SOL     OW20053   7.052  11.762  12.164
40010SOL    HW120054   7.022  11.667  12.171
40010SOL    HW220055   7.125  11.778  12.230
40011SOL     OW20056   7.443  12.005  11.549
40011SOL    HW120057   7.485  11.941  11.613
40011SOL    HW220058   7.405  11.954  11.471
40012SOL     OW20059   6.074  12.557  11.346
40012SOL    HW120060   5.987  12.542  11.393
40012SOL    HW220061   6.057  12.583  11.251
40013SOL     OW20062   7.250  12.452  11.829
40013SOL    HW120063   7.349  12.460  11.843
40013SOL    HW220064   7.205  12.536  11.860
40014SOL     OW20065   6.976  11.747  11.250
40014SOL    HW120066   6.922  11.726  11.331
40014SOL    HW220067   7.067  11.706  11.259
40015SOL     OW20068   6.113  11.428  11.500
40015SOL    HW120069   6.140  11.369  11.425
40015SOL    HW220070   6.113  11.523  11.469
40016SOL     OW20071   7.340  12.395  12.760
40016SOL    HW120072   7.431  12.356  12.747
40016SOL    HW220073   7.348  12.491  12.784
40017SOL     OW20074   6.650  12.519  12.512
40017SOL    HW120075   6.570  12.496  12.567
40017SOL    HW220076   6.733  12.493  12.561
40018SOL     OW20077   6.697  12.367  12.272
40018SOL    HW120078   6.657  12.411  12.353
40018SOL    HW220079   6.656  12.404  12.189
40019SOL     OW20080   7.224  12.271  12.251
40019SOL    HW120081   7.229  12.352  12.310
40019SOL    HW220082   7.138  12.273  12.200
40020SOL     OW20083   6.501  11.261  12.574
40020SOL    HW120084   6.526  11.241  12.479
40020SOL    HW220085   6.573  11.317  12.616
40021SOL     OW20086   6.291  12.222  11.540
40021SOL    HW120087   6.277  12.229  11.639
40021SOL    HW220088   6.375  12.171  11.522
40022SOL     OW20089   5.996  11.985  12.423
40022SOL    HW120090   6.082  11.997  12.473
40022SOL    HW220091   5.954  11.898  12.450
40023SOL     OW20092   6.860  11.558  12.434
40023SOL    HW120093   6.881  11.632  12.498
40023SOL    HW220094   6.771  11.575  12.391
40024SOL     OW20095   5.650  12.736  12.503
40024SOL    HW120096   5.604  12.818  12.469
40024SOL    HW220097   5.748  12.755  12.512
40025SOL     OW20098   5.953  12.272  11.673
40025SOL    HW120099   5.946  12.355  11.617
40025SOL    HW220100   5.957  12.192  11.613
40026SOL     OW20101   6.152  11.709  12.037
40026SOL    HW120102   6.164  11.775  11.963
40026SOL    HW220103   6.198  11.743  12.120
40027SOL     OW20104   6.838  12.520  11.560
40027SOL    HW120105   6.888  12.597  11.600
40027SOL    HW220106   6.743  12.522  11.592
40028SOL     OW20107   6.858  12.617  12.314
40028SOL    HW120108   6.905  12.630  12.401
40028SOL    HW220109   6.792  12.543  12.323
40029SOL     OW20110   7.168  11.811  11.644
40029SOL    HW120111   7.137  11.872  11.717
40029SOL    HW220112   7.218  11.863  11.575
40030SOL     OW20113   5.940  12.682  12.501
40030SOL    HW120114   5.919  12.638  12.414
40030SOL    HW220115   6.037  12.708  12.504
40031SOL     OW20116   5.988  11.923  12.770
40031SOL    HW120117   6.056  11.978  12.723
40031SOL    HW220118   6.028  11.835  12.797
40032SOL     OW20119   7.173  11.951  12.842
40032SOL    HW120120   7.081  11.989  12.837
40032SOL    HW220121   7.233  11.998  12.777
40033SOL     OW20122   6.159  12.042  12.201
40033SOL    HW120123   6.203  12.131  12.192
40033SOL    HW220124   6.096  12.042  12.278
40034SOL     OW20125   6.946  12.034  12.217
40034SOL    HW120126   6.871  12.034  12.151
40034SOL    HW220127   6.983  11.942  12.226
40035SOL     OW20128   6.795  11.697  11.447
40035SOL    HW120129   6.808  11.613  11.501
40035SOL    HW220130   6.766  11.771  11.507
40036SOL     OW20131   5.893  11.385  12.403
40036SOL    HW120132   5.870  11.422  12.493
40036SOL    HW220133   5.863  11.290  12.397
40037SOL     OW20134   5.623  12.482  12.454
40037SOL    HW120135   5.676  12.433  12.522
40037SOL    HW220136   5.645  12.580  12.459
40038SOL     OW20137   6.318  11.806  12.236
40038SOL    HW120138   6.377  11.780  12.160
40038SOL    HW220139   6.290  11.902  12.225
40039SOL     OW20140   5.893  11.235  11.790
40039SOL    HW120141   5.882  11.329  11.823
40039SOL    HW220142   5.888  11.172  11.867
40040SOL     OW20143   7.208  11.539  11.546
40040SOL    HW120144   7.210  11.463  11.610
40040SOL    HW220145   7.160  11.616  11.586
40041SOL     OW20146   6.609  11.938  12.138
40041SOL    HW120147   6.624  11.959  12.234
40041SOL    HW220148   6.579  11.843  12.129
40042SOL     OW20149   7.126  11.446  11.297
40042SOL    HW120150   7.065  11.371  11.320
40042SOL    HW220151   7.148  11.498  11.380
40043SOL     OW20152   6.889  12.010  11.214
40043SOL    HW120153   6.923  11.917  11.229
40043SOL    HW220154   6.907  12.037  11.119
40044SOL     OW20155   6.654  12.505  12.021
40044SOL    HW120156   6.661  12.421  11.966
40044SOL    HW220157   6.716  12.574  11.985
40045SOL     OW20158   5.905  11.982  12.121
40045SOL    HW120159   5.998  12.018  12.126
40045SOL    HW220160   5.899  11.897  12.173
40046SOL     OW20161   5.925  11.681  12.178
40046SOL    HW120162   5.873  11.598  12.161
40046SOL    HW220163   6.002  11.686  12.114
40047SOL     OW20164   6.746  11.379  12.649
40047SOL    HW120165   6.746  11.443  12.726
40047SOL    HW220166   6.774  11.427  12.566
40048SOL     OW20167   5.594  12.498  11.372
40048SOL    HW120168   5.501  12.519  11.341
40048SOL    HW220169   5.604  12.399  11.385
40049SOL     OW20170   6.090  12.740  12.082
40049SOL    HW120171   6.156  12.814  12.091
40049SOL    HW220172   6.134  12.661  12.040
40050SOL     OW20173   6.588  11.968  12.410
40050SOL    HW120174   6.629  11.936  12.496
40050SOL    HW220175   6.492  11.941  12.407
40051SOL     OW20176   5.626  11.716  12.286
40051SOL    HW120177   5.711  11.683  12.245
40051SOL    HW220178   5.639  11.731  12.384
40052SOL     OW20179   6.401  11.744  11.497
40052SOL    HW120180   6.408  11.655  11.451
40052SOL    HW220181   6.307  11.778  11.489
40053SOL     OW20182   7.243  11.776  12.378
40053SOL    HW120183   7.205  11.707  12.440
40053SOL    HW220184   7.325  11.740  12.334
40054SOL     OW20185   6.257  11.636  12.441
40054SOL    HW120186   6.223  11.547  12.411
40054SOL    HW220187   6.283  11.690  12.361
40055SOL     OW20188   6.059  11.672  11.363
40055SOL    HW120189   6.120  11.752  11.367
40055SOL    HW220190   5.964  11.703  11.370
40056SOL     OW20191   5.745  12.309  12.638
40056SOL    HW120192   5.767  12.248  12.714
40056SOL    HW220193   5.755  12.260  12.552
40057SOL     OW20194   6.933  12.231  12.406
40057SOL    HW120195   6.957  12.168  12.332
40057SOL    HW220196   6.843  12.271  12.388
40058SOL     OW20197   6.888  12.027  11.481
40058SOL    HW120198   6.802  11.996  11.523
40058SOL    HW220199   6.884  12.013  11.382
40059SOL     OW20200   6.838  12.903  12.300
40059SOL    HW120201   6.922  12.908  12.246
40059SOL    HW220202   6.815  12.807  12.318
40060SOL     OW20203   5.669  12.430  12.194
40060SOL    HW120204   5.664  12.429  12.294
40060SOL    HW220205   5.586  12.389  12.156
40061SOL     OW20206   7.312  11.307  11.695
40061SOL    HW120207   7.385  11.290  11.628
40061SOL    HW220208   7.281  11.220  11.733
40062SOL     OW20209   6.866  12.099  11.844
40062SOL    HW120210   6.926  12.018  11.846
40062SOL    HW220211   6.906  12.168  11.784
40063SOL     OW20212   6.416  12.445  12.594
40063SOL    HW120213   6.411  12.478  12.689
40063SOL    HW220214   6.330  12.464  12.548
40064SOL     OW20215   6.258  12.788  11.326
40064SOL    HW120216   6.267  12.798  11.227
40064SOL    HW220217   6.218  12.699  11.347
40065SOL     OW20218   7.427  11.347  12.135
40065SOL    HW120219   7.466  11.262  12.099
40065SOL    HW220220   7.329  11.349  12.116
40066SOL     OW20221   5.849  11.498  11.892
40066SOL    HW120222   5.770  11.549  11.858
40066SOL    HW220223   5.840  11.483  11.990
40067SOL     OW20224   6.780  12.784  11.203
40067SOL    HW120225   6.786  12.691  11.240
40067SOL    HW220226   6.721  12.784  11.123
40068SOL     OW20227   6.408  12.174  12.544
40068SOL    HW120228   6.448  12.173  12.452
40068SOL    HW220229   6.418  12.266  12.584
40069SOL     OW20230   6.502  12.082  11.463
40069SOL    HW120231   6.565  12.120  11.395
40069SOL    HW220232   6.542  11.999  11.502
40070SOL     OW20233   5.958  12.460  12.662
40070SOL    HW120234   5.945  12.553  12.628
40070SOL    HW220235   5.874  12.408  12.649
40071SOL     OW20236   7.200  12.464  12.461
40071SOL    HW120237   7.260  12.467  12.541
40071SOL    HW220238   7.125  12.528  12.474
40072SOL     OW20239   6.625  12.270  11.868
40072SOL    HW120240   6.555  12.223  11.922
40072SOL    HW220241   6.684  12.202  11.825
40073SOL     OW20242   6.600  11.408  12.143
40073SOL    HW120243   6.592  11.372  12.050
40073SOL    HW220244   6.598  11.332  12.208
40074SOL     OW20245   6.176  12.659  11.663
40074SOL    HW120246   6.218  12.601  11.593
40074SOL    HW220247   6.132  12.738  11.619
40075SOL     OW20248   7.295  11.557  12.553
40075SOL    HW120249   7.368  11.626  12.557
40075SOL    HW220250   7.323  11.482  12.494
40076SOL     OW20251   5.841  12.520  11.462
40076SOL    HW120252   5.745  12.521  11.435
40076SOL    HW220253   5.853  12.573  11.546
40077SOL     OW20254   5.691  12.185  12.898
40077SOL    HW120255   5.614  12.152  12.952
40077SOL    HW220256   5.776  12.155  12.940
40078SOL     OW20257   6.258  11.375  12.661
40078SOL    HW120258   6.348  11.359  12.621
40078SOL    HW220259   6.266  11.380  12.760
40079SOL     OW20260   5.661  11.517  11.205
40079SOL    HW120261   5.569  11.489  11.176
40079SOL    HW220262   5.692  11.594  11.149
40080SOL     OW20263   7.026  12.028  12.570
40080SOL    HW120264   6.969  12.080  12.507
40080SOL    HW220265   7.122  12.040  12.546
40081SOL     OW20266   5.658  11.338  11.490
40081SOL    HW120267   5.641  11.421  11.436
40081SOL    HW220268   5.748  11.301  11.468
40082SOL     OW20269   6.769  12.507  11.291
40082SOL    HW120270   6.670  12.496  11.293
40082SOL    HW220271   6.803  12.522  11.384
40083SOL     OW20272   6.199  12.014  12.603
40083SOL    HW120273   6.255  12.095  12.586
40083SOL    HW220274   6.258  11.934  12.606
40084SOL     OW20275   6.302  11.737  12.880
40084SOL    HW120276   6.321  11.802  12.954
40084SOL    HW220277   6.362  11.657  12.889
40085SOL     OW20278   5.976  12.913  12.732
40085SOL    HW120279   5.885  12.954  12.730
40085SOL    HW220280   5.969  12.819  12.764
40086SOL     OW20281   7.260  12.055  12.426
40086SOL    HW120282   7.233  11.966  12.389
40086SOL    HW220283   7.261  12.123  12.353
40087SOL     OW20284   6.811  11.497  11.621
40087SOL    HW120285   6.876  11.423  11.610
40087SOL    HW220286   6.831  11.547  11.705
40088SOL     OW20287   6.180  11.917  11.824
40088SOL    HW120288   6.230  12.002  11.805
40088SOL    HW220289   6.092  11.919  11.776
40089SOL     OW20290   7.363  11.514  12.814
40089SOL    HW120291   7.346  11.545  12.720
40089SOL    HW220292   7.279  11.477  12.852
40090SOL     OW20293   7.316  12.106  12.689
40090SOL    HW120294   7.354  12.197  12.704
40090SOL    HW220295   7.308  12.089  12.590
40091SOL     OW20296   6.445  12.546  11.188
40091SOL    HW120297   6.399  12.561  11.276
40091SOL    HW220298   6.489  12.631  11.158
40092SOL     OW20299   6.445  12.128  12.033
40092SOL    HW120300   6.499  12.059  12.081
40092SOL    HW220301   6.413  12.197  12.099
40093SOL     OW20302   6.669  12.156  11.259
40093SOL    HW120303   6.646  12.209  11.177
40093SOL    HW220304   6.750  12.100  11.240
40094SOL     OW20305   7.447  12.741  12.023
40094SOL    HW120306   7.376  12.729  11.953
40094SOL    HW220307   7.448  12.662  12.083
40095SOL     OW20308   5.665  12.412  11.825
40095SOL    HW120309   5.664  12.365  11.913
40095SOL    HW220310   5.747  12.384  11.774
40096SOL     OW20311   6.258  12.563  12.796
40096SOL    HW120312   6.180  12.513  12.834
40096SOL    HW220313   6.255  12.658  12.827
40097SOL     OW20314   7.410  11.364  12.399
40097SOL    HW120315   7.406  11.274  12.443
40097SOL    HW220316   7.413  11.353  12.300
40098SOL     OW20317   6.014  11.596  11.692
40098SOL    HW120318   6.044  11.524  11.630
40098SOL    HW220319   5.975  11.556  11.775
40099SOL     OW20320   7.291  12.659  12.276
40099SOL    HW120321   7.198  12.634  12.249
40099SOL    HW220322   7.317  12.609  12.358
40100SOL     OW20323   5.903  11.719  12.452
40100SOL    HW120324   5.941  11.660  12.524
40100SOL    HW220325   5.943  11.693  12.364
40101SOL     OW20326   7.010  11.386  12.284
40101SOL    HW120327   7.062  11.321  12.339
40101SOL    HW220328   6.961  11.449  12.345
40102SOL     OW20329   6.587  11.206  12.326
40102SOL    HW120330   6.524  11.134  12.295
40102SOL    HW220331   6.680  11.170  12.326
40103SOL     OW20332   6.356  12.502  11.473
40103SOL    HW120333   6.310  12.415  11.490
40103SOL    HW220334   6.447  12.499  11.514
40104SOL     OW20335   6.204  12.739  12.456
40104SOL    HW120336   6.199  12.821  12.513
40104SOL    HW220337   6.293  12.736  12.411
40105SOL     OW20338   6.938  11.224  11.340
40105SOL    HW120339   6.973  11.183  11.256
40105SOL    HW220340   6.848  11.186  11.360
40106SOL     OW20341   6.886  11.625  11.863
40106SOL    HW120342   6.827  11.705  11.867
40106SOL    HW220343   6.901  11.590  11.956
40107SOL     OW20344   7.179  11.393  12.054
40107SOL    HW120345   7.095  11.392  12.108
40107SOL    HW220346   7.181  11.476  11.998
40108SOL     OW20347   5.625  12.249  11.472
40108SOL    HW120348   5.724  12.238  11.463
40108SOL    HW220349   5.585  12.163  11.504
40109SOL     OW20350   7.678   0.628   0.113
40109SOL    HW120351   7.585   0.626   0.150
40109SOL    HW220352   7.679   0.589   0.021
40110SOL     OW20353   7.673   0.275   0.996
40110SOL    HW120354   7.708   0.258   1.088
40110SOL    HW220355   7.585   0.230   0.984
40111SOL     OW20356   7.467   0.368   0.647
40111SOL    HW120357   7.385   0.411   0.686
40111SOL    HW220358   7.439   0.295   0.584
40112SOL     OW20359   8.017   1.275   1.165
40112SOL    HW120360   7.924   1.268   1.128
40112SOL    HW220361   8.028   1.364   1.209
40113SOL     OW20362   9.003   1.511   0.703
40113SOL    HW120363   8.946   1.495   0.784
40113SOL    HW220364   8.944   1.521   0.623
40114SOL     OW20365   8.583   0.703   0.717
40114SOL    HW120366   8.640   0.781   0.692
40114SOL    HW220367   8.523   0.729   0.793
40115SOL     OW20368   9.203   0.607   0.231
40115SOL    HW120369   9.191   0.594   0.132
40115SOL    HW220370   9.173   0.526   0.280
40116SOL     OW20371   8.216   1.144   1.023
40116SOL    HW120372   8.138   1.161   1.083
40116SOL    HW220373   8.250   1.231   0.987
40117SOL     OW20374   8.298   0.798   1.823
40117SOL    HW120375   8.294   0.874   1.888
40117SOL    HW220376   8.320   0.834   1.732
40118SOL     OW20377   8.133   1.012   0.665
40118SOL    HW120378   8.202   0.996   0.735
40118SOL    HW220379   8.060   1.069   0.703
40119SOL     OW20380   8.134   1.161   1.803
40119SOL    HW120381   8.194   1.240   1.817
40119SOL    HW220382   8.048   1.192   1.762
40120SOL     OW20383   7.783   1.435   1.061
40120SOL    HW120384   7.705   1.404   1.008
40120SOL    HW220385   7.841   1.493   1.004
40121SOL     OW20386   8.908   1.505   1.339
40121SOL    HW120387   8.932   1.599   1.365
40121SOL    HW220388   8.892   1.451   1.421
40122SOL     OW20389   7.886   0.392   1.499
40122SOL    HW120390   7.968   0.336   1.508
40122SOL    HW220391   7.805   0.334   1.503
40123SOL     OW20392   9.051   0.447   0.737
40123SOL    HW120393   8.977   0.493   0.687
40123SOL    HW220394   9.102   0.515   0.790
40124SOL     OW20395   7.679   1.713   0.483
40124SOL    HW120396   7.713   1.790   0.537
40124SOL    HW220397   7.723   1.713   0.393
40125SOL     OW20398   8.575   1.341   1.690
40125SOL    HW120399   8.622   1.341   1.778
40125SOL    HW220400   8.527   1.254   1.679
40126SOL     OW20401   7.678   1.434   0.538
40126SOL    HW120402   7.652   1.530   0.538
40126SOL    HW220403   7.607   1.380   0.583
40127SOL     OW20404   7.688   1.091   0.886
40127SOL    HW120405   7.702   1.007   0.938
40127SOL    HW220406   7.633   1.155   0.941
40128SOL     OW20407   8.068   1.786   1.439
40128SOL    HW120408   7.976   1.769   1.474
40128SOL    HW220409   8.096   1.878   1.465
40129SOL     OW20410   8.054   0.964   0.123
40129SOL    HW120411   8.061   1.048   0.069
40129SOL    HW220412   8.100   0.977   0.211
40130SOL     OW20413   9.042   0.114   1.480
40130SOL    HW120414   9.024   0.181   1.408
40130SOL    HW220415   9.039   0.160   1.569
40131SOL     OW20416   7.570   0.643   0.563
40131SOL    HW120417   7.525   0.555   0.580
40131SOL    HW220418   7.569   0.697   0.647
40132SOL     OW20419   9.290   1.767   0.359
40132SOL    HW120420   9.344   1.738   0.439
40132SOL    HW220421   9.320   1.857   0.330
40133SOL     OW20422   7.475   1.596   0.117
40133SOL    HW120423   7.456   1.500   0.138
40133SOL    HW220424   7.442   1.654   0.192
40134SOL     OW20425   9.137   0.922   0.612
40134SOL    HW120426   9.232   0.893   0.620
40134SOL    HW220427   9.129   0.987   0.537
40135SOL     OW20428   9.089   1.108   0.432
40135SOL    HW120429   9.175   1.110   0.380
40135SOL    HW220430   9.103   1.155   0.520
40136SOL     OW20431   7.561   0.737   1.597
40136SOL    HW120432   7.649   0.724   1.642
40136SOL    HW220433   7.548   0.834   1.575
40137SOL     OW20434   8.061   1.365   0.726
40137SOL    HW120435   8.012   1.278   0.735
40137SOL    HW220436   8.038   1.408   0.639
40138SOL     OW20437   8.741   1.228   1.423
40138SOL    HW120438   8.778   1.155   1.365
40138SOL    HW220439   8.793   1.233   1.508
40139SOL     OW20440   8.257   0.004   0.502
40139SOL    HW120441   8.297   0.095   0.493
40139SOL    HW220442   8.157   0.012   0.508
40140SOL     OW20443   7.645   0.976   1.264
40140SOL    HW120444   7.734   0.931   1.250
40140SOL    HW220445   7.572   0.911   1.245
40141SOL     OW20446   8.973   0.999   0.190
40141SOL    HW120447   8.910   0.923   0.203
40141SOL    HW220448   9.021   1.017   0.276
40142SOL     OW20449   8.635   1.792   1.616
40142SOL    HW120450   8.659   1.852   1.540
40142SOL    HW220451   8.642   1.697   1.586
40143SOL     OW20452   7.765   0.251   1.801
40143SOL    HW120453   7.836   0.322   1.807
40143SOL    HW220454   7.677   0.290   1.829
40144SOL     OW20455   8.914   1.417   0.953
40144SOL    HW120456   8.855   1.423   1.033
40144SOL    HW220457   8.899   1.329   0.907
40145SOL     OW20458   9.115   1.714   0.572
40145SOL    HW120459   9.074   1.691   0.484
40145SOL    HW220460   9.097   1.640   0.637
40146SOL     OW20461   8.046   0.729   0.270
40146SOL    HW120462   8.070   0.798   0.202
40146SOL    HW220463   7.968   0.762   0.324
40147SOL     OW20464   8.729   0.345   0.944
40147SOL    HW120465   8.643   0.295   0.931
40147SOL    HW220466   8.791   0.291   1.000
40148SOL     OW20467   9.024   1.662   0.307
40148SOL    HW120468   9.113   1.708   0.310
40148SOL    HW220469   9.003   1.638   0.212
40149SOL     OW20470   8.255   0.605   1.465
40149SOL    HW120471   8.208   0.602   1.554
40149SOL    HW220472   8.204   0.550   1.399
40150SOL     OW20473   8.842   0.469   1.674
40150SOL    HW120474   8.822   0.512   1.762
40150SOL    HW220475   8.920   0.407   1.683
40151SOL     OW20476   8.421   0.890   1.572
40151SOL    HW120477   8.467   0.806   1.543
40151SOL    HW220478   8.365   0.924   1.497
40152SOL     OW20479   8.439   0.410   1.242
40152SOL    HW120480   8.362   0.444   1.296
40152SOL    HW220481   8.405   0.359   1.163
40153SOL     OW20482   8.489   0.701   0.429
40153SOL    HW120483   8.515   0.697   0.525
40153SOL    HW220484   8.404   0.650   0.415
40154SOL     OW20485   7.524   0.811   0.789
40154SOL    HW120486   7.623   0.799   0.798
40154SOL    HW220487   7.500   0.906   0.810
40155SOL     OW20488   7.578   1.821   1.571
40155SOL    HW120489   7.568   1.806   1.670
40155SOL    HW220490   7.492   1.857   1.535
40156SOL     OW20491   8.313   0.348   0.195
40156SOL    HW120492   8.372   0.411   0.146
40156SOL    HW220493   8.332   0.254   0.166
40157SOL     OW20494   9.167   0.585   1.831
40157SOL    HW120495   9.141   0.674   1.795
40157SOL    HW220496   9.165   0.517   1.758
40158SOL     OW20497   8.810   1.144   0.545
40158SOL    HW120498   8.893   1.115   0.497
40158SOL    HW220499   8.761   1.211   0.489
40159SOL     OW20500   7.998   0.196   0.885
40159SOL    HW120501   7.993   0.191   0.985
40159SOL    HW220502   8.000   0.292   0.856
40160SOL     OW20503   8.456   1.456   0.477
40160SOL    HW120504   8.410   1.528   0.425
40160SOL    HW220505   8.452   1.476   0.575
40161SOL     OW20506   7.799   1.801   0.853
40161SOL    HW120507   7.849   1.715   0.859
40161SOL    HW220508   7.864   1.878   0.850
40162SOL     OW20509   9.243   1.066   0.873
40162SOL    HW120510   9.181   1.051   0.797
40162SOL    HW220511   9.191   1.077   0.958
40163SOL     OW20512   8.675   1.550   1.506
40163SOL    HW120513   8.681   1.473   1.570
40163SOL    HW220514   8.623   1.524   1.426
40164SOL     OW20515   7.769   0.943   0.242
40164SOL    HW120516   7.851   0.982   0.200
40164SOL    HW220517   7.742   0.861   0.193
40165SOL     OW20518   8.906   0.735   0.728
40165SOL    HW120519   8.901   0.670   0.803
40165SOL    HW220520   8.986   0.794   0.741
40166SOL     OW20521   7.909   1.266   1.727
40166SOL    HW120522   7.859   1.267   1.641
40166SOL    HW220523   7.846   1.248   1.803
40167SOL     OW20524   8.559   1.776   0.237
40167SOL    HW120525   8.499   1.714   0.287
40167SOL    HW220526   8.590   1.732   0.152
40168SOL     OW20527   7.650   0.285   1.498
40168SOL    HW120528   7.570   0.345   1.485
40168SOL    HW220529   7.640   0.236   1.584
40169SOL     OW20530   9.080   1.377   0.081
40169SOL    HW120531   9.048   1.471   0.071
40169SOL    HW220532   9.004   1.314   0.069
40170SOL     OW20533   7.912   1.743   0.323
40170SOL    HW120534   7.945   1.782   0.409
40170SOL    HW220535   7.988   1.736   0.258
40171SOL     OW20536   8.848   0.107   0.426
40171SOL    HW120537   8.824   0.070   0.336
40171SOL    HW220538   8.947   0.123   0.430
40172SOL     OW20539   7.697   1.785   1.241
40172SOL    HW120540   7.754   1.720   1.291
40172SOL    HW220541   7.681   1.752   1.148
40173SOL     OW20542   8.388   1.698   0.904
40173SOL    HW120543   8.468   1.641   0.925
40173SOL    HW220544   8.339   1.658   0.827
40174SOL     OW20545   7.830   0.700   0.480
40174SOL    HW120546   7.875   0.610   0.477
40174SOL    HW220547   7.736   0.689   0.513
40175SOL     OW20548   8.995   0.222   1.729
40175SOL    HW120549   8.990   0.259   1.821
40175SOL    HW220550   8.923   0.153   1.717
40176SOL     OW20551   8.062   0.122   0.117
40176SOL    HW120552   8.160   0.100   0.124
40176SOL    HW220553   8.031   0.105   0.024
40177SOL     OW20554   8.229   0.264   1.749
40177SOL    HW120555   8.296   0.203   1.792
40177SOL    HW220556   8.156   0.283   1.814
40178SOL     OW20557   8.336   1.514   1.195
40178SOL    HW120558   8.313   1.489   1.101
40178SOL    HW220559   8.397   1.445   1.234
40179SOL     OW20560   8.799   0.590   1.433
40179SOL    HW120561   8.827   0.547   1.518
40179SOL    HW220562   8.824   0.686   1.434
40180SOL     OW20563   8.251   1.402   0.924
40180SOL    HW120564   8.341   1.416   0.882
40180SOL    HW220565   8.180   1.404   0.853
40181SOL     OW20566   8.370   0.503   0.899
40181SOL    HW120567   8.345   0.494   0.803
40181SOL    HW220568   8.418   0.421   0.930
40182SOL     OW20569   7.987   0.064   0.512
40182SOL    HW120570   7.906   0.065   0.570
40182SOL    HW220571   7.990   0.147   0.457
40183SOL     OW20572   8.882   1.188   0.041
40183SOL    HW120573   8.914   1.112   0.098
40183SOL    HW220574   8.790   1.215   0.071
40184SOL     OW20575   7.745   0.035   0.171
40184SOL    HW120576   7.794   0.119   0.150
40184SOL    HW220577   7.807  -0.030   0.216
40185SOL     OW20578   8.383   0.236   0.480
40185SOL    HW120579   8.335   0.277   0.402
40185SOL    HW220580   8.482   0.234   0.461
40186SOL     OW20581   8.524   0.683   1.464
40186SOL    HW120582   8.444   0.622   1.467
40186SOL    HW220583   8.605   0.630   1.440
40187SOL     OW20584   8.675   1.570   0.793
40187SOL    HW120585   8.696   1.644   0.728
40187SOL    HW220586   8.743   1.570   0.866
40188SOL     OW20587   7.907   1.152   0.741
40188SOL    HW120588   7.836   1.125   0.806
40188SOL    HW220589   7.881   1.124   0.648
40189SOL     OW20590   8.719   1.797   0.591
40189SOL    HW120591   8.763   1.861   0.527
40189SOL    HW220592   8.669   1.849   0.661
40190SOL     OW20593   8.480   0.549   0.016
40190SOL    HW120594   8.439   0.631  -0.023
40190SOL    HW220595   8.544   0.575   0.089
40191SOL     OW20596   7.526   0.556   1.386
40191SOL    HW120597   7.618   0.555   1.345
40191SOL    HW220598   7.520   0.630   1.453
40192SOL     OW20599   8.009   0.222   1.147
40192SOL    HW120600   8.047   0.138   1.184
40192SOL    HW220601   7.921   0.241   1.191
40193SOL     OW20602   8.314   0.454   0.642
40193SOL    HW120603   8.282   0.526   0.580
40193SOL    HW220604   8.338   0.373   0.589
40194SOL     OW20605   8.465   0.039   0.753
40194SOL    HW120606   8.393   0.044   0.684
40194SOL    HW220607   8.441  -0.030   0.822
40195SOL     OW20608   8.877   1.173   0.867
40195SOL    HW120609   8.822   1.089   0.860
40195SOL    HW220610   8.903   1.202   0.775
40196SOL     OW20611   8.914   0.590   0.992
40196SOL    HW120612   8.884   0.495   0.999
40196SOL    HW220613   8.987   0.606   1.058
40197SOL     OW20614   9.305   0.833   0.377
40197SOL    HW120615   9.347   0.769   0.441
40197SOL    HW220616   9.267   0.782   0.299
40198SOL     OW20617   7.936   1.385   0.174
40198SOL    HW120618   7.849   1.370   0.221
40198SOL    HW220619   7.919   1.411   0.079
40199SOL     OW20620   9.112   1.280   0.657
40199SOL    HW120621   9.211   1.288   0.671
40199SOL    HW220622   9.067   1.364   0.688
40200SOL     OW20623   8.838   0.575   0.078
40200SOL    HW120624   8.784   0.554   0.159
40200SOL    HW220625   8.929   0.534   0.087
40201SOL     OW20626   7.975   0.256   0.328
40201SOL    HW120627   8.002   0.197   0.253
40201SOL    HW220628   7.975   0.351   0.297
40202SOL     OW20629   9.202   1.223   1.588
40202SOL    HW120630   9.293   1.184   1.575
40202SOL    HW220631   9.210   1.319   1.612
40203SOL     OW20632   8.512   1.347   1.340
40203SOL    HW120633   8.432   1.324   1.395
40203SOL    HW220634   8.595   1.321   1.389
40204SOL     OW20635   9.040   1.629   1.625
40204SOL    HW120636   9.067   1.663   1.535
40204SOL    HW220637   9.119   1.591   1.671
40205SOL     OW20638   8.559   1.195   1.100
40205SOL    HW120639   8.519   1.239   1.181
40205SOL    HW220640   8.518   1.232   1.017
40206SOL     OW20641   9.086   1.099   1.079
40206SOL    HW120642   9.091   1.180   1.138
40206SOL    HW220643   9.000   1.101   1.028
40207SOL     OW20644   8.363   0.089   1.402
40207SOL    HW120645   8.388   0.069   1.307
40207SOL    HW220646   8.435   0.145   1.444
40208SOL     OW20647   8.428   1.116   1.719
40208SOL    HW120648   8.329   1.122   1.729
40208SOL    HW220649   8.451   1.036   1.663
40209SOL     OW20650   8.153   1.050   0.368
40209SOL    HW120651   8.139   1.057   0.467
40209SOL    HW220652   8.237   0.999   0.350
40210SOL     OW20653   7.858   0.813   1.251
40210SOL    HW120654   7.944   0.825   1.301
40210SOL    HW220655   7.816   0.726   1.278
40211SOL     OW20656   8.722   0.386   1.262
40211SOL    HW120657   8.743   0.460   1.326
40211SOL    HW220658   8.633   0.403   1.219
40212SOL     OW20659   7.512   1.564   1.331
40212SOL    HW120660   7.466   1.646   1.297
40212SOL    HW220661   7.610   1.583   1.340
40213SOL     OW20662   7.815   1.100   0.501
40213SOL    HW120663   7.808   1.183   0.445
40213SOL    HW220664   7.819   1.020   0.441
40214SOL     OW20665   8.014   0.537   0.865
40214SOL    HW120666   8.026   0.603   0.791
40214SOL    HW220667   8.060   0.571   0.948
40215SOL     OW20668   8.700   1.348   0.388
40215SOL    HW120669   8.750   1.425   0.428
40215SOL    HW220670   8.605   1.350   0.420
40216SOL     OW20671   8.720   1.445   1.142
40216SOL    HW120672   8.767   1.458   1.229
40216SOL    HW220673   8.654   1.371   1.151
40217SOL     OW20674   9.030   0.639   0.472
40217SOL    HW120675   8.999   0.700   0.545
40217SOL    HW220676   9.080   0.691   0.403
40218SOL     OW20677   7.802   1.510   1.329
40218SOL    HW120678   7.781   1.466   1.242
40218SOL    HW220679   7.899   1.536   1.332
40219SOL     OW20680   7.850   0.751   1.598
40219SOL    HW120681   7.918   0.806   1.551
40219SOL    HW220682   7.890   0.663   1.625
40220SOL     OW20683   9.035   0.779   1.670
40220SOL    HW120684   8.943   0.817   1.665
40220SOL    HW220685   9.095   0.826   1.605
40221SOL     OW20686   8.461   0.105   1.770
40221SOL    HW120687   8.467   0.190   1.718
40221SOL    HW220688   8.493   0.029   1.713
40222SOL     OW20689   7.952   0.050   1.740
40222SOL    HW120690   7.910  -0.007   1.670
40222SOL    HW220691   7.886   0.119   1.772
40223SOL     OW20692   8.021   0.870   1.029
40223SOL    HW120693   8.065   0.959   1.020
40223SOL    HW220694   7.958   0.870   1.106
40224SOL     OW20695   8.808   0.862   1.045
40224SOL    HW120696   8.733   0.862   0.979
40224SOL    HW220697   8.845   0.770   1.054
40225SOL     OW20698   8.657   0.525   0.275
40225SOL    HW120699   8.670   0.441   0.329
40225SOL    HW220700   8.628   0.599   0.335
40226SOL     OW20701   7.755   0.213   1.231
40226SOL    HW120702   7.732   0.250   1.321
40226SOL    HW220703   7.725   0.118   1.225
40227SOL     OW20704   7.485   1.310   1.282
40227SOL    HW120705   7.538   1.261   1.350
40227SOL    HW220706   7.507   1.408   1.287
40228SOL     OW20707   8.180   0.634   1.064
40228SOL    HW120708   8.239   0.608   0.988
40228SOL    HW220709   8.152   0.730   1.053
40229SOL     OW20710   9.176   0.935   1.854
40229SOL    HW120711   9.130   0.928   1.765
40229SOL    HW220712   9.114   0.979   1.920
40230SOL     OW20713   7.755   0.063   0.618
40230SOL    HW120714   7.744   0.157   0.651
40230SOL    HW220715   7.750   0.000   0.695
40231SOL     OW20716   9.070   0.367   0.374
40231SOL    HW120717   9.072   0.291   0.438
40231SOL    HW220718   9.022   0.444   0.414
40232SOL     OW20719   8.471   0.766   0.966
40232SOL    HW120720   8.486   0.787   1.062
40232SOL    HW220721   8.441   0.671   0.957
40233SOL     OW20722   8.428   1.573   1.700
40233SOL    HW120723   8.408   1.617   1.612
40233SOL    HW220724   8.467   1.482   1.684
40234SOL     OW20725   9.307   1.518   1.605
40234SOL    HW120726   9.321   1.545   1.510
40234SOL    HW220727   9.390   1.540   1.658
40235SOL     OW20728   7.798   0.898   1.804
40235SOL    HW120729   7.874   0.942   1.852
40235SOL    HW220730   7.833   0.851   1.722
40236SOL     OW20731   8.988   0.274   0.125
40236SOL    HW120732   8.927   0.199   0.148
40236SOL    HW220733   9.010   0.326   0.208
40237SOL     OW20734   8.751   0.838   0.042
40237SOL    HW120735   8.785   0.745   0.057
40237SOL    HW220736   8.769   0.865  -0.053
40238SOL     OW20737   8.516   1.333   0.849
40238SOL    HW120738   8.523   1.249   0.794
40238SOL    HW220739   8.578   1.402   0.813
40239SOL     OW20740   7.767   0.810   0.949
40239SOL    HW120741   7.860   0.846   0.954
40239SOL    HW220742   7.761   0.725   1.001
40240SOL     OW20743   7.787   0.509   1.006
40240SOL    HW120744   7.735   0.426   0.989
40240SOL    HW220745   7.864   0.514   0.942
40241SOL     OW20746   8.586   0.380   1.678
40241SOL    HW120747   8.541   0.443   1.742
40241SOL    HW220748   8.679   0.411   1.661
40242SOL     OW20749   8.608   0.207   1.477
40242SOL    HW120750   8.608   0.271   1.554
40242SOL    HW220751   8.636   0.255   1.394
40243SOL     OW20752   7.456   1.326   0.200
40243SOL    HW120753   7.363   1.347   0.169
40243SOL    HW220754   7.466   1.227   0.213
40244SOL     OW20755   7.536   1.801   0.927
40244SOL    HW120756   7.494   1.715   0.900
40244SOL    HW220757   7.630   1.804   0.893
40245SOL     OW20758   7.952   1.568   0.910
40245SOL    HW120759   8.018   1.642   0.919
40245SOL    HW220760   7.996   1.489   0.868
40246SOL     OW20761   8.450   0.796   1.238
40246SOL    HW120762   8.491   0.764   1.324
40246SOL    HW220763   8.354   0.769   1.235
40247SOL     OW20764   7.488   0.544   1.114
40247SOL    HW120765   7.573   0.511   1.073
40247SOL    HW220766   7.501   0.559   1.212
40248SOL     OW20767   7.637   0.520   1.722
40248SOL    HW120768   7.696   0.480   1.652
40248SOL    HW220769   7.579   0.591   1.681
40249SOL     OW20770   8.817   0.950   1.660
40249SOL    HW120771   8.856   1.039   1.680
40249SOL    HW220772   8.827   0.930   1.563
40250SOL     OW20773   8.263   0.572   0.325
40250SOL    HW120774   8.270   0.483   0.279
40250SOL    HW220775   8.169   0.606   0.317
40251SOL     OW20776   9.105   0.604   1.206
40251SOL    HW120777   9.067   0.535   1.268
40251SOL    HW220778   9.187   0.568   1.162
40252SOL     OW20779   7.700   1.564   1.744
40252SOL    HW120780   7.670   1.621   1.820
40252SOL    HW220781   7.693   1.467   1.770
40253SOL     OW20782   8.119   0.464   1.269
40253SOL    HW120783   8.085   0.375   1.239
40253SOL    HW220784   8.145   0.518   1.189
40254SOL     OW20785   8.378   1.678   1.465
40254SOL    HW120786   8.354   1.660   1.370
40254SOL    HW220787   8.408   1.772   1.475
40255SOL     OW20788   7.921   0.500   0.191
40255SOL    HW120789   7.982   0.580   0.195
40255SOL    HW220790   7.826   0.531   0.198
40256SOL     OW20791   7.607   1.137   1.466
40256SOL    HW120792   7.629   1.076   1.542
40256SOL    HW220793   7.617   1.088   1.380
40257SOL     OW20794   8.795   1.059   1.234
40257SOL    HW120795   8.819   0.996   1.160
40257SOL    HW220796   8.705   1.099   1.216
40258SOL     OW20797   8.750   0.855   0.309
40258SOL    HW120798   8.664   0.824   0.351
40258SOL    HW220799   8.746   0.841   0.210
40259SOL     OW20800   9.207   1.747   1.154
40259SOL    HW120801   9.268   1.777   1.081
40259SOL    HW220802   9.169   1.658   1.132
40260SOL     OW20803   8.700   1.731   1.128
40260SOL    HW120804   8.784   1.736   1.074
40260SOL    HW220805   8.677   1.635   1.146
40261SOL     OW20806   7.531   1.258   1.022
40261SOL    HW120807   7.526   1.257   1.122
40261SOL    HW220808   7.448   1.217   0.984
40262SOL     OW20809   8.136   1.662   1.716
40262SOL    HW120810   8.080   1.743   1.725
40262SOL    HW220811   8.188   1.666   1.630
40263SOL     OW20812   8.351   0.086   0.133
40263SOL    HW120813   8.402   0.087   0.047
40263SOL    HW220814   8.407   0.044   0.204
40264SOL     OW20815   9.174   0.135   0.523
40264SOL    HW120816   9.247   0.118   0.456
40264SOL    HW220817   9.143   0.048   0.561
40265SOL     OW20818   8.836   1.573   0.477
40265SOL    HW120819   8.903   1.585   0.403
40265SOL    HW220820   8.796   1.662   0.500
40266SOL     OW20821   7.578   1.794   1.851
40266SOL    HW120822   7.537   1.720   1.904
40266SOL    HW220823   7.642   1.845   1.909
40267SOL     OW20824   8.728   0.927   0.672
40267SOL    HW120825   8.788   0.846   0.674
40267SOL    HW220826   8.768   0.996   0.612
40268SOL     OW20827   8.278   1.273   1.422
40268SOL    HW120828   8.273   1.306   1.517
40268SOL    HW220829   8.192   1.292   1.376
40269SOL     OW20830   8.120   1.616   0.154
40269SOL    HW120831   8.129   1.626   0.055
40269SOL    HW220832   8.080   1.527   0.175
40270SOL     OW20833   9.098   1.720   1.394
40270SOL    HW120834   9.151   1.730   1.310
40270SOL    HW220835   9.071   1.810   1.428
40271SOL     OW20836   9.289   0.175   0.963
40271SOL    HW120837   9.328   0.090   0.927
40271SOL    HW220838   9.191   0.177   0.944
40272SOL     OW20839   7.711   0.326   0.720
40272SOL    HW120840   7.632   0.377   0.686
40272SOL    HW220841   7.702   0.311   0.818
40273SOL     OW20842   8.642   1.612   0.031
40273SOL    HW120843   8.648   1.519   0.068
40273SOL    HW220844   8.583   1.612  -0.049
40274SOL     OW20845   8.270   1.002   1.372
40274SOL    HW120846   8.310   1.001   1.280
40274SOL    HW220847   8.280   1.094   1.412
40275SOL     OW20848   8.364   0.910   0.291
40275SOL    HW120849   8.427   0.948   0.223
40275SOL    HW220850   8.404   0.827   0.330
40276SOL     OW20851   8.952   1.607   0.044
40276SOL    HW120852   8.860   1.644   0.051
40276SOL    HW220853   8.990   1.627  -0.046
40277SOL     OW20854   7.820   1.288   1.490
40277SOL    HW120855   7.807   1.381   1.456
40277SOL    HW220856   7.736   1.236   1.477
40278SOL     OW20857   9.062   1.292   1.289
40278SOL    HW120858   9.122   1.295   1.369
40278SOL    HW220859   8.987   1.356   1.302
40279SOL     OW20860   8.487   1.098   0.696
40279SOL    HW120861   8.417   1.051   0.750
40279SOL    HW220862   8.546   1.030   0.653
40280SOL     OW20863   8.462   0.236   0.971
40280SOL    HW120864   8.454   0.200   0.878
40280SOL    HW220865   8.460   0.160   1.036
40281SOL     OW20866   8.038   1.487   0.491
40281SOL    HW120867   8.080   1.429   0.421
40281SOL    HW220868   7.994   1.566   0.447
40282SOL     OW20869   9.157   0.385   1.381
40282SOL    HW120870   9.230   0.454   1.385
40282SOL    HW220871   9.185   0.310   1.322
40283SOL     OW20872   7.703   1.348   0.290
40283SOL    HW120873   7.607   1.349   0.263
40283SOL    HW220874   7.715   1.401   0.374
40284SOL     OW20875   7.553   1.013   1.726
40284SOL    HW120876   7.476   0.980   1.780
40284SOL    HW220877   7.638   0.983   1.768
40285SOL     OW20878   8.120   0.203   1.489
40285SOL    HW120879   8.210   0.187   1.449
40285SOL    HW220880   8.128   0.208   1.588
40286SOL     OW20881   8.888   0.856   1.398
40286SOL    HW120882   8.831   0.908   1.335
40286SOL    HW220883   8.984   0.868   1.374
40287SOL     OW20884   7.520   0.166   0.318
40287SOL    HW120885   7.503   0.249   0.264
40287SOL    HW220886   7.610   0.129   0.296
40288SOL     OW20887   8.631   1.335   0.119
40288SOL    HW120888   8.532   1.324   0.121
40288SOL    HW220889   8.665   1.350   0.212
40289SOL     OW20890   8.061   0.842   1.431
40289SOL    HW120891   8.117   0.923   1.414
40289SOL    HW220892   8.120   0.762   1.434
40290SOL     OW20893   8.941   1.767   0.959
40290SOL    HW120894   8.974   1.831   0.890
40290SOL    HW220895   9.007   1.761   1.034
40291SOL     OW20896   8.164   0.565   1.708
40291SOL    HW120897   8.183   0.630   1.782
40291SOL    HW220898   8.224   0.485   1.717
40292SOL     OW20899   8.898   1.220   1.633
40292SOL    HW120900   8.889   1.210   1.732
40292SOL    HW220901   8.994   1.213   1.607
40293SOL     OW20902   7.838   1.741   1.560
40293SOL    HW120903   7.747   1.782   1.558
40293SOL    HW220904   7.831   1.647   1.592
40294SOL     OW20905   9.122   0.883   1.254
40294SOL    HW120906   9.095   0.794   1.217
40294SOL    HW220907   9.123   0.951   1.181
40295SOL     OW20908   8.673   0.325   0.449
40295SOL    HW120909   8.738   0.251   0.438
40295SOL    HW220910   8.693   0.375   0.533
40296SOL     OW20911   8.042   0.745   0.652
40296SOL    HW120912   8.092   0.830   0.633
40296SOL    HW220913   7.954   0.747   0.604
40297SOL     OW20914   9.225   0.342   1.642
40297SOL    HW120915   9.208   0.373   1.548
40297SOL    HW220916   9.141   0.305   1.680
40298SOL     OW20917   9.178   0.934   1.517
40298SOL    HW120918   9.216   1.025   1.532
40298SOL    HW220919   9.170   0.917   1.418
40299SOL     OW20920   8.307   1.374   0.016
40299SOL    HW120921   8.261   1.389   0.104
40299SOL    HW220922   8.351   1.459  -0.014
40300SOL     OW20923   8.109   1.790   0.953
40300SOL    HW120924   8.063   1.878   0.940
40300SOL    HW220925   8.208   1.802   0.946
40301SOL     OW20926   8.307   0.956   0.861
40301SOL    HW120927   8.361   0.887   0.909
40301SOL    HW220928   8.275   1.025   0.927
40302SOL     OW20929   8.531   0.984   0.087
40302SOL    HW120930   8.508   1.037   0.005
40302SOL    HW220931   8.612   0.928   0.068
40303SOL     OW20932   9.309   1.569   0.851
40303SOL    HW120933   9.238   1.557   0.781
40303SOL    HW220934   9.310   1.490   0.911
40304SOL     OW20935   7.669   1.314   1.844
40304SOL    HW120936   7.604   1.241   1.823
40304SOL    HW220937   7.673   1.328   1.942
40305SOL     OW20938   7.527   1.240   0.653
40305SOL    HW120939   7.526   1.193   0.741
40305SOL    HW220940   7.609   1.212   0.602
40306SOL     OW20941   8.120   1.391   1.624
40306SOL    HW120942   8.042   1.341   1.662
40306SOL    HW220943   8.117   1.486   1.655
40307SOL     OW20944   9.272   0.192   1.227
40307SOL    HW120945   9.268   0.102   1.271
40307SOL    HW220946   9.275   0.181   1.128
40308SOL     OW20947   7.876   0.424   0.520
40308SOL    HW120948   7.906   0.352   0.458
40308SOL    HW220949   7.837   0.384   0.603
40309SOL     OW20950   9.153   1.487   1.104
40309SOL    HW120951   9.060   1.462   1.077
40309SOL    HW220952   9.179   1.437   1.186
40310SOL     OW20953   7.765   0.547   1.280
40310SOL    HW120954   7.803   0.488   1.352
40310SOL    HW220955   7.805   0.521   1.192
40311SOL     OW20956   8.260   1.586   0.687
40311SOL    HW120957   8.292   1.596   0.593
40311SOL    HW220958   8.181   1.524   0.689
40312SOL     OW20959   8.872   0.214   1.112
40312SOL    HW120960   8.924   0.149   1.167
40312SOL    HW220961   8.823   0.277   1.173
40313SOL     OW20962   8.449   0.034   1.154
40313SOL    HW120963   8.386  -0.038   1.123
40313SOL    HW220964   8.542  -0.002   1.154
40314SOL     OW20965   8.218   1.330   0.301
40314SOL    HW120966   8.172   1.243   0.318
40314SOL    HW220967   8.309   1.327   0.342
40315SOL     OW20968   8.066   1.567   1.284
40315SOL    HW120969   8.061   1.649   1.341
40315SOL    HW220970   8.155   1.564   1.239
40316SOL     OW20971   8.800   0.052   0.168
40316SOL    HW120972   8.835   0.011   0.084
40316SOL    HW220973   8.710   0.014   0.188
40317SOL     OW20974   8.748   0.453   0.691
40317SOL    HW120975   8.689   0.533   0.695
40317SOL    HW220976   8.763   0.418   0.784
40318SOL     OW20977   9.041   0.221   0.882
40318SOL    HW120978   8.957   0.220   0.936
40318SOL    HW220979   9.043   0.304   0.826
40319SOL     OW20980   7.487   1.077   0.300
40319SOL    HW120981   7.586   1.066   0.291
40319SOL    HW220982   7.447   0.991   0.332
40320SOL     OW20983   8.323   1.646   0.337
40320SOL    HW120984   8.246   1.611   0.283
40320SOL    HW220985   8.291   1.717   0.399
40321SOL     OW20986   7.678   0.628   1.975
40321SOL    HW120987   7.585   0.626   2.012
40321SOL    HW220988   7.679   0.589   1.883
40322SOL     OW20989   7.673   0.275   2.858
40322SOL    HW120990   7.708   0.258   2.950
40322SOL    HW220991   7.585   0.230   2.846
40323SOL     OW20992   7.467   0.368   2.509
40323SOL    HW120993   7.385   0.411   2.548
40323SOL    HW220994   7.439   0.295   2.446
40324SOL     OW20995   8.017   1.275   3.027
40324SOL    HW120996   7.924   1.268   2.990
40324SOL    HW220997   8.028   1.364   3.071
40325SOL     OW20998   9.003   1.511   2.565
40325SOL    HW120999   8.946   1.495   2.646
40325SOL    HW221000   8.944   1.521   2.485
40326SOL     OW21001   8.583   0.703   2.579
40326SOL    HW121002   8.640   0.781   2.554
40326SOL    HW221003   8.523   0.729   2.655
40327SOL     OW21004   9.203   0.607   2.093
40327SOL    HW121005   9.191   0.594   1.994
40327SOL    HW221006   9.173   0.526   2.142
40328SOL     OW21007   8.216   1.144   2.885
40328SOL    HW121008   8.138   1.161   2.945
40328SOL    HW221009   8.250   1.231   2.849
40329SOL     OW21010   8.298   0.798   3.685
40329SOL    HW121011   8.294   0.874   3.750
40329SOL    HW221012   8.320   0.834   3.594
40330SOL     OW21013   8.133   1.012   2.527
40330SOL    HW121014   8.202   0.996   2.597
40330SOL    HW221015   8.060   1.069   2.565
40331SOL     OW21016   8.134   1.161   3.665
40331SOL    HW121017   8.194   1.240   3.679
40331SOL    HW221018   8.048   1.192   3.624
40332SOL     OW21019   7.783   1.435   2.923
40332SOL    HW121020   7.705   1.404   2.870
40332SOL    HW221021   7.841   1.493   2.866
40333SOL     OW21022   8.908   1.505   3.201
40333SOL    HW121023   8.932   1.599   3.227
40333SOL    HW221024   8.892   1.451   3.283
40334SOL     OW21025   7.886   0.392   3.361
40334SOL    HW121026   7.968   0.336   3.370
40334SOL    HW221027   7.805   0.334   3.365
40335SOL     OW21028   9.051   0.447   2.599
40335SOL    HW121029   8.977   0.493   2.549
40335SOL    HW221030   9.102   0.515   2.652
40336SOL     OW21031   7.679   1.713   2.345
40336SOL    HW121032   7.713   1.790   2.399
40336SOL    HW221033   7.723   1.713   2.255
40337SOL     OW21034   8.575   1.341   3.552
40337SOL    HW121035   8.622   1.341   3.640
40337SOL    HW221036   8.527   1.254   3.541
40338SOL     OW21037   7.678   1.434   2.400
40338SOL    HW121038   7.652   1.530   2.400
40338SOL    HW221039   7.607   1.380   2.445
40339SOL     OW21040   7.688   1.091   2.748
40339SOL    HW121041   7.702   1.007   2.800
40339SOL    HW221042   7.633   1.155   2.803
40340SOL     OW21043   8.068   1.786   3.301
40340SOL    HW121044   7.976   1.769   3.336
40340SOL    HW221045   8.096   1.878   3.327
40341SOL     OW21046   8.054   0.964   1.985
40341SOL    HW121047   8.061   1.048   1.931
40341SOL    HW221048   8.100   0.977   2.073
40342SOL     OW21049   9.042   0.114   3.342
40342SOL    HW121050   9.024   0.181   3.270
40342SOL    HW221051   9.039   0.160   3.431
40343SOL     OW21052   7.570   0.643   2.425
40343SOL    HW121053   7.525   0.555   2.442
40343SOL    HW221054   7.569   0.697   2.509
40344SOL     OW21055   9.290   1.767   2.221
40344SOL    HW121056   9.344   1.738   2.301
40344SOL    HW221057   9.320   1.857   2.192
40345SOL     OW21058   7.475   1.596   1.979
40345SOL    HW121059   7.456   1.500   2.000
40345SOL    HW221060   7.442   1.654   2.054
40346SOL     OW21061   9.137   0.922   2.474
40346SOL    HW121062   9.232   0.893   2.482
40346SOL    HW221063   9.129   0.987   2.399
40347SOL     OW21064   9.089   1.108   2.294
40347SOL    HW121065   9.175   1.110   2.242
40347SOL    HW221066   9.103   1.155   2.382
40348SOL     OW21067   7.561   0.737   3.459
40348SOL    HW121068   7.649   0.724   3.504
40348SOL    HW221069   7.548   0.834   3.437
40349SOL     OW21070   8.061   1.365   2.588
40349SOL    HW121071   8.012   1.278   2.597
40349SOL    HW221072   8.038   1.408   2.501
40350SOL     OW21073   8.741   1.228   3.285
40350SOL    HW121074   8.778   1.155   3.227
40350SOL    HW221075   8.793   1.233   3.370
40351SOL     OW21076   8.257   0.004   2.364
40351SOL    HW121077   8.297   0.095   2.355
40351SOL    HW221078   8.157   0.012   2.370
40352SOL     OW21079   7.645   0.976   3.126
40352SOL    HW121080   7.734   0.931   3.112
40352SOL    HW221081   7.572   0.911   3.107
40353SOL     OW21082   8.973   0.999   2.052
40353SOL    HW121083   8.910   0.923   2.065
40353SOL    HW221084   9.021   1.017   2.138
40354SOL     OW21085   8.635   1.792   3.478
40354SOL    HW121086   8.659   1.852   3.402
40354SOL    HW221087   8.642   1.697   3.448
40355SOL     OW21088   7.765   0.251   3.663
40355SOL    HW121089   7.836   0.322   3.669
40355SOL    HW221090   7.677   0.290   3.691
40356SOL     OW21091   8.914   1.417   2.815
40356SOL    HW121092   8.855   1.423   2.895
40356SOL    HW221093   8.899   1.329   2.769
40357SOL     OW21094   9.115   1.714   2.434
40357SOL    HW121095   9.074   1.691   2.346
40357SOL    HW221096   9.097   1.640   2.499
40358SOL     OW21097   8.046   0.729   2.132
40358SOL    HW121098   8.070   0.798   2.064
40358SOL    HW221099   7.968   0.762   2.186
40359SOL     OW21100   8.729   0.345   2.806
40359SOL    HW121101   8.643   0.295   2.793
40359SOL    HW221102   8.791   0.291   2.862
40360SOL     OW21103   9.024   1.662   2.169
40360SOL    HW121104   9.113   1.708   2.172
40360SOL    HW221105   9.003   1.638   2.074
40361SOL     OW21106   8.255   0.605   3.327
40361SOL    HW121107   8.208   0.602   3.416
40361SOL    HW221108   8.204   0.550   3.261
40362SOL     OW21109   8.842   0.469   3.536
40362SOL    HW121110   8.822   0.512   3.624
40362SOL    HW221111   8.920   0.407   3.545
40363SOL     OW21112   8.421   0.890   3.434
40363SOL    HW121113   8.467   0.806   3.405
40363SOL    HW221114   8.365   0.924   3.359
40364SOL     OW21115   8.439   0.410   3.104
40364SOL    HW121116   8.362   0.444   3.158
40364SOL    HW221117   8.405   0.359   3.025
40365SOL     OW21118   8.489   0.701   2.291
40365SOL    HW121119   8.515   0.697   2.387
40365SOL    HW221120   8.404   0.650   2.277
40366SOL     OW21121   7.524   0.811   2.651
40366SOL    HW121122   7.623   0.799   2.660
40366SOL    HW221123   7.500   0.906   2.672
40367SOL     OW21124   7.578   1.821   3.433
40367SOL    HW121125   7.568   1.806   3.532
40367SOL    HW221126   7.492   1.857   3.397
40368SOL     OW21127   8.313   0.348   2.057
40368SOL    HW121128   8.372   0.411   2.008
40368SOL    HW221129   8.332   0.254   2.028
40369SOL     OW21130   9.167   0.585   3.693
40369SOL    HW121131   9.141   0.674   3.657
40369SOL    HW221132   9.165   0.517   3.620
40370SOL     OW21133   8.810   1.144   2.407
40370SOL    HW121134   8.893   1.115   2.359
40370SOL    HW221135   8.761   1.211   2.351
40371SOL     OW21136   7.998   0.196   2.747
40371SOL    HW121137   7.993   0.191   2.847
40371SOL    HW221138   8.000   0.292   2.718
40372SOL     OW21139   8.456   1.456   2.339
40372SOL    HW121140   8.410   1.528   2.287
40372SOL    HW221141   8.452   1.476   2.437
40373SOL     OW21142   7.799   1.801   2.715
40373SOL    HW121143   7.849   1.715   2.721
40373SOL    HW221144   7.864   1.878   2.712
40374SOL     OW21145   9.243   1.066   2.735
40374SOL    HW121146   9.181   1.051   2.659
40374SOL    HW221147   9.191   1.077   2.820
40375SOL     OW21148   8.675   1.550   3.368
40375SOL    HW121149   8.681   1.473   3.432
40375SOL    HW221150   8.623   1.524   3.288
40376SOL     OW21151   7.769   0.943   2.104
40376SOL    HW121152   7.851   0.982   2.062
40376SOL    HW221153   7.742   0.861   2.055
40377SOL     OW21154   8.906   0.735   2.590
40377SOL    HW121155   8.901   0.670   2.665
40377SOL    HW221156   8.986   0.794   2.603
40378SOL     OW21157   7.909   1.266   3.589
40378SOL    HW121158   7.859   1.267   3.503
40378SOL    HW221159   7.846   1.248   3.665
40379SOL     OW21160   8.559   1.776   2.099
40379SOL    HW121161   8.499   1.714   2.149
40379SOL    HW221162   8.590   1.732   2.014
40380SOL     OW21163   7.650   0.285   3.360
40380SOL    HW121164   7.570   0.345   3.347
40380SOL    HW221165   7.640   0.236   3.446
40381SOL     OW21166   9.080   1.377   1.943
40381SOL    HW121167   9.048   1.471   1.933
40381SOL    HW221168   9.004   1.314   1.931
40382SOL     OW21169   7.912   1.743   2.185
40382SOL    HW121170   7.945   1.782   2.271
40382SOL    HW221171   7.988   1.736   2.120
40383SOL     OW21172   8.848   0.107   2.288
40383SOL    HW121173   8.824   0.070   2.198
40383SOL    HW221174   8.947   0.123   2.292
40384SOL     OW21175   7.697   1.785   3.103
40384SOL    HW121176   7.754   1.720   3.153
40384SOL    HW221177   7.681   1.752   3.010
40385SOL     OW21178   8.388   1.698   2.766
40385SOL    HW121179   8.468   1.641   2.787
40385SOL    HW221180   8.339   1.658   2.689
40386SOL     OW21181   7.830   0.700   2.342
40386SOL    HW121182   7.875   0.610   2.339
40386SOL    HW221183   7.736   0.689   2.375
40387SOL     OW21184   8.995   0.222   3.591
40387SOL    HW121185   8.990   0.259   3.683
40387SOL    HW221186   8.923   0.153   3.579
40388SOL     OW21187   8.062   0.122   1.979
40388SOL    HW121188   8.160   0.100   1.986
40388SOL    HW221189   8.031   0.105   1.886
40389SOL     OW21190   8.229   0.264   3.611
40389SOL    HW121191   8.296   0.203   3.654
40389SOL    HW221192   8.156   0.283   3.676
40390SOL     OW21193   8.336   1.514   3.057
40390SOL    HW121194   8.313   1.489   2.963
40390SOL    HW221195   8.397   1.445   3.096
40391SOL     OW21196   8.799   0.590   3.295
40391SOL    HW121197   8.827   0.547   3.380
40391SOL    HW221198   8.824   0.686   3.296
40392SOL     OW21199   8.251   1.402   2.786
40392SOL    HW121200   8.341   1.416   2.744
40392SOL    HW221201   8.180   1.404   2.715
40393SOL     OW21202   8.370   0.503   2.761
40393SOL    HW121203   8.345   0.494   2.665
40393SOL    HW221204   8.418   0.421   2.792
40394SOL     OW21205   7.987   0.064   2.374
40394SOL    HW121206   7.906   0.065   2.432
40394SOL    HW221207   7.990   0.147   2.319
40395SOL     OW21208   8.882   1.188   1.903
40395SOL    HW121209   8.914   1.112   1.960
40395SOL    HW221210   8.790   1.215   1.933
40396SOL     OW21211   7.745   0.035   2.033
40396SOL    HW121212   7.794   0.119   2.012
40396SOL    HW221213   7.807  -0.030   2.078
40397SOL     OW21214   8.383   0.236   2.342
40397SOL    HW121215   8.335   0.277   2.264
40397SOL    HW221216   8.482   0.234   2.323
40398SOL     OW21217   8.524   0.683   3.326
40398SOL    HW121218   8.444   0.622   3.329
40398SOL    HW221219   8.605   0.630   3.302
40399SOL     OW21220   8.675   1.570   2.655
40399SOL    HW121221   8.696   1.644   2.590
40399SOL    HW221222   8.743   1.570   2.728
40400SOL     OW21223   7.907   1.152   2.603
40400SOL    HW121224   7.836   1.125   2.668
40400SOL    HW221225   7.881   1.124   2.510
40401SOL     OW21226   8.719   1.797   2.453
40401SOL    HW121227   8.763   1.861   2.389
40401SOL    HW221228   8.669   1.849   2.523
40402SOL     OW21229   8.480   0.549   1.878
40402SOL    HW121230   8.439   0.631   1.839
40402SOL    HW221231   8.544   0.575   1.951
40403SOL     OW21232   7.526   0.556   3.248
40403SOL    HW121233   7.618   0.555   3.207
40403SOL    HW221234   7.520   0.630   3.315
40404SOL     OW21235   8.009   0.222   3.009
40404SOL    HW121236   8.047   0.138   3.046
40404SOL    HW221237   7.921   0.241   3.053
40405SOL     OW21238   8.314   0.454   2.504
40405SOL    HW121239   8.282   0.526   2.442
40405SOL    HW221240   8.338   0.373   2.451
40406SOL     OW21241   8.465   0.039   2.615
40406SOL    HW121242   8.393   0.044   2.546
40406SOL    HW221243   8.441  -0.030   2.684
40407SOL     OW21244   8.877   1.173   2.729
40407SOL    HW121245   8.822   1.089   2.722
40407SOL    HW221246   8.903   1.202   2.637
40408SOL     OW21247   8.914   0.590   2.854
40408SOL    HW121248   8.884   0.495   2.861
40408SOL    HW221249   8.987   0.606   2.920
40409SOL     OW21250   9.305   0.833   2.239
40409SOL    HW121251   9.347   0.769   2.303
40409SOL    HW221252   9.267   0.782   2.161
40410SOL     OW21253   7.936   1.385   2.036
40410SOL    HW121254   7.849   1.370   2.083
40410SOL    HW221255   7.919   1.411   1.941
40411SOL     OW21256   9.112   1.280   2.519
40411SOL    HW121257   9.211   1.288   2.533
40411SOL    HW221258   9.067   1.364   2.550
40412SOL     OW21259   8.838   0.575   1.940
40412SOL    HW121260   8.784   0.554   2.021
40412SOL    HW221261   8.929   0.534   1.949
40413SOL     OW21262   7.975   0.256   2.190
40413SOL    HW121263   8.002   0.197   2.115
40413SOL    HW221264   7.975   0.351   2.159
40414SOL     OW21265   9.202   1.223   3.450
40414SOL    HW121266   9.293   1.184   3.437
40414SOL    HW221267   9.210   1.319   3.474
40415SOL     OW21268   8.512   1.347   3.202
40415SOL    HW121269   8.432   1.324   3.257
40415SOL    HW221270   8.595   1.321   3.251
40416SOL     OW21271   9.040   1.629   3.487
40416SOL    HW121272   9.067   1.663   3.397
40416SOL    HW221273   9.119   1.591   3.533
40417SOL     OW21274   8.559   1.195   2.962
40417SOL    HW121275   8.519   1.239   3.043
40417SOL    HW221276   8.518   1.232   2.879
40418SOL     OW21277   9.086   1.099   2.941
40418SOL    HW121278   9.091   1.180   3.000
40418SOL    HW221279   9.000   1.101   2.890
40419SOL     OW21280   8.363   0.089   3.264
40419SOL    HW121281   8.388   0.069   3.169
40419SOL    HW221282   8.435   0.145   3.306
40420SOL     OW21283   8.428   1.116   3.581
40420SOL    HW121284   8.329   1.122   3.591
40420SOL    HW221285   8.451   1.036   3.525
40421SOL     OW21286   8.153   1.050   2.230
40421SOL    HW121287   8.139   1.057   2.329
40421SOL    HW221288   8.237   0.999   2.212
40422SOL     OW21289   7.858   0.813   3.113
40422SOL    HW121290   7.944   0.825   3.163
40422SOL    HW221291   7.816   0.726   3.140
40423SOL     OW21292   8.722   0.386   3.124
40423SOL    HW121293   8.743   0.460   3.188
40423SOL    HW221294   8.633   0.403   3.081
40424SOL     OW21295   7.512   1.564   3.193
40424SOL    HW121296   7.466   1.646   3.159
40424SOL    HW221297   7.610   1.583   3.202
40425SOL     OW21298   7.815   1.100   2.363
40425SOL    HW121299   7.808   1.183   2.307
40425SOL    HW221300   7.819   1.020   2.303
40426SOL     OW21301   8.014   0.537   2.727
40426SOL    HW121302   8.026   0.603   2.653
40426SOL    HW221303   8.060   0.571   2.810
40427SOL     OW21304   8.700   1.348   2.250
40427SOL    HW121305   8.750   1.425   2.290
40427SOL    HW221306   8.605   1.350   2.282
40428SOL     OW21307   8.720   1.445   3.004
40428SOL    HW121308   8.767   1.458   3.091
40428SOL    HW221309   8.654   1.371   3.013
40429SOL     OW21310   9.030   0.639   2.334
40429SOL    HW121311   8.999   0.700   2.407
40429SOL    HW221312   9.080   0.691   2.265
40430SOL     OW21313   7.802   1.510   3.191
40430SOL    HW121314   7.781   1.466   3.104
40430SOL    HW221315   7.899   1.536   3.194
40431SOL     OW21316   7.850   0.751   3.460
40431SOL    HW121317   7.918   0.806   3.413
40431SOL    HW221318   7.890   0.663   3.487
40432SOL     OW21319   9.035   0.779   3.532
40432SOL    HW121320   8.943   0.817   3.527
40432SOL    HW221321   9.095   0.826   3.467
40433SOL     OW21322   8.461   0.105   3.632
40433SOL    HW121323   8.467   0.190   3.580
40433SOL    HW221324   8.493   0.029   3.575
40434SOL     OW21325   7.952   0.050   3.602
40434SOL    HW121326   7.910  -0.007   3.532
40434SOL    HW221327   7.886   0.119   3.634
40435SOL     OW21328   8.021   0.870   2.891
40435SOL    HW121329   8.065   0.959   2.882
40435SOL    HW221330   7.958   0.870   2.968
40436SOL     OW21331   8.808   0.862   2.907
40436SOL    HW121332   8.733   0.862   2.841
40436SOL    HW221333   8.845   0.770   2.916
40437SOL     OW21334   8.657   0.525   2.137
40437SOL    HW121335   8.670   0.441   2.191
40437SOL    HW221336   8.628   0.599   2.197
40438SOL     OW21337   7.755   0.213   3.093
40438SOL    HW121338   7.732   0.250   3.183
40438SOL    HW221339   7.725   0.118   3.087
40439SOL     OW21340   7.485   1.310   3.144
40439SOL    HW121341   7.538   1.261   3.212
40439SOL    HW221342   7.507   1.408   3.149
40440SOL     OW21343   8.180   0.634   2.926
40440SOL    HW121344   8.239   0.608   2.850
40440SOL    HW221345   8.152   0.730   2.915
40441SOL     OW21346   9.176   0.935   3.716
40441SOL    HW121347   9.130   0.928   3.627
40441SOL    HW221348   9.114   0.979   3.782
40442SOL     OW21349   7.755   0.063   2.480
40442SOL    HW121350   7.744   0.157   2.513
40442SOL    HW221351   7.750   0.000   2.557
40443SOL     OW21352   9.070   0.367   2.236
40443SOL    HW121353   9.072   0.291   2.300
40443SOL    HW221354   9.022   0.444   2.276
40444SOL     OW21355   8.471   0.766   2.828
40444SOL    HW121356   8.486   0.787   2.924
40444SOL    HW221357   8.441   0.671   2.819
40445SOL     OW21358   8.428   1.573   3.562
40445SOL    HW121359   8.408   1.617   3.474
40445SOL    HW221360   8.467   1.482   3.546
40446SOL     OW21361   9.307   1.518   3.467
40446SOL    HW121362   9.321   1.545   3.372
40446SOL    HW221363   9.390   1.540   3.520
40447SOL     OW21364   7.798   0.898   3.666
40447SOL    HW121365   7.874   0.942   3.714
40447SOL    HW221366   7.833   0.851   3.584
40448SOL     OW21367   8.988   0.274   1.987
40448SOL    HW121368   8.927   0.199   2.010
40448SOL    HW221369   9.010   0.326   2.070
40449SOL     OW21370   8.751   0.838   1.904
40449SOL    HW121371   8.785   0.745   1.919
40449SOL    HW221372   8.769   0.865   1.809
40450SOL     OW21373   8.516   1.333   2.711
40450SOL    HW121374   8.523   1.249   2.656
40450SOL    HW221375   8.578   1.402   2.675
40451SOL     OW21376   7.767   0.810   2.811
40451SOL    HW121377   7.860   0.846   2.816
40451SOL    HW221378   7.761   0.725   2.863
40452SOL     OW21379   7.787   0.509   2.868
40452SOL    HW121380   7.735   0.426   2.851
40452SOL    HW221381   7.864   0.514   2.804
40453SOL     OW21382   8.586   0.380   3.540
40453SOL    HW121383   8.541   0.443   3.604
40453SOL    HW221384   8.679   0.411   3.523
40454SOL     OW21385   8.608   0.207   3.339
40454SOL    HW121386   8.608   0.271   3.416
40454SOL    HW221387   8.636   0.255   3.256
40455SOL     OW21388   7.456   1.326   2.062
40455SOL    HW121389   7.363   1.347   2.031
40455SOL    HW221390   7.466   1.227   2.075
40456SOL     OW21391   7.536   1.801   2.789
40456SOL    HW121392   7.494   1.715   2.762
40456SOL    HW221393   7.630   1.804   2.755
40457SOL     OW21394   7.952   1.568   2.772
40457SOL    HW121395   8.018   1.642   2.781
40457SOL    HW221396   7.996   1.489   2.730
40458SOL     OW21397   8.450   0.796   3.100
40458SOL    HW121398   8.491   0.764   3.186
40458SOL    HW221399   8.354   0.769   3.097
40459SOL     OW21400   7.488   0.544   2.976
40459SOL    HW121401   7.573   0.511   2.935
40459SOL    HW221402   7.501   0.559   3.074
40460SOL     OW21403   7.637   0.520   3.584
40460SOL    HW121404   7.696   0.480   3.514
40460SOL    HW221405   7.579   0.591   3.543
40461SOL     OW21406   8.817   0.950   3.522
40461SOL    HW121407   8.856   1.039   3.542
40461SOL    HW221408   8.827   0.930   3.425
40462SOL     OW21409   8.263   0.572   2.187
40462SOL    HW121410   8.270   0.483   2.141
40462SOL    HW221411   8.169   0.606   2.179
40463SOL     OW21412   9.105   0.604   3.068
40463SOL    HW121413   9.067   0.535   3.130
40463SOL    HW221414   9.187   0.568   3.024
40464SOL     OW21415   7.700   1.564   3.606
40464SOL    HW121416   7.670   1.621   3.682
40464SOL    HW221417   7.693   1.467   3.632
40465SOL     OW21418   8.119   0.464   3.131
40465SOL    HW121419   8.085   0.375   3.101
40465SOL    HW221420   8.145   0.518   3.051
40466SOL     OW21421   8.378   1.678   3.327
40466SOL    HW121422   8.354   1.660   3.232
40466SOL    HW221423   8.408   1.772   3.337
40467SOL     OW21424   7.921   0.500   2.053
40467SOL    HW121425   7.982   0.580   2.057
40467SOL    HW221426   7.826   0.531   2.060
40468SOL     OW21427   7.607   1.137   3.328
40468SOL    HW121428   7.629   1.076   3.404
40468SOL    HW221429   7.617   1.088   3.242
40469SOL     OW21430   8.795   1.059   3.096
40469SOL    HW121431   8.819   0.996   3.022
40469SOL    HW221432   8.705   1.099   3.078
40470SOL     OW21433   8.750   0.855   2.171
40470SOL    HW121434   8.664   0.824   2.213
40470SOL    HW221435   8.746   0.841   2.072
40471SOL     OW21436   9.207   1.747   3.016
40471SOL    HW121437   9.268   1.777   2.943
40471SOL    HW221438   9.169   1.658   2.994
40472SOL     OW21439   8.700   1.731   2.990
40472SOL    HW121440   8.784   1.736   2.936
40472SOL    HW221441   8.677   1.635   3.008
40473SOL     OW21442   7.531   1.258   2.884
40473SOL    HW121443   7.526   1.257   2.984
40473SOL    HW221444   7.448   1.217   2.846
40474SOL     OW21445   8.136   1.662   3.578
40474SOL    HW121446   8.080   1.743   3.587
40474SOL    HW221447   8.188   1.666   3.492
40475SOL     OW21448   9.174   0.135   2.385
40475SOL    HW121449   9.247   0.118   2.318
40475SOL    HW221450   9.143   0.048   2.423
40476SOL     OW21451   8.836   1.573   2.339
40476SOL    HW121452   8.903   1.585   2.265
40476SOL    HW221453   8.796   1.662   2.362
40477SOL     OW21454   7.578   1.794   3.713
40477SOL    HW121455   7.537   1.720   3.766
40477SOL    HW221456   7.642   1.845   3.771
40478SOL     OW21457   8.728   0.927   2.534
40478SOL    HW121458   8.788   0.846   2.536
40478SOL    HW221459   8.768   0.996   2.474
40479SOL     OW21460   8.278   1.273   3.284
40479SOL    HW121461   8.273   1.306   3.379
40479SOL    HW221462   8.192   1.292   3.238
40480SOL     OW21463   8.120   1.616   2.016
40480SOL    HW121464   8.129   1.626   1.917
40480SOL    HW221465   8.080   1.527   2.037
40481SOL     OW21466   9.098   1.720   3.256
40481SOL    HW121467   9.151   1.730   3.172
40481SOL    HW221468   9.071   1.810   3.290
40482SOL     OW21469   9.289   0.175   2.825
40482SOL    HW121470   9.328   0.090   2.789
40482SOL    HW221471   9.191   0.177   2.806
40483SOL     OW21472   7.711   0.326   2.582
40483SOL    HW121473   7.632   0.377   2.548
40483SOL    HW221474   7.702   0.311   2.680
40484SOL     OW21475   8.642   1.612   1.893
40484SOL    HW121476   8.648   1.519   1.930
40484SOL    HW221477   8.583   1.612   1.813
40485SOL     OW21478   8.270   1.002   3.234
40485SOL    HW121479   8.310   1.001   3.142
40485SOL    HW221480   8.280   1.094   3.274
40486SOL     OW21481   8.364   0.910   2.153
40486SOL    HW121482   8.427   0.948   2.085
40486SOL    HW221483   8.404   0.827   2.192
40487SOL     OW21484   8.952   1.607   1.906
40487SOL    HW121485   8.860   1.644   1.913
40487SOL    HW221486   8.990   1.627   1.816
40488SOL     OW21487   7.820   1.288   3.352
40488SOL    HW121488   7.807   1.381   3.318
40488SOL    HW221489   7.736   1.236   3.339
40489SOL     OW21490   9.062   1.292   3.151
40489SOL    HW121491   9.122   1.295   3.231
40489SOL    HW221492   8.987   1.356   3.164
40490SOL     OW21493   8.487   1.098   2.558
40490SOL    HW121494   8.417   1.051   2.612
40490SOL    HW221495   8.546   1.030   2.515
40491SOL     OW21496   8.462   0.236   2.833
40491SOL    HW121497   8.454   0.200   2.740
40491SOL    HW221498   8.460   0.160   2.898
40492SOL     OW21499   8.038   1.487   2.353
40492SOL    HW121500   8.080   1.429   2.283
40492SOL    HW221501   7.994   1.566   2.309
40493SOL     OW21502   9.157   0.385   3.243
40493SOL    HW121503   9.230   0.454   3.247
40493SOL    HW221504   9.185   0.310   3.184
40494SOL     OW21505   7.703   1.348   2.152
40494SOL    HW121506   7.607   1.349   2.125
40494SOL    HW221507   7.715   1.401   2.236
40495SOL     OW21508   7.553   1.013   3.588
40495SOL    HW121509   7.476   0.980   3.642
40495SOL    HW221510   7.638   0.983   3.630
40496SOL     OW21511   8.120   0.203   3.351
40496SOL    HW121512   8.210   0.187   3.311
40496SOL    HW221513   8.128   0.208   3.450
40497SOL     OW21514   7.523   0.345   1.895
40497SOL    HW121515   7.431   0.317   1.866
40497SOL    HW221516   7.554   0.422   1.839
40498SOL     OW21517   8.888   0.856   3.260
40498SOL    HW121518   8.831   0.908   3.197
40498SOL    HW221519   8.984   0.868   3.236
40499SOL     OW21520   7.520   0.166   2.180
40499SOL    HW121521   7.503   0.249   2.126
40499SOL    HW221522   7.610   0.129   2.158
40500SOL     OW21523   8.631   1.335   1.981
40500SOL    HW121524   8.532   1.324   1.983
40500SOL    HW221525   8.665   1.350   2.074
40501SOL     OW21526   8.061   0.842   3.293
40501SOL    HW121527   8.117   0.923   3.276
40501SOL    HW221528   8.120   0.762   3.296
40502SOL     OW21529   8.941   1.767   2.821
40502SOL    HW121530   8.974   1.831   2.752
40502SOL    HW221531   9.007   1.761   2.896
40503SOL     OW21532   8.164   0.565   3.570
40503SOL    HW121533   8.183   0.630   3.644
40503SOL    HW221534   8.224   0.485   3.579
40504SOL     OW21535   8.898   1.220   3.495
40504SOL    HW121536   8.889   1.210   3.594
40504SOL    HW221537   8.994   1.213   3.469
40505SOL     OW21538   7.838   1.741   3.422
40505SOL    HW121539   7.747   1.782   3.420
40505SOL    HW221540   7.831   1.647   3.454
40506SOL     OW21541   9.122   0.883   3.116
40506SOL    HW121542   9.095   0.794   3.079
40506SOL    HW221543   9.123   0.951   3.043
40507SOL     OW21544   8.673   0.325   2.311
40507SOL    HW121545   8.738   0.251   2.300
40507SOL    HW221546   8.693   0.375   2.395
40508SOL     OW21547   8.042   0.745   2.514
40508SOL    HW121548   8.092   0.830   2.495
40508SOL    HW221549   7.954   0.747   2.466
40509SOL     OW21550   9.225   0.342   3.504
40509SOL    HW121551   9.208   0.373   3.410
40509SOL    HW221552   9.141   0.305   3.542
40510SOL     OW21553   9.178   0.934   3.379
40510SOL    HW121554   9.216   1.025   3.394
40510SOL    HW221555   9.170   0.917   3.280
40511SOL     OW21556   8.307   1.374   1.878
40511SOL    HW121557   8.261   1.389   1.966
40511SOL    HW221558   8.351   1.459   1.848
40512SOL     OW21559   8.109   1.790   2.815
40512SOL    HW121560   8.063   1.878   2.802
40512SOL    HW221561   8.208   1.802   2.808
40513SOL     OW21562   8.307   0.956   2.723
40513SOL    HW121563   8.361   0.887   2.771
40513SOL    HW221564   8.275   1.025   2.789
40514SOL     OW21565   8.531   0.984   1.949
40514SOL    HW121566   8.508   1.037   1.867
40514SOL    HW221567   8.612   0.928   1.930
40515SOL     OW21568   9.309   1.569   2.713
40515SOL    HW121569   9.238   1.557   2.643
40515SOL    HW221570   9.310   1.490   2.773
40516SOL     OW21571   7.669   1.314   3.706
40516SOL    HW121572   7.604   1.241   3.685
40516SOL    HW221573   7.673   1.328   3.804
40517SOL     OW21574   7.527   1.240   2.515
40517SOL    HW121575   7.526   1.193   2.603
40517SOL    HW221576   7.609   1.212   2.464
40518SOL     OW21577   8.120   1.391   3.486
40518SOL    HW121578   8.042   1.341   3.524
40518SOL    HW221579   8.117   1.486   3.517
40519SOL     OW21580   9.272   0.192   3.089
40519SOL    HW121581   9.268   0.102   3.133
40519SOL    HW221582   9.275   0.181   2.990
40520SOL     OW21583   7.876   0.424   2.382
40520SOL    HW121584   7.906   0.352   2.320
40520SOL    HW221585   7.837   0.384   2.465
40521SOL     OW21586   9.153   1.487   2.966
40521SOL    HW121587   9.060   1.462   2.939
40521SOL    HW221588   9.179   1.437   3.048
40522SOL     OW21589   7.765   0.547   3.142
40522SOL    HW121590   7.803   0.488   3.214
40522SOL    HW221591   7.805   0.521   3.054
40523SOL     OW21592   8.260   1.586   2.549
40523SOL    HW121593   8.292   1.596   2.455
40523SOL    HW221594   8.181   1.524   2.551
40524SOL     OW21595   8.872   0.214   2.974
40524SOL    HW121596   8.924   0.149   3.029
40524SOL    HW221597   8.823   0.277   3.035
40525SOL     OW21598   8.449   0.034   3.016
40525SOL    HW121599   8.386  -0.038   2.985
40525SOL    HW221600   8.542  -0.002   3.016
40526SOL     OW21601   8.218   1.330   2.163
40526SOL    HW121602   8.172   1.243   2.180
40526SOL    HW221603   8.309   1.327   2.204
40527SOL     OW21604   8.066   1.567   3.146
40527SOL    HW121605   8.061   1.649   3.203
40527SOL    HW221606   8.155   1.564   3.101
40528SOL     OW21607   8.800   0.052   2.030
40528SOL    HW121608   8.835   0.011   1.946
40528SOL    HW221609   8.710   0.014   2.050
40529SOL     OW21610   8.748   0.453   2.553
40529SOL    HW121611   8.689   0.533   2.557
40529SOL    HW221612   8.763   0.418   2.646
40530SOL     OW21613   9.041   0.221   2.744
40530SOL    HW121614   8.957   0.220   2.798
40530SOL    HW221615   9.043   0.304   2.688
40531SOL     OW21616   7.487   1.077   2.162
40531SOL    HW121617   7.586   1.066   2.153
40531SOL    HW221618   7.447   0.991   2.194
40532SOL     OW21619   8.323   1.646   2.199
40532SOL    HW121620   8.246   1.611   2.145
40532SOL    HW221621   8.291   1.717   2.261
40533SOL     OW21622   7.678   0.628   3.837
40533SOL    HW121623   7.585   0.626   3.874
40533SOL    HW221624   7.679   0.589   3.745
40534SOL     OW21625   7.673   0.275   4.720
40534SOL    HW121626   7.708   0.258   4.812
40534SOL    HW221627   7.585   0.230   4.708
40535SOL     OW21628   7.467   0.368   4.371
40535SOL    HW121629   7.385   0.411   4.410
40535SOL    HW221630   7.439   0.295   4.308
40536SOL     OW21631   8.017   1.275   4.889
40536SOL    HW121632   7.924   1.268   4.852
40536SOL    HW221633   8.028   1.364   4.933
40537SOL     OW21634   9.003   1.511   4.427
40537SOL    HW121635   8.946   1.495   4.508
40537SOL    HW221636   8.944   1.521   4.347
40538SOL     OW21637   8.583   0.703   4.441
40538SOL    HW121638   8.640   0.781   4.416
40538SOL    HW221639   8.523   0.729   4.517
40539SOL     OW21640   9.203   0.607   3.955
40539SOL    HW121641   9.191   0.594   3.856
40539SOL    HW221642   9.173   0.526   4.004
40540SOL     OW21643   8.216   1.144   4.747
40540SOL    HW121644   8.138   1.161   4.807
40540SOL    HW221645   8.250   1.231   4.711
40541SOL     OW21646   8.298   0.798   5.547
40541SOL    HW121647   8.294   0.874   5.612
40541SOL    HW221648   8.320   0.834   5.456
40542SOL     OW21649   8.133   1.012   4.389
40542SOL    HW121650   8.202   0.996   4.459
40542SOL    HW221651   8.060   1.069   4.427
40543SOL     OW21652   8.134   1.161   5.527
40543SOL    HW121653   8.194   1.240   5.541
40543SOL    HW221654   8.048   1.192   5.486
40544SOL     OW21655   7.783   1.435   4.785
40544SOL    HW121656   7.705   1.404   4.732
40544SOL    HW221657   7.841   1.493   4.728
40545SOL     OW21658   8.908   1.505   5.063
40545SOL    HW121659   8.932   1.599   5.089
40545SOL    HW221660   8.892   1.451   5.145
40546SOL     OW21661   7.886   0.392   5.223
40546SOL    HW121662   7.968   0.336   5.232
40546SOL    HW221663   7.805   0.334   5.227
40547SOL     OW21664   9.051   0.447   4.461
40547SOL    HW121665   8.977   0.493   4.411
40547SOL    HW221666   9.102   0.515   4.514
40548SOL     OW21667   7.679   1.713   4.207
40548SOL    HW121668   7.713   1.790   4.261
40548SOL    HW221669   7.723   1.713   4.117
40549SOL     OW21670   8.575   1.341   5.414
40549SOL    HW121671   8.622   1.341   5.502
40549SOL    HW221672   8.527   1.254   5.403
40550SOL     OW21673   7.678   1.434   4.262
40550SOL    HW121674   7.652   1.530   4.262
40550SOL    HW221675   7.607   1.380   4.307
40551SOL     OW21676   7.688   1.091   4.610
40551SOL    HW121677   7.702   1.007   4.662
40551SOL    HW221678   7.633   1.155   4.665
40552SOL     OW21679   8.068   1.786   5.163
40552SOL    HW121680   7.976   1.769   5.198
40552SOL    HW221681   8.096   1.878   5.189
40553SOL     OW21682   8.054   0.964   3.847
40553SOL    HW121683   8.061   1.048   3.793
40553SOL    HW221684   8.100   0.977   3.935
40554SOL     OW21685   9.042   0.114   5.204
40554SOL    HW121686   9.024   0.181   5.132
40554SOL    HW221687   9.039   0.160   5.293
40555SOL     OW21688   7.570   0.643   4.287
40555SOL    HW121689   7.525   0.555   4.304
40555SOL    HW221690   7.569   0.697   4.371
40556SOL     OW21691   9.290   1.767   4.083
40556SOL    HW121692   9.344   1.738   4.163
40556SOL    HW221693   9.320   1.857   4.054
40557SOL     OW21694   7.475   1.596   3.841
40557SOL    HW121695   7.456   1.500   3.862
40557SOL    HW221696   7.442   1.654   3.916
40558SOL     OW21697   9.137   0.922   4.336
40558SOL    HW121698   9.232   0.893   4.344
40558SOL    HW221699   9.129   0.987   4.261
40559SOL     OW21700   9.089   1.108   4.156
40559SOL    HW121701   9.175   1.110   4.104
40559SOL    HW221702   9.103   1.155   4.244
40560SOL     OW21703   7.561   0.737   5.321
40560SOL    HW121704   7.649   0.724   5.366
40560SOL    HW221705   7.548   0.834   5.299
40561SOL     OW21706   8.061   1.365   4.450
40561SOL    HW121707   8.012   1.278   4.459
40561SOL    HW221708   8.038   1.408   4.363
40562SOL     OW21709   8.741   1.228   5.147
40562SOL    HW121710   8.778   1.155   5.089
40562SOL    HW221711   8.793   1.233   5.232
40563SOL     OW21712   8.257   0.004   4.226
40563SOL    HW121713   8.297   0.095   4.217
40563SOL    HW221714   8.157   0.012   4.232
40564SOL     OW21715   7.645   0.976   4.988
40564SOL    HW121716   7.734   0.931   4.974
40564SOL    HW221717   7.572   0.911   4.969
40565SOL     OW21718   8.973   0.999   3.914
40565SOL    HW121719   8.910   0.923   3.927
40565SOL    HW221720   9.021   1.017   4.000
40566SOL     OW21721   8.635   1.792   5.340
40566SOL    HW121722   8.659   1.852   5.264
40566SOL    HW221723   8.642   1.697   5.310
40567SOL     OW21724   7.765   0.251   5.525
40567SOL    HW121725   7.836   0.322   5.531
40567SOL    HW221726   7.677   0.290   5.553
40568SOL     OW21727   8.914   1.417   4.677
40568SOL    HW121728   8.855   1.423   4.757
40568SOL    HW221729   8.899   1.329   4.631
40569SOL     OW21730   9.115   1.714   4.296
40569SOL    HW121731   9.074   1.691   4.208
40569SOL    HW221732   9.097   1.640   4.361
40570SOL     OW21733   8.046   0.729   3.994
40570SOL    HW121734   8.070   0.798   3.926
40570SOL    HW221735   7.968   0.762   4.048
40571SOL     OW21736   8.729   0.345   4.668
40571SOL    HW121737   8.643   0.295   4.655
40571SOL    HW221738   8.791   0.291   4.724
40572SOL     OW21739   9.024   1.662   4.031
40572SOL    HW121740   9.113   1.708   4.034
40572SOL    HW221741   9.003   1.638   3.936
40573SOL     OW21742   8.255   0.605   5.189
40573SOL    HW121743   8.208   0.602   5.278
40573SOL    HW221744   8.204   0.550   5.123
40574SOL     OW21745   8.842   0.469   5.398
40574SOL    HW121746   8.822   0.512   5.486
40574SOL    HW221747   8.920   0.407   5.407
40575SOL     OW21748   8.421   0.890   5.296
40575SOL    HW121749   8.467   0.806   5.267
40575SOL    HW221750   8.365   0.924   5.221
40576SOL     OW21751   8.439   0.410   4.966
40576SOL    HW121752   8.362   0.444   5.020
40576SOL    HW221753   8.405   0.359   4.887
40577SOL     OW21754   8.489   0.701   4.153
40577SOL    HW121755   8.515   0.697   4.249
40577SOL    HW221756   8.404   0.650   4.139
40578SOL     OW21757   7.524   0.811   4.513
40578SOL    HW121758   7.623   0.799   4.522
40578SOL    HW221759   7.500   0.906   4.534
40579SOL     OW21760   7.578   1.821   5.295
40579SOL    HW121761   7.568   1.806   5.394
40579SOL    HW221762   7.492   1.857   5.259
40580SOL     OW21763   8.313   0.348   3.919
40580SOL    HW121764   8.372   0.411   3.870
40580SOL    HW221765   8.332   0.254   3.890
40581SOL     OW21766   9.167   0.585   5.555
40581SOL    HW121767   9.141   0.674   5.519
40581SOL    HW221768   9.165   0.517   5.482
40582SOL     OW21769   8.810   1.144   4.269
40582SOL    HW121770   8.893   1.115   4.221
40582SOL    HW221771   8.761   1.211   4.213
40583SOL     OW21772   7.998   0.196   4.609
40583SOL    HW121773   7.993   0.191   4.709
40583SOL    HW221774   8.000   0.292   4.580
40584SOL     OW21775   8.456   1.456   4.201
40584SOL    HW121776   8.410   1.528   4.149
40584SOL    HW221777   8.452   1.476   4.299
40585SOL     OW21778   7.799   1.801   4.577
40585SOL    HW121779   7.849   1.715   4.583
40585SOL    HW221780   7.864   1.878   4.574
40586SOL     OW21781   9.243   1.066   4.597
40586SOL    HW121782   9.181   1.051   4.521
40586SOL    HW221783   9.191   1.077   4.682
40587SOL     OW21784   8.675   1.550   5.230
40587SOL    HW121785   8.681   1.473   5.294
40587SOL    HW221786   8.623   1.524   5.150
40588SOL     OW21787   7.769   0.943   3.966
40588SOL    HW121788   7.851   0.982   3.924
40588SOL    HW221789   7.742   0.861   3.917
40589SOL     OW21790   8.906   0.735   4.452
40589SOL    HW121791   8.901   0.670   4.527
40589SOL    HW221792   8.986   0.794   4.465
40590SOL     OW21793   7.909   1.266   5.451
40590SOL    HW121794   7.859   1.267   5.365
40590SOL    HW221795   7.846   1.248   5.527
40591SOL     OW21796   8.559   1.776   3.961
40591SOL    HW121797   8.499   1.714   4.011
40591SOL    HW221798   8.590   1.732   3.876
40592SOL     OW21799   7.650   0.285   5.222
40592SOL    HW121800   7.570   0.345   5.209
40592SOL    HW221801   7.640   0.236   5.308
40593SOL     OW21802   9.080   1.377   3.805
40593SOL    HW121803   9.048   1.471   3.795
40593SOL    HW221804   9.004   1.314   3.793
40594SOL     OW21805   7.912   1.743   4.047
40594SOL    HW121806   7.945   1.782   4.133
40594SOL    HW221807   7.988   1.736   3.982
40595SOL     OW21808   8.848   0.107   4.150
40595SOL    HW121809   8.824   0.070   4.060
40595SOL    HW221810   8.947   0.123   4.154
40596SOL     OW21811   7.697   1.785   4.965
40596SOL    HW121812   7.754   1.720   5.015
40596SOL    HW221813   7.681   1.752   4.872
40597SOL     OW21814   8.388   1.698   4.628
40597SOL    HW121815   8.468   1.641   4.649
40597SOL    HW221816   8.339   1.658   4.551
40598SOL     OW21817   7.830   0.700   4.204
40598SOL    HW121818   7.875   0.610   4.201
40598SOL    HW221819   7.736   0.689   4.237
40599SOL     OW21820   8.995   0.222   5.453
40599SOL    HW121821   8.990   0.259   5.545
40599SOL    HW221822   8.923   0.153   5.441
40600SOL     OW21823   8.062   0.122   3.841
40600SOL    HW121824   8.160   0.100   3.848
40600SOL    HW221825   8.031   0.105   3.748
40601SOL     OW21826   8.229   0.264   5.473
40601SOL    HW121827   8.296   0.203   5.516
40601SOL    HW221828   8.156   0.283   5.538
40602SOL     OW21829   8.336   1.514   4.919
40602SOL    HW121830   8.313   1.489   4.825
40602SOL    HW221831   8.397   1.445   4.958
40603SOL     OW21832   8.799   0.590   5.157
40603SOL    HW121833   8.827   0.547   5.242
40603SOL    HW221834   8.824   0.686   5.158
40604SOL     OW21835   8.251   1.402   4.648
40604SOL    HW121836   8.341   1.416   4.606
40604SOL    HW221837   8.180   1.404   4.577
40605SOL     OW21838   8.370   0.503   4.623
40605SOL    HW121839   8.345   0.494   4.527
40605SOL    HW221840   8.418   0.421   4.654
40606SOL     OW21841   7.987   0.064   4.236
40606SOL    HW121842   7.906   0.065   4.294
40606SOL    HW221843   7.990   0.147   4.181
40607SOL     OW21844   8.882   1.188   3.765
40607SOL    HW121845   8.914   1.112   3.822
40607SOL    HW221846   8.790   1.215   3.795
40608SOL     OW21847   7.745   0.035   3.895
40608SOL    HW121848   7.794   0.119   3.874
40608SOL    HW221849   7.807  -0.030   3.940
40609SOL     OW21850   8.383   0.236   4.204
40609SOL    HW121851   8.335   0.277   4.126
40609SOL    HW221852   8.482   0.234   4.185
40610SOL     OW21853   8.524   0.683   5.188
40610SOL    HW121854   8.444   0.622   5.191
40610SOL    HW221855   8.605   0.630   5.164
40611SOL     OW21856   8.675   1.570   4.517
40611SOL    HW121857   8.696   1.644   4.452
40611SOL    HW221858   8.743   1.570   4.590
40612SOL     OW21859   7.907   1.152   4.465
40612SOL    HW121860   7.836   1.125   4.530
40612SOL    HW221861   7.881   1.124   4.372
40613SOL     OW21862   8.719   1.797   4.315
40613SOL    HW121863   8.763   1.861   4.251
40613SOL    HW221864   8.669   1.849   4.385
40614SOL     OW21865   8.480   0.549   3.740
40614SOL    HW121866   8.439   0.631   3.701
40614SOL    HW221867   8.544   0.575   3.813
40615SOL     OW21868   7.526   0.556   5.110
40615SOL    HW121869   7.618   0.555   5.069
40615SOL    HW221870   7.520   0.630   5.177
40616SOL     OW21871   8.009   0.222   4.871
40616SOL    HW121872   8.047   0.138   4.908
40616SOL    HW221873   7.921   0.241   4.915
40617SOL     OW21874   8.314   0.454   4.366
40617SOL    HW121875   8.282   0.526   4.304
40617SOL    HW221876   8.338   0.373   4.313
40618SOL     OW21877   8.465   0.039   4.477
40618SOL    HW121878   8.393   0.044   4.408
40618SOL    HW221879   8.441  -0.030   4.546
40619SOL     OW21880   8.877   1.173   4.591
40619SOL    HW121881   8.822   1.089   4.584
40619SOL    HW221882   8.903   1.202   4.499
40620SOL     OW21883   8.914   0.590   4.716
40620SOL    HW121884   8.884   0.495   4.723
40620SOL    HW221885   8.987   0.606   4.782
40621SOL     OW21886   9.305   0.833   4.101
40621SOL    HW121887   9.347   0.769   4.165
40621SOL    HW221888   9.267   0.782   4.023
40622SOL     OW21889   7.936   1.385   3.898
40622SOL    HW121890   7.849   1.370   3.945
40622SOL    HW221891   7.919   1.411   3.803
40623SOL     OW21892   9.112   1.280   4.381
40623SOL    HW121893   9.211   1.288   4.395
40623SOL    HW221894   9.067   1.364   4.412
40624SOL     OW21895   8.838   0.575   3.802
40624SOL    HW121896   8.784   0.554   3.883
40624SOL    HW221897   8.929   0.534   3.811
40625SOL     OW21898   7.975   0.256   4.052
40625SOL    HW121899   8.002   0.197   3.977
40625SOL    HW221900   7.975   0.351   4.021
40626SOL     OW21901   9.202   1.223   5.312
40626SOL    HW121902   9.293   1.184   5.299
40626SOL    HW221903   9.210   1.319   5.336
40627SOL     OW21904   8.512   1.347   5.064
40627SOL    HW121905   8.432   1.324   5.119
40627SOL    HW221906   8.595   1.321   5.113
40628SOL     OW21907   9.040   1.629   5.349
40628SOL    HW121908   9.067   1.663   5.259
40628SOL    HW221909   9.119   1.591   5.395
40629SOL     OW21910   8.559   1.195   4.824
40629SOL    HW121911   8.519   1.239   4.905
40629SOL    HW221912   8.518   1.232   4.741
40630SOL     OW21913   9.086   1.099   4.803
40630SOL    HW121914   9.091   1.180   4.862
40630SOL    HW221915   9.000   1.101   4.752
40631SOL     OW21916   8.363   0.089   5.126
40631SOL    HW121917   8.388   0.069   5.031
40631SOL    HW221918   8.435   0.145   5.168
40632SOL     OW21919   8.428   1.116   5.443
40632SOL    HW121920   8.329   1.122   5.453
40632SOL    HW221921   8.451   1.036   5.387
40633SOL     OW21922   8.153   1.050   4.092
40633SOL    HW121923   8.139   1.057   4.191
40633SOL    HW221924   8.237   0.999   4.074
40634SOL     OW21925   7.858   0.813   4.975
40634SOL    HW121926   7.944   0.825   5.025
40634SOL    HW221927   7.816   0.726   5.002
40635SOL     OW21928   8.722   0.386   4.986
40635SOL    HW121929   8.743   0.460   5.050
40635SOL    HW221930   8.633   0.403   4.943
40636SOL     OW21931   7.512   1.564   5.055
40636SOL    HW121932   7.466   1.646   5.021
40636SOL    HW221933   7.610   1.583   5.064
40637SOL     OW21934   7.815   1.100   4.225
40637SOL    HW121935   7.808   1.183   4.169
40637SOL    HW221936   7.819   1.020   4.165
40638SOL     OW21937   8.014   0.537   4.589
40638SOL    HW121938   8.026   0.603   4.515
40638SOL    HW221939   8.060   0.571   4.672
40639SOL     OW21940   8.700   1.348   4.112
40639SOL    HW121941   8.750   1.425   4.152
40639SOL    HW221942   8.605   1.350   4.144
40640SOL     OW21943   8.720   1.445   4.866
40640SOL    HW121944   8.767   1.458   4.953
40640SOL    HW221945   8.654   1.371   4.875
40641SOL     OW21946   9.030   0.639   4.196
40641SOL    HW121947   8.999   0.700   4.269
40641SOL    HW221948   9.080   0.691   4.127
40642SOL     OW21949   7.802   1.510   5.053
40642SOL    HW121950   7.781   1.466   4.966
40642SOL    HW221951   7.899   1.536   5.056
40643SOL     OW21952   7.850   0.751   5.322
40643SOL    HW121953   7.918   0.806   5.275
40643SOL    HW221954   7.890   0.663   5.349
40644SOL     OW21955   9.035   0.779   5.394
40644SOL    HW121956   8.943   0.817   5.389
40644SOL    HW221957   9.095   0.826   5.329
40645SOL     OW21958   8.461   0.105   5.494
40645SOL    HW121959   8.467   0.190   5.442
40645SOL    HW221960   8.493   0.029   5.437
40646SOL     OW21961   7.952   0.050   5.464
40646SOL    HW121962   7.910  -0.007   5.394
40646SOL    HW221963   7.886   0.119   5.496
40647SOL     OW21964   8.021   0.870   4.753
40647SOL    HW121965   8.065   0.959   4.744
40647SOL    HW221966   7.958   0.870   4.830
40648SOL     OW21967   8.808   0.862   4.769
40648SOL    HW121968   8.733   0.862   4.703
40648SOL    HW221969   8.845   0.770   4.778
40649SOL     OW21970   8.657   0.525   3.999
40649SOL    HW121971   8.670   0.441   4.053
40649SOL    HW221972   8.628   0.599   4.059
40650SOL     OW21973   7.755   0.213   4.955
40650SOL    HW121974   7.732   0.250   5.045
40650SOL    HW221975   7.725   0.118   4.949
40651SOL     OW21976   7.485   1.310   5.006
40651SOL    HW121977   7.538   1.261   5.074
40651SOL    HW221978   7.507   1.408   5.011
40652SOL     OW21979   8.180   0.634   4.788
40652SOL    HW121980   8.239   0.608   4.712
40652SOL    HW221981   8.152   0.730   4.777
40653SOL     OW21982   9.176   0.935   5.578
40653SOL    HW121983   9.130   0.928   5.489
40653SOL    HW221984   9.114   0.979   5.644
40654SOL     OW21985   7.755   0.063   4.342
40654SOL    HW121986   7.744   0.157   4.375
40654SOL    HW221987   7.750   0.000   4.419
40655SOL     OW21988   9.070   0.367   4.098
40655SOL    HW121989   9.072   0.291   4.162
40655SOL    HW221990   9.022   0.444   4.138
40656SOL     OW21991   8.471   0.766   4.690
40656SOL    HW121992   8.486   0.787   4.786
40656SOL    HW221993   8.441   0.671   4.681
40657SOL     OW21994   8.428   1.573   5.424
40657SOL    HW121995   8.408   1.617   5.336
40657SOL    HW221996   8.467   1.482   5.408
40658SOL     OW21997   9.307   1.518   5.329
40658SOL    HW121998   9.321   1.545   5.234
40658SOL    HW221999   9.390   1.540   5.382
40659SOL     OW22000   7.798   0.898   5.528
40659SOL    HW122001   7.874   0.942   5.576
40659SOL    HW222002   7.833   0.851   5.446
40660SOL     OW22003   8.988   0.274   3.849
40660SOL    HW122004   8.927   0.199   3.872
40660SOL    HW222005   9.010   0.326   3.932
40661SOL     OW22006   8.751   0.838   3.766
40661SOL    HW122007   8.785   0.745   3.781
40661SOL    HW222008   8.769   0.865   3.671
40662SOL     OW22009   8.516   1.333   4.573
40662SOL    HW122010   8.523   1.249   4.518
40662SOL    HW222011   8.578   1.402   4.537
40663SOL     OW22012   7.767   0.810   4.673
40663SOL    HW122013   7.860   0.846   4.678
40663SOL    HW222014   7.761   0.725   4.725
40664SOL     OW22015   7.787   0.509   4.730
40664SOL    HW122016   7.735   0.426   4.713
40664SOL    HW222017   7.864   0.514   4.666
40665SOL     OW22018   8.586   0.380   5.402
40665SOL    HW122019   8.541   0.443   5.466
40665SOL    HW222020   8.679   0.411   5.385
40666SOL     OW22021   8.608   0.207   5.201
40666SOL    HW122022   8.608   0.271   5.278
40666SOL    HW222023   8.636   0.255   5.118
40667SOL     OW22024   7.456   1.326   3.924
40667SOL    HW122025   7.363   1.347   3.893
40667SOL    HW222026   7.466   1.227   3.937
40668SOL     OW22027   7.536   1.801   4.651
40668SOL    HW122028   7.494   1.715   4.624
40668SOL    HW222029   7.630   1.804   4.617
40669SOL     OW22030   7.952   1.568   4.634
40669SOL    HW122031   8.018   1.642   4.643
40669SOL    HW222032   7.996   1.489   4.592
40670SOL     OW22033   8.450   0.796   4.962
40670SOL    HW122034   8.491   0.764   5.048
40670SOL    HW222035   8.354   0.769   4.959
40671SOL     OW22036   7.488   0.544   4.838
40671SOL    HW122037   7.573   0.511   4.797
40671SOL    HW222038   7.501   0.559   4.936
40672SOL     OW22039   7.637   0.520   5.446
40672SOL    HW122040   7.696   0.480   5.376
40672SOL    HW222041   7.579   0.591   5.405
40673SOL     OW22042   8.817   0.950   5.384
40673SOL    HW122043   8.856   1.039   5.404
40673SOL    HW222044   8.827   0.930   5.287
40674SOL     OW22045   8.263   0.572   4.049
40674SOL    HW122046   8.270   0.483   4.003
40674SOL    HW222047   8.169   0.606   4.041
40675SOL     OW22048   9.105   0.604   4.930
40675SOL    HW122049   9.067   0.535   4.992
40675SOL    HW222050   9.187   0.568   4.886
40676SOL     OW22051   7.700   1.564   5.468
40676SOL    HW122052   7.670   1.621   5.544
40676SOL    HW222053   7.693   1.467   5.494
40677SOL     OW22054   8.119   0.464   4.993
40677SOL    HW122055   8.085   0.375   4.963
40677SOL    HW222056   8.145   0.518   4.913
40678SOL     OW22057   8.378   1.678   5.189
40678SOL    HW122058   8.354   1.660   5.094
40678SOL    HW222059   8.408   1.772   5.199
40679SOL     OW22060   7.921   0.500   3.915
40679SOL    HW122061   7.982   0.580   3.919
40679SOL    HW222062   7.826   0.531   3.922
40680SOL     OW22063   7.607   1.137   5.190
40680SOL    HW122064   7.629   1.076   5.266
40680SOL    HW222065   7.617   1.088   5.104
40681SOL     OW22066   8.795   1.059   4.958
40681SOL    HW122067   8.819   0.996   4.884
40681SOL    HW222068   8.705   1.099   4.940
40682SOL     OW22069   8.750   0.855   4.033
40682SOL    HW122070   8.664   0.824   4.075
40682SOL    HW222071   8.746   0.841   3.934
40683SOL     OW22072   9.207   1.747   4.878
40683SOL    HW122073   9.268   1.777   4.805
40683SOL    HW222074   9.169   1.658   4.856
40684SOL     OW22075   8.700   1.731   4.852
40684SOL    HW122076   8.784   1.736   4.798
40684SOL    HW222077   8.677   1.635   4.870
40685SOL     OW22078   7.531   1.258   4.746
40685SOL    HW122079   7.526   1.257   4.846
40685SOL    HW222080   7.448   1.217   4.708
40686SOL     OW22081   8.136   1.662   5.440
40686SOL    HW122082   8.080   1.743   5.449
40686SOL    HW222083   8.188   1.666   5.354
40687SOL     OW22084   9.174   0.135   4.247
40687SOL    HW122085   9.247   0.118   4.180
40687SOL    HW222086   9.143   0.048   4.285
40688SOL     OW22087   8.836   1.573   4.201
40688SOL    HW122088   8.903   1.585   4.127
40688SOL    HW222089   8.796   1.662   4.224
40689SOL     OW22090   7.578   1.794   5.575
40689SOL    HW122091   7.537   1.720   5.628
40689SOL    HW222092   7.642   1.845   5.633
40690SOL     OW22093   8.728   0.927   4.396
40690SOL    HW122094   8.788   0.846   4.398
40690SOL    HW222095   8.768   0.996   4.336
40691SOL     OW22096   8.278   1.273   5.146
40691SOL    HW122097   8.273   1.306   5.241
40691SOL    HW222098   8.192   1.292   5.100
40692SOL     OW22099   8.120   1.616   3.878
40692SOL    HW122100   8.129   1.626   3.779
40692SOL    HW222101   8.080   1.527   3.899
40693SOL     OW22102   9.098   1.720   5.118
40693SOL    HW122103   9.151   1.730   5.034
40693SOL    HW222104   9.071   1.810   5.152
40694SOL     OW22105   9.289   0.175   4.687
40694SOL    HW122106   9.328   0.090   4.651
40694SOL    HW222107   9.191   0.177   4.668
40695SOL     OW22108   7.711   0.326   4.444
40695SOL    HW122109   7.632   0.377   4.410
40695SOL    HW222110   7.702   0.311   4.542
40696SOL     OW22111   8.642   1.612   3.755
40696SOL    HW122112   8.648   1.519   3.792
40696SOL    HW222113   8.583   1.612   3.675
40697SOL     OW22114   8.270   1.002   5.096
40697SOL    HW122115   8.310   1.001   5.004
40697SOL    HW222116   8.280   1.094   5.136
40698SOL     OW22117   8.364   0.910   4.015
40698SOL    HW122118   8.427   0.948   3.947
40698SOL    HW222119   8.404   0.827   4.054
40699SOL     OW22120   8.952   1.607   3.768
40699SOL    HW122121   8.860   1.644   3.775
40699SOL    HW222122   8.990   1.627   3.678
40700SOL     OW22123   7.820   1.288   5.214
40700SOL    HW122124   7.807   1.381   5.180
40700SOL    HW222125   7.736   1.236   5.201
40701SOL     OW22126   9.062   1.292   5.013
40701SOL    HW122127   9.122   1.295   5.093
40701SOL    HW222128   8.987   1.356   5.026
40702SOL     OW22129   8.487   1.098   4.420
40702SOL    HW122130   8.417   1.051   4.474
40702SOL    HW222131   8.546   1.030   4.377
40703SOL     OW22132   8.462   0.236   4.695
40703SOL    HW122133   8.454   0.200   4.602
40703SOL    HW222134   8.460   0.160   4.760
40704SOL     OW22135   8.038   1.487   4.215
40704SOL    HW122136   8.080   1.429   4.145
40704SOL    HW222137   7.994   1.566   4.171
40705SOL     OW22138   9.157   0.385   5.105
40705SOL    HW122139   9.230   0.454   5.109
40705SOL    HW222140   9.185   0.310   5.046
40706SOL     OW22141   7.703   1.348   4.014
40706SOL    HW122142   7.607   1.349   3.987
40706SOL    HW222143   7.715   1.401   4.098
40707SOL     OW22144   7.553   1.013   5.450
40707SOL    HW122145   7.476   0.980   5.504
40707SOL    HW222146   7.638   0.983   5.492
40708SOL     OW22147   8.120   0.203   5.213
40708SOL    HW122148   8.210   0.187   5.173
40708SOL    HW222149   8.128   0.208   5.312
40709SOL     OW22150   7.523   0.345   3.757
40709SOL    HW122151   7.431   0.317   3.728
40709SOL    HW222152   7.554   0.422   3.701
40710SOL     OW22153   8.888   0.856   5.122
40710SOL    HW122154   8.831   0.908   5.059
40710SOL    HW222155   8.984   0.868   5.098
40711SOL     OW22156   7.520   0.166   4.042
40711SOL    HW122157   7.503   0.249   3.988
40711SOL    HW222158   7.610   0.129   4.020
40712SOL     OW22159   8.631   1.335   3.843
40712SOL    HW122160   8.532   1.324   3.845
40712SOL    HW222161   8.665   1.350   3.936
40713SOL     OW22162   8.061   0.842   5.155
40713SOL    HW122163   8.117   0.923   5.138
40713SOL    HW222164   8.120   0.762   5.158
40714SOL     OW22165   8.941   1.767   4.683
40714SOL    HW122166   8.974   1.831   4.614
40714SOL    HW222167   9.007   1.761   4.758
40715SOL     OW22168   8.164   0.565   5.432
40715SOL    HW122169   8.183   0.630   5.506
40715SOL    HW222170   8.224   0.485   5.441
40716SOL     OW22171   8.898   1.220   5.357
40716SOL    HW122172   8.889   1.210   5.456
40716SOL    HW222173   8.994   1.213   5.331
40717SOL     OW22174   7.838   1.741   5.284
40717SOL    HW122175   7.747   1.782   5.282
40717SOL    HW222176   7.831   1.647   5.316
40718SOL     OW22177   9.122   0.883   4.978
40718SOL    HW122178   9.095   0.794   4.941
40718SOL    HW222179   9.123   0.951   4.905
40719SOL     OW22180   8.673   0.325   4.173
40719SOL    HW122181   8.738   0.251   4.162
40719SOL    HW222182   8.693   0.375   4.257
40720SOL     OW22183   8.042   0.745   4.376
40720SOL    HW122184   8.092   0.830   4.357
40720SOL    HW222185   7.954   0.747   4.328
40721SOL     OW22186   9.225   0.342   5.366
40721SOL    HW122187   9.208   0.373   5.272
40721SOL    HW222188   9.141   0.305   5.404
40722SOL     OW22189   9.178   0.934   5.241
40722SOL    HW122190   9.216   1.025   5.256
40722SOL    HW222191   9.170   0.917   5.142
40723SOL     OW22192   8.307   1.374   3.740
40723SOL    HW122193   8.261   1.389   3.828
40723SOL    HW222194   8.351   1.459   3.710
40724SOL     OW22195   8.109   1.790   4.677
40724SOL    HW122196   8.063   1.878   4.664
40724SOL    HW222197   8.208   1.802   4.670
40725SOL     OW22198   8.307   0.956   4.585
40725SOL    HW122199   8.361   0.887   4.633
40725SOL    HW222200   8.275   1.025   4.651
40726SOL     OW22201   8.531   0.984   3.811
40726SOL    HW122202   8.508   1.037   3.729
40726SOL    HW222203   8.612   0.928   3.792
40727SOL     OW22204   9.309   1.569   4.575
40727SOL    HW122205   9.238   1.557   4.505
40727SOL    HW222206   9.310   1.490   4.635
40728SOL     OW22207   7.669   1.314   5.568
40728SOL    HW122208   7.604   1.241   5.547
40728SOL    HW222209   7.673   1.328   5.666
40729SOL     OW22210   7.527   1.240   4.377
40729SOL    HW122211   7.526   1.193   4.465
40729SOL    HW222212   7.609   1.212   4.326
40730SOL     OW22213   8.120   1.391   5.348
40730SOL    HW122214   8.042   1.341   5.386
40730SOL    HW222215   8.117   1.486   5.379
40731SOL     OW22216   9.272   0.192   4.951
40731SOL    HW122217   9.268   0.102   4.995
40731SOL    HW222218   9.275   0.181   4.852
40732SOL     OW22219   7.876   0.424   4.244
40732SOL    HW122220   7.906   0.352   4.182
40732SOL    HW222221   7.837   0.384   4.327
40733SOL     OW22222   9.153   1.487   4.828
40733SOL    HW122223   9.060   1.462   4.801
40733SOL    HW222224   9.179   1.437   4.910
40734SOL     OW22225   7.765   0.547   5.004
40734SOL    HW122226   7.803   0.488   5.076
40734SOL    HW222227   7.805   0.521   4.916
40735SOL     OW22228   8.260   1.586   4.411
40735SOL    HW122229   8.292   1.596   4.317
40735SOL    HW222230   8.181   1.524   4.413
40736SOL     OW22231   8.872   0.214   4.836
40736SOL    HW122232   8.924   0.149   4.891
40736SOL    HW222233   8.823   0.277   4.897
40737SOL     OW22234   8.449   0.034   4.878
40737SOL    HW122235   8.386  -0.038   4.847
40737SOL    HW222236   8.542  -0.002   4.878
40738SOL     OW22237   8.218   1.330   4.025
40738SOL    HW122238   8.172   1.243   4.042
40738SOL    HW222239   8.309   1.327   4.066
40739SOL     OW22240   8.066   1.567   5.008
40739SOL    HW122241   8.061   1.649   5.065
40739SOL    HW222242   8.155   1.564   4.963
40740SOL     OW22243   8.800   0.052   3.892
40740SOL    HW122244   8.835   0.011   3.808
40740SOL    HW222245   8.710   0.014   3.912
40741SOL     OW22246   8.748   0.453   4.415
40741SOL    HW122247   8.689   0.533   4.419
40741SOL    HW222248   8.763   0.418   4.508
40742SOL     OW22249   9.041   0.221   4.606
40742SOL    HW122250   8.957   0.220   4.660
40742SOL    HW222251   9.043   0.304   4.550
40743SOL     OW22252   7.487   1.077   4.024
40743SOL    HW122253   7.586   1.066   4.015
40743SOL    HW222254   7.447   0.991   4.056
40744SOL     OW22255   8.323   1.646   4.061
40744SOL    HW122256   8.246   1.611   4.007
40744SOL    HW222257   8.291   1.717   4.123
40745SOL     OW22258   7.678   0.628   5.699
40745SOL    HW122259   7.585   0.626   5.736
40745SOL    HW222260   7.679   0.589   5.607
40746SOL     OW22261   7.673   0.275   6.582
40746SOL    HW122262   7.708   0.258   6.674
40746SOL    HW222263   7.585   0.230   6.570
40747SOL     OW22264   7.467   0.368   6.233
40747SOL    HW122265   7.385   0.411   6.272
40747SOL    HW222266   7.439   0.295   6.170
40748SOL     OW22267   8.017   1.275   6.751
40748SOL    HW122268   7.924   1.268   6.714
40748SOL    HW222269   8.028   1.364   6.795
40749SOL     OW22270   9.003   1.511   6.289
40749SOL    HW122271   8.946   1.495   6.370
40749SOL    HW222272   8.944   1.521   6.209
40750SOL     OW22273   8.583   0.703   6.303
40750SOL    HW122274   8.640   0.781   6.278
40750SOL    HW222275   8.523   0.729   6.379
40751SOL     OW22276   9.203   0.607   5.817
40751SOL    HW122277   9.191   0.594   5.718
40751SOL    HW222278   9.173   0.526   5.866
40752SOL     OW22279   8.216   1.144   6.609
40752SOL    HW122280   8.138   1.161   6.669
40752SOL    HW222281   8.250   1.231   6.573
40753SOL     OW22282   8.298   0.798   7.409
40753SOL    HW122283   8.294   0.874   7.474
40753SOL    HW222284   8.320   0.834   7.318
40754SOL     OW22285   8.133   1.012   6.251
40754SOL    HW122286   8.202   0.996   6.321
40754SOL    HW222287   8.060   1.069   6.289
40755SOL     OW22288   8.134   1.161   7.389
40755SOL    HW122289   8.194   1.240   7.403
40755SOL    HW222290   8.048   1.192   7.348
40756SOL     OW22291   7.783   1.435   6.647
40756SOL    HW122292   7.705   1.404   6.594
40756SOL    HW222293   7.841   1.493   6.590
40757SOL     OW22294   8.908   1.505   6.925
40757SOL    HW122295   8.932   1.599   6.951
40757SOL    HW222296   8.892   1.451   7.007
40758SOL     OW22297   7.886   0.392   7.085
40758SOL    HW122298   7.968   0.336   7.094
40758SOL    HW222299   7.805   0.334   7.089
40759SOL     OW22300   9.051   0.447   6.323
40759SOL    HW122301   8.977   0.493   6.273
40759SOL    HW222302   9.102   0.515   6.376
40760SOL     OW22303   7.679   1.713   6.069
40760SOL    HW122304   7.713   1.790   6.123
40760SOL    HW222305   7.723   1.713   5.979
40761SOL     OW22306   8.575   1.341   7.276
40761SOL    HW122307   8.622   1.341   7.364
40761SOL    HW222308   8.527   1.254   7.265
40762SOL     OW22309   7.678   1.434   6.124
40762SOL    HW122310   7.652   1.530   6.124
40762SOL    HW222311   7.607   1.380   6.169
40763SOL     OW22312   7.688   1.091   6.472
40763SOL    HW122313   7.702   1.007   6.524
40763SOL    HW222314   7.633   1.155   6.527
40764SOL     OW22315   8.068   1.786   7.025
40764SOL    HW122316   7.976   1.769   7.060
40764SOL    HW222317   8.096   1.878   7.051
40765SOL     OW22318   8.054   0.964   5.709
40765SOL    HW122319   8.061   1.048   5.655
40765SOL    HW222320   8.100   0.977   5.797
40766SOL     OW22321   9.042   0.114   7.066
40766SOL    HW122322   9.024   0.181   6.994
40766SOL    HW222323   9.039   0.160   7.155
40767SOL     OW22324   7.570   0.643   6.149
40767SOL    HW122325   7.525   0.555   6.166
40767SOL    HW222326   7.569   0.697   6.233
40768SOL     OW22327   9.290   1.767   5.945
40768SOL    HW122328   9.344   1.738   6.025
40768SOL    HW222329   9.320   1.857   5.916
40769SOL     OW22330   7.475   1.596   5.703
40769SOL    HW122331   7.456   1.500   5.724
40769SOL    HW222332   7.442   1.654   5.778
40770SOL     OW22333   9.137   0.922   6.198
40770SOL    HW122334   9.232   0.893   6.206
40770SOL    HW222335   9.129   0.987   6.123
40771SOL     OW22336   9.089   1.108   6.018
40771SOL    HW122337   9.175   1.110   5.966
40771SOL    HW222338   9.103   1.155   6.106
40772SOL     OW22339   7.561   0.737   7.183
40772SOL    HW122340   7.649   0.724   7.228
40772SOL    HW222341   7.548   0.834   7.161
40773SOL     OW22342   8.061   1.365   6.312
40773SOL    HW122343   8.012   1.278   6.321
40773SOL    HW222344   8.038   1.408   6.225
40774SOL     OW22345   8.741   1.228   7.009
40774SOL    HW122346   8.778   1.155   6.951
40774SOL    HW222347   8.793   1.233   7.094
40775SOL     OW22348   8.257   0.004   6.088
40775SOL    HW122349   8.297   0.095   6.079
40775SOL    HW222350   8.157   0.012   6.094
40776SOL     OW22351   7.645   0.976   6.850
40776SOL    HW122352   7.734   0.931   6.836
40776SOL    HW222353   7.572   0.911   6.831
40777SOL     OW22354   8.973   0.999   5.776
40777SOL    HW122355   8.910   0.923   5.789
40777SOL    HW222356   9.021   1.017   5.862
40778SOL     OW22357   8.635   1.792   7.202
40778SOL    HW122358   8.659   1.852   7.126
40778SOL    HW222359   8.642   1.697   7.172
40779SOL     OW22360   7.765   0.251   7.387
40779SOL    HW122361   7.836   0.322   7.393
40779SOL    HW222362   7.677   0.290   7.415
40780SOL     OW22363   8.914   1.417   6.539
40780SOL    HW122364   8.855   1.423   6.619
40780SOL    HW222365   8.899   1.329   6.493
40781SOL     OW22366   9.115   1.714   6.158
40781SOL    HW122367   9.074   1.691   6.070
40781SOL    HW222368   9.097   1.640   6.223
40782SOL     OW22369   8.046   0.729   5.856
40782SOL    HW122370   8.070   0.798   5.788
40782SOL    HW222371   7.968   0.762   5.910
40783SOL     OW22372   8.729   0.345   6.530
40783SOL    HW122373   8.643   0.295   6.517
40783SOL    HW222374   8.791   0.291   6.586
40784SOL     OW22375   9.024   1.662   5.893
40784SOL    HW122376   9.113   1.708   5.896
40784SOL    HW222377   9.003   1.638   5.798
40785SOL     OW22378   8.255   0.605   7.051
40785SOL    HW122379   8.208   0.602   7.140
40785SOL    HW222380   8.204   0.550   6.985
40786SOL     OW22381   8.842   0.469   7.260
40786SOL    HW122382   8.822   0.512   7.348
40786SOL    HW222383   8.920   0.407   7.269
40787SOL     OW22384   8.421   0.890   7.158
40787SOL    HW122385   8.467   0.806   7.129
40787SOL    HW222386   8.365   0.924   7.083
40788SOL     OW22387   8.439   0.410   6.828
40788SOL    HW122388   8.362   0.444   6.882
40788SOL    HW222389   8.405   0.359   6.749
40789SOL     OW22390   8.489   0.701   6.015
40789SOL    HW122391   8.515   0.697   6.111
40789SOL    HW222392   8.404   0.650   6.001
40790SOL     OW22393   7.524   0.811   6.375
40790SOL    HW122394   7.623   0.799   6.384
40790SOL    HW222395   7.500   0.906   6.396
40791SOL     OW22396   7.578   1.821   7.157
40791SOL    HW122397   7.568   1.806   7.256
40791SOL    HW222398   7.492   1.857   7.121
40792SOL     OW22399   8.313   0.348   5.781
40792SOL    HW122400   8.372   0.411   5.732
40792SOL    HW222401   8.332   0.254   5.752
40793SOL     OW22402   9.167   0.585   7.417
40793SOL    HW122403   9.141   0.674   7.381
40793SOL    HW222404   9.165   0.517   7.344
40794SOL     OW22405   8.810   1.144   6.131
40794SOL    HW122406   8.893   1.115   6.083
40794SOL    HW222407   8.761   1.211   6.075
40795SOL     OW22408   7.998   0.196   6.471
40795SOL    HW122409   7.993   0.191   6.571
40795SOL    HW222410   8.000   0.292   6.442
40796SOL     OW22411   8.456   1.456   6.063
40796SOL    HW122412   8.410   1.528   6.011
40796SOL    HW222413   8.452   1.476   6.161
40797SOL     OW22414   7.799   1.801   6.439
40797SOL    HW122415   7.849   1.715   6.445
40797SOL    HW222416   7.864   1.878   6.436
40798SOL     OW22417   9.243   1.066   6.459
40798SOL    HW122418   9.181   1.051   6.383
40798SOL    HW222419   9.191   1.077   6.544
40799SOL     OW22420   8.675   1.550   7.092
40799SOL    HW122421   8.681   1.473   7.156
40799SOL    HW222422   8.623   1.524   7.012
40800SOL     OW22423   7.769   0.943   5.828
40800SOL    HW122424   7.851   0.982   5.786
40800SOL    HW222425   7.742   0.861   5.779
40801SOL     OW22426   8.906   0.735   6.314
40801SOL    HW122427   8.901   0.670   6.389
40801SOL    HW222428   8.986   0.794   6.327
40802SOL     OW22429   7.909   1.266   7.313
40802SOL    HW122430   7.859   1.267   7.227
40802SOL    HW222431   7.846   1.248   7.389
40803SOL     OW22432   8.559   1.776   5.823
40803SOL    HW122433   8.499   1.714   5.873
40803SOL    HW222434   8.590   1.732   5.738
40804SOL     OW22435   7.650   0.285   7.084
40804SOL    HW122436   7.570   0.345   7.071
40804SOL    HW222437   7.640   0.236   7.170
40805SOL     OW22438   9.080   1.377   5.667
40805SOL    HW122439   9.048   1.471   5.657
40805SOL    HW222440   9.004   1.314   5.655
40806SOL     OW22441   7.912   1.743   5.909
40806SOL    HW122442   7.945   1.782   5.995
40806SOL    HW222443   7.988   1.736   5.844
40807SOL     OW22444   8.848   0.107   6.012
40807SOL    HW122445   8.824   0.070   5.922
40807SOL    HW222446   8.947   0.123   6.016
40808SOL     OW22447   7.697   1.785   6.827
40808SOL    HW122448   7.754   1.720   6.877
40808SOL    HW222449   7.681   1.752   6.734
40809SOL     OW22450   8.388   1.698   6.490
40809SOL    HW122451   8.468   1.641   6.511
40809SOL    HW222452   8.339   1.658   6.413
40810SOL     OW22453   7.830   0.700   6.066
40810SOL    HW122454   7.875   0.610   6.063
40810SOL    HW222455   7.736   0.689   6.099
40811SOL     OW22456   8.995   0.222   7.315
40811SOL    HW122457   8.990   0.259   7.407
40811SOL    HW222458   8.923   0.153   7.303
40812SOL     OW22459   8.062   0.122   5.703
40812SOL    HW122460   8.160   0.100   5.710
40812SOL    HW222461   8.031   0.105   5.610
40813SOL     OW22462   8.229   0.264   7.335
40813SOL    HW122463   8.296   0.203   7.378
40813SOL    HW222464   8.156   0.283   7.400
40814SOL     OW22465   8.336   1.514   6.781
40814SOL    HW122466   8.313   1.489   6.687
40814SOL    HW222467   8.397   1.445   6.820
40815SOL     OW22468   8.799   0.590   7.019
40815SOL    HW122469   8.827   0.547   7.104
40815SOL    HW222470   8.824   0.686   7.020
40816SOL     OW22471   8.251   1.402   6.510
40816SOL    HW122472   8.341   1.416   6.468
40816SOL    HW222473   8.180   1.404   6.439
40817SOL     OW22474   8.370   0.503   6.485
40817SOL    HW122475   8.345   0.494   6.389
40817SOL    HW222476   8.418   0.421   6.516
40818SOL     OW22477   7.987   0.064   6.098
40818SOL    HW122478   7.906   0.065   6.156
40818SOL    HW222479   7.990   0.147   6.043
40819SOL     OW22480   8.882   1.188   5.627
40819SOL    HW122481   8.914   1.112   5.684
40819SOL    HW222482   8.790   1.215   5.657
40820SOL     OW22483   7.745   0.035   5.757
40820SOL    HW122484   7.794   0.119   5.736
40820SOL    HW222485   7.807  -0.030   5.802
40821SOL     OW22486   8.383   0.236   6.066
40821SOL    HW122487   8.335   0.277   5.988
40821SOL    HW222488   8.482   0.234   6.047
40822SOL     OW22489   8.524   0.683   7.050
40822SOL    HW122490   8.444   0.622   7.053
40822SOL    HW222491   8.605   0.630   7.026
40823SOL     OW22492   8.675   1.570   6.379
40823SOL    HW122493   8.696   1.644   6.314
40823SOL    HW222494   8.743   1.570   6.452
40824SOL     OW22495   7.907   1.152   6.327
40824SOL    HW122496   7.836   1.125   6.392
40824SOL    HW222497   7.881   1.124   6.234
40825SOL     OW22498   8.719   1.797   6.177
40825SOL    HW122499   8.763   1.861   6.113
40825SOL    HW222500   8.669   1.849   6.247
40826SOL     OW22501   8.480   0.549   5.602
40826SOL    HW122502   8.439   0.631   5.563
40826SOL    HW222503   8.544   0.575   5.675
40827SOL     OW22504   7.526   0.556   6.972
40827SOL    HW122505   7.618   0.555   6.931
40827SOL    HW222506   7.520   0.630   7.039
40828SOL     OW22507   8.009   0.222   6.733
40828SOL    HW122508   8.047   0.138   6.770
40828SOL    HW222509   7.921   0.241   6.777
40829SOL     OW22510   8.314   0.454   6.228
40829SOL    HW122511   8.282   0.526   6.166
40829SOL    HW222512   8.338   0.373   6.175
40830SOL     OW22513   8.465   0.039   6.339
40830SOL    HW122514   8.393   0.044   6.270
40830SOL    HW222515   8.441  -0.030   6.408
40831SOL     OW22516   8.877   1.173   6.453
40831SOL    HW122517   8.822   1.089   6.446
40831SOL    HW222518   8.903   1.202   6.361
40832SOL     OW22519   8.914   0.590   6.578
40832SOL    HW122520   8.884   0.495   6.585
40832SOL    HW222521   8.987   0.606   6.644
40833SOL     OW22522   9.305   0.833   5.963
40833SOL    HW122523   9.347   0.769   6.027
40833SOL    HW222524   9.267   0.782   5.885
40834SOL     OW22525   7.936   1.385   5.760
40834SOL    HW122526   7.849   1.370   5.807
40834SOL    HW222527   7.919   1.411   5.665
40835SOL     OW22528   9.112   1.280   6.243
40835SOL    HW122529   9.211   1.288   6.257
40835SOL    HW222530   9.067   1.364   6.274
40836SOL     OW22531   8.838   0.575   5.664
40836SOL    HW122532   8.784   0.554   5.745
40836SOL    HW222533   8.929   0.534   5.673
40837SOL     OW22534   7.975   0.256   5.914
40837SOL    HW122535   8.002   0.197   5.839
40837SOL    HW222536   7.975   0.351   5.883
40838SOL     OW22537   9.202   1.223   7.174
40838SOL    HW122538   9.293   1.184   7.161
40838SOL    HW222539   9.210   1.319   7.198
40839SOL     OW22540   8.512   1.347   6.926
40839SOL    HW122541   8.432   1.324   6.981
40839SOL    HW222542   8.595   1.321   6.975
40840SOL     OW22543   9.040   1.629   7.211
40840SOL    HW122544   9.067   1.663   7.121
40840SOL    HW222545   9.119   1.591   7.257
40841SOL     OW22546   8.559   1.195   6.686
40841SOL    HW122547   8.519   1.239   6.767
40841SOL    HW222548   8.518   1.232   6.603
40842SOL     OW22549   9.086   1.099   6.665
40842SOL    HW122550   9.091   1.180   6.724
40842SOL    HW222551   9.000   1.101   6.614
40843SOL     OW22552   8.363   0.089   6.988
40843SOL    HW122553   8.388   0.069   6.893
40843SOL    HW222554   8.435   0.145   7.030
40844SOL     OW22555   8.428   1.116   7.305
40844SOL    HW122556   8.329   1.122   7.315
40844SOL    HW222557   8.451   1.036   7.249
40845SOL     OW22558   8.153   1.050   5.954
40845SOL    HW122559   8.139   1.057   6.053
40845SOL    HW222560   8.237   0.999   5.936
40846SOL     OW22561   7.858   0.813   6.837
40846SOL    HW122562   7.944   0.825   6.887
40846SOL    HW222563   7.816   0.726   6.864
40847SOL     OW22564   8.722   0.386   6.848
40847SOL    HW122565   8.743   0.460   6.912
40847SOL    HW222566   8.633   0.403   6.805
40848SOL     OW22567   7.512   1.564   6.917
40848SOL    HW122568   7.466   1.646   6.883
40848SOL    HW222569   7.610   1.583   6.926
40849SOL     OW22570   7.815   1.100   6.087
40849SOL    HW122571   7.808   1.183   6.031
40849SOL    HW222572   7.819   1.020   6.027
40850SOL     OW22573   8.014   0.537   6.451
40850SOL    HW122574   8.026   0.603   6.377
40850SOL    HW222575   8.060   0.571   6.534
40851SOL     OW22576   8.700   1.348   5.974
40851SOL    HW122577   8.750   1.425   6.014
40851SOL    HW222578   8.605   1.350   6.006
40852SOL     OW22579   8.720   1.445   6.728
40852SOL    HW122580   8.767   1.458   6.815
40852SOL    HW222581   8.654   1.371   6.737
40853SOL     OW22582   9.030   0.639   6.058
40853SOL    HW122583   8.999   0.700   6.131
40853SOL    HW222584   9.080   0.691   5.989
40854SOL     OW22585   7.802   1.510   6.915
40854SOL    HW122586   7.781   1.466   6.828
40854SOL    HW222587   7.899   1.536   6.918
40855SOL     OW22588   7.850   0.751   7.184
40855SOL    HW122589   7.918   0.806   7.137
40855SOL    HW222590   7.890   0.663   7.211
40856SOL     OW22591   9.035   0.779   7.256
40856SOL    HW122592   8.943   0.817   7.251
40856SOL    HW222593   9.095   0.826   7.191
40857SOL     OW22594   8.461   0.105   7.356
40857SOL    HW122595   8.467   0.190   7.304
40857SOL    HW222596   8.493   0.029   7.299
40858SOL     OW22597   7.952   0.050   7.326
40858SOL    HW122598   7.910  -0.007   7.256
40858SOL    HW222599   7.886   0.119   7.358
40859SOL     OW22600   8.021   0.870   6.615
40859SOL    HW122601   8.065   0.959   6.606
40859SOL    HW222602   7.958   0.870   6.692
40860SOL     OW22603   8.808   0.862   6.631
40860SOL    HW122604   8.733   0.862   6.565
40860SOL    HW222605   8.845   0.770   6.640
40861SOL     OW22606   8.657   0.525   5.861
40861SOL    HW122607   8.670   0.441   5.915
40861SOL    HW222608   8.628   0.599   5.921
40862SOL     OW22609   7.755   0.213   6.817
40862SOL    HW122610   7.732   0.250   6.907
40862SOL    HW222611   7.725   0.118   6.811
40863SOL     OW22612   7.485   1.310   6.868
40863SOL    HW122613   7.538   1.261   6.936
40863SOL    HW222614   7.507   1.408   6.873
40864SOL     OW22615   8.180   0.634   6.650
40864SOL    HW122616   8.239   0.608   6.574
40864SOL    HW222617   8.152   0.730   6.639
40865SOL     OW22618   9.176   0.935   7.440
40865SOL    HW122619   9.130   0.928   7.351
40865SOL    HW222620   9.114   0.979   7.506
40866SOL     OW22621   7.755   0.063   6.204
40866SOL    HW122622   7.744   0.157   6.237
40866SOL    HW222623   7.750   0.000   6.281
40867SOL     OW22624   9.070   0.367   5.960
40867SOL    HW122625   9.072   0.291   6.024
40867SOL    HW222626   9.022   0.444   6.000
40868SOL     OW22627   8.471   0.766   6.552
40868SOL    HW122628   8.486   0.787   6.648
40868SOL    HW222629   8.441   0.671   6.543
40869SOL     OW22630   8.428   1.573   7.286
40869SOL    HW122631   8.408   1.617   7.198
40869SOL    HW222632   8.467   1.482   7.270
40870SOL     OW22633   9.307   1.518   7.191
40870SOL    HW122634   9.321   1.545   7.096
40870SOL    HW222635   9.390   1.540   7.244
40871SOL     OW22636   7.798   0.898   7.390
40871SOL    HW122637   7.874   0.942   7.438
40871SOL    HW222638   7.833   0.851   7.308
40872SOL     OW22639   8.988   0.274   5.711
40872SOL    HW122640   8.927   0.199   5.734
40872SOL    HW222641   9.010   0.326   5.794
40873SOL     OW22642   8.751   0.838   5.628
40873SOL    HW122643   8.785   0.745   5.643
40873SOL    HW222644   8.769   0.865   5.533
40874SOL     OW22645   8.516   1.333   6.435
40874SOL    HW122646   8.523   1.249   6.380
40874SOL    HW222647   8.578   1.402   6.399
40875SOL     OW22648   7.767   0.810   6.535
40875SOL    HW122649   7.860   0.846   6.540
40875SOL    HW222650   7.761   0.725   6.587
40876SOL     OW22651   7.787   0.509   6.592
40876SOL    HW122652   7.735   0.426   6.575
40876SOL    HW222653   7.864   0.514   6.528
40877SOL     OW22654   8.586   0.380   7.264
40877SOL    HW122655   8.541   0.443   7.328
40877SOL    HW222656   8.679   0.411   7.247
40878SOL     OW22657   8.608   0.207   7.063
40878SOL    HW122658   8.608   0.271   7.140
40878SOL    HW222659   8.636   0.255   6.980
40879SOL     OW22660   7.456   1.326   5.786
40879SOL    HW122661   7.363   1.347   5.755
40879SOL    HW222662   7.466   1.227   5.799
40880SOL     OW22663   7.536   1.801   6.513
40880SOL    HW122664   7.494   1.715   6.486
40880SOL    HW222665   7.630   1.804   6.479
40881SOL     OW22666   7.952   1.568   6.496
40881SOL    HW122667   8.018   1.642   6.505
40881SOL    HW222668   7.996   1.489   6.454
40882SOL     OW22669   8.450   0.796   6.824
40882SOL    HW122670   8.491   0.764   6.910
40882SOL    HW222671   8.354   0.769   6.821
40883SOL     OW22672   7.488   0.544   6.700
40883SOL    HW122673   7.573   0.511   6.659
40883SOL    HW222674   7.501   0.559   6.798
40884SOL     OW22675   7.637   0.520   7.308
40884SOL    HW122676   7.696   0.480   7.238
40884SOL    HW222677   7.579   0.591   7.267
40885SOL     OW22678   8.817   0.950   7.246
40885SOL    HW122679   8.856   1.039   7.266
40885SOL    HW222680   8.827   0.930   7.149
40886SOL     OW22681   8.263   0.572   5.911
40886SOL    HW122682   8.270   0.483   5.865
40886SOL    HW222683   8.169   0.606   5.903
40887SOL     OW22684   9.105   0.604   6.792
40887SOL    HW122685   9.067   0.535   6.854
40887SOL    HW222686   9.187   0.568   6.748
40888SOL     OW22687   7.700   1.564   7.330
40888SOL    HW122688   7.670   1.621   7.406
40888SOL    HW222689   7.693   1.467   7.356
40889SOL     OW22690   8.119   0.464   6.855
40889SOL    HW122691   8.085   0.375   6.825
40889SOL    HW222692   8.145   0.518   6.775
40890SOL     OW22693   8.378   1.678   7.051
40890SOL    HW122694   8.354   1.660   6.956
40890SOL    HW222695   8.408   1.772   7.061
40891SOL     OW22696   7.921   0.500   5.777
40891SOL    HW122697   7.982   0.580   5.781
40891SOL    HW222698   7.826   0.531   5.784
40892SOL     OW22699   7.607   1.137   7.052
40892SOL    HW122700   7.629   1.076   7.128
40892SOL    HW222701   7.617   1.088   6.966
40893SOL     OW22702   8.795   1.059   6.820
40893SOL    HW122703   8.819   0.996   6.746
40893SOL    HW222704   8.705   1.099   6.802
40894SOL     OW22705   8.750   0.855   5.895
40894SOL    HW122706   8.664   0.824   5.937
40894SOL    HW222707   8.746   0.841   5.796
40895SOL     OW22708   9.207   1.747   6.740
40895SOL    HW122709   9.268   1.777   6.667
40895SOL    HW222710   9.169   1.658   6.718
40896SOL     OW22711   8.700   1.731   6.714
40896SOL    HW122712   8.784   1.736   6.660
40896SOL    HW222713   8.677   1.635   6.732
40897SOL     OW22714   7.531   1.258   6.608
40897SOL    HW122715   7.526   1.257   6.708
40897SOL    HW222716   7.448   1.217   6.570
40898SOL     OW22717   8.136   1.662   7.302
40898SOL    HW122718   8.080   1.743   7.311
40898SOL    HW222719   8.188   1.666   7.216
40899SOL     OW22720   9.174   0.135   6.109
40899SOL    HW122721   9.247   0.118   6.042
40899SOL    HW222722   9.143   0.048   6.147
40900SOL     OW22723   8.836   1.573   6.063
40900SOL    HW122724   8.903   1.585   5.989
40900SOL    HW222725   8.796   1.662   6.086
40901SOL     OW22726   7.578   1.794   7.437
40901SOL    HW122727   7.537   1.720   7.490
40901SOL    HW222728   7.642   1.845   7.495
40902SOL     OW22729   8.728   0.927   6.258
40902SOL    HW122730   8.788   0.846   6.260
40902SOL    HW222731   8.768   0.996   6.198
40903SOL     OW22732   8.278   1.273   7.008
40903SOL    HW122733   8.273   1.306   7.103
40903SOL    HW222734   8.192   1.292   6.962
40904SOL     OW22735   8.120   1.616   5.740
40904SOL    HW122736   8.129   1.626   5.641
40904SOL    HW222737   8.080   1.527   5.761
40905SOL     OW22738   9.098   1.720   6.980
40905SOL    HW122739   9.151   1.730   6.896
40905SOL    HW222740   9.071   1.810   7.014
40906SOL     OW22741   9.289   0.175   6.549
40906SOL    HW122742   9.328   0.090   6.513
40906SOL    HW222743   9.191   0.177   6.530
40907SOL     OW22744   7.711   0.326   6.306
40907SOL    HW122745   7.632   0.377   6.272
40907SOL    HW222746   7.702   0.311   6.404
40908SOL     OW22747   8.642   1.612   5.617
40908SOL    HW122748   8.648   1.519   5.654
40908SOL    HW222749   8.583   1.612   5.537
40909SOL     OW22750   8.270   1.002   6.958
40909SOL    HW122751   8.310   1.001   6.866
40909SOL    HW222752   8.280   1.094   6.998
40910SOL     OW22753   8.364   0.910   5.877
40910SOL    HW122754   8.427   0.948   5.809
40910SOL    HW222755   8.404   0.827   5.916
40911SOL     OW22756   8.952   1.607   5.630
40911SOL    HW122757   8.860   1.644   5.637
40911SOL    HW222758   8.990   1.627   5.540
40912SOL     OW22759   7.820   1.288   7.076
40912SOL    HW122760   7.807   1.381   7.042
40912SOL    HW222761   7.736   1.236   7.063
40913SOL     OW22762   9.062   1.292   6.875
40913SOL    HW122763   9.122   1.295   6.955
40913SOL    HW222764   8.987   1.356   6.888
40914SOL     OW22765   8.487   1.098   6.282
40914SOL    HW122766   8.417   1.051   6.336
40914SOL    HW222767   8.546   1.030   6.239
40915SOL     OW22768   8.462   0.236   6.557
40915SOL    HW122769   8.454   0.200   6.464
40915SOL    HW222770   8.460   0.160   6.622
40916SOL     OW22771   8.038   1.487   6.077
40916SOL    HW122772   8.080   1.429   6.007
40916SOL    HW222773   7.994   1.566   6.033
40917SOL     OW22774   9.157   0.385   6.967
40917SOL    HW122775   9.230   0.454   6.971
40917SOL    HW222776   9.185   0.310   6.908
40918SOL     OW22777   7.703   1.348   5.876
40918SOL    HW122778   7.607   1.349   5.849
40918SOL    HW222779   7.715   1.401   5.960
40919SOL     OW22780   7.553   1.013   7.312
40919SOL    HW122781   7.476   0.980   7.366
40919SOL    HW222782   7.638   0.983   7.354
40920SOL     OW22783   8.120   0.203   7.075
40920SOL    HW122784   8.210   0.187   7.035
40920SOL    HW222785   8.128   0.208   7.174
40921SOL     OW22786   7.523   0.345   5.619
40921SOL    HW122787   7.431   0.317   5.590
40921SOL    HW222788   7.554   0.422   5.563
40922SOL     OW22789   8.888   0.856   6.984
40922SOL    HW122790   8.831   0.908   6.921
40922SOL    HW222791   8.984   0.868   6.960
40923SOL     OW22792   7.520   0.166   5.904
40923SOL    HW122793   7.503   0.249   5.850
40923SOL    HW222794   7.610   0.129   5.882
40924SOL     OW22795   8.631   1.335   5.705
40924SOL    HW122796   8.532   1.324   5.707
40924SOL    HW222797   8.665   1.350   5.798
40925SOL     OW22798   8.061   0.842   7.017
40925SOL    HW122799   8.117   0.923   7.000
40925SOL    HW222800   8.120   0.762   7.020
40926SOL     OW22801   8.941   1.767   6.545
40926SOL    HW122802   8.974   1.831   6.476
40926SOL    HW222803   9.007   1.761   6.620
40927SOL     OW22804   8.164   0.565   7.294
40927SOL    HW122805   8.183   0.630   7.368
40927SOL    HW222806   8.224   0.485   7.303
40928SOL     OW22807   8.898   1.220   7.219
40928SOL    HW122808   8.889   1.210   7.318
40928SOL    HW222809   8.994   1.213   7.193
40929SOL     OW22810   7.838   1.741   7.146
40929SOL    HW122811   7.747   1.782   7.144
40929SOL    HW222812   7.831   1.647   7.178
40930SOL     OW22813   9.122   0.883   6.840
40930SOL    HW122814   9.095   0.794   6.803
40930SOL    HW222815   9.123   0.951   6.767
40931SOL     OW22816   8.673   0.325   6.035
40931SOL    HW122817   8.738   0.251   6.024
40931SOL    HW222818   8.693   0.375   6.119
40932SOL     OW22819   8.042   0.745   6.238
40932SOL    HW122820   8.092   0.830   6.219
40932SOL    HW222821   7.954   0.747   6.190
40933SOL     OW22822   9.225   0.342   7.228
40933SOL    HW122823   9.208   0.373   7.134
40933SOL    HW222824   9.141   0.305   7.266
40934SOL     OW22825   9.178   0.934   7.103
40934SOL    HW122826   9.216   1.025   7.118
40934SOL    HW222827   9.170   0.917   7.004
40935SOL     OW22828   8.307   1.374   5.602
40935SOL    HW122829   8.261   1.389   5.690
40935SOL    HW222830   8.351   1.459   5.572
40936SOL     OW22831   8.109   1.790   6.539
40936SOL    HW122832   8.063   1.878   6.526
40936SOL    HW222833   8.208   1.802   6.532
40937SOL     OW22834   8.307   0.956   6.447
40937SOL    HW122835   8.361   0.887   6.495
40937SOL    HW222836   8.275   1.025   6.513
40938SOL     OW22837   8.531   0.984   5.673
40938SOL    HW122838   8.508   1.037   5.591
40938SOL    HW222839   8.612   0.928   5.654
40939SOL     OW22840   9.309   1.569   6.437
40939SOL    HW122841   9.238   1.557   6.367
40939SOL    HW222842   9.310   1.490   6.497
40940SOL     OW22843   7.669   1.314   7.430
40940SOL    HW122844   7.604   1.241   7.409
40940SOL    HW222845   7.673   1.328   7.528
40941SOL     OW22846   7.527   1.240   6.239
40941SOL    HW122847   7.526   1.193   6.327
40941SOL    HW222848   7.609   1.212   6.188
40942SOL     OW22849   8.120   1.391   7.210
40942SOL    HW122850   8.042   1.341   7.248
40942SOL    HW222851   8.117   1.486   7.241
40943SOL     OW22852   9.272   0.192   6.813
40943SOL    HW122853   9.268   0.102   6.857
40943SOL    HW222854   9.275   0.181   6.714
40944SOL     OW22855   7.876   0.424   6.106
40944SOL    HW122856   7.906   0.352   6.044
40944SOL    HW222857   7.837   0.384   6.189
40945SOL     OW22858   9.153   1.487   6.690
40945SOL    HW122859   9.060   1.462   6.663
40945SOL    HW222860   9.179   1.437   6.772
40946SOL     OW22861   7.765   0.547   6.866
40946SOL    HW122862   7.803   0.488   6.938
40946SOL    HW222863   7.805   0.521   6.778
40947SOL     OW22864   8.260   1.586   6.273
40947SOL    HW122865   8.292   1.596   6.179
40947SOL    HW222866   8.181   1.524   6.275
40948SOL     OW22867   8.872   0.214   6.698
40948SOL    HW122868   8.924   0.149   6.753
40948SOL    HW222869   8.823   0.277   6.759
40949SOL     OW22870   8.449   0.034   6.740
40949SOL    HW122871   8.386  -0.038   6.709
40949SOL    HW222872   8.542  -0.002   6.740
40950SOL     OW22873   8.218   1.330   5.887
40950SOL    HW122874   8.172   1.243   5.904
40950SOL    HW222875   8.309   1.327   5.928
40951SOL     OW22876   8.066   1.567   6.870
40951SOL    HW122877   8.061   1.649   6.927
40951SOL    HW222878   8.155   1.564   6.825
40952SOL     OW22879   8.800   0.052   5.754
40952SOL    HW122880   8.835   0.011   5.670
40952SOL    HW222881   8.710   0.014   5.774
40953SOL     OW22882   8.748   0.453   6.277
40953SOL    HW122883   8.689   0.533   6.281
40953SOL    HW222884   8.763   0.418   6.370
40954SOL     OW22885   9.041   0.221   6.468
40954SOL    HW122886   8.957   0.220   6.522
40954SOL    HW222887   9.043   0.304   6.412
40955SOL     OW22888   7.487   1.077   5.886
40955SOL    HW122889   7.586   1.066   5.877
40955SOL    HW222890   7.447   0.991   5.918
40956SOL     OW22891   8.323   1.646   5.923
40956SOL    HW122892   8.246   1.611   5.869
40956SOL    HW222893   8.291   1.717   5.985
40957SOL     OW22894   7.678   0.628   7.561
40957SOL    HW122895   7.585   0.626   7.598
40957SOL    HW222896   7.679   0.589   7.469
40958SOL     OW22897   7.673   0.275   8.444
40958SOL    HW122898   7.708   0.258   8.536
40958SOL    HW222899   7.585   0.230   8.432
40959SOL     OW22900   7.467   0.368   8.095
40959SOL    HW122901   7.385   0.411   8.134
40959SOL    HW222902   7.439   0.295   8.032
40960SOL     OW22903   8.017   1.275   8.613
40960SOL    HW122904   7.924   1.268   8.576
40960SOL    HW222905   8.028   1.364   8.657
40961SOL     OW22906   9.003   1.511   8.151
40961SOL    HW122907   8.946   1.495   8.232
40961SOL    HW222908   8.944   1.521   8.071
40962SOL     OW22909   8.583   0.703   8.165
40962SOL    HW122910   8.640   0.781   8.140
40962SOL    HW222911   8.523   0.729   8.241
40963SOL     OW22912   9.203   0.607   7.679
40963SOL    HW122913   9.191   0.594   7.580
40963SOL    HW222914   9.173   0.526   7.728
40964SOL     OW22915   8.216   1.144   8.471
40964SOL    HW122916   8.138   1.161   8.531
40964SOL    HW222917   8.250   1.231   8.435
40965SOL     OW22918   8.298   0.798   9.271
40965SOL    HW122919   8.294   0.874   9.336
40965SOL    HW222920   8.320   0.834   9.180
40966SOL     OW22921   8.133   1.012   8.113
40966SOL    HW122922   8.202   0.996   8.183
40966SOL    HW222923   8.060   1.069   8.151
40967SOL     OW22924   8.134   1.161   9.251
40967SOL    HW122925   8.194   1.240   9.265
40967SOL    HW222926   8.048   1.192   9.210
40968SOL     OW22927   7.783   1.435   8.509
40968SOL    HW122928   7.705   1.404   8.456
40968SOL    HW222929   7.841   1.493   8.452
40969SOL     OW22930   8.908   1.505   8.787
40969SOL    HW122931   8.932   1.599   8.813
40969SOL    HW222932   8.892   1.451   8.869
40970SOL     OW22933   7.886   0.392   8.947
40970SOL    HW122934   7.968   0.336   8.956
40970SOL    HW222935   7.805   0.334   8.951
40971SOL     OW22936   9.051   0.447   8.185
40971SOL    HW122937   8.977   0.493   8.135
40971SOL    HW222938   9.102   0.515   8.238
40972SOL     OW22939   7.679   1.713   7.931
40972SOL    HW122940   7.713   1.790   7.985
40972SOL    HW222941   7.723   1.713   7.841
40973SOL     OW22942   8.575   1.341   9.138
40973SOL    HW122943   8.622   1.341   9.226
40973SOL    HW222944   8.527   1.254   9.127
40974SOL     OW22945   7.678   1.434   7.986
40974SOL    HW122946   7.652   1.530   7.986
40974SOL    HW222947   7.607   1.380   8.031
40975SOL     OW22948   7.688   1.091   8.334
40975SOL    HW122949   7.702   1.007   8.386
40975SOL    HW222950   7.633   1.155   8.389
40976SOL     OW22951   8.068   1.786   8.887
40976SOL    HW122952   7.976   1.769   8.922
40976SOL    HW222953   8.096   1.878   8.913
40977SOL     OW22954   8.054   0.964   7.571
40977SOL    HW122955   8.061   1.048   7.517
40977SOL    HW222956   8.100   0.977   7.659
40978SOL     OW22957   9.042   0.114   8.928
40978SOL    HW122958   9.024   0.181   8.856
40978SOL    HW222959   9.039   0.160   9.017
40979SOL     OW22960   7.570   0.643   8.011
40979SOL    HW122961   7.525   0.555   8.028
40979SOL    HW222962   7.569   0.697   8.095
40980SOL     OW22963   9.290   1.767   7.807
40980SOL    HW122964   9.344   1.738   7.887
40980SOL    HW222965   9.320   1.857   7.778
40981SOL     OW22966   7.475   1.596   7.565
40981SOL    HW122967   7.456   1.500   7.586
40981SOL    HW222968   7.442   1.654   7.640
40982SOL     OW22969   9.137   0.922   8.060
40982SOL    HW122970   9.232   0.893   8.068
40982SOL    HW222971   9.129   0.987   7.985
40983SOL     OW22972   9.089   1.108   7.880
40983SOL    HW122973   9.175   1.110   7.828
40983SOL    HW222974   9.103   1.155   7.968
40984SOL     OW22975   7.561   0.737   9.045
40984SOL    HW122976   7.649   0.724   9.090
40984SOL    HW222977   7.548   0.834   9.023
40985SOL     OW22978   8.061   1.365   8.174
40985SOL    HW122979   8.012   1.278   8.183
40985SOL    HW222980   8.038   1.408   8.087
40986SOL     OW22981   8.741   1.228   8.871
40986SOL    HW122982   8.778   1.155   8.813
40986SOL    HW222983   8.793   1.233   8.956
40987SOL     OW22984   8.257   0.004   7.950
40987SOL    HW122985   8.297   0.095   7.941
40987SOL    HW222986   8.157   0.012   7.956
40988SOL     OW22987   7.645   0.976   8.712
40988SOL    HW122988   7.734   0.931   8.698
40988SOL    HW222989   7.572   0.911   8.693
40989SOL     OW22990   8.973   0.999   7.638
40989SOL    HW122991   8.910   0.923   7.651
40989SOL    HW222992   9.021   1.017   7.724
40990SOL     OW22993   8.635   1.792   9.064
40990SOL    HW122994   8.659   1.852   8.988
40990SOL    HW222995   8.642   1.697   9.034
40991SOL     OW22996   7.765   0.251   9.249
40991SOL    HW122997   7.836   0.322   9.255
40991SOL    HW222998   7.677   0.290   9.277
40992SOL     OW22999   8.914   1.417   8.401
40992SOL    HW123000   8.855   1.423   8.481
40992SOL    HW223001   8.899   1.329   8.355
40993SOL     OW23002   9.115   1.714   8.020
40993SOL    HW123003   9.074   1.691   7.932
40993SOL    HW223004   9.097   1.640   8.085
40994SOL     OW23005   8.046   0.729   7.718
40994SOL    HW123006   8.070   0.798   7.650
40994SOL    HW223007   7.968   0.762   7.772
40995SOL     OW23008   8.729   0.345   8.392
40995SOL    HW123009   8.643   0.295   8.379
40995SOL    HW223010   8.791   0.291   8.448
40996SOL     OW23011   9.024   1.662   7.755
40996SOL    HW123012   9.113   1.708   7.758
40996SOL    HW223013   9.003   1.638   7.660
40997SOL     OW23014   8.255   0.605   8.913
40997SOL    HW123015   8.208   0.602   9.002
40997SOL    HW223016   8.204   0.550   8.847
40998SOL     OW23017   8.842   0.469   9.122
40998SOL    HW123018   8.822   0.512   9.210
40998SOL    HW223019   8.920   0.407   9.131
40999SOL     OW23020   8.421   0.890   9.020
40999SOL    HW123021   8.467   0.806   8.991
40999SOL    HW223022   8.365   0.924   8.945
41000SOL     OW23023   8.439   0.410   8.690
41000SOL    HW123024   8.362   0.444   8.744
41000SOL    HW223025   8.405   0.359   8.611
41001SOL     OW23026   8.489   0.701   7.877
41001SOL    HW123027   8.515   0.697   7.973
41001SOL    HW223028   8.404   0.650   7.863
41002SOL     OW23029   7.524   0.811   8.237
41002SOL    HW123030   7.623   0.799   8.246
41002SOL    HW223031   7.500   0.906   8.258
41003SOL     OW23032   7.578   1.821   9.019
41003SOL    HW123033   7.568   1.806   9.118
41003SOL    HW223034   7.492   1.857   8.983
41004SOL     OW23035   8.313   0.348   7.643
41004SOL    HW123036   8.372   0.411   7.594
41004SOL    HW223037   8.332   0.254   7.614
41005SOL     OW23038   9.167   0.585   9.279
41005SOL    HW123039   9.141   0.674   9.243
41005SOL    HW223040   9.165   0.517   9.206
41006SOL     OW23041   8.810   1.144   7.993
41006SOL    HW123042   8.893   1.115   7.945
41006SOL    HW223043   8.761   1.211   7.937
41007SOL     OW23044   7.998   0.196   8.333
41007SOL    HW123045   7.993   0.191   8.433
41007SOL    HW223046   8.000   0.292   8.304
41008SOL     OW23047   8.456   1.456   7.925
41008SOL    HW123048   8.410   1.528   7.873
41008SOL    HW223049   8.452   1.476   8.023
41009SOL     OW23050   7.799   1.801   8.301
41009SOL    HW123051   7.849   1.715   8.307
41009SOL    HW223052   7.864   1.878   8.298
41010SOL     OW23053   9.243   1.066   8.321
41010SOL    HW123054   9.181   1.051   8.245
41010SOL    HW223055   9.191   1.077   8.406
41011SOL     OW23056   8.675   1.550   8.954
41011SOL    HW123057   8.681   1.473   9.018
41011SOL    HW223058   8.623   1.524   8.874
41012SOL     OW23059   7.769   0.943   7.690
41012SOL    HW123060   7.851   0.982   7.648
41012SOL    HW223061   7.742   0.861   7.641
41013SOL     OW23062   8.906   0.735   8.176
41013SOL    HW123063   8.901   0.670   8.251
41013SOL    HW223064   8.986   0.794   8.189
41014SOL     OW23065   7.909   1.266   9.175
41014SOL    HW123066   7.859   1.267   9.089
41014SOL    HW223067   7.846   1.248   9.251
41015SOL     OW23068   8.559   1.776   7.685
41015SOL    HW123069   8.499   1.714   7.735
41015SOL    HW223070   8.590   1.732   7.600
41016SOL     OW23071   7.650   0.285   8.946
41016SOL    HW123072   7.570   0.345   8.933
41016SOL    HW223073   7.640   0.236   9.032
41017SOL     OW23074   9.080   1.377   7.529
41017SOL    HW123075   9.048   1.471   7.519
41017SOL    HW223076   9.004   1.314   7.517
41018SOL     OW23077   7.912   1.743   7.771
41018SOL    HW123078   7.945   1.782   7.857
41018SOL    HW223079   7.988   1.736   7.706
41019SOL     OW23080   8.848   0.107   7.874
41019SOL    HW123081   8.824   0.070   7.784
41019SOL    HW223082   8.947   0.123   7.878
41020SOL     OW23083   7.697   1.785   8.689
41020SOL    HW123084   7.754   1.720   8.739
41020SOL    HW223085   7.681   1.752   8.596
41021SOL     OW23086   8.388   1.698   8.352
41021SOL    HW123087   8.468   1.641   8.373
41021SOL    HW223088   8.339   1.658   8.275
41022SOL     OW23089   7.830   0.700   7.928
41022SOL    HW123090   7.875   0.610   7.925
41022SOL    HW223091   7.736   0.689   7.961
41023SOL     OW23092   8.995   0.222   9.177
41023SOL    HW123093   8.990   0.259   9.269
41023SOL    HW223094   8.923   0.153   9.165
41024SOL     OW23095   8.062   0.122   7.565
41024SOL    HW123096   8.160   0.100   7.572
41024SOL    HW223097   8.031   0.105   7.472
41025SOL     OW23098   8.229   0.264   9.197
41025SOL    HW123099   8.296   0.203   9.240
41025SOL    HW223100   8.156   0.283   9.262
41026SOL     OW23101   8.336   1.514   8.643
41026SOL    HW123102   8.313   1.489   8.549
41026SOL    HW223103   8.397   1.445   8.682
41027SOL     OW23104   8.799   0.590   8.881
41027SOL    HW123105   8.827   0.547   8.966
41027SOL    HW223106   8.824   0.686   8.882
41028SOL     OW23107   8.251   1.402   8.372
41028SOL    HW123108   8.341   1.416   8.330
41028SOL    HW223109   8.180   1.404   8.301
41029SOL     OW23110   8.370   0.503   8.347
41029SOL    HW123111   8.345   0.494   8.251
41029SOL    HW223112   8.418   0.421   8.378
41030SOL     OW23113   7.987   0.064   7.960
41030SOL    HW123114   7.906   0.065   8.018
41030SOL    HW223115   7.990   0.147   7.905
41031SOL     OW23116   8.882   1.188   7.489
41031SOL    HW123117   8.914   1.112   7.546
41031SOL    HW223118   8.790   1.215   7.519
41032SOL     OW23119   7.745   0.035   7.619
41032SOL    HW123120   7.794   0.119   7.598
41032SOL    HW223121   7.807  -0.030   7.664
41033SOL     OW23122   8.383   0.236   7.928
41033SOL    HW123123   8.335   0.277   7.850
41033SOL    HW223124   8.482   0.234   7.909
41034SOL     OW23125   8.524   0.683   8.912
41034SOL    HW123126   8.444   0.622   8.915
41034SOL    HW223127   8.605   0.630   8.888
41035SOL     OW23128   8.675   1.570   8.241
41035SOL    HW123129   8.696   1.644   8.176
41035SOL    HW223130   8.743   1.570   8.314
41036SOL     OW23131   7.907   1.152   8.189
41036SOL    HW123132   7.836   1.125   8.254
41036SOL    HW223133   7.881   1.124   8.096
41037SOL     OW23134   8.719   1.797   8.039
41037SOL    HW123135   8.763   1.861   7.975
41037SOL    HW223136   8.669   1.849   8.109
41038SOL     OW23137   8.480   0.549   7.464
41038SOL    HW123138   8.439   0.631   7.425
41038SOL    HW223139   8.544   0.575   7.537
41039SOL     OW23140   7.526   0.556   8.834
41039SOL    HW123141   7.618   0.555   8.793
41039SOL    HW223142   7.520   0.630   8.901
41040SOL     OW23143   8.009   0.222   8.595
41040SOL    HW123144   8.047   0.138   8.632
41040SOL    HW223145   7.921   0.241   8.639
41041SOL     OW23146   8.314   0.454   8.090
41041SOL    HW123147   8.282   0.526   8.028
41041SOL    HW223148   8.338   0.373   8.037
41042SOL     OW23149   8.465   0.039   8.201
41042SOL    HW123150   8.393   0.044   8.132
41042SOL    HW223151   8.441  -0.030   8.270
41043SOL     OW23152   8.877   1.173   8.315
41043SOL    HW123153   8.822   1.089   8.308
41043SOL    HW223154   8.903   1.202   8.223
41044SOL     OW23155   8.914   0.590   8.440
41044SOL    HW123156   8.884   0.495   8.447
41044SOL    HW223157   8.987   0.606   8.506
41045SOL     OW23158   9.305   0.833   7.825
41045SOL    HW123159   9.347   0.769   7.889
41045SOL    HW223160   9.267   0.782   7.747
41046SOL     OW23161   7.936   1.385   7.622
41046SOL    HW123162   7.849   1.370   7.669
41046SOL    HW223163   7.919   1.411   7.527
41047SOL     OW23164   9.112   1.280   8.105
41047SOL    HW123165   9.211   1.288   8.119
41047SOL    HW223166   9.067   1.364   8.136
41048SOL     OW23167   8.838   0.575   7.526
41048SOL    HW123168   8.784   0.554   7.607
41048SOL    HW223169   8.929   0.534   7.535
41049SOL     OW23170   7.975   0.256   7.776
41049SOL    HW123171   8.002   0.197   7.701
41049SOL    HW223172   7.975   0.351   7.745
41050SOL     OW23173   9.202   1.223   9.036
41050SOL    HW123174   9.293   1.184   9.023
41050SOL    HW223175   9.210   1.319   9.060
41051SOL     OW23176   8.512   1.347   8.788
41051SOL    HW123177   8.432   1.324   8.843
41051SOL    HW223178   8.595   1.321   8.837
41052SOL     OW23179   9.040   1.629   9.073
41052SOL    HW123180   9.067   1.663   8.983
41052SOL    HW223181   9.119   1.591   9.119
41053SOL     OW23182   8.559   1.195   8.548
41053SOL    HW123183   8.519   1.239   8.629
41053SOL    HW223184   8.518   1.232   8.465
41054SOL     OW23185   9.086   1.099   8.527
41054SOL    HW123186   9.091   1.180   8.586
41054SOL    HW223187   9.000   1.101   8.476
41055SOL     OW23188   8.363   0.089   8.850
41055SOL    HW123189   8.388   0.069   8.755
41055SOL    HW223190   8.435   0.145   8.892
41056SOL     OW23191   8.428   1.116   9.167
41056SOL    HW123192   8.329   1.122   9.177
41056SOL    HW223193   8.451   1.036   9.111
41057SOL     OW23194   8.153   1.050   7.816
41057SOL    HW123195   8.139   1.057   7.915
41057SOL    HW223196   8.237   0.999   7.798
41058SOL     OW23197   7.858   0.813   8.699
41058SOL    HW123198   7.944   0.825   8.749
41058SOL    HW223199   7.816   0.726   8.726
41059SOL     OW23200   8.722   0.386   8.710
41059SOL    HW123201   8.743   0.460   8.774
41059SOL    HW223202   8.633   0.403   8.667
41060SOL     OW23203   7.512   1.564   8.779
41060SOL    HW123204   7.466   1.646   8.745
41060SOL    HW223205   7.610   1.583   8.788
41061SOL     OW23206   7.815   1.100   7.949
41061SOL    HW123207   7.808   1.183   7.893
41061SOL    HW223208   7.819   1.020   7.889
41062SOL     OW23209   8.014   0.537   8.313
41062SOL    HW123210   8.026   0.603   8.239
41062SOL    HW223211   8.060   0.571   8.396
41063SOL     OW23212   8.700   1.348   7.836
41063SOL    HW123213   8.750   1.425   7.876
41063SOL    HW223214   8.605   1.350   7.868
41064SOL     OW23215   8.720   1.445   8.590
41064SOL    HW123216   8.767   1.458   8.677
41064SOL    HW223217   8.654   1.371   8.599
41065SOL     OW23218   9.030   0.639   7.920
41065SOL    HW123219   8.999   0.700   7.993
41065SOL    HW223220   9.080   0.691   7.851
41066SOL     OW23221   7.802   1.510   8.777
41066SOL    HW123222   7.781   1.466   8.690
41066SOL    HW223223   7.899   1.536   8.780
41067SOL     OW23224   7.850   0.751   9.046
41067SOL    HW123225   7.918   0.806   8.999
41067SOL    HW223226   7.890   0.663   9.073
41068SOL     OW23227   9.035   0.779   9.118
41068SOL    HW123228   8.943   0.817   9.113
41068SOL    HW223229   9.095   0.826   9.053
41069SOL     OW23230   8.461   0.105   9.218
41069SOL    HW123231   8.467   0.190   9.166
41069SOL    HW223232   8.493   0.029   9.161
41070SOL     OW23233   7.952   0.050   9.188
41070SOL    HW123234   7.910  -0.007   9.118
41070SOL    HW223235   7.886   0.119   9.220
41071SOL     OW23236   8.021   0.870   8.477
41071SOL    HW123237   8.065   0.959   8.468
41071SOL    HW223238   7.958   0.870   8.554
41072SOL     OW23239   8.808   0.862   8.493
41072SOL    HW123240   8.733   0.862   8.427
41072SOL    HW223241   8.845   0.770   8.502
41073SOL     OW23242   8.657   0.525   7.723
41073SOL    HW123243   8.670   0.441   7.777
41073SOL    HW223244   8.628   0.599   7.783
41074SOL     OW23245   7.755   0.213   8.679
41074SOL    HW123246   7.732   0.250   8.769
41074SOL    HW223247   7.725   0.118   8.673
41075SOL     OW23248   7.485   1.310   8.730
41075SOL    HW123249   7.538   1.261   8.798
41075SOL    HW223250   7.507   1.408   8.735
41076SOL     OW23251   8.180   0.634   8.512
41076SOL    HW123252   8.239   0.608   8.436
41076SOL    HW223253   8.152   0.730   8.501
41077SOL     OW23254   9.176   0.935   9.302
41077SOL    HW123255   9.130   0.928   9.213
41077SOL    HW223256   9.114   0.979   9.368
41078SOL     OW23257   7.755   0.063   8.066
41078SOL    HW123258   7.744   0.157   8.099
41078SOL    HW223259   7.750   0.000   8.143
41079SOL     OW23260   9.070   0.367   7.822
41079SOL    HW123261   9.072   0.291   7.886
41079SOL    HW223262   9.022   0.444   7.862
41080SOL     OW23263   8.471   0.766   8.414
41080SOL    HW123264   8.486   0.787   8.510
41080SOL    HW223265   8.441   0.671   8.405
41081SOL     OW23266   8.428   1.573   9.148
41081SOL    HW123267   8.408   1.617   9.060
41081SOL    HW223268   8.467   1.482   9.132
41082SOL     OW23269   9.307   1.518   9.053
41082SOL    HW123270   9.321   1.545   8.958
41082SOL    HW223271   9.390   1.540   9.106
41083SOL     OW23272   7.798   0.898   9.252
41083SOL    HW123273   7.874   0.942   9.300
41083SOL    HW223274   7.833   0.851   9.170
41084SOL     OW23275   8.988   0.274   7.573
41084SOL    HW123276   8.927   0.199   7.596
41084SOL    HW223277   9.010   0.326   7.656
41085SOL     OW23278   8.751   0.838   7.490
41085SOL    HW123279   8.785   0.745   7.505
41085SOL    HW223280   8.769   0.865   7.395
41086SOL     OW23281   8.516   1.333   8.297
41086SOL    HW123282   8.523   1.249   8.242
41086SOL    HW223283   8.578   1.402   8.261
41087SOL     OW23284   7.767   0.810   8.397
41087SOL    HW123285   7.860   0.846   8.402
41087SOL    HW223286   7.761   0.725   8.449
41088SOL     OW23287   7.787   0.509   8.454
41088SOL    HW123288   7.735   0.426   8.437
41088SOL    HW223289   7.864   0.514   8.390
41089SOL     OW23290   8.586   0.380   9.126
41089SOL    HW123291   8.541   0.443   9.190
41089SOL    HW223292   8.679   0.411   9.109
41090SOL     OW23293   8.608   0.207   8.925
41090SOL    HW123294   8.608   0.271   9.002
41090SOL    HW223295   8.636   0.255   8.842
41091SOL     OW23296   7.456   1.326   7.648
41091SOL    HW123297   7.363   1.347   7.617
41091SOL    HW223298   7.466   1.227   7.661
41092SOL     OW23299   7.536   1.801   8.375
41092SOL    HW123300   7.494   1.715   8.348
41092SOL    HW223301   7.630   1.804   8.341
41093SOL     OW23302   7.952   1.568   8.358
41093SOL    HW123303   8.018   1.642   8.367
41093SOL    HW223304   7.996   1.489   8.316
41094SOL     OW23305   8.450   0.796   8.686
41094SOL    HW123306   8.491   0.764   8.772
41094SOL    HW223307   8.354   0.769   8.683
41095SOL     OW23308   7.488   0.544   8.562
41095SOL    HW123309   7.573   0.511   8.521
41095SOL    HW223310   7.501   0.559   8.660
41096SOL     OW23311   7.637   0.520   9.170
41096SOL    HW123312   7.696   0.480   9.100
41096SOL    HW223313   7.579   0.591   9.129
41097SOL     OW23314   8.817   0.950   9.108
41097SOL    HW123315   8.856   1.039   9.128
41097SOL    HW223316   8.827   0.930   9.011
41098SOL     OW23317   8.263   0.572   7.773
41098SOL    HW123318   8.270   0.483   7.727
41098SOL    HW223319   8.169   0.606   7.765
41099SOL     OW23320   9.105   0.604   8.654
41099SOL    HW123321   9.067   0.535   8.716
41099SOL    HW223322   9.187   0.568   8.610
41100SOL     OW23323   7.700   1.564   9.192
41100SOL    HW123324   7.670   1.621   9.268
41100SOL    HW223325   7.693   1.467   9.218
41101SOL     OW23326   8.119   0.464   8.717
41101SOL    HW123327   8.085   0.375   8.687
41101SOL    HW223328   8.145   0.518   8.637
41102SOL     OW23329   8.378   1.678   8.913
41102SOL    HW123330   8.354   1.660   8.818
41102SOL    HW223331   8.408   1.772   8.923
41103SOL     OW23332   7.921   0.500   7.639
41103SOL    HW123333   7.982   0.580   7.643
41103SOL    HW223334   7.826   0.531   7.646
41104SOL     OW23335   7.607   1.137   8.914
41104SOL    HW123336   7.629   1.076   8.990
41104SOL    HW223337   7.617   1.088   8.828
41105SOL     OW23338   8.795   1.059   8.682
41105SOL    HW123339   8.819   0.996   8.608
41105SOL    HW223340   8.705   1.099   8.664
41106SOL     OW23341   8.750   0.855   7.757
41106SOL    HW123342   8.664   0.824   7.799
41106SOL    HW223343   8.746   0.841   7.658
41107SOL     OW23344   9.207   1.747   8.602
41107SOL    HW123345   9.268   1.777   8.529
41107SOL    HW223346   9.169   1.658   8.580
41108SOL     OW23347   8.700   1.731   8.576
41108SOL    HW123348   8.784   1.736   8.522
41108SOL    HW223349   8.677   1.635   8.594
41109SOL     OW23350   7.531   1.258   8.470
41109SOL    HW123351   7.526   1.257   8.570
41109SOL    HW223352   7.448   1.217   8.432
41110SOL     OW23353   8.136   1.662   9.164
41110SOL    HW123354   8.080   1.743   9.173
41110SOL    HW223355   8.188   1.666   9.078
41111SOL     OW23356   9.174   0.135   7.971
41111SOL    HW123357   9.247   0.118   7.904
41111SOL    HW223358   9.143   0.048   8.009
41112SOL     OW23359   8.836   1.573   7.925
41112SOL    HW123360   8.903   1.585   7.851
41112SOL    HW223361   8.796   1.662   7.948
41113SOL     OW23362   7.578   1.794   9.299
41113SOL    HW123363   7.537   1.720   9.352
41113SOL    HW223364   7.642   1.845   9.357
41114SOL     OW23365   8.728   0.927   8.120
41114SOL    HW123366   8.788   0.846   8.122
41114SOL    HW223367   8.768   0.996   8.060
41115SOL     OW23368   8.278   1.273   8.870
41115SOL    HW123369   8.273   1.306   8.965
41115SOL    HW223370   8.192   1.292   8.824
41116SOL     OW23371   8.120   1.616   7.602
41116SOL    HW123372   8.129   1.626   7.503
41116SOL    HW223373   8.080   1.527   7.623
41117SOL     OW23374   9.098   1.720   8.842
41117SOL    HW123375   9.151   1.730   8.758
41117SOL    HW223376   9.071   1.810   8.876
41118SOL     OW23377   9.289   0.175   8.411
41118SOL    HW123378   9.328   0.090   8.375
41118SOL    HW223379   9.191   0.177   8.392
41119SOL     OW23380   7.711   0.326   8.168
41119SOL    HW123381   7.632   0.377   8.134
41119SOL    HW223382   7.702   0.311   8.266
41120SOL     OW23383   8.642   1.612   7.479
41120SOL    HW123384   8.648   1.519   7.516
41120SOL    HW223385   8.583   1.612   7.399
41121SOL     OW23386   8.270   1.002   8.820
41121SOL    HW123387   8.310   1.001   8.728
41121SOL    HW223388   8.280   1.094   8.860
41122SOL     OW23389   8.364   0.910   7.739
41122SOL    HW123390   8.427   0.948   7.671
41122SOL    HW223391   8.404   0.827   7.778
41123SOL     OW23392   8.952   1.607   7.492
41123SOL    HW123393   8.860   1.644   7.499
41123SOL    HW223394   8.990   1.627   7.402
41124SOL     OW23395   7.820   1.288   8.938
41124SOL    HW123396   7.807   1.381   8.904
41124SOL    HW223397   7.736   1.236   8.925
41125SOL     OW23398   9.062   1.292   8.737
41125SOL    HW123399   9.122   1.295   8.817
41125SOL    HW223400   8.987   1.356   8.750
41126SOL     OW23401   8.487   1.098   8.144
41126SOL    HW123402   8.417   1.051   8.198
41126SOL    HW223403   8.546   1.030   8.101
41127SOL     OW23404   8.462   0.236   8.419
41127SOL    HW123405   8.454   0.200   8.326
41127SOL    HW223406   8.460   0.160   8.484
41128SOL     OW23407   8.038   1.487   7.939
41128SOL    HW123408   8.080   1.429   7.869
41128SOL    HW223409   7.994   1.566   7.895
41129SOL     OW23410   9.157   0.385   8.829
41129SOL    HW123411   9.230   0.454   8.833
41129SOL    HW223412   9.185   0.310   8.770
41130SOL     OW23413   7.703   1.348   7.738
41130SOL    HW123414   7.607   1.349   7.711
41130SOL    HW223415   7.715   1.401   7.822
41131SOL     OW23416   7.553   1.013   9.174
41131SOL    HW123417   7.476   0.980   9.228
41131SOL    HW223418   7.638   0.983   9.216
41132SOL     OW23419   8.120   0.203   8.937
41132SOL    HW123420   8.210   0.187   8.897
41132SOL    HW223421   8.128   0.208   9.036
41133SOL     OW23422   7.523   0.345   7.481
41133SOL    HW123423   7.431   0.317   7.452
41133SOL    HW223424   7.554   0.422   7.425
41134SOL     OW23425   8.888   0.856   8.846
41134SOL    HW123426   8.831   0.908   8.783
41134SOL    HW223427   8.984   0.868   8.822
41135SOL     OW23428   7.520   0.166   7.766
41135SOL    HW123429   7.503   0.249   7.712
41135SOL    HW223430   7.610   0.129   7.744
41136SOL     OW23431   8.631   1.335   7.567
41136SOL    HW123432   8.532   1.324   7.569
41136SOL    HW223433   8.665   1.350   7.660
41137SOL     OW23434   8.061   0.842   8.879
41137SOL    HW123435   8.117   0.923   8.862
41137SOL    HW223436   8.120   0.762   8.882
41138SOL     OW23437   8.941   1.767   8.407
41138SOL    HW123438   8.974   1.831   8.338
41138SOL    HW223439   9.007   1.761   8.482
41139SOL     OW23440   8.164   0.565   9.156
41139SOL    HW123441   8.183   0.630   9.230
41139SOL    HW223442   8.224   0.485   9.165
41140SOL     OW23443   8.898   1.220   9.081
41140SOL    HW123444   8.889   1.210   9.180
41140SOL    HW223445   8.994   1.213   9.055
41141SOL     OW23446   7.838   1.741   9.008
41141SOL    HW123447   7.747   1.782   9.006
41141SOL    HW223448   7.831   1.647   9.040
41142SOL     OW23449   9.122   0.883   8.702
41142SOL    HW123450   9.095   0.794   8.665
41142SOL    HW223451   9.123   0.951   8.629
41143SOL     OW23452   8.673   0.325   7.897
41143SOL    HW123453   8.738   0.251   7.886
41143SOL    HW223454   8.693   0.375   7.981
41144SOL     OW23455   8.042   0.745   8.100
41144SOL    HW123456   8.092   0.830   8.081
41144SOL    HW223457   7.954   0.747   8.052
41145SOL     OW23458   9.225   0.342   9.090
41145SOL    HW123459   9.208   0.373   8.996
41145SOL    HW223460   9.141   0.305   9.128
41146SOL     OW23461   9.178   0.934   8.965
41146SOL    HW123462   9.216   1.025   8.980
41146SOL    HW223463   9.170   0.917   8.866
41147SOL     OW23464   8.307   1.374   7.464
41147SOL    HW123465   8.261   1.389   7.552
41147SOL    HW223466   8.351   1.459   7.434
41148SOL     OW23467   8.109   1.790   8.401
41148SOL    HW123468   8.063   1.878   8.388
41148SOL    HW223469   8.208   1.802   8.394
41149SOL     OW23470   8.307   0.956   8.309
41149SOL    HW123471   8.361   0.887   8.357
41149SOL    HW223472   8.275   1.025   8.375
41150SOL     OW23473   8.531   0.984   7.535
41150SOL    HW123474   8.508   1.037   7.453
41150SOL    HW223475   8.612   0.928   7.516
41151SOL     OW23476   9.309   1.569   8.299
41151SOL    HW123477   9.238   1.557   8.229
41151SOL    HW223478   9.310   1.490   8.359
41152SOL     OW23479   7.669   1.314   9.292
41152SOL    HW123480   7.604   1.241   9.271
41152SOL    HW223481   7.673   1.328   9.390
41153SOL     OW23482   7.527   1.240   8.101
41153SOL    HW123483   7.526   1.193   8.189
41153SOL    HW223484   7.609   1.212   8.050
41154SOL     OW23485   8.120   1.391   9.072
41154SOL    HW123486   8.042   1.341   9.110
41154SOL    HW223487   8.117   1.486   9.103
41155SOL     OW23488   9.272   0.192   8.675
41155SOL    HW123489   9.268   0.102   8.719
41155SOL    HW223490   9.275   0.181   8.576
41156SOL     OW23491   7.876   0.424   7.968
41156SOL    HW123492   7.906   0.352   7.906
41156SOL    HW223493   7.837   0.384   8.051
41157SOL     OW23494   9.153   1.487   8.552
41157SOL    HW123495   9.060   1.462   8.525
41157SOL    HW223496   9.179   1.437   8.634
41158SOL     OW23497   7.765   0.547   8.728
41158SOL    HW123498   7.803   0.488   8.800
41158SOL    HW223499   7.805   0.521   8.640
41159SOL     OW23500   8.260   1.586   8.135
41159SOL    HW123501   8.292   1.596   8.041
41159SOL    HW223502   8.181   1.524   8.137
41160SOL     OW23503   8.872   0.214   8.560
41160SOL    HW123504   8.924   0.149   8.615
41160SOL    HW223505   8.823   0.277   8.621
41161SOL     OW23506   8.449   0.034   8.602
41161SOL    HW123507   8.386  -0.038   8.571
41161SOL    HW223508   8.542  -0.002   8.602
41162SOL     OW23509   8.218   1.330   7.749
41162SOL    HW123510   8.172   1.243   7.766
41162SOL    HW223511   8.309   1.327   7.790
41163SOL     OW23512   8.066   1.567   8.732
41163SOL    HW123513   8.061   1.649   8.789
41163SOL    HW223514   8.155   1.564   8.687
41164SOL     OW23515   8.800   0.052   7.616
41164SOL    HW123516   8.835   0.011   7.532
41164SOL    HW223517   8.710   0.014   7.636
41165SOL     OW23518   8.748   0.453   8.139
41165SOL    HW123519   8.689   0.533   8.143
41165SOL    HW223520   8.763   0.418   8.232
41166SOL     OW23521   9.041   0.221   8.330
41166SOL    HW123522   8.957   0.220   8.384
41166SOL    HW223523   9.043   0.304   8.274
41167SOL     OW23524   7.487   1.077   7.748
41167SOL    HW123525   7.586   1.066   7.739
41167SOL    HW223526   7.447   0.991   7.780
41168SOL     OW23527   8.323   1.646   7.785
41168SOL    HW123528   8.246   1.611   7.731
41168SOL    HW223529   8.291   1.717   7.847
41169SOL     OW23530   7.678   0.628   9.423
41169SOL    HW123531   7.585   0.626   9.460
41169SOL    HW223532   7.679   0.589   9.331
41170SOL     OW23533   7.673   0.275  10.306
41170SOL    HW123534   7.708   0.258  10.398
41170SOL    HW223535   7.585   0.230  10.294
41171SOL     OW23536   7.467   0.368   9.957
41171SOL    HW123537   7.385   0.411   9.996
41171SOL    HW223538   7.439   0.295   9.894
41172SOL     OW23539   8.017   1.275  10.475
41172SOL    HW123540   7.924   1.268  10.438
41172SOL    HW223541   8.028   1.364  10.519
41173SOL     OW23542   9.003   1.511  10.013
41173SOL    HW123543   8.946   1.495  10.094
41173SOL    HW223544   8.944   1.521   9.933
41174SOL     OW23545   8.583   0.703  10.027
41174SOL    HW123546   8.640   0.781  10.002
41174SOL    HW223547   8.523   0.729  10.103
41175SOL     OW23548   9.203   0.607   9.541
41175SOL    HW123549   9.191   0.594   9.442
41175SOL    HW223550   9.173   0.526   9.590
41176SOL     OW23551   8.216   1.144  10.333
41176SOL    HW123552   8.138   1.161  10.393
41176SOL    HW223553   8.250   1.231  10.297
41177SOL     OW23554   8.298   0.798  11.133
41177SOL    HW123555   8.294   0.874  11.198
41177SOL    HW223556   8.320   0.834  11.042
41178SOL     OW23557   8.133   1.012   9.975
41178SOL    HW123558   8.202   0.996  10.045
41178SOL    HW223559   8.060   1.069  10.013
41179SOL     OW23560   8.134   1.161  11.113
41179SOL    HW123561   8.194   1.240  11.127
41179SOL    HW223562   8.048   1.192  11.072
41180SOL     OW23563   7.783   1.435  10.371
41180SOL    HW123564   7.705   1.404  10.318
41180SOL    HW223565   7.841   1.493  10.314
41181SOL     OW23566   8.908   1.505  10.649
41181SOL    HW123567   8.932   1.599  10.675
41181SOL    HW223568   8.892   1.451  10.731
41182SOL     OW23569   7.886   0.392  10.809
41182SOL    HW123570   7.968   0.336  10.818
41182SOL    HW223571   7.805   0.334  10.813
41183SOL     OW23572   9.051   0.447  10.047
41183SOL    HW123573   8.977   0.493   9.997
41183SOL    HW223574   9.102   0.515  10.100
41184SOL     OW23575   7.679   1.713   9.793
41184SOL    HW123576   7.713   1.790   9.847
41184SOL    HW223577   7.723   1.713   9.703
41185SOL     OW23578   8.575   1.341  11.000
41185SOL    HW123579   8.622   1.341  11.088
41185SOL    HW223580   8.527   1.254  10.989
41186SOL     OW23581   7.678   1.434   9.848
41186SOL    HW123582   7.652   1.530   9.848
41186SOL    HW223583   7.607   1.380   9.893
41187SOL     OW23584   7.688   1.091  10.196
41187SOL    HW123585   7.702   1.007  10.248
41187SOL    HW223586   7.633   1.155  10.251
41188SOL     OW23587   8.068   1.786  10.749
41188SOL    HW123588   7.976   1.769  10.784
41188SOL    HW223589   8.096   1.878  10.775
41189SOL     OW23590   8.054   0.964   9.433
41189SOL    HW123591   8.061   1.048   9.379
41189SOL    HW223592   8.100   0.977   9.521
41190SOL     OW23593   9.042   0.114  10.790
41190SOL    HW123594   9.024   0.181  10.718
41190SOL    HW223595   9.039   0.160  10.879
41191SOL     OW23596   7.570   0.643   9.873
41191SOL    HW123597   7.525   0.555   9.890
41191SOL    HW223598   7.569   0.697   9.957
41192SOL     OW23599   9.290   1.767   9.669
41192SOL    HW123600   9.344   1.738   9.749
41192SOL    HW223601   9.320   1.857   9.640
41193SOL     OW23602   7.475   1.596   9.427
41193SOL    HW123603   7.456   1.500   9.448
41193SOL    HW223604   7.442   1.654   9.502
41194SOL     OW23605   9.137   0.922   9.922
41194SOL    HW123606   9.232   0.893   9.930
41194SOL    HW223607   9.129   0.987   9.847
41195SOL     OW23608   9.089   1.108   9.742
41195SOL    HW123609   9.175   1.110   9.690
41195SOL    HW223610   9.103   1.155   9.830
41196SOL     OW23611   7.561   0.737  10.907
41196SOL    HW123612   7.649   0.724  10.952
41196SOL    HW223613   7.548   0.834  10.885
41197SOL     OW23614   8.061   1.365  10.036
41197SOL    HW123615   8.012   1.278  10.045
41197SOL    HW223616   8.038   1.408   9.949
41198SOL     OW23617   8.741   1.228  10.733
41198SOL    HW123618   8.778   1.155  10.675
41198SOL    HW223619   8.793   1.233  10.818
41199SOL     OW23620   8.257   0.004   9.812
41199SOL    HW123621   8.297   0.095   9.803
41199SOL    HW223622   8.157   0.012   9.818
41200SOL     OW23623   7.645   0.976  10.574
41200SOL    HW123624   7.734   0.931  10.560
41200SOL    HW223625   7.572   0.911  10.555
41201SOL     OW23626   8.973   0.999   9.500
41201SOL    HW123627   8.910   0.923   9.513
41201SOL    HW223628   9.021   1.017   9.586
41202SOL     OW23629   8.635   1.792  10.926
41202SOL    HW123630   8.659   1.852  10.850
41202SOL    HW223631   8.642   1.697  10.896
41203SOL     OW23632   7.765   0.251  11.111
41203SOL    HW123633   7.836   0.322  11.117
41203SOL    HW223634   7.677   0.290  11.139
41204SOL     OW23635   8.914   1.417  10.263
41204SOL    HW123636   8.855   1.423  10.343
41204SOL    HW223637   8.899   1.329  10.217
41205SOL     OW23638   9.115   1.714   9.882
41205SOL    HW123639   9.074   1.691   9.794
41205SOL    HW223640   9.097   1.640   9.947
41206SOL     OW23641   8.046   0.729   9.580
41206SOL    HW123642   8.070   0.798   9.512
41206SOL    HW223643   7.968   0.762   9.634
41207SOL     OW23644   8.729   0.345  10.254
41207SOL    HW123645   8.643   0.295  10.241
41207SOL    HW223646   8.791   0.291  10.310
41208SOL     OW23647   9.024   1.662   9.617
41208SOL    HW123648   9.113   1.708   9.620
41208SOL    HW223649   9.003   1.638   9.522
41209SOL     OW23650   8.255   0.605  10.775
41209SOL    HW123651   8.208   0.602  10.864
41209SOL    HW223652   8.204   0.550  10.709
41210SOL     OW23653   8.842   0.469  10.984
41210SOL    HW123654   8.822   0.512  11.072
41210SOL    HW223655   8.920   0.407  10.993
41211SOL     OW23656   8.421   0.890  10.882
41211SOL    HW123657   8.467   0.806  10.853
41211SOL    HW223658   8.365   0.924  10.807
41212SOL     OW23659   8.439   0.410  10.552
41212SOL    HW123660   8.362   0.444  10.606
41212SOL    HW223661   8.405   0.359  10.473
41213SOL     OW23662   8.489   0.701   9.739
41213SOL    HW123663   8.515   0.697   9.835
41213SOL    HW223664   8.404   0.650   9.725
41214SOL     OW23665   7.524   0.811  10.099
41214SOL    HW123666   7.623   0.799  10.108
41214SOL    HW223667   7.500   0.906  10.120
41215SOL     OW23668   7.578   1.821  10.881
41215SOL    HW123669   7.568   1.806  10.980
41215SOL    HW223670   7.492   1.857  10.845
41216SOL     OW23671   8.313   0.348   9.505
41216SOL    HW123672   8.372   0.411   9.456
41216SOL    HW223673   8.332   0.254   9.476
41217SOL     OW23674   9.167   0.585  11.141
41217SOL    HW123675   9.141   0.674  11.105
41217SOL    HW223676   9.165   0.517  11.068
41218SOL     OW23677   8.810   1.144   9.855
41218SOL    HW123678   8.893   1.115   9.807
41218SOL    HW223679   8.761   1.211   9.799
41219SOL     OW23680   7.998   0.196  10.195
41219SOL    HW123681   7.993   0.191  10.295
41219SOL    HW223682   8.000   0.292  10.166
41220SOL     OW23683   8.456   1.456   9.787
41220SOL    HW123684   8.410   1.528   9.735
41220SOL    HW223685   8.452   1.476   9.885
41221SOL     OW23686   7.799   1.801  10.163
41221SOL    HW123687   7.849   1.715  10.169
41221SOL    HW223688   7.864   1.878  10.160
41222SOL     OW23689   9.243   1.066  10.183
41222SOL    HW123690   9.181   1.051  10.107
41222SOL    HW223691   9.191   1.077  10.268
41223SOL     OW23692   8.675   1.550  10.816
41223SOL    HW123693   8.681   1.473  10.880
41223SOL    HW223694   8.623   1.524  10.736
41224SOL     OW23695   7.769   0.943   9.552
41224SOL    HW123696   7.851   0.982   9.510
41224SOL    HW223697   7.742   0.861   9.503
41225SOL     OW23698   8.906   0.735  10.038
41225SOL    HW123699   8.901   0.670  10.113
41225SOL    HW223700   8.986   0.794  10.051
41226SOL     OW23701   7.909   1.266  11.037
41226SOL    HW123702   7.859   1.267  10.951
41226SOL    HW223703   7.846   1.248  11.113
41227SOL     OW23704   8.559   1.776   9.547
41227SOL    HW123705   8.499   1.714   9.597
41227SOL    HW223706   8.590   1.732   9.462
41228SOL     OW23707   7.650   0.285  10.808
41228SOL    HW123708   7.570   0.345  10.795
41228SOL    HW223709   7.640   0.236  10.894
41229SOL     OW23710   9.080   1.377   9.391
41229SOL    HW123711   9.048   1.471   9.381
41229SOL    HW223712   9.004   1.314   9.379
41230SOL     OW23713   7.912   1.743   9.633
41230SOL    HW123714   7.945   1.782   9.719
41230SOL    HW223715   7.988   1.736   9.568
41231SOL     OW23716   8.848   0.107   9.736
41231SOL    HW123717   8.824   0.070   9.646
41231SOL    HW223718   8.947   0.123   9.740
41232SOL     OW23719   7.697   1.785  10.551
41232SOL    HW123720   7.754   1.720  10.601
41232SOL    HW223721   7.681   1.752  10.458
41233SOL     OW23722   8.388   1.698  10.214
41233SOL    HW123723   8.468   1.641  10.235
41233SOL    HW223724   8.339   1.658  10.137
41234SOL     OW23725   7.830   0.700   9.790
41234SOL    HW123726   7.875   0.610   9.787
41234SOL    HW223727   7.736   0.689   9.823
41235SOL     OW23728   8.995   0.222  11.039
41235SOL    HW123729   8.990   0.259  11.131
41235SOL    HW223730   8.923   0.153  11.027
41236SOL     OW23731   8.062   0.122   9.427
41236SOL    HW123732   8.160   0.100   9.434
41236SOL    HW223733   8.031   0.105   9.334
41237SOL     OW23734   8.229   0.264  11.059
41237SOL    HW123735   8.296   0.203  11.102
41237SOL    HW223736   8.156   0.283  11.124
41238SOL     OW23737   8.336   1.514  10.505
41238SOL    HW123738   8.313   1.489  10.411
41238SOL    HW223739   8.397   1.445  10.544
41239SOL     OW23740   8.799   0.590  10.743
41239SOL    HW123741   8.827   0.547  10.828
41239SOL    HW223742   8.824   0.686  10.744
41240SOL     OW23743   8.251   1.402  10.234
41240SOL    HW123744   8.341   1.416  10.192
41240SOL    HW223745   8.180   1.404  10.163
41241SOL     OW23746   8.370   0.503  10.209
41241SOL    HW123747   8.345   0.494  10.113
41241SOL    HW223748   8.418   0.421  10.240
41242SOL     OW23749   7.987   0.064   9.822
41242SOL    HW123750   7.906   0.065   9.880
41242SOL    HW223751   7.990   0.147   9.767
41243SOL     OW23752   8.882   1.188   9.351
41243SOL    HW123753   8.914   1.112   9.408
41243SOL    HW223754   8.790   1.215   9.381
41244SOL     OW23755   7.745   0.035   9.481
41244SOL    HW123756   7.794   0.119   9.460
41244SOL    HW223757   7.807  -0.030   9.526
41245SOL     OW23758   8.383   0.236   9.790
41245SOL    HW123759   8.335   0.277   9.712
41245SOL    HW223760   8.482   0.234   9.771
41246SOL     OW23761   8.524   0.683  10.774
41246SOL    HW123762   8.444   0.622  10.777
41246SOL    HW223763   8.605   0.630  10.750
41247SOL     OW23764   8.675   1.570  10.103
41247SOL    HW123765   8.696   1.644  10.038
41247SOL    HW223766   8.743   1.570  10.176
41248SOL     OW23767   7.907   1.152  10.051
41248SOL    HW123768   7.836   1.125  10.116
41248SOL    HW223769   7.881   1.124   9.958
41249SOL     OW23770   8.719   1.797   9.901
41249SOL    HW123771   8.763   1.861   9.837
41249SOL    HW223772   8.669   1.849   9.971
41250SOL     OW23773   8.480   0.549   9.326
41250SOL    HW123774   8.439   0.631   9.287
41250SOL    HW223775   8.544   0.575   9.399
41251SOL     OW23776   7.526   0.556  10.696
41251SOL    HW123777   7.618   0.555  10.655
41251SOL    HW223778   7.520   0.630  10.763
41252SOL     OW23779   8.009   0.222  10.457
41252SOL    HW123780   8.047   0.138  10.494
41252SOL    HW223781   7.921   0.241  10.501
41253SOL     OW23782   8.314   0.454   9.952
41253SOL    HW123783   8.282   0.526   9.890
41253SOL    HW223784   8.338   0.373   9.899
41254SOL     OW23785   8.465   0.039  10.063
41254SOL    HW123786   8.393   0.044   9.994
41254SOL    HW223787   8.441  -0.030  10.132
41255SOL     OW23788   8.877   1.173  10.177
41255SOL    HW123789   8.822   1.089  10.170
41255SOL    HW223790   8.903   1.202  10.085
41256SOL     OW23791   8.914   0.590  10.302
41256SOL    HW123792   8.884   0.495  10.309
41256SOL    HW223793   8.987   0.606  10.368
41257SOL     OW23794   9.305   0.833   9.687
41257SOL    HW123795   9.347   0.769   9.751
41257SOL    HW223796   9.267   0.782   9.609
41258SOL     OW23797   7.936   1.385   9.484
41258SOL    HW123798   7.849   1.370   9.531
41258SOL    HW223799   7.919   1.411   9.389
41259SOL     OW23800   9.112   1.280   9.967
41259SOL    HW123801   9.211   1.288   9.981
41259SOL    HW223802   9.067   1.364   9.998
41260SOL     OW23803   8.838   0.575   9.388
41260SOL    HW123804   8.784   0.554   9.469
41260SOL    HW223805   8.929   0.534   9.397
41261SOL     OW23806   7.975   0.256   9.638
41261SOL    HW123807   8.002   0.197   9.563
41261SOL    HW223808   7.975   0.351   9.607
41262SOL     OW23809   9.202   1.223  10.898
41262SOL    HW123810   9.293   1.184  10.885
41262SOL    HW223811   9.210   1.319  10.922
41263SOL     OW23812   8.512   1.347  10.650
41263SOL    HW123813   8.432   1.324  10.705
41263SOL    HW223814   8.595   1.321  10.699
41264SOL     OW23815   9.040   1.629  10.935
41264SOL    HW123816   9.067   1.663  10.845
41264SOL    HW223817   9.119   1.591  10.981
41265SOL     OW23818   8.559   1.195  10.410
41265SOL    HW123819   8.519   1.239  10.491
41265SOL    HW223820   8.518   1.232  10.327
41266SOL     OW23821   9.086   1.099  10.389
41266SOL    HW123822   9.091   1.180  10.448
41266SOL    HW223823   9.000   1.101  10.338
41267SOL     OW23824   8.363   0.089  10.712
41267SOL    HW123825   8.388   0.069  10.617
41267SOL    HW223826   8.435   0.145  10.754
41268SOL     OW23827   8.428   1.116  11.029
41268SOL    HW123828   8.329   1.122  11.039
41268SOL    HW223829   8.451   1.036  10.973
41269SOL     OW23830   8.153   1.050   9.678
41269SOL    HW123831   8.139   1.057   9.777
41269SOL    HW223832   8.237   0.999   9.660
41270SOL     OW23833   7.858   0.813  10.561
41270SOL    HW123834   7.944   0.825  10.611
41270SOL    HW223835   7.816   0.726  10.588
41271SOL     OW23836   8.722   0.386  10.572
41271SOL    HW123837   8.743   0.460  10.636
41271SOL    HW223838   8.633   0.403  10.529
41272SOL     OW23839   7.512   1.564  10.641
41272SOL    HW123840   7.466   1.646  10.607
41272SOL    HW223841   7.610   1.583  10.650
41273SOL     OW23842   7.815   1.100   9.811
41273SOL    HW123843   7.808   1.183   9.755
41273SOL    HW223844   7.819   1.020   9.751
41274SOL     OW23845   8.014   0.537  10.175
41274SOL    HW123846   8.026   0.603  10.101
41274SOL    HW223847   8.060   0.571  10.258
41275SOL     OW23848   8.700   1.348   9.698
41275SOL    HW123849   8.750   1.425   9.738
41275SOL    HW223850   8.605   1.350   9.730
41276SOL     OW23851   8.720   1.445  10.452
41276SOL    HW123852   8.767   1.458  10.539
41276SOL    HW223853   8.654   1.371  10.461
41277SOL     OW23854   9.030   0.639   9.782
41277SOL    HW123855   8.999   0.700   9.855
41277SOL    HW223856   9.080   0.691   9.713
41278SOL     OW23857   7.802   1.510  10.639
41278SOL    HW123858   7.781   1.466  10.552
41278SOL    HW223859   7.899   1.536  10.642
41279SOL     OW23860   7.850   0.751  10.908
41279SOL    HW123861   7.918   0.806  10.861
41279SOL    HW223862   7.890   0.663  10.935
41280SOL     OW23863   9.035   0.779  10.980
41280SOL    HW123864   8.943   0.817  10.975
41280SOL    HW223865   9.095   0.826  10.915
41281SOL     OW23866   8.461   0.105  11.080
41281SOL    HW123867   8.467   0.190  11.028
41281SOL    HW223868   8.493   0.029  11.023
41282SOL     OW23869   7.952   0.050  11.050
41282SOL    HW123870   7.910  -0.007  10.980
41282SOL    HW223871   7.886   0.119  11.082
41283SOL     OW23872   8.021   0.870  10.339
41283SOL    HW123873   8.065   0.959  10.330
41283SOL    HW223874   7.958   0.870  10.416
41284SOL     OW23875   8.808   0.862  10.355
41284SOL    HW123876   8.733   0.862  10.289
41284SOL    HW223877   8.845   0.770  10.364
41285SOL     OW23878   8.657   0.525   9.585
41285SOL    HW123879   8.670   0.441   9.639
41285SOL    HW223880   8.628   0.599   9.645
41286SOL     OW23881   7.755   0.213  10.541
41286SOL    HW123882   7.732   0.250  10.631
41286SOL    HW223883   7.725   0.118  10.535
41287SOL     OW23884   7.485   1.310  10.592
41287SOL    HW123885   7.538   1.261  10.660
41287SOL    HW223886   7.507   1.408  10.597
41288SOL     OW23887   8.180   0.634  10.374
41288SOL    HW123888   8.239   0.608  10.298
41288SOL    HW223889   8.152   0.730  10.363
41289SOL     OW23890   9.176   0.935  11.164
41289SOL    HW123891   9.130   0.928  11.075
41289SOL    HW223892   9.114   0.979  11.230
41290SOL     OW23893   7.755   0.063   9.928
41290SOL    HW123894   7.744   0.157   9.961
41290SOL    HW223895   7.750   0.000  10.005
41291SOL     OW23896   9.070   0.367   9.684
41291SOL    HW123897   9.072   0.291   9.748
41291SOL    HW223898   9.022   0.444   9.724
41292SOL     OW23899   8.471   0.766  10.276
41292SOL    HW123900   8.486   0.787  10.372
41292SOL    HW223901   8.441   0.671  10.267
41293SOL     OW23902   8.428   1.573  11.010
41293SOL    HW123903   8.408   1.617  10.922
41293SOL    HW223904   8.467   1.482  10.994
41294SOL     OW23905   9.307   1.518  10.915
41294SOL    HW123906   9.321   1.545  10.820
41294SOL    HW223907   9.390   1.540  10.968
41295SOL     OW23908   7.798   0.898  11.114
41295SOL    HW123909   7.874   0.942  11.162
41295SOL    HW223910   7.833   0.851  11.032
41296SOL     OW23911   8.988   0.274   9.435
41296SOL    HW123912   8.927   0.199   9.458
41296SOL    HW223913   9.010   0.326   9.518
41297SOL     OW23914   8.751   0.838   9.352
41297SOL    HW123915   8.785   0.745   9.367
41297SOL    HW223916   8.769   0.865   9.257
41298SOL     OW23917   8.516   1.333  10.159
41298SOL    HW123918   8.523   1.249  10.104
41298SOL    HW223919   8.578   1.402  10.123
41299SOL     OW23920   7.767   0.810  10.259
41299SOL    HW123921   7.860   0.846  10.264
41299SOL    HW223922   7.761   0.725  10.311
41300SOL     OW23923   7.787   0.509  10.316
41300SOL    HW123924   7.735   0.426  10.299
41300SOL    HW223925   7.864   0.514  10.252
41301SOL     OW23926   8.586   0.380  10.988
41301SOL    HW123927   8.541   0.443  11.052
41301SOL    HW223928   8.679   0.411  10.971
41302SOL     OW23929   8.608   0.207  10.787
41302SOL    HW123930   8.608   0.271  10.864
41302SOL    HW223931   8.636   0.255  10.704
41303SOL     OW23932   7.456   1.326   9.510
41303SOL    HW123933   7.363   1.347   9.479
41303SOL    HW223934   7.466   1.227   9.523
41304SOL     OW23935   7.536   1.801  10.237
41304SOL    HW123936   7.494   1.715  10.210
41304SOL    HW223937   7.630   1.804  10.203
41305SOL     OW23938   7.952   1.568  10.220
41305SOL    HW123939   8.018   1.642  10.229
41305SOL    HW223940   7.996   1.489  10.178
41306SOL     OW23941   8.450   0.796  10.548
41306SOL    HW123942   8.491   0.764  10.634
41306SOL    HW223943   8.354   0.769  10.545
41307SOL     OW23944   7.488   0.544  10.424
41307SOL    HW123945   7.573   0.511  10.383
41307SOL    HW223946   7.501   0.559  10.522
41308SOL     OW23947   7.637   0.520  11.032
41308SOL    HW123948   7.696   0.480  10.962
41308SOL    HW223949   7.579   0.591  10.991
41309SOL     OW23950   8.817   0.950  10.970
41309SOL    HW123951   8.856   1.039  10.990
41309SOL    HW223952   8.827   0.930  10.873
41310SOL     OW23953   8.263   0.572   9.635
41310SOL    HW123954   8.270   0.483   9.589
41310SOL    HW223955   8.169   0.606   9.627
41311SOL     OW23956   9.105   0.604  10.516
41311SOL    HW123957   9.067   0.535  10.578
41311SOL    HW223958   9.187   0.568  10.472
41312SOL     OW23959   7.700   1.564  11.054
41312SOL    HW123960   7.670   1.621  11.130
41312SOL    HW223961   7.693   1.467  11.080
41313SOL     OW23962   8.119   0.464  10.579
41313SOL    HW123963   8.085   0.375  10.549
41313SOL    HW223964   8.145   0.518  10.499
41314SOL     OW23965   8.378   1.678  10.775
41314SOL    HW123966   8.354   1.660  10.680
41314SOL    HW223967   8.408   1.772  10.785
41315SOL     OW23968   7.921   0.500   9.501
41315SOL    HW123969   7.982   0.580   9.505
41315SOL    HW223970   7.826   0.531   9.508
41316SOL     OW23971   7.607   1.137  10.776
41316SOL    HW123972   7.629   1.076  10.852
41316SOL    HW223973   7.617   1.088  10.690
41317SOL     OW23974   8.795   1.059  10.544
41317SOL    HW123975   8.819   0.996  10.470
41317SOL    HW223976   8.705   1.099  10.526
41318SOL     OW23977   8.750   0.855   9.619
41318SOL    HW123978   8.664   0.824   9.661
41318SOL    HW223979   8.746   0.841   9.520
41319SOL     OW23980   9.207   1.747  10.464
41319SOL    HW123981   9.268   1.777  10.391
41319SOL    HW223982   9.169   1.658  10.442
41320SOL     OW23983   8.700   1.731  10.438
41320SOL    HW123984   8.784   1.736  10.384
41320SOL    HW223985   8.677   1.635  10.456
41321SOL     OW23986   7.531   1.258  10.332
41321SOL    HW123987   7.526   1.257  10.432
41321SOL    HW223988   7.448   1.217  10.294
41322SOL     OW23989   8.136   1.662  11.026
41322SOL    HW123990   8.080   1.743  11.035
41322SOL    HW223991   8.188   1.666  10.940
41323SOL     OW23992   9.174   0.135   9.833
41323SOL    HW123993   9.247   0.118   9.766
41323SOL    HW223994   9.143   0.048   9.871
41324SOL     OW23995   8.836   1.573   9.787
41324SOL    HW123996   8.903   1.585   9.713
41324SOL    HW223997   8.796   1.662   9.810
41325SOL     OW23998   7.578   1.794  11.161
41325SOL    HW123999   7.537   1.720  11.214
41325SOL    HW224000   7.642   1.845  11.219
41326SOL     OW24001   8.728   0.927   9.982
41326SOL    HW124002   8.788   0.846   9.984
41326SOL    HW224003   8.768   0.996   9.922
41327SOL     OW24004   8.278   1.273  10.732
41327SOL    HW124005   8.273   1.306  10.827
41327SOL    HW224006   8.192   1.292  10.686
41328SOL     OW24007   8.120   1.616   9.464
41328SOL    HW124008   8.129   1.626   9.365
41328SOL    HW224009   8.080   1.527   9.485
41329SOL     OW24010   9.098   1.720  10.704
41329SOL    HW124011   9.151   1.730  10.620
41329SOL    HW224012   9.071   1.810  10.738
41330SOL     OW24013   9.289   0.175  10.273
41330SOL    HW124014   9.328   0.090  10.237
41330SOL    HW224015   9.191   0.177  10.254
41331SOL     OW24016   7.711   0.326  10.030
41331SOL    HW124017   7.632   0.377   9.996
41331SOL    HW224018   7.702   0.311  10.128
41332SOL     OW24019   8.642   1.612   9.341
41332SOL    HW124020   8.648   1.519   9.378
41332SOL    HW224021   8.583   1.612   9.261
41333SOL     OW24022   8.270   1.002  10.682
41333SOL    HW124023   8.310   1.001  10.590
41333SOL    HW224024   8.280   1.094  10.722
41334SOL     OW24025   8.364   0.910   9.601
41334SOL    HW124026   8.427   0.948   9.533
41334SOL    HW224027   8.404   0.827   9.640
41335SOL     OW24028   8.952   1.607   9.354
41335SOL    HW124029   8.860   1.644   9.361
41335SOL    HW224030   8.990   1.627   9.264
41336SOL     OW24031   7.820   1.288  10.800
41336SOL    HW124032   7.807   1.381  10.766
41336SOL    HW224033   7.736   1.236  10.787
41337SOL     OW24034   9.062   1.292  10.599
41337SOL    HW124035   9.122   1.295  10.679
41337SOL    HW224036   8.987   1.356  10.612
41338SOL     OW24037   8.487   1.098  10.006
41338SOL    HW124038   8.417   1.051  10.060
41338SOL    HW224039   8.546   1.030   9.963
41339SOL     OW24040   8.462   0.236  10.281
41339SOL    HW124041   8.454   0.200  10.188
41339SOL    HW224042   8.460   0.160  10.346
41340SOL     OW24043   8.038   1.487   9.801
41340SOL    HW124044   8.080   1.429   9.731
41340SOL    HW224045   7.994   1.566   9.757
41341SOL     OW24046   9.157   0.385  10.691
41341SOL    HW124047   9.230   0.454  10.695
41341SOL    HW224048   9.185   0.310  10.632
41342SOL     OW24049   7.703   1.348   9.600
41342SOL    HW124050   7.607   1.349   9.573
41342SOL    HW224051   7.715   1.401   9.684
41343SOL     OW24052   7.553   1.013  11.036
41343SOL    HW124053   7.476   0.980  11.090
41343SOL    HW224054   7.638   0.983  11.078
41344SOL     OW24055   8.120   0.203  10.799
41344SOL    HW124056   8.210   0.187  10.759
41344SOL    HW224057   8.128   0.208  10.898
41345SOL     OW24058   7.523   0.345   9.343
41345SOL    HW124059   7.431   0.317   9.314
41345SOL    HW224060   7.554   0.422   9.287
41346SOL     OW24061   8.888   0.856  10.708
41346SOL    HW124062   8.831   0.908  10.645
41346SOL    HW224063   8.984   0.868  10.684
41347SOL     OW24064   7.520   0.166   9.628
41347SOL    HW124065   7.503   0.249   9.574
41347SOL    HW224066   7.610   0.129   9.606
41348SOL     OW24067   8.631   1.335   9.429
41348SOL    HW124068   8.532   1.324   9.431
41348SOL    HW224069   8.665   1.350   9.522
41349SOL     OW24070   8.061   0.842  10.741
41349SOL    HW124071   8.117   0.923  10.724
41349SOL    HW224072   8.120   0.762  10.744
41350SOL     OW24073   8.941   1.767  10.269
41350SOL    HW124074   8.974   1.831  10.200
41350SOL    HW224075   9.007   1.761  10.344
41351SOL     OW24076   8.164   0.565  11.018
41351SOL    HW124077   8.183   0.630  11.092
41351SOL    HW224078   8.224   0.485  11.027
41352SOL     OW24079   8.898   1.220  10.943
41352SOL    HW124080   8.889   1.210  11.042
41352SOL    HW224081   8.994   1.213  10.917
41353SOL     OW24082   7.838   1.741  10.870
41353SOL    HW124083   7.747   1.782  10.868
41353SOL    HW224084   7.831   1.647  10.902
41354SOL     OW24085   9.122   0.883  10.564
41354SOL    HW124086   9.095   0.794  10.527
41354SOL    HW224087   9.123   0.951  10.491
41355SOL     OW24088   8.673   0.325   9.759
41355SOL    HW124089   8.738   0.251   9.748
41355SOL    HW224090   8.693   0.375   9.843
41356SOL     OW24091   8.042   0.745   9.962
41356SOL    HW124092   8.092   0.830   9.943
41356SOL    HW224093   7.954   0.747   9.914
41357SOL     OW24094   9.225   0.342  10.952
41357SOL    HW124095   9.208   0.373  10.858
41357SOL    HW224096   9.141   0.305  10.990
41358SOL     OW24097   9.178   0.934  10.827
41358SOL    HW124098   9.216   1.025  10.842
41358SOL    HW224099   9.170   0.917  10.728
41359SOL     OW24100   8.307   1.374   9.326
41359SOL    HW124101   8.261   1.389   9.414
41359SOL    HW224102   8.351   1.459   9.296
41360SOL     OW24103   8.109   1.790  10.263
41360SOL    HW124104   8.063   1.878  10.250
41360SOL    HW224105   8.208   1.802  10.256
41361SOL     OW24106   8.307   0.956  10.171
41361SOL    HW124107   8.361   0.887  10.219
41361SOL    HW224108   8.275   1.025  10.237
41362SOL     OW24109   8.531   0.984   9.397
41362SOL    HW124110   8.508   1.037   9.315
41362SOL    HW224111   8.612   0.928   9.378
41363SOL     OW24112   9.309   1.569  10.161
41363SOL    HW124113   9.238   1.557  10.091
41363SOL    HW224114   9.310   1.490  10.221
41364SOL     OW24115   7.669   1.314  11.154
41364SOL    HW124116   7.604   1.241  11.133
41364SOL    HW224117   7.673   1.328  11.252
41365SOL     OW24118   7.527   1.240   9.963
41365SOL    HW124119   7.526   1.193  10.051
41365SOL    HW224120   7.609   1.212   9.912
41366SOL     OW24121   8.120   1.391  10.934
41366SOL    HW124122   8.042   1.341  10.972
41366SOL    HW224123   8.117   1.486  10.965
41367SOL     OW24124   9.272   0.192  10.537
41367SOL    HW124125   9.268   0.102  10.581
41367SOL    HW224126   9.275   0.181  10.438
41368SOL     OW24127   7.876   0.424   9.830
41368SOL    HW124128   7.906   0.352   9.768
41368SOL    HW224129   7.837   0.384   9.913
41369SOL     OW24130   9.153   1.487  10.414
41369SOL    HW124131   9.060   1.462  10.387
41369SOL    HW224132   9.179   1.437  10.496
41370SOL     OW24133   7.765   0.547  10.590
41370SOL    HW124134   7.803   0.488  10.662
41370SOL    HW224135   7.805   0.521  10.502
41371SOL     OW24136   8.260   1.586   9.997
41371SOL    HW124137   8.292   1.596   9.903
41371SOL    HW224138   8.181   1.524   9.999
41372SOL     OW24139   8.872   0.214  10.422
41372SOL    HW124140   8.924   0.149  10.477
41372SOL    HW224141   8.823   0.277  10.483
41373SOL     OW24142   8.449   0.034  10.464
41373SOL    HW124143   8.386  -0.038  10.433
41373SOL    HW224144   8.542  -0.002  10.464
41374SOL     OW24145   8.218   1.330   9.611
41374SOL    HW124146   8.172   1.243   9.628
41374SOL    HW224147   8.309   1.327   9.652
41375SOL     OW24148   8.066   1.567  10.594
41375SOL    HW124149   8.061   1.649  10.651
41375SOL    HW224150   8.155   1.564  10.549
41376SOL     OW24151   8.800   0.052   9.478
41376SOL    HW124152   8.835   0.011   9.394
41376SOL    HW224153   8.710   0.014   9.498
41377SOL     OW24154   8.748   0.453  10.001
41377SOL    HW124155   8.689   0.533  10.005
41377SOL    HW224156   8.763   0.418  10.094
41378SOL     OW24157   9.041   0.221  10.192
41378SOL    HW124158   8.957   0.220  10.246
41378SOL    HW224159   9.043   0.304  10.136
41379SOL     OW24160   7.487   1.077   9.610
41379SOL    HW124161   7.586   1.066   9.601
41379SOL    HW224162   7.447   0.991   9.642
41380SOL     OW24163   8.323   1.646   9.647
41380SOL    HW124164   8.246   1.611   9.593
41380SOL    HW224165   8.291   1.717   9.709
41381SOL     OW24166   7.678   0.628  11.285
41381SOL    HW124167   7.585   0.626  11.322
41381SOL    HW224168   7.679   0.589  11.193
41382SOL     OW24169   7.673   0.275  12.168
41382SOL    HW124170   7.708   0.258  12.260
41382SOL    HW224171   7.585   0.230  12.156
41383SOL     OW24172   7.467   0.368  11.819
41383SOL    HW124173   7.385   0.411  11.858
41383SOL    HW224174   7.439   0.295  11.756
41384SOL     OW24175   8.017   1.275  12.337
41384SOL    HW124176   7.924   1.268  12.300
41384SOL    HW224177   8.028   1.364  12.381
41385SOL     OW24178   9.003   1.511  11.875
41385SOL    HW124179   8.946   1.495  11.956
41385SOL    HW224180   8.944   1.521  11.795
41386SOL     OW24181   8.583   0.703  11.889
41386SOL    HW124182   8.640   0.781  11.864
41386SOL    HW224183   8.523   0.729  11.965
41387SOL     OW24184   9.203   0.607  11.403
41387SOL    HW124185   9.191   0.594  11.304
41387SOL    HW224186   9.173   0.526  11.452
41388SOL     OW24187   8.216   1.144  12.195
41388SOL    HW124188   8.138   1.161  12.255
41388SOL    HW224189   8.250   1.231  12.159
41389SOL     OW24190   8.133   1.012  11.837
41389SOL    HW124191   8.202   0.996  11.907
41389SOL    HW224192   8.060   1.069  11.875
41390SOL     OW24193   7.783   1.435  12.233
41390SOL    HW124194   7.705   1.404  12.180
41390SOL    HW224195   7.841   1.493  12.176
41391SOL     OW24196   8.908   1.505  12.511
41391SOL    HW124197   8.932   1.599  12.537
41391SOL    HW224198   8.892   1.451  12.593
41392SOL     OW24199   7.886   0.392  12.671
41392SOL    HW124200   7.968   0.336  12.680
41392SOL    HW224201   7.805   0.334  12.675
41393SOL     OW24202   9.051   0.447  11.909
41393SOL    HW124203   8.977   0.493  11.859
41393SOL    HW224204   9.102   0.515  11.962
41394SOL     OW24205   7.679   1.713  11.655
41394SOL    HW124206   7.713   1.790  11.709
41394SOL    HW224207   7.723   1.713  11.565
41395SOL     OW24208   7.678   1.434  11.710
41395SOL    HW124209   7.652   1.530  11.710
41395SOL    HW224210   7.607   1.380  11.755
41396SOL     OW24211   7.688   1.091  12.058
41396SOL    HW124212   7.702   1.007  12.110
41396SOL    HW224213   7.633   1.155  12.113
41397SOL     OW24214   8.068   1.786  12.611
41397SOL    HW124215   7.976   1.769  12.646
41397SOL    HW224216   8.096   1.878  12.637
41398SOL     OW24217   8.054   0.964  11.295
41398SOL    HW124218   8.061   1.048  11.241
41398SOL    HW224219   8.100   0.977  11.383
41399SOL     OW24220   9.042   0.114  12.652
41399SOL    HW124221   9.024   0.181  12.580
41399SOL    HW224222   9.039   0.160  12.741
41400SOL     OW24223   7.570   0.643  11.735
41400SOL    HW124224   7.525   0.555  11.752
41400SOL    HW224225   7.569   0.697  11.819
41401SOL     OW24226   9.290   1.767  11.531
41401SOL    HW124227   9.344   1.738  11.611
41401SOL    HW224228   9.320   1.857  11.502
41402SOL     OW24229   7.475   1.596  11.289
41402SOL    HW124230   7.456   1.500  11.310
41402SOL    HW224231   7.442   1.654  11.364
41403SOL     OW24232   9.137   0.922  11.784
41403SOL    HW124233   9.232   0.893  11.792
41403SOL    HW224234   9.129   0.987  11.709
41404SOL     OW24235   9.089   1.108  11.604
41404SOL    HW124236   9.175   1.110  11.552
41404SOL    HW224237   9.103   1.155  11.692
41405SOL     OW24238   7.561   0.737  12.769
41405SOL    HW124239   7.649   0.724  12.814
41405SOL    HW224240   7.548   0.834  12.747
41406SOL     OW24241   8.061   1.365  11.898
41406SOL    HW124242   8.012   1.278  11.907
41406SOL    HW224243   8.038   1.408  11.811
41407SOL     OW24244   8.741   1.228  12.595
41407SOL    HW124245   8.778   1.155  12.537
41407SOL    HW224246   8.793   1.233  12.680
41408SOL     OW24247   8.257   0.004  11.674
41408SOL    HW124248   8.297   0.095  11.665
41408SOL    HW224249   8.157   0.012  11.680
41409SOL     OW24250   7.645   0.976  12.436
41409SOL    HW124251   7.734   0.931  12.422
41409SOL    HW224252   7.572   0.911  12.417
41410SOL     OW24253   8.973   0.999  11.362
41410SOL    HW124254   8.910   0.923  11.375
41410SOL    HW224255   9.021   1.017  11.448
41411SOL     OW24256   8.914   1.417  12.125
41411SOL    HW124257   8.855   1.423  12.205
41411SOL    HW224258   8.899   1.329  12.079
41412SOL     OW24259   9.115   1.714  11.744
41412SOL    HW124260   9.074   1.691  11.656
41412SOL    HW224261   9.097   1.640  11.809
41413SOL     OW24262   8.046   0.729  11.442
41413SOL    HW124263   8.070   0.798  11.374
41413SOL    HW224264   7.968   0.762  11.496
41414SOL     OW24265   8.729   0.345  12.116
41414SOL    HW124266   8.643   0.295  12.103
41414SOL    HW224267   8.791   0.291  12.172
41415SOL     OW24268   9.024   1.662  11.479
41415SOL    HW124269   9.113   1.708  11.482
41415SOL    HW224270   9.003   1.638  11.384
41416SOL     OW24271   8.255   0.605  12.637
41416SOL    HW124272   8.208   0.602  12.726
41416SOL    HW224273   8.204   0.550  12.571
41417SOL     OW24274   8.421   0.890  12.744
41417SOL    HW124275   8.467   0.806  12.715
41417SOL    HW224276   8.365   0.924  12.669
41418SOL     OW24277   8.439   0.410  12.414
41418SOL    HW124278   8.362   0.444  12.468
41418SOL    HW224279   8.405   0.359  12.335
41419SOL     OW24280   8.489   0.701  11.601
41419SOL    HW124281   8.515   0.697  11.697
41419SOL    HW224282   8.404   0.650  11.587
41420SOL     OW24283   7.524   0.811  11.961
41420SOL    HW124284   7.623   0.799  11.970
41420SOL    HW224285   7.500   0.906  11.982
41421SOL     OW24286   7.578   1.821  12.743
41421SOL    HW124287   7.568   1.806  12.842
41421SOL    HW224288   7.492   1.857  12.707
41422SOL     OW24289   8.313   0.348  11.367
41422SOL    HW124290   8.372   0.411  11.318
41422SOL    HW224291   8.332   0.254  11.338
41423SOL     OW24292   8.810   1.144  11.717
41423SOL    HW124293   8.893   1.115  11.669
41423SOL    HW224294   8.761   1.211  11.661
41424SOL     OW24295   7.998   0.196  12.057
41424SOL    HW124296   7.993   0.191  12.157
41424SOL    HW224297   8.000   0.292  12.028
41425SOL     OW24298   8.456   1.456  11.649
41425SOL    HW124299   8.410   1.528  11.597
41425SOL    HW224300   8.452   1.476  11.747
41426SOL     OW24301   7.799   1.801  12.025
41426SOL    HW124302   7.849   1.715  12.031
41426SOL    HW224303   7.864   1.878  12.022
41427SOL     OW24304   9.243   1.066  12.045
41427SOL    HW124305   9.181   1.051  11.969
41427SOL    HW224306   9.191   1.077  12.130
41428SOL     OW24307   8.675   1.550  12.678
41428SOL    HW124308   8.681   1.473  12.742
41428SOL    HW224309   8.623   1.524  12.598
41429SOL     OW24310   7.769   0.943  11.414
41429SOL    HW124311   7.851   0.982  11.372
41429SOL    HW224312   7.742   0.861  11.365
41430SOL     OW24313   8.906   0.735  11.900
41430SOL    HW124314   8.901   0.670  11.975
41430SOL    HW224315   8.986   0.794  11.913
41431SOL     OW24316   8.559   1.776  11.409
41431SOL    HW124317   8.499   1.714  11.459
41431SOL    HW224318   8.590   1.732  11.324
41432SOL     OW24319   7.650   0.285  12.670
41432SOL    HW124320   7.570   0.345  12.657
41432SOL    HW224321   7.640   0.236  12.756
41433SOL     OW24322   9.080   1.377  11.253
41433SOL    HW124323   9.048   1.471  11.243
41433SOL    HW224324   9.004   1.314  11.241
41434SOL     OW24325   7.912   1.743  11.495
41434SOL    HW124326   7.945   1.782  11.581
41434SOL    HW224327   7.988   1.736  11.430
41435SOL     OW24328   8.848   0.107  11.598
41435SOL    HW124329   8.824   0.070  11.508
41435SOL    HW224330   8.947   0.123  11.602
41436SOL     OW24331   7.697   1.785  12.413
41436SOL    HW124332   7.754   1.720  12.463
41436SOL    HW224333   7.681   1.752  12.320
41437SOL     OW24334   8.388   1.698  12.076
41437SOL    HW124335   8.468   1.641  12.097
41437SOL    HW224336   8.339   1.658  11.999
41438SOL     OW24337   7.830   0.700  11.652
41438SOL    HW124338   7.875   0.610  11.649
41438SOL    HW224339   7.736   0.689  11.685
41439SOL     OW24340   8.062   0.122  11.289
41439SOL    HW124341   8.160   0.100  11.296
41439SOL    HW224342   8.031   0.105  11.196
41440SOL     OW24343   8.336   1.514  12.367
41440SOL    HW124344   8.313   1.489  12.273
41440SOL    HW224345   8.397   1.445  12.406
41441SOL     OW24346   8.799   0.590  12.605
41441SOL    HW124347   8.827   0.547  12.690
41441SOL    HW224348   8.824   0.686  12.606
41442SOL     OW24349   8.251   1.402  12.096
41442SOL    HW124350   8.341   1.416  12.054
41442SOL    HW224351   8.180   1.404  12.025
41443SOL     OW24352   8.370   0.503  12.071
41443SOL    HW124353   8.345   0.494  11.975
41443SOL    HW224354   8.418   0.421  12.102
41444SOL     OW24355   7.987   0.064  11.684
41444SOL    HW124356   7.906   0.065  11.742
41444SOL    HW224357   7.990   0.147  11.629
41445SOL     OW24358   8.882   1.188  11.213
41445SOL    HW124359   8.914   1.112  11.270
41445SOL    HW224360   8.790   1.215  11.243
41446SOL     OW24361   7.745   0.035  11.343
41446SOL    HW124362   7.794   0.119  11.322
41446SOL    HW224363   7.807  -0.030  11.388
41447SOL     OW24364   8.383   0.236  11.652
41447SOL    HW124365   8.335   0.277  11.574
41447SOL    HW224366   8.482   0.234  11.633
41448SOL     OW24367   8.524   0.683  12.636
41448SOL    HW124368   8.444   0.622  12.639
41448SOL    HW224369   8.605   0.630  12.612
41449SOL     OW24370   8.675   1.570  11.965
41449SOL    HW124371   8.696   1.644  11.900
41449SOL    HW224372   8.743   1.570  12.038
41450SOL     OW24373   7.907   1.152  11.913
41450SOL    HW124374   7.836   1.125  11.978
41450SOL    HW224375   7.881   1.124  11.820
41451SOL     OW24376   8.719   1.797  11.763
41451SOL    HW124377   8.763   1.861  11.699
41451SOL    HW224378   8.669   1.849  11.833
41452SOL     OW24379   8.480   0.549  11.188
41452SOL    HW124380   8.439   0.631  11.149
41452SOL    HW224381   8.544   0.575  11.261
41453SOL     OW24382   7.526   0.556  12.558
41453SOL    HW124383   7.618   0.555  12.517
41453SOL    HW224384   7.520   0.630  12.625
41454SOL     OW24385   8.009   0.222  12.319
41454SOL    HW124386   8.047   0.138  12.356
41454SOL    HW224387   7.921   0.241  12.363
41455SOL     OW24388   8.314   0.454  11.814
41455SOL    HW124389   8.282   0.526  11.752
41455SOL    HW224390   8.338   0.373  11.761
41456SOL     OW24391   8.465   0.039  11.925
41456SOL    HW124392   8.393   0.044  11.856
41456SOL    HW224393   8.441  -0.030  11.994
41457SOL     OW24394   8.877   1.173  12.039
41457SOL    HW124395   8.822   1.089  12.032
41457SOL    HW224396   8.903   1.202  11.947
41458SOL     OW24397   8.914   0.590  12.164
41458SOL    HW124398   8.884   0.495  12.171
41458SOL    HW224399   8.987   0.606  12.230
41459SOL     OW24400   9.305   0.833  11.549
41459SOL    HW124401   9.347   0.769  11.613
41459SOL    HW224402   9.267   0.782  11.471
41460SOL     OW24403   7.936   1.385  11.346
41460SOL    HW124404   7.849   1.370  11.393
41460SOL    HW224405   7.919   1.411  11.251
41461SOL     OW24406   9.112   1.280  11.829
41461SOL    HW124407   9.211   1.288  11.843
41461SOL    HW224408   9.067   1.364  11.860
41462SOL     OW24409   8.838   0.575  11.250
41462SOL    HW124410   8.784   0.554  11.331
41462SOL    HW224411   8.929   0.534  11.259
41463SOL     OW24412   7.975   0.256  11.500
41463SOL    HW124413   8.002   0.197  11.425
41463SOL    HW224414   7.975   0.351  11.469
41464SOL     OW24415   9.202   1.223  12.760
41464SOL    HW124416   9.293   1.184  12.747
41464SOL    HW224417   9.210   1.319  12.784
41465SOL     OW24418   8.512   1.347  12.512
41465SOL    HW124419   8.432   1.324  12.567
41465SOL    HW224420   8.595   1.321  12.561
41466SOL     OW24421   8.559   1.195  12.272
41466SOL    HW124422   8.519   1.239  12.353
41466SOL    HW224423   8.518   1.232  12.189
41467SOL     OW24424   9.086   1.099  12.251
41467SOL    HW124425   9.091   1.180  12.310
41467SOL    HW224426   9.000   1.101  12.200
41468SOL     OW24427   8.363   0.089  12.574
41468SOL    HW124428   8.388   0.069  12.479
41468SOL    HW224429   8.435   0.145  12.616
41469SOL     OW24430   8.153   1.050  11.540
41469SOL    HW124431   8.139   1.057  11.639
41469SOL    HW224432   8.237   0.999  11.522
41470SOL     OW24433   7.858   0.813  12.423
41470SOL    HW124434   7.944   0.825  12.473
41470SOL    HW224435   7.816   0.726  12.450
41471SOL     OW24436   8.722   0.386  12.434
41471SOL    HW124437   8.743   0.460  12.498
41471SOL    HW224438   8.633   0.403  12.391
41472SOL     OW24439   7.512   1.564  12.503
41472SOL    HW124440   7.466   1.646  12.469
41472SOL    HW224441   7.610   1.583  12.512
41473SOL     OW24442   7.815   1.100  11.673
41473SOL    HW124443   7.808   1.183  11.617
41473SOL    HW224444   7.819   1.020  11.613
41474SOL     OW24445   8.014   0.537  12.037
41474SOL    HW124446   8.026   0.603  11.963
41474SOL    HW224447   8.060   0.571  12.120
41475SOL     OW24448   8.700   1.348  11.560
41475SOL    HW124449   8.750   1.425  11.600
41475SOL    HW224450   8.605   1.350  11.592
41476SOL     OW24451   8.720   1.445  12.314
41476SOL    HW124452   8.767   1.458  12.401
41476SOL    HW224453   8.654   1.371  12.323
41477SOL     OW24454   9.030   0.639  11.644
41477SOL    HW124455   8.999   0.700  11.717
41477SOL    HW224456   9.080   0.691  11.575
41478SOL     OW24457   7.802   1.510  12.501
41478SOL    HW124458   7.781   1.466  12.414
41478SOL    HW224459   7.899   1.536  12.504
41479SOL     OW24460   7.850   0.751  12.770
41479SOL    HW124461   7.918   0.806  12.723
41479SOL    HW224462   7.890   0.663  12.797
41480SOL     OW24463   9.035   0.779  12.842
41480SOL    HW124464   8.943   0.817  12.837
41480SOL    HW224465   9.095   0.826  12.777
41481SOL     OW24466   8.021   0.870  12.201
41481SOL    HW124467   8.065   0.959  12.192
41481SOL    HW224468   7.958   0.870  12.278
41482SOL     OW24469   8.808   0.862  12.217
41482SOL    HW124470   8.733   0.862  12.151
41482SOL    HW224471   8.845   0.770  12.226
41483SOL     OW24472   8.657   0.525  11.447
41483SOL    HW124473   8.670   0.441  11.501
41483SOL    HW224474   8.628   0.599  11.507
41484SOL     OW24475   7.755   0.213  12.403
41484SOL    HW124476   7.732   0.250  12.493
41484SOL    HW224477   7.725   0.118  12.397
41485SOL     OW24478   7.485   1.310  12.454
41485SOL    HW124479   7.538   1.261  12.522
41485SOL    HW224480   7.507   1.408  12.459
41486SOL     OW24481   8.180   0.634  12.236
41486SOL    HW124482   8.239   0.608  12.160
41486SOL    HW224483   8.152   0.730  12.225
41487SOL     OW24484   7.755   0.063  11.790
41487SOL    HW124485   7.744   0.157  11.823
41487SOL    HW224486   7.750   0.000  11.867
41488SOL     OW24487   9.070   0.367  11.546
41488SOL    HW124488   9.072   0.291  11.610
41488SOL    HW224489   9.022   0.444  11.586
41489SOL     OW24490   8.471   0.766  12.138
41489SOL    HW124491   8.486   0.787  12.234
41489SOL    HW224492   8.441   0.671  12.129
41490SOL     OW24493   8.988   0.274  11.297
41490SOL    HW124494   8.927   0.199  11.320
41490SOL    HW224495   9.010   0.326  11.380
41491SOL     OW24496   8.751   0.838  11.214
41491SOL    HW124497   8.785   0.745  11.229
41491SOL    HW224498   8.769   0.865  11.119
41492SOL     OW24499   8.516   1.333  12.021
41492SOL    HW124500   8.523   1.249  11.966
41492SOL    HW224501   8.578   1.402  11.985
41493SOL     OW24502   7.767   0.810  12.121
41493SOL    HW124503   7.860   0.846  12.126
41493SOL    HW224504   7.761   0.725  12.173
41494SOL     OW24505   7.787   0.509  12.178
41494SOL    HW124506   7.735   0.426  12.161
41494SOL    HW224507   7.864   0.514  12.114
41495SOL     OW24508   8.608   0.207  12.649
41495SOL    HW124509   8.608   0.271  12.726
41495SOL    HW224510   8.636   0.255  12.566
41496SOL     OW24511   7.456   1.326  11.372
41496SOL    HW124512   7.363   1.347  11.341
41496SOL    HW224513   7.466   1.227  11.385
41497SOL     OW24514   7.536   1.801  12.099
41497SOL    HW124515   7.494   1.715  12.072
41497SOL    HW224516   7.630   1.804  12.065
41498SOL     OW24517   7.952   1.568  12.082
41498SOL    HW124518   8.018   1.642  12.091
41498SOL    HW224519   7.996   1.489  12.040
41499SOL     OW24520   8.450   0.796  12.410
41499SOL    HW124521   8.491   0.764  12.496
41499SOL    HW224522   8.354   0.769  12.407
41500SOL     OW24523   7.488   0.544  12.286
41500SOL    HW124524   7.573   0.511  12.245
41500SOL    HW224525   7.501   0.559  12.384
41501SOL     OW24526   8.263   0.572  11.497
41501SOL    HW124527   8.270   0.483  11.451
41501SOL    HW224528   8.169   0.606  11.489
41502SOL     OW24529   9.105   0.604  12.378
41502SOL    HW124530   9.067   0.535  12.440
41502SOL    HW224531   9.187   0.568  12.334
41503SOL     OW24532   7.700   1.564  12.916
41503SOL    HW124533   7.670   1.621  12.992
41503SOL    HW224534   7.693   1.467  12.942
41504SOL     OW24535   8.119   0.464  12.441
41504SOL    HW124536   8.085   0.375  12.411
41504SOL    HW224537   8.145   0.518  12.361
41505SOL     OW24538   8.378   1.678  12.637
41505SOL    HW124539   8.354   1.660  12.542
41505SOL    HW224540   8.408   1.772  12.647
41506SOL     OW24541   7.921   0.500  11.363
41506SOL    HW124542   7.982   0.580  11.367
41506SOL    HW224543   7.826   0.531  11.370
41507SOL     OW24544   7.607   1.137  12.638
41507SOL    HW124545   7.629   1.076  12.714
41507SOL    HW224546   7.617   1.088  12.552
41508SOL     OW24547   8.795   1.059  12.406
41508SOL    HW124548   8.819   0.996  12.332
41508SOL    HW224549   8.705   1.099  12.388
41509SOL     OW24550   8.750   0.855  11.481
41509SOL    HW124551   8.664   0.824  11.523
41509SOL    HW224552   8.746   0.841  11.382
41510SOL     OW24553   9.207   1.747  12.326
41510SOL    HW124554   9.268   1.777  12.253
41510SOL    HW224555   9.169   1.658  12.304
41511SOL     OW24556   8.700   1.731  12.300
41511SOL    HW124557   8.784   1.736  12.246
41511SOL    HW224558   8.677   1.635  12.318
41512SOL     OW24559   7.531   1.258  12.194
41512SOL    HW124560   7.526   1.257  12.294
41512SOL    HW224561   7.448   1.217  12.156
41513SOL     OW24562   9.174   0.135  11.695
41513SOL    HW124563   9.247   0.118  11.628
41513SOL    HW224564   9.143   0.048  11.733
41514SOL     OW24565   8.836   1.573  11.649
41514SOL    HW124566   8.903   1.585  11.575
41514SOL    HW224567   8.796   1.662  11.672
41515SOL     OW24568   8.728   0.927  11.844
41515SOL    HW124569   8.788   0.846  11.846
41515SOL    HW224570   8.768   0.996  11.784
41516SOL     OW24571   8.278   1.273  12.594
41516SOL    HW124572   8.273   1.306  12.689
41516SOL    HW224573   8.192   1.292  12.548
41517SOL     OW24574   8.120   1.616  11.326
41517SOL    HW124575   8.129   1.626  11.227
41517SOL    HW224576   8.080   1.527  11.347
41518SOL     OW24577   9.098   1.720  12.566
41518SOL    HW124578   9.151   1.730  12.482
41518SOL    HW224579   9.071   1.810  12.600
41519SOL     OW24580   9.289   0.175  12.135
41519SOL    HW124581   9.328   0.090  12.099
41519SOL    HW224582   9.191   0.177  12.116
41520SOL     OW24583   7.711   0.326  11.892
41520SOL    HW124584   7.632   0.377  11.858
41520SOL    HW224585   7.702   0.311  11.990
41521SOL     OW24586   8.642   1.612  11.203
41521SOL    HW124587   8.648   1.519  11.240
41521SOL    HW224588   8.583   1.612  11.123
41522SOL     OW24589   8.270   1.002  12.544
41522SOL    HW124590   8.310   1.001  12.452
41522SOL    HW224591   8.280   1.094  12.584
41523SOL     OW24592   8.364   0.910  11.463
41523SOL    HW124593   8.427   0.948  11.395
41523SOL    HW224594   8.404   0.827  11.502
41524SOL     OW24595   8.952   1.607  11.216
41524SOL    HW124596   8.860   1.644  11.223
41524SOL    HW224597   8.990   1.627  11.126
41525SOL     OW24598   7.820   1.288  12.662
41525SOL    HW124599   7.807   1.381  12.628
41525SOL    HW224600   7.736   1.236  12.649
41526SOL     OW24601   9.062   1.292  12.461
41526SOL    HW124602   9.122   1.295  12.541
41526SOL    HW224603   8.987   1.356  12.474
41527SOL     OW24604   8.487   1.098  11.868
41527SOL    HW124605   8.417   1.051  11.922
41527SOL    HW224606   8.546   1.030  11.825
41528SOL     OW24607   8.462   0.236  12.143
41528SOL    HW124608   8.454   0.200  12.050
41528SOL    HW224609   8.460   0.160  12.208
41529SOL     OW24610   8.038   1.487  11.663
41529SOL    HW124611   8.080   1.429  11.593
41529SOL    HW224612   7.994   1.566  11.619
41530SOL     OW24613   9.157   0.385  12.553
41530SOL    HW124614   9.230   0.454  12.557
41530SOL    HW224615   9.185   0.310  12.494
41531SOL     OW24616   7.703   1.348  11.462
41531SOL    HW124617   7.607   1.349  11.435
41531SOL    HW224618   7.715   1.401  11.546
41532SOL     OW24619   7.553   1.013  12.898
41532SOL    HW124620   7.476   0.980  12.952
41532SOL    HW224621   7.638   0.983  12.940
41533SOL     OW24622   8.120   0.203  12.661
41533SOL    HW124623   8.210   0.187  12.621
41533SOL    HW224624   8.128   0.208  12.760
41534SOL     OW24625   7.523   0.345  11.205
41534SOL    HW124626   7.431   0.317  11.176
41534SOL    HW224627   7.554   0.422  11.149
41535SOL     OW24628   8.888   0.856  12.570
41535SOL    HW124629   8.831   0.908  12.507
41535SOL    HW224630   8.984   0.868  12.546
41536SOL     OW24631   7.520   0.166  11.490
41536SOL    HW124632   7.503   0.249  11.436
41536SOL    HW224633   7.610   0.129  11.468
41537SOL     OW24634   8.631   1.335  11.291
41537SOL    HW124635   8.532   1.324  11.293
41537SOL    HW224636   8.665   1.350  11.384
41538SOL     OW24637   8.061   0.842  12.603
41538SOL    HW124638   8.117   0.923  12.586
41538SOL    HW224639   8.120   0.762  12.606
41539SOL     OW24640   8.941   1.767  12.131
41539SOL    HW124641   8.974   1.831  12.062
41539SOL    HW224642   9.007   1.761  12.206
41540SOL     OW24643   8.164   0.565  12.880
41540SOL    HW124644   8.183   0.630  12.954
41540SOL    HW224645   8.224   0.485  12.889
41541SOL     OW24646   7.838   1.741  12.732
41541SOL    HW124647   7.747   1.782  12.730
41541SOL    HW224648   7.831   1.647  12.764
41542SOL     OW24649   9.122   0.883  12.426
41542SOL    HW124650   9.095   0.794  12.389
41542SOL    HW224651   9.123   0.951  12.353
41543SOL     OW24652   8.673   0.325  11.621
41543SOL    HW124653   8.738   0.251  11.610
41543SOL    HW224654   8.693   0.375  11.705
41544SOL     OW24655   8.042   0.745  11.824
41544SOL    HW124656   8.092   0.830  11.805
41544SOL    HW224657   7.954   0.747  11.776
41545SOL     OW24658   9.225   0.342  12.814
41545SOL    HW124659   9.208   0.373  12.720
41545SOL    HW224660   9.141   0.305  12.852
41546SOL     OW24661   9.178   0.934  12.689
41546SOL    HW124662   9.216   1.025  12.704
41546SOL    HW224663   9.170   0.917  12.590
41547SOL     OW24664   8.307   1.374  11.188
41547SOL    HW124665   8.261   1.389  11.276
41547SOL    HW224666   8.351   1.459  11.158
41548SOL     OW24667   8.109   1.790  12.125
41548SOL    HW124668   8.063   1.878  12.112
41548SOL    HW224669   8.208   1.802  12.118
41549SOL     OW24670   8.307   0.956  12.033
41549SOL    HW124671   8.361   0.887  12.081
41549SOL    HW224672   8.275   1.025  12.099
41550SOL     OW24673   8.531   0.984  11.259
41550SOL    HW124674   8.508   1.037  11.177
41550SOL    HW224675   8.612   0.928  11.240
41551SOL     OW24676   9.309   1.569  12.023
41551SOL    HW124677   9.238   1.557  11.953
41551SOL    HW224678   9.310   1.490  12.083
41552SOL     OW24679   7.527   1.240  11.825
41552SOL    HW124680   7.526   1.193  11.913
41552SOL    HW224681   7.609   1.212  11.774
41553SOL     OW24682   8.120   1.391  12.796
41553SOL    HW124683   8.042   1.341  12.834
41553SOL    HW224684   8.117   1.486  12.827
41554SOL     OW24685   9.272   0.192  12.399
41554SOL    HW124686   9.268   0.102  12.443
41554SOL    HW224687   9.275   0.181  12.300
41555SOL     OW24688   7.876   0.424  11.692
41555SOL    HW124689   7.906   0.352  11.630
41555SOL    HW224690   7.837   0.384  11.775
41556SOL     OW24691   9.153   1.487  12.276
41556SOL    HW124692   9.060   1.462  12.249
41556SOL    HW224693   9.179   1.437  12.358
41557SOL     OW24694   7.765   0.547  12.452
41557SOL    HW124695   7.803   0.488  12.524
41557SOL    HW224696   7.805   0.521  12.364
41558SOL     OW24697   8.260   1.586  11.859
41558SOL    HW124698   8.292   1.596  11.765
41558SOL    HW224699   8.181   1.524  11.861
41559SOL     OW24700   8.872   0.214  12.284
41559SOL    HW124701   8.924   0.149  12.339
41559SOL    HW224702   8.823   0.277  12.345
41560SOL     OW24703   8.449   0.034  12.326
41560SOL    HW124704   8.386  -0.038  12.295
41560SOL    HW224705   8.542  -0.002  12.326
41561SOL     OW24706   8.218   1.330  11.473
41561SOL    HW124707   8.172   1.243  11.490
41561SOL    HW224708   8.309   1.327  11.514
41562SOL     OW24709   8.066   1.567  12.456
41562SOL    HW124710   8.061   1.649  12.513
41562SOL    HW224711   8.155   1.564  12.411
41563SOL     OW24712   8.800   0.052  11.340
41563SOL    HW124713   8.835   0.011  11.256
41563SOL    HW224714   8.710   0.014  11.360
41564SOL     OW24715   8.748   0.453  11.863
41564SOL    HW124716   8.689   0.533  11.867
41564SOL    HW224717   8.763   0.418  11.956
41565SOL     OW24718   9.041   0.221  12.054
41565SOL    HW124719   8.957   0.220  12.108
41565SOL    HW224720   9.043   0.304  11.998
41566SOL     OW24721   7.487   1.077  11.472
41566SOL    HW124722   7.586   1.066  11.463
41566SOL    HW224723   7.447   0.991  11.504
41567SOL     OW24724   8.323   1.646  11.509
41567SOL    HW124725   8.246   1.611  11.455
41567SOL    HW224726   8.291   1.717  11.571
41568SOL     OW24727   7.678   2.490   0.113
41568SOL    HW124728   7.585   2.488   0.150
41568SOL    HW224729   7.679   2.451   0.021
41569SOL     OW24730   7.673   2.137   0.996
41569SOL    HW124731   7.708   2.120   1.088
41569SOL    HW224732   7.585   2.092   0.984
41570SOL     OW24733   7.467   2.230   0.647
41570SOL    HW124734   7.385   2.273   0.686
41570SOL    HW224735   7.439   2.157   0.584
41571SOL     OW24736   8.017   3.137   1.165
41571SOL    HW124737   7.924   3.130   1.128
41571SOL    HW224738   8.028   3.226   1.209
41572SOL     OW24739   9.003   3.373   0.703
41572SOL    HW124740   8.946   3.357   0.784
41572SOL    HW224741   8.944   3.383   0.623
41573SOL     OW24742   8.583   2.565   0.717
41573SOL    HW124743   8.640   2.643   0.692
41573SOL    HW224744   8.523   2.591   0.793
41574SOL     OW24745   9.203   2.469   0.231
41574SOL    HW124746   9.191   2.456   0.132
41574SOL    HW224747   9.173   2.388   0.280
41575SOL     OW24748   8.216   3.006   1.023
41575SOL    HW124749   8.138   3.023   1.083
41575SOL    HW224750   8.250   3.093   0.987
41576SOL     OW24751   8.298   2.660   1.823
41576SOL    HW124752   8.294   2.736   1.888
41576SOL    HW224753   8.320   2.696   1.732
41577SOL     OW24754   8.133   2.874   0.665
41577SOL    HW124755   8.202   2.858   0.735
41577SOL    HW224756   8.060   2.931   0.703
41578SOL     OW24757   8.134   3.023   1.803
41578SOL    HW124758   8.194   3.102   1.817
41578SOL    HW224759   8.048   3.054   1.762
41579SOL     OW24760   7.783   3.297   1.061
41579SOL    HW124761   7.705   3.266   1.008
41579SOL    HW224762   7.841   3.355   1.004
41580SOL     OW24763   8.908   3.367   1.339
41580SOL    HW124764   8.932   3.461   1.365
41580SOL    HW224765   8.892   3.313   1.421
41581SOL     OW24766   7.886   2.254   1.499
41581SOL    HW124767   7.968   2.198   1.508
41581SOL    HW224768   7.805   2.196   1.503
41582SOL     OW24769   9.051   2.309   0.737
41582SOL    HW124770   8.977   2.355   0.687
41582SOL    HW224771   9.102   2.377   0.790
41583SOL     OW24772   7.679   3.575   0.483
41583SOL    HW124773   7.713   3.652   0.537
41583SOL    HW224774   7.723   3.575   0.393
41584SOL     OW24775   8.575   3.203   1.690
41584SOL    HW124776   8.622   3.203   1.778
41584SOL    HW224777   8.527   3.116   1.679
41585SOL     OW24778   7.678   3.296   0.538
41585SOL    HW124779   7.652   3.392   0.538
41585SOL    HW224780   7.607   3.242   0.583
41586SOL     OW24781   7.688   2.953   0.886
41586SOL    HW124782   7.702   2.869   0.938
41586SOL    HW224783   7.633   3.017   0.941
41587SOL     OW24784   8.068   3.648   1.439
41587SOL    HW124785   7.976   3.631   1.474
41587SOL    HW224786   8.096   3.740   1.465
41588SOL     OW24787   8.054   2.826   0.123
41588SOL    HW124788   8.061   2.910   0.069
41588SOL    HW224789   8.100   2.839   0.211
41589SOL     OW24790   9.042   1.976   1.480
41589SOL    HW124791   9.024   2.043   1.408
41589SOL    HW224792   9.039   2.022   1.569
41590SOL     OW24793   7.570   2.505   0.563
41590SOL    HW124794   7.525   2.417   0.580
41590SOL    HW224795   7.569   2.559   0.647
41591SOL     OW24796   9.290   3.629   0.359
41591SOL    HW124797   9.344   3.600   0.439
41591SOL    HW224798   9.320   3.719   0.330
41592SOL     OW24799   7.475   3.458   0.117
41592SOL    HW124800   7.456   3.362   0.138
41592SOL    HW224801   7.442   3.516   0.192
41593SOL     OW24802   9.137   2.784   0.612
41593SOL    HW124803   9.232   2.755   0.620
41593SOL    HW224804   9.129   2.849   0.537
41594SOL     OW24805   9.089   2.970   0.432
41594SOL    HW124806   9.175   2.972   0.380
41594SOL    HW224807   9.103   3.017   0.520
41595SOL     OW24808   7.561   2.599   1.597
41595SOL    HW124809   7.649   2.586   1.642
41595SOL    HW224810   7.548   2.696   1.575
41596SOL     OW24811   8.061   3.227   0.726
41596SOL    HW124812   8.012   3.140   0.735
41596SOL    HW224813   8.038   3.270   0.639
41597SOL     OW24814   8.741   3.090   1.423
41597SOL    HW124815   8.778   3.017   1.365
41597SOL    HW224816   8.793   3.095   1.508
41598SOL     OW24817   8.257   1.866   0.502
41598SOL    HW124818   8.297   1.957   0.493
41598SOL    HW224819   8.157   1.874   0.508
41599SOL     OW24820   7.645   2.838   1.264
41599SOL    HW124821   7.734   2.793   1.250
41599SOL    HW224822   7.572   2.773   1.245
41600SOL     OW24823   8.973   2.861   0.190
41600SOL    HW124824   8.910   2.785   0.203
41600SOL    HW224825   9.021   2.879   0.276
41601SOL     OW24826   8.635   3.654   1.616
41601SOL    HW124827   8.659   3.714   1.540
41601SOL    HW224828   8.642   3.559   1.586
41602SOL     OW24829   7.765   2.113   1.801
41602SOL    HW124830   7.836   2.184   1.807
41602SOL    HW224831   7.677   2.152   1.829
41603SOL     OW24832   8.914   3.279   0.953
41603SOL    HW124833   8.855   3.285   1.033
41603SOL    HW224834   8.899   3.191   0.907
41604SOL     OW24835   9.115   3.576   0.572
41604SOL    HW124836   9.074   3.553   0.484
41604SOL    HW224837   9.097   3.502   0.637
41605SOL     OW24838   8.046   2.591   0.270
41605SOL    HW124839   8.070   2.660   0.202
41605SOL    HW224840   7.968   2.624   0.324
41606SOL     OW24841   8.729   2.207   0.944
41606SOL    HW124842   8.643   2.157   0.931
41606SOL    HW224843   8.791   2.153   1.000
41607SOL     OW24844   9.024   3.524   0.307
41607SOL    HW124845   9.113   3.570   0.310
41607SOL    HW224846   9.003   3.500   0.212
41608SOL     OW24847   8.255   2.467   1.465
41608SOL    HW124848   8.208   2.464   1.554
41608SOL    HW224849   8.204   2.412   1.399
41609SOL     OW24850   8.842   2.331   1.674
41609SOL    HW124851   8.822   2.374   1.762
41609SOL    HW224852   8.920   2.269   1.683
41610SOL     OW24853   8.421   2.752   1.572
41610SOL    HW124854   8.467   2.668   1.543
41610SOL    HW224855   8.365   2.786   1.497
41611SOL     OW24856   8.439   2.272   1.242
41611SOL    HW124857   8.362   2.306   1.296
41611SOL    HW224858   8.405   2.221   1.163
41612SOL     OW24859   8.489   2.563   0.429
41612SOL    HW124860   8.515   2.559   0.525
41612SOL    HW224861   8.404   2.512   0.415
41613SOL     OW24862   7.524   2.673   0.789
41613SOL    HW124863   7.623   2.661   0.798
41613SOL    HW224864   7.500   2.768   0.810
41614SOL     OW24865   7.578   3.683   1.571
41614SOL    HW124866   7.568   3.668   1.670
41614SOL    HW224867   7.492   3.719   1.535
41615SOL     OW24868   8.313   2.210   0.195
41615SOL    HW124869   8.372   2.273   0.146
41615SOL    HW224870   8.332   2.116   0.166
41616SOL     OW24871   9.167   2.447   1.831
41616SOL    HW124872   9.141   2.536   1.795
41616SOL    HW224873   9.165   2.379   1.758
41617SOL     OW24874   8.810   3.006   0.545
41617SOL    HW124875   8.893   2.977   0.497
41617SOL    HW224876   8.761   3.073   0.489
41618SOL     OW24877   7.998   2.058   0.885
41618SOL    HW124878   7.993   2.053   0.985
41618SOL    HW224879   8.000   2.154   0.856
41619SOL     OW24880   8.456   3.318   0.477
41619SOL    HW124881   8.410   3.390   0.425
41619SOL    HW224882   8.452   3.338   0.575
41620SOL     OW24883   7.799   3.663   0.853
41620SOL    HW124884   7.849   3.577   0.859
41620SOL    HW224885   7.864   3.740   0.850
41621SOL     OW24886   9.243   2.928   0.873
41621SOL    HW124887   9.181   2.913   0.797
41621SOL    HW224888   9.191   2.939   0.958
41622SOL     OW24889   8.675   3.412   1.506
41622SOL    HW124890   8.681   3.335   1.570
41622SOL    HW224891   8.623   3.386   1.426
41623SOL     OW24892   7.769   2.805   0.242
41623SOL    HW124893   7.851   2.844   0.200
41623SOL    HW224894   7.742   2.723   0.193
41624SOL     OW24895   8.906   2.597   0.728
41624SOL    HW124896   8.901   2.532   0.803
41624SOL    HW224897   8.986   2.656   0.741
41625SOL     OW24898   7.909   3.128   1.727
41625SOL    HW124899   7.859   3.129   1.641
41625SOL    HW224900   7.846   3.110   1.803
41626SOL     OW24901   8.559   3.638   0.237
41626SOL    HW124902   8.499   3.576   0.287
41626SOL    HW224903   8.590   3.594   0.152
41627SOL     OW24904   7.650   2.147   1.498
41627SOL    HW124905   7.570   2.207   1.485
41627SOL    HW224906   7.640   2.098   1.584
41628SOL     OW24907   9.080   3.239   0.081
41628SOL    HW124908   9.048   3.333   0.071
41628SOL    HW224909   9.004   3.176   0.069
41629SOL     OW24910   7.912   3.605   0.323
41629SOL    HW124911   7.945   3.644   0.409
41629SOL    HW224912   7.988   3.598   0.258
41630SOL     OW24913   8.848   1.969   0.426
41630SOL    HW124914   8.824   1.932   0.336
41630SOL    HW224915   8.947   1.985   0.430
41631SOL     OW24916   7.697   3.647   1.241
41631SOL    HW124917   7.754   3.582   1.291
41631SOL    HW224918   7.681   3.614   1.148
41632SOL     OW24919   8.388   3.560   0.904
41632SOL    HW124920   8.468   3.503   0.925
41632SOL    HW224921   8.339   3.520   0.827
41633SOL     OW24922   7.830   2.562   0.480
41633SOL    HW124923   7.875   2.472   0.477
41633SOL    HW224924   7.736   2.551   0.513
41634SOL     OW24925   8.995   2.084   1.729
41634SOL    HW124926   8.990   2.121   1.821
41634SOL    HW224927   8.923   2.015   1.717
41635SOL     OW24928   8.062   1.984   0.117
41635SOL    HW124929   8.160   1.962   0.124
41635SOL    HW224930   8.031   1.967   0.024
41636SOL     OW24931   8.229   2.126   1.749
41636SOL    HW124932   8.296   2.065   1.792
41636SOL    HW224933   8.156   2.145   1.814
41637SOL     OW24934   8.336   3.376   1.195
41637SOL    HW124935   8.313   3.351   1.101
41637SOL    HW224936   8.397   3.307   1.234
41638SOL     OW24937   8.799   2.452   1.433
41638SOL    HW124938   8.827   2.409   1.518
41638SOL    HW224939   8.824   2.548   1.434
41639SOL     OW24940   8.251   3.264   0.924
41639SOL    HW124941   8.341   3.278   0.882
41639SOL    HW224942   8.180   3.266   0.853
41640SOL     OW24943   8.370   2.365   0.899
41640SOL    HW124944   8.345   2.356   0.803
41640SOL    HW224945   8.418   2.283   0.930
41641SOL     OW24946   7.987   1.926   0.512
41641SOL    HW124947   7.906   1.927   0.570
41641SOL    HW224948   7.990   2.009   0.457
41642SOL     OW24949   8.882   3.050   0.041
41642SOL    HW124950   8.914   2.974   0.098
41642SOL    HW224951   8.790   3.077   0.071
41643SOL     OW24952   7.745   1.897   0.171
41643SOL    HW124953   7.794   1.981   0.150
41643SOL    HW224954   7.807   1.832   0.216
41644SOL     OW24955   8.383   2.098   0.480
41644SOL    HW124956   8.335   2.139   0.402
41644SOL    HW224957   8.482   2.096   0.461
41645SOL     OW24958   8.524   2.545   1.464
41645SOL    HW124959   8.444   2.484   1.467
41645SOL    HW224960   8.605   2.492   1.440
41646SOL     OW24961   8.675   3.432   0.793
41646SOL    HW124962   8.696   3.506   0.728
41646SOL    HW224963   8.743   3.432   0.866
41647SOL     OW24964   7.907   3.014   0.741
41647SOL    HW124965   7.836   2.987   0.806
41647SOL    HW224966   7.881   2.986   0.648
41648SOL     OW24967   8.719   3.659   0.591
41648SOL    HW124968   8.763   3.723   0.527
41648SOL    HW224969   8.669   3.711   0.661
41649SOL     OW24970   8.480   2.411   0.016
41649SOL    HW124971   8.439   2.493  -0.023
41649SOL    HW224972   8.544   2.437   0.089
41650SOL     OW24973   7.526   2.418   1.386
41650SOL    HW124974   7.618   2.417   1.345
41650SOL    HW224975   7.520   2.492   1.453
41651SOL     OW24976   8.009   2.084   1.147
41651SOL    HW124977   8.047   2.000   1.184
41651SOL    HW224978   7.921   2.103   1.191
41652SOL     OW24979   8.314   2.316   0.642
41652SOL    HW124980   8.282   2.388   0.580
41652SOL    HW224981   8.338   2.235   0.589
41653SOL     OW24982   8.465   1.901   0.753
41653SOL    HW124983   8.393   1.906   0.684
41653SOL    HW224984   8.441   1.832   0.822
41654SOL     OW24985   8.877   3.035   0.867
41654SOL    HW124986   8.822   2.951   0.860
41654SOL    HW224987   8.903   3.064   0.775
41655SOL     OW24988   8.914   2.452   0.992
41655SOL    HW124989   8.884   2.357   0.999
41655SOL    HW224990   8.987   2.468   1.058
41656SOL     OW24991   9.305   2.695   0.377
41656SOL    HW124992   9.347   2.631   0.441
41656SOL    HW224993   9.267   2.644   0.299
41657SOL     OW24994   7.936   3.247   0.174
41657SOL    HW124995   7.849   3.232   0.221
41657SOL    HW224996   7.919   3.273   0.079
41658SOL     OW24997   9.112   3.142   0.657
41658SOL    HW124998   9.211   3.150   0.671
41658SOL    HW224999   9.067   3.226   0.688
41659SOL     OW25000   8.838   2.437   0.078
41659SOL    HW125001   8.784   2.416   0.159
41659SOL    HW225002   8.929   2.396   0.087
41660SOL     OW25003   7.975   2.118   0.328
41660SOL    HW125004   8.002   2.059   0.253
41660SOL    HW225005   7.975   2.213   0.297
41661SOL     OW25006   9.202   3.085   1.588
41661SOL    HW125007   9.293   3.046   1.575
41661SOL    HW225008   9.210   3.181   1.612
41662SOL     OW25009   8.512   3.209   1.340
41662SOL    HW125010   8.432   3.186   1.395
41662SOL    HW225011   8.595   3.183   1.389
41663SOL     OW25012   9.040   3.491   1.625
41663SOL    HW125013   9.067   3.525   1.535
41663SOL    HW225014   9.119   3.453   1.671
41664SOL     OW25015   8.559   3.057   1.100
41664SOL    HW125016   8.519   3.101   1.181
41664SOL    HW225017   8.518   3.094   1.017
41665SOL     OW25018   9.086   2.961   1.079
41665SOL    HW125019   9.091   3.042   1.138
41665SOL    HW225020   9.000   2.963   1.028
41666SOL     OW25021   8.363   1.951   1.402
41666SOL    HW125022   8.388   1.931   1.307
41666SOL    HW225023   8.435   2.007   1.444
41667SOL     OW25024   8.428   2.978   1.719
41667SOL    HW125025   8.329   2.984   1.729
41667SOL    HW225026   8.451   2.898   1.663
41668SOL     OW25027   8.153   2.912   0.368
41668SOL    HW125028   8.139   2.919   0.467
41668SOL    HW225029   8.237   2.861   0.350
41669SOL     OW25030   7.858   2.675   1.251
41669SOL    HW125031   7.944   2.687   1.301
41669SOL    HW225032   7.816   2.588   1.278
41670SOL     OW25033   8.722   2.248   1.262
41670SOL    HW125034   8.743   2.322   1.326
41670SOL    HW225035   8.633   2.265   1.219
41671SOL     OW25036   7.512   3.426   1.331
41671SOL    HW125037   7.466   3.508   1.297
41671SOL    HW225038   7.610   3.445   1.340
41672SOL     OW25039   7.815   2.962   0.501
41672SOL    HW125040   7.808   3.045   0.445
41672SOL    HW225041   7.819   2.882   0.441
41673SOL     OW25042   8.014   2.399   0.865
41673SOL    HW125043   8.026   2.465   0.791
41673SOL    HW225044   8.060   2.433   0.948
41674SOL     OW25045   8.700   3.210   0.388
41674SOL    HW125046   8.750   3.287   0.428
41674SOL    HW225047   8.605   3.212   0.420
41675SOL     OW25048   8.720   3.307   1.142
41675SOL    HW125049   8.767   3.320   1.229
41675SOL    HW225050   8.654   3.233   1.151
41676SOL     OW25051   9.030   2.501   0.472
41676SOL    HW125052   8.999   2.562   0.545
41676SOL    HW225053   9.080   2.553   0.403
41677SOL     OW25054   7.802   3.372   1.329
41677SOL    HW125055   7.781   3.328   1.242
41677SOL    HW225056   7.899   3.398   1.332
41678SOL     OW25057   7.850   2.613   1.598
41678SOL    HW125058   7.918   2.668   1.551
41678SOL    HW225059   7.890   2.525   1.625
41679SOL     OW25060   9.035   2.641   1.670
41679SOL    HW125061   8.943   2.679   1.665
41679SOL    HW225062   9.095   2.688   1.605
41680SOL     OW25063   8.461   1.967   1.770
41680SOL    HW125064   8.467   2.052   1.718
41680SOL    HW225065   8.493   1.891   1.713
41681SOL     OW25066   7.952   1.912   1.740
41681SOL    HW125067   7.910   1.855   1.670
41681SOL    HW225068   7.886   1.981   1.772
41682SOL     OW25069   8.021   2.732   1.029
41682SOL    HW125070   8.065   2.821   1.020
41682SOL    HW225071   7.958   2.732   1.106
41683SOL     OW25072   8.808   2.724   1.045
41683SOL    HW125073   8.733   2.724   0.979
41683SOL    HW225074   8.845   2.632   1.054
41684SOL     OW25075   8.657   2.387   0.275
41684SOL    HW125076   8.670   2.303   0.329
41684SOL    HW225077   8.628   2.461   0.335
41685SOL     OW25078   7.755   2.075   1.231
41685SOL    HW125079   7.732   2.112   1.321
41685SOL    HW225080   7.725   1.980   1.225
41686SOL     OW25081   7.485   3.172   1.282
41686SOL    HW125082   7.538   3.123   1.350
41686SOL    HW225083   7.507   3.270   1.287
41687SOL     OW25084   8.180   2.496   1.064
41687SOL    HW125085   8.239   2.470   0.988
41687SOL    HW225086   8.152   2.592   1.053
41688SOL     OW25087   9.176   2.797   1.854
41688SOL    HW125088   9.130   2.790   1.765
41688SOL    HW225089   9.114   2.841   1.920
41689SOL     OW25090   7.755   1.925   0.618
41689SOL    HW125091   7.744   2.019   0.651
41689SOL    HW225092   7.750   1.862   0.695
41690SOL     OW25093   9.070   2.229   0.374
41690SOL    HW125094   9.072   2.153   0.438
41690SOL    HW225095   9.022   2.306   0.414
41691SOL     OW25096   8.471   2.628   0.966
41691SOL    HW125097   8.486   2.649   1.062
41691SOL    HW225098   8.441   2.533   0.957
41692SOL     OW25099   8.428   3.435   1.700
41692SOL    HW125100   8.408   3.479   1.612
41692SOL    HW225101   8.467   3.344   1.684
41693SOL     OW25102   9.307   3.380   1.605
41693SOL    HW125103   9.321   3.407   1.510
41693SOL    HW225104   9.390   3.402   1.658
41694SOL     OW25105   7.798   2.760   1.804
41694SOL    HW125106   7.874   2.804   1.852
41694SOL    HW225107   7.833   2.713   1.722
41695SOL     OW25108   8.988   2.136   0.125
41695SOL    HW125109   8.927   2.061   0.148
41695SOL    HW225110   9.010   2.188   0.208
41696SOL     OW25111   8.751   2.700   0.042
41696SOL    HW125112   8.785   2.607   0.057
41696SOL    HW225113   8.769   2.727  -0.053
41697SOL     OW25114   8.516   3.195   0.849
41697SOL    HW125115   8.523   3.111   0.794
41697SOL    HW225116   8.578   3.264   0.813
41698SOL     OW25117   7.767   2.672   0.949
41698SOL    HW125118   7.860   2.708   0.954
41698SOL    HW225119   7.761   2.587   1.001
41699SOL     OW25120   7.787   2.371   1.006
41699SOL    HW125121   7.735   2.288   0.989
41699SOL    HW225122   7.864   2.376   0.942
41700SOL     OW25123   8.586   2.242   1.678
41700SOL    HW125124   8.541   2.305   1.742
41700SOL    HW225125   8.679   2.273   1.661
41701SOL     OW25126   8.608   2.069   1.477
41701SOL    HW125127   8.608   2.133   1.554
41701SOL    HW225128   8.636   2.117   1.394
41702SOL     OW25129   7.456   3.188   0.200
41702SOL    HW125130   7.363   3.209   0.169
41702SOL    HW225131   7.466   3.089   0.213
41703SOL     OW25132   7.536   3.663   0.927
41703SOL    HW125133   7.494   3.577   0.900
41703SOL    HW225134   7.630   3.666   0.893
41704SOL     OW25135   7.952   3.430   0.910
41704SOL    HW125136   8.018   3.504   0.919
41704SOL    HW225137   7.996   3.351   0.868
41705SOL     OW25138   8.450   2.658   1.238
41705SOL    HW125139   8.491   2.626   1.324
41705SOL    HW225140   8.354   2.631   1.235
41706SOL     OW25141   7.488   2.406   1.114
41706SOL    HW125142   7.573   2.373   1.073
41706SOL    HW225143   7.501   2.421   1.212
41707SOL     OW25144   7.637   2.382   1.722
41707SOL    HW125145   7.696   2.342   1.652
41707SOL    HW225146   7.579   2.453   1.681
41708SOL     OW25147   8.817   2.812   1.660
41708SOL    HW125148   8.856   2.901   1.680
41708SOL    HW225149   8.827   2.792   1.563
41709SOL     OW25150   8.263   2.434   0.325
41709SOL    HW125151   8.270   2.345   0.279
41709SOL    HW225152   8.169   2.468   0.317
41710SOL     OW25153   9.105   2.466   1.206
41710SOL    HW125154   9.067   2.397   1.268
41710SOL    HW225155   9.187   2.430   1.162
41711SOL     OW25156   7.700   3.426   1.744
41711SOL    HW125157   7.670   3.483   1.820
41711SOL    HW225158   7.693   3.329   1.770
41712SOL     OW25159   8.119   2.326   1.269
41712SOL    HW125160   8.085   2.237   1.239
41712SOL    HW225161   8.145   2.380   1.189
41713SOL     OW25162   8.378   3.540   1.465
41713SOL    HW125163   8.354   3.522   1.370
41713SOL    HW225164   8.408   3.634   1.475
41714SOL     OW25165   7.921   2.362   0.191
41714SOL    HW125166   7.982   2.442   0.195
41714SOL    HW225167   7.826   2.393   0.198
41715SOL     OW25168   7.607   2.999   1.466
41715SOL    HW125169   7.629   2.938   1.542
41715SOL    HW225170   7.617   2.950   1.380
41716SOL     OW25171   8.795   2.921   1.234
41716SOL    HW125172   8.819   2.858   1.160
41716SOL    HW225173   8.705   2.961   1.216
41717SOL     OW25174   8.750   2.717   0.309
41717SOL    HW125175   8.664   2.686   0.351
41717SOL    HW225176   8.746   2.703   0.210
41718SOL     OW25177   9.207   3.609   1.154
41718SOL    HW125178   9.268   3.639   1.081
41718SOL    HW225179   9.169   3.520   1.132
41719SOL     OW25180   8.700   3.593   1.128
41719SOL    HW125181   8.784   3.598   1.074
41719SOL    HW225182   8.677   3.497   1.146
41720SOL     OW25183   7.531   3.120   1.022
41720SOL    HW125184   7.526   3.119   1.122
41720SOL    HW225185   7.448   3.079   0.984
41721SOL     OW25186   8.136   3.524   1.716
41721SOL    HW125187   8.080   3.605   1.725
41721SOL    HW225188   8.188   3.528   1.630
41722SOL     OW25189   8.351   1.948   0.133
41722SOL    HW125190   8.402   1.949   0.047
41722SOL    HW225191   8.407   1.906   0.204
41723SOL     OW25192   9.174   1.997   0.523
41723SOL    HW125193   9.247   1.980   0.456
41723SOL    HW225194   9.143   1.910   0.561
41724SOL     OW25195   8.836   3.435   0.477
41724SOL    HW125196   8.903   3.447   0.403
41724SOL    HW225197   8.796   3.524   0.500
41725SOL     OW25198   7.578   3.656   1.851
41725SOL    HW125199   7.537   3.582   1.904
41725SOL    HW225200   7.642   3.707   1.909
41726SOL     OW25201   8.728   2.789   0.672
41726SOL    HW125202   8.788   2.708   0.674
41726SOL    HW225203   8.768   2.858   0.612
41727SOL     OW25204   8.278   3.135   1.422
41727SOL    HW125205   8.273   3.168   1.517
41727SOL    HW225206   8.192   3.154   1.376
41728SOL     OW25207   8.120   3.478   0.154
41728SOL    HW125208   8.129   3.488   0.055
41728SOL    HW225209   8.080   3.389   0.175
41729SOL     OW25210   9.098   3.582   1.394
41729SOL    HW125211   9.151   3.592   1.310
41729SOL    HW225212   9.071   3.672   1.428
41730SOL     OW25213   9.289   2.037   0.963
41730SOL    HW125214   9.328   1.952   0.927
41730SOL    HW225215   9.191   2.039   0.944
41731SOL     OW25216   7.711   2.188   0.720
41731SOL    HW125217   7.632   2.239   0.686
41731SOL    HW225218   7.702   2.173   0.818
41732SOL     OW25219   8.642   3.474   0.031
41732SOL    HW125220   8.648   3.381   0.068
41732SOL    HW225221   8.583   3.474  -0.049
41733SOL     OW25222   8.270   2.864   1.372
41733SOL    HW125223   8.310   2.863   1.280
41733SOL    HW225224   8.280   2.956   1.412
41734SOL     OW25225   8.364   2.772   0.291
41734SOL    HW125226   8.427   2.810   0.223
41734SOL    HW225227   8.404   2.689   0.330
41735SOL     OW25228   8.952   3.469   0.044
41735SOL    HW125229   8.860   3.506   0.051
41735SOL    HW225230   8.990   3.489  -0.046
41736SOL     OW25231   7.820   3.150   1.490
41736SOL    HW125232   7.807   3.243   1.456
41736SOL    HW225233   7.736   3.098   1.477
41737SOL     OW25234   9.062   3.154   1.289
41737SOL    HW125235   9.122   3.157   1.369
41737SOL    HW225236   8.987   3.218   1.302
41738SOL     OW25237   8.487   2.960   0.696
41738SOL    HW125238   8.417   2.913   0.750
41738SOL    HW225239   8.546   2.892   0.653
41739SOL     OW25240   8.462   2.098   0.971
41739SOL    HW125241   8.454   2.062   0.878
41739SOL    HW225242   8.460   2.022   1.036
41740SOL     OW25243   8.038   3.349   0.491
41740SOL    HW125244   8.080   3.291   0.421
41740SOL    HW225245   7.994   3.428   0.447
41741SOL     OW25246   9.157   2.247   1.381
41741SOL    HW125247   9.230   2.316   1.385
41741SOL    HW225248   9.185   2.172   1.322
41742SOL     OW25249   7.703   3.210   0.290
41742SOL    HW125250   7.607   3.211   0.263
41742SOL    HW225251   7.715   3.263   0.374
41743SOL     OW25252   7.553   2.875   1.726
41743SOL    HW125253   7.476   2.842   1.780
41743SOL    HW225254   7.638   2.845   1.768
41744SOL     OW25255   8.120   2.065   1.489
41744SOL    HW125256   8.210   2.049   1.449
41744SOL    HW225257   8.128   2.070   1.588
41745SOL     OW25258   8.888   2.718   1.398
41745SOL    HW125259   8.831   2.770   1.335
41745SOL    HW225260   8.984   2.730   1.374
41746SOL     OW25261   7.520   2.028   0.318
41746SOL    HW125262   7.503   2.111   0.264
41746SOL    HW225263   7.610   1.991   0.296
41747SOL     OW25264   8.631   3.197   0.119
41747SOL    HW125265   8.532   3.186   0.121
41747SOL    HW225266   8.665   3.212   0.212
41748SOL     OW25267   8.061   2.704   1.431
41748SOL    HW125268   8.117   2.785   1.414
41748SOL    HW225269   8.120   2.624   1.434
41749SOL     OW25270   8.941   3.629   0.959
41749SOL    HW125271   8.974   3.693   0.890
41749SOL    HW225272   9.007   3.623   1.034
41750SOL     OW25273   8.164   2.427   1.708
41750SOL    HW125274   8.183   2.492   1.782
41750SOL    HW225275   8.224   2.347   1.717
41751SOL     OW25276   8.898   3.082   1.633
41751SOL    HW125277   8.889   3.072   1.732
41751SOL    HW225278   8.994   3.075   1.607
41752SOL     OW25279   7.838   3.603   1.560
41752SOL    HW125280   7.747   3.644   1.558
41752SOL    HW225281   7.831   3.509   1.592
41753SOL     OW25282   9.122   2.745   1.254
41753SOL    HW125283   9.095   2.656   1.217
41753SOL    HW225284   9.123   2.813   1.181
41754SOL     OW25285   8.673   2.187   0.449
41754SOL    HW125286   8.738   2.113   0.438
41754SOL    HW225287   8.693   2.237   0.533
41755SOL     OW25288   8.042   2.607   0.652
41755SOL    HW125289   8.092   2.692   0.633
41755SOL    HW225290   7.954   2.609   0.604
41756SOL     OW25291   9.225   2.204   1.642
41756SOL    HW125292   9.208   2.235   1.548
41756SOL    HW225293   9.141   2.167   1.680
41757SOL     OW25294   9.178   2.796   1.517
41757SOL    HW125295   9.216   2.887   1.532
41757SOL    HW225296   9.170   2.779   1.418
41758SOL     OW25297   8.307   3.236   0.016
41758SOL    HW125298   8.261   3.251   0.104
41758SOL    HW225299   8.351   3.321  -0.014
41759SOL     OW25300   8.109   3.652   0.953
41759SOL    HW125301   8.063   3.740   0.940
41759SOL    HW225302   8.208   3.664   0.946
41760SOL     OW25303   8.307   2.818   0.861
41760SOL    HW125304   8.361   2.749   0.909
41760SOL    HW225305   8.275   2.887   0.927
41761SOL     OW25306   8.531   2.846   0.087
41761SOL    HW125307   8.508   2.899   0.005
41761SOL    HW225308   8.612   2.790   0.068
41762SOL     OW25309   9.309   3.431   0.851
41762SOL    HW125310   9.238   3.419   0.781
41762SOL    HW225311   9.310   3.352   0.911
41763SOL     OW25312   7.669   3.176   1.844
41763SOL    HW125313   7.604   3.103   1.823
41763SOL    HW225314   7.673   3.190   1.942
41764SOL     OW25315   7.527   3.102   0.653
41764SOL    HW125316   7.526   3.055   0.741
41764SOL    HW225317   7.609   3.074   0.602
41765SOL     OW25318   8.120   3.253   1.624
41765SOL    HW125319   8.042   3.203   1.662
41765SOL    HW225320   8.117   3.348   1.655
41766SOL     OW25321   9.272   2.054   1.227
41766SOL    HW125322   9.268   1.964   1.271
41766SOL    HW225323   9.275   2.043   1.128
41767SOL     OW25324   7.876   2.286   0.520
41767SOL    HW125325   7.906   2.214   0.458
41767SOL    HW225326   7.837   2.246   0.603
41768SOL     OW25327   9.153   3.349   1.104
41768SOL    HW125328   9.060   3.324   1.077
41768SOL    HW225329   9.179   3.299   1.186
41769SOL     OW25330   7.765   2.409   1.280
41769SOL    HW125331   7.803   2.350   1.352
41769SOL    HW225332   7.805   2.383   1.192
41770SOL     OW25333   8.260   3.448   0.687
41770SOL    HW125334   8.292   3.458   0.593
41770SOL    HW225335   8.181   3.386   0.689
41771SOL     OW25336   8.872   2.076   1.112
41771SOL    HW125337   8.924   2.011   1.167
41771SOL    HW225338   8.823   2.139   1.173
41772SOL     OW25339   8.449   1.896   1.154
41772SOL    HW125340   8.386   1.824   1.123
41772SOL    HW225341   8.542   1.860   1.154
41773SOL     OW25342   8.218   3.192   0.301
41773SOL    HW125343   8.172   3.105   0.318
41773SOL    HW225344   8.309   3.189   0.342
41774SOL     OW25345   8.066   3.429   1.284
41774SOL    HW125346   8.061   3.511   1.341
41774SOL    HW225347   8.155   3.426   1.239
41775SOL     OW25348   8.800   1.914   0.168
41775SOL    HW125349   8.835   1.873   0.084
41775SOL    HW225350   8.710   1.876   0.188
41776SOL     OW25351   8.748   2.315   0.691
41776SOL    HW125352   8.689   2.395   0.695
41776SOL    HW225353   8.763   2.280   0.784
41777SOL     OW25354   9.041   2.083   0.882
41777SOL    HW125355   8.957   2.082   0.936
41777SOL    HW225356   9.043   2.166   0.826
41778SOL     OW25357   7.487   2.939   0.300
41778SOL    HW125358   7.586   2.928   0.291
41778SOL    HW225359   7.447   2.853   0.332
41779SOL     OW25360   8.323   3.508   0.337
41779SOL    HW125361   8.246   3.473   0.283
41779SOL    HW225362   8.291   3.579   0.399
41780SOL     OW25363   7.678   2.490   1.975
41780SOL    HW125364   7.585   2.488   2.012
41780SOL    HW225365   7.679   2.451   1.883
41781SOL     OW25366   7.673   2.137   2.858
41781SOL    HW125367   7.708   2.120   2.950
41781SOL    HW225368   7.585   2.092   2.846
41782SOL     OW25369   7.467   2.230   2.509
41782SOL    HW125370   7.385   2.273   2.548
41782SOL    HW225371   7.439   2.157   2.446
41783SOL     OW25372   8.017   3.137   3.027
41783SOL    HW125373   7.924   3.130   2.990
41783SOL    HW225374   8.028   3.226   3.071
41784SOL     OW25375   9.003   3.373   2.565
41784SOL    HW125376   8.946   3.357   2.646
41784SOL    HW225377   8.944   3.383   2.485
41785SOL     OW25378   8.583   2.565   2.579
41785SOL    HW125379   8.640   2.643   2.554
41785SOL    HW225380   8.523   2.591   2.655
41786SOL     OW25381   9.203   2.469   2.093
41786SOL    HW125382   9.191   2.456   1.994
41786SOL    HW225383   9.173   2.388   2.142
41787SOL     OW25384   8.216   3.006   2.885
41787SOL    HW125385   8.138   3.023   2.945
41787SOL    HW225386   8.250   3.093   2.849
41788SOL     OW25387   8.298   2.660   3.685
41788SOL    HW125388   8.294   2.736   3.750
41788SOL    HW225389   8.320   2.696   3.594
41789SOL     OW25390   8.133   2.874   2.527
41789SOL    HW125391   8.202   2.858   2.597
41789SOL    HW225392   8.060   2.931   2.565
41790SOL     OW25393   8.134   3.023   3.665
41790SOL    HW125394   8.194   3.102   3.679
41790SOL    HW225395   8.048   3.054   3.624
41791SOL     OW25396   7.783   3.297   2.923
41791SOL    HW125397   7.705   3.266   2.870
41791SOL    HW225398   7.841   3.355   2.866
41792SOL     OW25399   8.908   3.367   3.201
41792SOL    HW125400   8.932   3.461   3.227
41792SOL    HW225401   8.892   3.313   3.283
41793SOL     OW25402   7.886   2.254   3.361
41793SOL    HW125403   7.968   2.198   3.370
41793SOL    HW225404   7.805   2.196   3.365
41794SOL     OW25405   9.051   2.309   2.599
41794SOL    HW125406   8.977   2.355   2.549
41794SOL    HW225407   9.102   2.377   2.652
41795SOL     OW25408   7.679   3.575   2.345
41795SOL    HW125409   7.713   3.652   2.399
41795SOL    HW225410   7.723   3.575   2.255
41796SOL     OW25411   8.575   3.203   3.552
41796SOL    HW125412   8.622   3.203   3.640
41796SOL    HW225413   8.527   3.116   3.541
41797SOL     OW25414   7.678   3.296   2.400
41797SOL    HW125415   7.652   3.392   2.400
41797SOL    HW225416   7.607   3.242   2.445
41798SOL     OW25417   7.688   2.953   2.748
41798SOL    HW125418   7.702   2.869   2.800
41798SOL    HW225419   7.633   3.017   2.803
41799SOL     OW25420   8.068   3.648   3.301
41799SOL    HW125421   7.976   3.631   3.336
41799SOL    HW225422   8.096   3.740   3.327
41800SOL     OW25423   8.054   2.826   1.985
41800SOL    HW125424   8.061   2.910   1.931
41800SOL    HW225425   8.100   2.839   2.073
41801SOL     OW25426   9.042   1.976   3.342
41801SOL    HW125427   9.024   2.043   3.270
41801SOL    HW225428   9.039   2.022   3.431
41802SOL     OW25429   7.570   2.505   2.425
41802SOL    HW125430   7.525   2.417   2.442
41802SOL    HW225431   7.569   2.559   2.509
41803SOL     OW25432   9.290   3.629   2.221
41803SOL    HW125433   9.344   3.600   2.301
41803SOL    HW225434   9.320   3.719   2.192
41804SOL     OW25435   7.475   3.458   1.979
41804SOL    HW125436   7.456   3.362   2.000
41804SOL    HW225437   7.442   3.516   2.054
41805SOL     OW25438   9.137   2.784   2.474
41805SOL    HW125439   9.232   2.755   2.482
41805SOL    HW225440   9.129   2.849   2.399
41806SOL     OW25441   9.089   2.970   2.294
41806SOL    HW125442   9.175   2.972   2.242
41806SOL    HW225443   9.103   3.017   2.382
41807SOL     OW25444   7.561   2.599   3.459
41807SOL    HW125445   7.649   2.586   3.504
41807SOL    HW225446   7.548   2.696   3.437
41808SOL     OW25447   8.061   3.227   2.588
41808SOL    HW125448   8.012   3.140   2.597
41808SOL    HW225449   8.038   3.270   2.501
41809SOL     OW25450   8.741   3.090   3.285
41809SOL    HW125451   8.778   3.017   3.227
41809SOL    HW225452   8.793   3.095   3.370
41810SOL     OW25453   8.257   1.866   2.364
41810SOL    HW125454   8.297   1.957   2.355
41810SOL    HW225455   8.157   1.874   2.370
41811SOL     OW25456   7.645   2.838   3.126
41811SOL    HW125457   7.734   2.793   3.112
41811SOL    HW225458   7.572   2.773   3.107
41812SOL     OW25459   8.973   2.861   2.052
41812SOL    HW125460   8.910   2.785   2.065
41812SOL    HW225461   9.021   2.879   2.138
41813SOL     OW25462   8.635   3.654   3.478
41813SOL    HW125463   8.659   3.714   3.402
41813SOL    HW225464   8.642   3.559   3.448
41814SOL     OW25465   7.765   2.113   3.663
41814SOL    HW125466   7.836   2.184   3.669
41814SOL    HW225467   7.677   2.152   3.691
41815SOL     OW25468   8.914   3.279   2.815
41815SOL    HW125469   8.855   3.285   2.895
41815SOL    HW225470   8.899   3.191   2.769
41816SOL     OW25471   9.115   3.576   2.434
41816SOL    HW125472   9.074   3.553   2.346
41816SOL    HW225473   9.097   3.502   2.499
41817SOL     OW25474   8.046   2.591   2.132
41817SOL    HW125475   8.070   2.660   2.064
41817SOL    HW225476   7.968   2.624   2.186
41818SOL     OW25477   8.729   2.207   2.806
41818SOL    HW125478   8.643   2.157   2.793
41818SOL    HW225479   8.791   2.153   2.862
41819SOL     OW25480   9.024   3.524   2.169
41819SOL    HW125481   9.113   3.570   2.172
41819SOL    HW225482   9.003   3.500   2.074
41820SOL     OW25483   8.255   2.467   3.327
41820SOL    HW125484   8.208   2.464   3.416
41820SOL    HW225485   8.204   2.412   3.261
41821SOL     OW25486   8.842   2.331   3.536
41821SOL    HW125487   8.822   2.374   3.624
41821SOL    HW225488   8.920   2.269   3.545
41822SOL     OW25489   8.421   2.752   3.434
41822SOL    HW125490   8.467   2.668   3.405
41822SOL    HW225491   8.365   2.786   3.359
41823SOL     OW25492   8.439   2.272   3.104
41823SOL    HW125493   8.362   2.306   3.158
41823SOL    HW225494   8.405   2.221   3.025
41824SOL     OW25495   8.489   2.563   2.291
41824SOL    HW125496   8.515   2.559   2.387
41824SOL    HW225497   8.404   2.512   2.277
41825SOL     OW25498   7.524   2.673   2.651
41825SOL    HW125499   7.623   2.661   2.660
41825SOL    HW225500   7.500   2.768   2.672
41826SOL     OW25501   7.578   3.683   3.433
41826SOL    HW125502   7.568   3.668   3.532
41826SOL    HW225503   7.492   3.719   3.397
41827SOL     OW25504   8.313   2.210   2.057
41827SOL    HW125505   8.372   2.273   2.008
41827SOL    HW225506   8.332   2.116   2.028
41828SOL     OW25507   9.167   2.447   3.693
41828SOL    HW125508   9.141   2.536   3.657
41828SOL    HW225509   9.165   2.379   3.620
41829SOL     OW25510   8.810   3.006   2.407
41829SOL    HW125511   8.893   2.977   2.359
41829SOL    HW225512   8.761   3.073   2.351
41830SOL     OW25513   7.998   2.058   2.747
41830SOL    HW125514   7.993   2.053   2.847
41830SOL    HW225515   8.000   2.154   2.718
41831SOL     OW25516   8.456   3.318   2.339
41831SOL    HW125517   8.410   3.390   2.287
41831SOL    HW225518   8.452   3.338   2.437
41832SOL     OW25519   7.799   3.663   2.715
41832SOL    HW125520   7.849   3.577   2.721
41832SOL    HW225521   7.864   3.740   2.712
41833SOL     OW25522   9.243   2.928   2.735
41833SOL    HW125523   9.181   2.913   2.659
41833SOL    HW225524   9.191   2.939   2.820
41834SOL     OW25525   8.675   3.412   3.368
41834SOL    HW125526   8.681   3.335   3.432
41834SOL    HW225527   8.623   3.386   3.288
41835SOL     OW25528   7.769   2.805   2.104
41835SOL    HW125529   7.851   2.844   2.062
41835SOL    HW225530   7.742   2.723   2.055
41836SOL     OW25531   8.906   2.597   2.590
41836SOL    HW125532   8.901   2.532   2.665
41836SOL    HW225533   8.986   2.656   2.603
41837SOL     OW25534   7.909   3.128   3.589
41837SOL    HW125535   7.859   3.129   3.503
41837SOL    HW225536   7.846   3.110   3.665
41838SOL     OW25537   8.559   3.638   2.099
41838SOL    HW125538   8.499   3.576   2.149
41838SOL    HW225539   8.590   3.594   2.014
41839SOL     OW25540   7.650   2.147   3.360
41839SOL    HW125541   7.570   2.207   3.347
41839SOL    HW225542   7.640   2.098   3.446
41840SOL     OW25543   9.080   3.239   1.943
41840SOL    HW125544   9.048   3.333   1.933
41840SOL    HW225545   9.004   3.176   1.931
41841SOL     OW25546   7.912   3.605   2.185
41841SOL    HW125547   7.945   3.644   2.271
41841SOL    HW225548   7.988   3.598   2.120
41842SOL     OW25549   8.848   1.969   2.288
41842SOL    HW125550   8.824   1.932   2.198
41842SOL    HW225551   8.947   1.985   2.292
41843SOL     OW25552   7.697   3.647   3.103
41843SOL    HW125553   7.754   3.582   3.153
41843SOL    HW225554   7.681   3.614   3.010
41844SOL     OW25555   8.388   3.560   2.766
41844SOL    HW125556   8.468   3.503   2.787
41844SOL    HW225557   8.339   3.520   2.689
41845SOL     OW25558   7.830   2.562   2.342
41845SOL    HW125559   7.875   2.472   2.339
41845SOL    HW225560   7.736   2.551   2.375
41846SOL     OW25561   8.995   2.084   3.591
41846SOL    HW125562   8.990   2.121   3.683
41846SOL    HW225563   8.923   2.015   3.579
41847SOL     OW25564   8.062   1.984   1.979
41847SOL    HW125565   8.160   1.962   1.986
41847SOL    HW225566   8.031   1.967   1.886
41848SOL     OW25567   8.229   2.126   3.611
41848SOL    HW125568   8.296   2.065   3.654
41848SOL    HW225569   8.156   2.145   3.676
41849SOL     OW25570   8.336   3.376   3.057
41849SOL    HW125571   8.313   3.351   2.963
41849SOL    HW225572   8.397   3.307   3.096
41850SOL     OW25573   8.799   2.452   3.295
41850SOL    HW125574   8.827   2.409   3.380
41850SOL    HW225575   8.824   2.548   3.296
41851SOL     OW25576   8.251   3.264   2.786
41851SOL    HW125577   8.341   3.278   2.744
41851SOL    HW225578   8.180   3.266   2.715
41852SOL     OW25579   8.370   2.365   2.761
41852SOL    HW125580   8.345   2.356   2.665
41852SOL    HW225581   8.418   2.283   2.792
41853SOL     OW25582   7.987   1.926   2.374
41853SOL    HW125583   7.906   1.927   2.432
41853SOL    HW225584   7.990   2.009   2.319
41854SOL     OW25585   8.882   3.050   1.903
41854SOL    HW125586   8.914   2.974   1.960
41854SOL    HW225587   8.790   3.077   1.933
41855SOL     OW25588   7.745   1.897   2.033
41855SOL    HW125589   7.794   1.981   2.012
41855SOL    HW225590   7.807   1.832   2.078
41856SOL     OW25591   8.383   2.098   2.342
41856SOL    HW125592   8.335   2.139   2.264
41856SOL    HW225593   8.482   2.096   2.323
41857SOL     OW25594   8.524   2.545   3.326
41857SOL    HW125595   8.444   2.484   3.329
41857SOL    HW225596   8.605   2.492   3.302
41858SOL     OW25597   8.675   3.432   2.655
41858SOL    HW125598   8.696   3.506   2.590
41858SOL    HW225599   8.743   3.432   2.728
41859SOL     OW25600   7.907   3.014   2.603
41859SOL    HW125601   7.836   2.987   2.668
41859SOL    HW225602   7.881   2.986   2.510
41860SOL     OW25603   8.719   3.659   2.453
41860SOL    HW125604   8.763   3.723   2.389
41860SOL    HW225605   8.669   3.711   2.523
41861SOL     OW25606   8.480   2.411   1.878
41861SOL    HW125607   8.439   2.493   1.839
41861SOL    HW225608   8.544   2.437   1.951
41862SOL     OW25609   7.526   2.418   3.248
41862SOL    HW125610   7.618   2.417   3.207
41862SOL    HW225611   7.520   2.492   3.315
41863SOL     OW25612   8.009   2.084   3.009
41863SOL    HW125613   8.047   2.000   3.046
41863SOL    HW225614   7.921   2.103   3.053
41864SOL     OW25615   8.314   2.316   2.504
41864SOL    HW125616   8.282   2.388   2.442
41864SOL    HW225617   8.338   2.235   2.451
41865SOL     OW25618   8.465   1.901   2.615
41865SOL    HW125619   8.393   1.906   2.546
41865SOL    HW225620   8.441   1.832   2.684
41866SOL     OW25621   8.877   3.035   2.729
41866SOL    HW125622   8.822   2.951   2.722
41866SOL    HW225623   8.903   3.064   2.637
41867SOL     OW25624   8.914   2.452   2.854
41867SOL    HW125625   8.884   2.357   2.861
41867SOL    HW225626   8.987   2.468   2.920
41868SOL     OW25627   9.305   2.695   2.239
41868SOL    HW125628   9.347   2.631   2.303
41868SOL    HW225629   9.267   2.644   2.161
41869SOL     OW25630   7.936   3.247   2.036
41869SOL    HW125631   7.849   3.232   2.083
41869SOL    HW225632   7.919   3.273   1.941
41870SOL     OW25633   9.112   3.142   2.519
41870SOL    HW125634   9.211   3.150   2.533
41870SOL    HW225635   9.067   3.226   2.550
41871SOL     OW25636   8.838   2.437   1.940
41871SOL    HW125637   8.784   2.416   2.021
41871SOL    HW225638   8.929   2.396   1.949
41872SOL     OW25639   7.975   2.118   2.190
41872SOL    HW125640   8.002   2.059   2.115
41872SOL    HW225641   7.975   2.213   2.159
41873SOL     OW25642   9.202   3.085   3.450
41873SOL    HW125643   9.293   3.046   3.437
41873SOL    HW225644   9.210   3.181   3.474
41874SOL     OW25645   8.512   3.209   3.202
41874SOL    HW125646   8.432   3.186   3.257
41874SOL    HW225647   8.595   3.183   3.251
41875SOL     OW25648   9.040   3.491   3.487
41875SOL    HW125649   9.067   3.525   3.397
41875SOL    HW225650   9.119   3.453   3.533
41876SOL     OW25651   8.559   3.057   2.962
41876SOL    HW125652   8.519   3.101   3.043
41876SOL    HW225653   8.518   3.094   2.879
41877SOL     OW25654   9.086   2.961   2.941
41877SOL    HW125655   9.091   3.042   3.000
41877SOL    HW225656   9.000   2.963   2.890
41878SOL     OW25657   8.363   1.951   3.264
41878SOL    HW125658   8.388   1.931   3.169
41878SOL    HW225659   8.435   2.007   3.306
41879SOL     OW25660   8.428   2.978   3.581
41879SOL    HW125661   8.329   2.984   3.591
41879SOL    HW225662   8.451   2.898   3.525
41880SOL     OW25663   8.153   2.912   2.230
41880SOL    HW125664   8.139   2.919   2.329
41880SOL    HW225665   8.237   2.861   2.212
41881SOL     OW25666   7.858   2.675   3.113
41881SOL    HW125667   7.944   2.687   3.163
41881SOL    HW225668   7.816   2.588   3.140
41882SOL     OW25669   8.722   2.248   3.124
41882SOL    HW125670   8.743   2.322   3.188
41882SOL    HW225671   8.633   2.265   3.081
41883SOL     OW25672   7.512   3.426   3.193
41883SOL    HW125673   7.466   3.508   3.159
41883SOL    HW225674   7.610   3.445   3.202
41884SOL     OW25675   7.815   2.962   2.363
41884SOL    HW125676   7.808   3.045   2.307
41884SOL    HW225677   7.819   2.882   2.303
41885SOL     OW25678   8.014   2.399   2.727
41885SOL    HW125679   8.026   2.465   2.653
41885SOL    HW225680   8.060   2.433   2.810
41886SOL     OW25681   8.700   3.210   2.250
41886SOL    HW125682   8.750   3.287   2.290
41886SOL    HW225683   8.605   3.212   2.282
41887SOL     OW25684   8.720   3.307   3.004
41887SOL    HW125685   8.767   3.320   3.091
41887SOL    HW225686   8.654   3.233   3.013
41888SOL     OW25687   9.030   2.501   2.334
41888SOL    HW125688   8.999   2.562   2.407
41888SOL    HW225689   9.080   2.553   2.265
41889SOL     OW25690   7.802   3.372   3.191
41889SOL    HW125691   7.781   3.328   3.104
41889SOL    HW225692   7.899   3.398   3.194
41890SOL     OW25693   7.850   2.613   3.460
41890SOL    HW125694   7.918   2.668   3.413
41890SOL    HW225695   7.890   2.525   3.487
41891SOL     OW25696   9.035   2.641   3.532
41891SOL    HW125697   8.943   2.679   3.527
41891SOL    HW225698   9.095   2.688   3.467
41892SOL     OW25699   8.461   1.967   3.632
41892SOL    HW125700   8.467   2.052   3.580
41892SOL    HW225701   8.493   1.891   3.575
41893SOL     OW25702   7.952   1.912   3.602
41893SOL    HW125703   7.910   1.855   3.532
41893SOL    HW225704   7.886   1.981   3.634
41894SOL     OW25705   8.021   2.732   2.891
41894SOL    HW125706   8.065   2.821   2.882
41894SOL    HW225707   7.958   2.732   2.968
41895SOL     OW25708   8.808   2.724   2.907
41895SOL    HW125709   8.733   2.724   2.841
41895SOL    HW225710   8.845   2.632   2.916
41896SOL     OW25711   8.657   2.387   2.137
41896SOL    HW125712   8.670   2.303   2.191
41896SOL    HW225713   8.628   2.461   2.197
41897SOL     OW25714   7.755   2.075   3.093
41897SOL    HW125715   7.732   2.112   3.183
41897SOL    HW225716   7.725   1.980   3.087
41898SOL     OW25717   7.485   3.172   3.144
41898SOL    HW125718   7.538   3.123   3.212
41898SOL    HW225719   7.507   3.270   3.149
41899SOL     OW25720   8.180   2.496   2.926
41899SOL    HW125721   8.239   2.470   2.850
41899SOL    HW225722   8.152   2.592   2.915
41900SOL     OW25723   9.176   2.797   3.716
41900SOL    HW125724   9.130   2.790   3.627
41900SOL    HW225725   9.114   2.841   3.782
41901SOL     OW25726   7.755   1.925   2.480
41901SOL    HW125727   7.744   2.019   2.513
41901SOL    HW225728   7.750   1.862   2.557
41902SOL     OW25729   9.070   2.229   2.236
41902SOL    HW125730   9.072   2.153   2.300
41902SOL    HW225731   9.022   2.306   2.276
41903SOL     OW25732   8.471   2.628   2.828
41903SOL    HW125733   8.486   2.649   2.924
41903SOL    HW225734   8.441   2.533   2.819
41904SOL     OW25735   8.428   3.435   3.562
41904SOL    HW125736   8.408   3.479   3.474
41904SOL    HW225737   8.467   3.344   3.546
41905SOL     OW25738   9.307   3.380   3.467
41905SOL    HW125739   9.321   3.407   3.372
41905SOL    HW225740   9.390   3.402   3.520
41906SOL     OW25741   7.798   2.760   3.666
41906SOL    HW125742   7.874   2.804   3.714
41906SOL    HW225743   7.833   2.713   3.584
41907SOL     OW25744   8.988   2.136   1.987
41907SOL    HW125745   8.927   2.061   2.010
41907SOL    HW225746   9.010   2.188   2.070
41908SOL     OW25747   8.751   2.700   1.904
41908SOL    HW125748   8.785   2.607   1.919
41908SOL    HW225749   8.769   2.727   1.809
41909SOL     OW25750   8.516   3.195   2.711
41909SOL    HW125751   8.523   3.111   2.656
41909SOL    HW225752   8.578   3.264   2.675
41910SOL     OW25753   7.767   2.672   2.811
41910SOL    HW125754   7.860   2.708   2.816
41910SOL    HW225755   7.761   2.587   2.863
41911SOL     OW25756   7.787   2.371   2.868
41911SOL    HW125757   7.735   2.288   2.851
41911SOL    HW225758   7.864   2.376   2.804
41912SOL     OW25759   8.586   2.242   3.540
41912SOL    HW125760   8.541   2.305   3.604
41912SOL    HW225761   8.679   2.273   3.523
41913SOL     OW25762   8.608   2.069   3.339
41913SOL    HW125763   8.608   2.133   3.416
41913SOL    HW225764   8.636   2.117   3.256
41914SOL     OW25765   7.456   3.188   2.062
41914SOL    HW125766   7.363   3.209   2.031
41914SOL    HW225767   7.466   3.089   2.075
41915SOL     OW25768   7.536   3.663   2.789
41915SOL    HW125769   7.494   3.577   2.762
41915SOL    HW225770   7.630   3.666   2.755
41916SOL     OW25771   7.952   3.430   2.772
41916SOL    HW125772   8.018   3.504   2.781
41916SOL    HW225773   7.996   3.351   2.730
41917SOL     OW25774   8.450   2.658   3.100
41917SOL    HW125775   8.491   2.626   3.186
41917SOL    HW225776   8.354   2.631   3.097
41918SOL     OW25777   7.488   2.406   2.976
41918SOL    HW125778   7.573   2.373   2.935
41918SOL    HW225779   7.501   2.421   3.074
41919SOL     OW25780   7.637   2.382   3.584
41919SOL    HW125781   7.696   2.342   3.514
41919SOL    HW225782   7.579   2.453   3.543
41920SOL     OW25783   8.817   2.812   3.522
41920SOL    HW125784   8.856   2.901   3.542
41920SOL    HW225785   8.827   2.792   3.425
41921SOL     OW25786   8.263   2.434   2.187
41921SOL    HW125787   8.270   2.345   2.141
41921SOL    HW225788   8.169   2.468   2.179
41922SOL     OW25789   9.105   2.466   3.068
41922SOL    HW125790   9.067   2.397   3.130
41922SOL    HW225791   9.187   2.430   3.024
41923SOL     OW25792   7.700   3.426   3.606
41923SOL    HW125793   7.670   3.483   3.682
41923SOL    HW225794   7.693   3.329   3.632
41924SOL     OW25795   8.119   2.326   3.131
41924SOL    HW125796   8.085   2.237   3.101
41924SOL    HW225797   8.145   2.380   3.051
41925SOL     OW25798   8.378   3.540   3.327
41925SOL    HW125799   8.354   3.522   3.232
41925SOL    HW225800   8.408   3.634   3.337
41926SOL     OW25801   7.921   2.362   2.053
41926SOL    HW125802   7.982   2.442   2.057
41926SOL    HW225803   7.826   2.393   2.060
41927SOL     OW25804   7.607   2.999   3.328
41927SOL    HW125805   7.629   2.938   3.404
41927SOL    HW225806   7.617   2.950   3.242
41928SOL     OW25807   8.795   2.921   3.096
41928SOL    HW125808   8.819   2.858   3.022
41928SOL    HW225809   8.705   2.961   3.078
41929SOL     OW25810   8.750   2.717   2.171
41929SOL    HW125811   8.664   2.686   2.213
41929SOL    HW225812   8.746   2.703   2.072
41930SOL     OW25813   9.207   3.609   3.016
41930SOL    HW125814   9.268   3.639   2.943
41930SOL    HW225815   9.169   3.520   2.994
41931SOL     OW25816   8.700   3.593   2.990
41931SOL    HW125817   8.784   3.598   2.936
41931SOL    HW225818   8.677   3.497   3.008
41932SOL     OW25819   7.531   3.120   2.884
41932SOL    HW125820   7.526   3.119   2.984
41932SOL    HW225821   7.448   3.079   2.846
41933SOL     OW25822   8.136   3.524   3.578
41933SOL    HW125823   8.080   3.605   3.587
41933SOL    HW225824   8.188   3.528   3.492
41934SOL     OW25825   9.174   1.997   2.385
41934SOL    HW125826   9.247   1.980   2.318
41934SOL    HW225827   9.143   1.910   2.423
41935SOL     OW25828   8.836   3.435   2.339
41935SOL    HW125829   8.903   3.447   2.265
41935SOL    HW225830   8.796   3.524   2.362
41936SOL     OW25831   7.578   3.656   3.713
41936SOL    HW125832   7.537   3.582   3.766
41936SOL    HW225833   7.642   3.707   3.771
41937SOL     OW25834   8.728   2.789   2.534
41937SOL    HW125835   8.788   2.708   2.536
41937SOL    HW225836   8.768   2.858   2.474
41938SOL     OW25837   8.278   3.135   3.284
41938SOL    HW125838   8.273   3.168   3.379
41938SOL    HW225839   8.192   3.154   3.238
41939SOL     OW25840   8.120   3.478   2.016
41939SOL    HW125841   8.129   3.488   1.917
41939SOL    HW225842   8.080   3.389   2.037
41940SOL     OW25843   9.098   3.582   3.256
41940SOL    HW125844   9.151   3.592   3.172
41940SOL    HW225845   9.071   3.672   3.290
41941SOL     OW25846   9.289   2.037   2.825
41941SOL    HW125847   9.328   1.952   2.789
41941SOL    HW225848   9.191   2.039   2.806
41942SOL     OW25849   7.711   2.188   2.582
41942SOL    HW125850   7.632   2.239   2.548
41942SOL    HW225851   7.702   2.173   2.680
41943SOL     OW25852   8.642   3.474   1.893
41943SOL    HW125853   8.648   3.381   1.930
41943SOL    HW225854   8.583   3.474   1.813
41944SOL     OW25855   8.270   2.864   3.234
41944SOL    HW125856   8.310   2.863   3.142
41944SOL    HW225857   8.280   2.956   3.274
41945SOL     OW25858   8.364   2.772   2.153
41945SOL    HW125859   8.427   2.810   2.085
41945SOL    HW225860   8.404   2.689   2.192
41946SOL     OW25861   8.952   3.469   1.906
41946SOL    HW125862   8.860   3.506   1.913
41946SOL    HW225863   8.990   3.489   1.816
41947SOL     OW25864   7.820   3.150   3.352
41947SOL    HW125865   7.807   3.243   3.318
41947SOL    HW225866   7.736   3.098   3.339
41948SOL     OW25867   9.062   3.154   3.151
41948SOL    HW125868   9.122   3.157   3.231
41948SOL    HW225869   8.987   3.218   3.164
41949SOL     OW25870   8.487   2.960   2.558
41949SOL    HW125871   8.417   2.913   2.612
41949SOL    HW225872   8.546   2.892   2.515
41950SOL     OW25873   8.462   2.098   2.833
41950SOL    HW125874   8.454   2.062   2.740
41950SOL    HW225875   8.460   2.022   2.898
41951SOL     OW25876   8.038   3.349   2.353
41951SOL    HW125877   8.080   3.291   2.283
41951SOL    HW225878   7.994   3.428   2.309
41952SOL     OW25879   9.157   2.247   3.243
41952SOL    HW125880   9.230   2.316   3.247
41952SOL    HW225881   9.185   2.172   3.184
41953SOL     OW25882   7.703   3.210   2.152
41953SOL    HW125883   7.607   3.211   2.125
41953SOL    HW225884   7.715   3.263   2.236
41954SOL     OW25885   7.553   2.875   3.588
41954SOL    HW125886   7.476   2.842   3.642
41954SOL    HW225887   7.638   2.845   3.630
41955SOL     OW25888   8.120   2.065   3.351
41955SOL    HW125889   8.210   2.049   3.311
41955SOL    HW225890   8.128   2.070   3.450
41956SOL     OW25891   7.523   2.207   1.895
41956SOL    HW125892   7.431   2.179   1.866
41956SOL    HW225893   7.554   2.284   1.839
41957SOL     OW25894   8.888   2.718   3.260
41957SOL    HW125895   8.831   2.770   3.197
41957SOL    HW225896   8.984   2.730   3.236
41958SOL     OW25897   7.520   2.028   2.180
41958SOL    HW125898   7.503   2.111   2.126
41958SOL    HW225899   7.610   1.991   2.158
41959SOL     OW25900   8.631   3.197   1.981
41959SOL    HW125901   8.532   3.186   1.983
41959SOL    HW225902   8.665   3.212   2.074
41960SOL     OW25903   8.061   2.704   3.293
41960SOL    HW125904   8.117   2.785   3.276
41960SOL    HW225905   8.120   2.624   3.296
41961SOL     OW25906   8.941   3.629   2.821
41961SOL    HW125907   8.974   3.693   2.752
41961SOL    HW225908   9.007   3.623   2.896
41962SOL     OW25909   8.164   2.427   3.570
41962SOL    HW125910   8.183   2.492   3.644
41962SOL    HW225911   8.224   2.347   3.579
41963SOL     OW25912   8.898   3.082   3.495
41963SOL    HW125913   8.889   3.072   3.594
41963SOL    HW225914   8.994   3.075   3.469
41964SOL     OW25915   7.838   3.603   3.422
41964SOL    HW125916   7.747   3.644   3.420
41964SOL    HW225917   7.831   3.509   3.454
41965SOL     OW25918   9.122   2.745   3.116
41965SOL    HW125919   9.095   2.656   3.079
41965SOL    HW225920   9.123   2.813   3.043
41966SOL     OW25921   8.673   2.187   2.311
41966SOL    HW125922   8.738   2.113   2.300
41966SOL    HW225923   8.693   2.237   2.395
41967SOL     OW25924   8.042   2.607   2.514
41967SOL    HW125925   8.092   2.692   2.495
41967SOL    HW225926   7.954   2.609   2.466
41968SOL     OW25927   9.225   2.204   3.504
41968SOL    HW125928   9.208   2.235   3.410
41968SOL    HW225929   9.141   2.167   3.542
41969SOL     OW25930   9.178   2.796   3.379
41969SOL    HW125931   9.216   2.887   3.394
41969SOL    HW225932   9.170   2.779   3.280
41970SOL     OW25933   8.307   3.236   1.878
41970SOL    HW125934   8.261   3.251   1.966
41970SOL    HW225935   8.351   3.321   1.848
41971SOL     OW25936   8.109   3.652   2.815
41971SOL    HW125937   8.063   3.740   2.802
41971SOL    HW225938   8.208   3.664   2.808
41972SOL     OW25939   8.307   2.818   2.723
41972SOL    HW125940   8.361   2.749   2.771
41972SOL    HW225941   8.275   2.887   2.789
41973SOL     OW25942   8.531   2.846   1.949
41973SOL    HW125943   8.508   2.899   1.867
41973SOL    HW225944   8.612   2.790   1.930
41974SOL     OW25945   9.309   3.431   2.713
41974SOL    HW125946   9.238   3.419   2.643
41974SOL    HW225947   9.310   3.352   2.773
41975SOL     OW25948   7.669   3.176   3.706
41975SOL    HW125949   7.604   3.103   3.685
41975SOL    HW225950   7.673   3.190   3.804
41976SOL     OW25951   7.527   3.102   2.515
41976SOL    HW125952   7.526   3.055   2.603
41976SOL    HW225953   7.609   3.074   2.464
41977SOL     OW25954   8.120   3.253   3.486
41977SOL    HW125955   8.042   3.203   3.524
41977SOL    HW225956   8.117   3.348   3.517
41978SOL     OW25957   9.272   2.054   3.089
41978SOL    HW125958   9.268   1.964   3.133
41978SOL    HW225959   9.275   2.043   2.990
41979SOL     OW25960   7.876   2.286   2.382
41979SOL    HW125961   7.906   2.214   2.320
41979SOL    HW225962   7.837   2.246   2.465
41980SOL     OW25963   9.153   3.349   2.966
41980SOL    HW125964   9.060   3.324   2.939
41980SOL    HW225965   9.179   3.299   3.048
41981SOL     OW25966   7.765   2.409   3.142
41981SOL    HW125967   7.803   2.350   3.214
41981SOL    HW225968   7.805   2.383   3.054
41982SOL     OW25969   8.260   3.448   2.549
41982SOL    HW125970   8.292   3.458   2.455
41982SOL    HW225971   8.181   3.386   2.551
41983SOL     OW25972   8.872   2.076   2.974
41983SOL    HW125973   8.924   2.011   3.029
41983SOL    HW225974   8.823   2.139   3.035
41984SOL     OW25975   8.449   1.896   3.016
41984SOL    HW125976   8.386   1.824   2.985
41984SOL    HW225977   8.542   1.860   3.016
41985SOL     OW25978   8.218   3.192   2.163
41985SOL    HW125979   8.172   3.105   2.180
41985SOL    HW225980   8.309   3.189   2.204
41986SOL     OW25981   8.066   3.429   3.146
41986SOL    HW125982   8.061   3.511   3.203
41986SOL    HW225983   8.155   3.426   3.101
41987SOL     OW25984   8.800   1.914   2.030
41987SOL    HW125985   8.835   1.873   1.946
41987SOL    HW225986   8.710   1.876   2.050
41988SOL     OW25987   8.748   2.315   2.553
41988SOL    HW125988   8.689   2.395   2.557
41988SOL    HW225989   8.763   2.280   2.646
41989SOL     OW25990   9.041   2.083   2.744
41989SOL    HW125991   8.957   2.082   2.798
41989SOL    HW225992   9.043   2.166   2.688
41990SOL     OW25993   7.487   2.939   2.162
41990SOL    HW125994   7.586   2.928   2.153
41990SOL    HW225995   7.447   2.853   2.194
41991SOL     OW25996   8.323   3.508   2.199
41991SOL    HW125997   8.246   3.473   2.145
41991SOL    HW225998   8.291   3.579   2.261
41992SOL     OW25999   7.678   2.490   3.837
41992SOL    HW126000   7.585   2.488   3.874
41992SOL    HW226001   7.679   2.451   3.745
41993SOL     OW26002   7.673   2.137   4.720
41993SOL    HW126003   7.708   2.120   4.812
41993SOL    HW226004   7.585   2.092   4.708
41994SOL     OW26005   7.467   2.230   4.371
41994SOL    HW126006   7.385   2.273   4.410
41994SOL    HW226007   7.439   2.157   4.308
41995SOL     OW26008   8.017   3.137   4.889
41995SOL    HW126009   7.924   3.130   4.852
41995SOL    HW226010   8.028   3.226   4.933
41996SOL     OW26011   9.003   3.373   4.427
41996SOL    HW126012   8.946   3.357   4.508
41996SOL    HW226013   8.944   3.383   4.347
41997SOL     OW26014   8.583   2.565   4.441
41997SOL    HW126015   8.640   2.643   4.416
41997SOL    HW226016   8.523   2.591   4.517
41998SOL     OW26017   9.203   2.469   3.955
41998SOL    HW126018   9.191   2.456   3.856
41998SOL    HW226019   9.173   2.388   4.004
41999SOL     OW26020   8.216   3.006   4.747
41999SOL    HW126021   8.138   3.023   4.807
41999SOL    HW226022   8.250   3.093   4.711
42000SOL     OW26023   8.298   2.660   5.547
42000SOL    HW126024   8.294   2.736   5.612
42000SOL    HW226025   8.320   2.696   5.456
42001SOL     OW26026   8.133   2.874   4.389
42001SOL    HW126027   8.202   2.858   4.459
42001SOL    HW226028   8.060   2.931   4.427
42002SOL     OW26029   8.134   3.023   5.527
42002SOL    HW126030   8.194   3.102   5.541
42002SOL    HW226031   8.048   3.054   5.486
42003SOL     OW26032   7.783   3.297   4.785
42003SOL    HW126033   7.705   3.266   4.732
42003SOL    HW226034   7.841   3.355   4.728
42004SOL     OW26035   8.908   3.367   5.063
42004SOL    HW126036   8.932   3.461   5.089
42004SOL    HW226037   8.892   3.313   5.145
42005SOL     OW26038   7.886   2.254   5.223
42005SOL    HW126039   7.968   2.198   5.232
42005SOL    HW226040   7.805   2.196   5.227
42006SOL     OW26041   9.051   2.309   4.461
42006SOL    HW126042   8.977   2.355   4.411
42006SOL    HW226043   9.102   2.377   4.514
42007SOL     OW26044   7.679   3.575   4.207
42007SOL    HW126045   7.713   3.652   4.261
42007SOL    HW226046   7.723   3.575   4.117
42008SOL     OW26047   8.575   3.203   5.414
42008SOL    HW126048   8.622   3.203   5.502
42008SOL    HW226049   8.527   3.116   5.403
42009SOL     OW26050   7.678   3.296   4.262
42009SOL    HW126051   7.652   3.392   4.262
42009SOL    HW226052   7.607   3.242   4.307
42010SOL     OW26053   7.688   2.953   4.610
42010SOL    HW126054   7.702   2.869   4.662
42010SOL    HW226055   7.633   3.017   4.665
42011SOL     OW26056   8.068   3.648   5.163
42011SOL    HW126057   7.976   3.631   5.198
42011SOL    HW226058   8.096   3.740   5.189
42012SOL     OW26059   8.054   2.826   3.847
42012SOL    HW126060   8.061   2.910   3.793
42012SOL    HW226061   8.100   2.839   3.935
42013SOL     OW26062   9.042   1.976   5.204
42013SOL    HW126063   9.024   2.043   5.132
42013SOL    HW226064   9.039   2.022   5.293
42014SOL     OW26065   7.570   2.505   4.287
42014SOL    HW126066   7.525   2.417   4.304
42014SOL    HW226067   7.569   2.559   4.371
42015SOL     OW26068   9.290   3.629   4.083
42015SOL    HW126069   9.344   3.600   4.163
42015SOL    HW226070   9.320   3.719   4.054
42016SOL     OW26071   7.475   3.458   3.841
42016SOL    HW126072   7.456   3.362   3.862
42016SOL    HW226073   7.442   3.516   3.916
42017SOL     OW26074   9.137   2.784   4.336
42017SOL    HW126075   9.232   2.755   4.344
42017SOL    HW226076   9.129   2.849   4.261
42018SOL     OW26077   9.089   2.970   4.156
42018SOL    HW126078   9.175   2.972   4.104
42018SOL    HW226079   9.103   3.017   4.244
42019SOL     OW26080   7.561   2.599   5.321
42019SOL    HW126081   7.649   2.586   5.366
42019SOL    HW226082   7.548   2.696   5.299
42020SOL     OW26083   8.061   3.227   4.450
42020SOL    HW126084   8.012   3.140   4.459
42020SOL    HW226085   8.038   3.270   4.363
42021SOL     OW26086   8.741   3.090   5.147
42021SOL    HW126087   8.778   3.017   5.089
42021SOL    HW226088   8.793   3.095   5.232
42022SOL     OW26089   8.257   1.866   4.226
42022SOL    HW126090   8.297   1.957   4.217
42022SOL    HW226091   8.157   1.874   4.232
42023SOL     OW26092   7.645   2.838   4.988
42023SOL    HW126093   7.734   2.793   4.974
42023SOL    HW226094   7.572   2.773   4.969
42024SOL     OW26095   8.973   2.861   3.914
42024SOL    HW126096   8.910   2.785   3.927
42024SOL    HW226097   9.021   2.879   4.000
42025SOL     OW26098   8.635   3.654   5.340
42025SOL    HW126099   8.659   3.714   5.264
42025SOL    HW226100   8.642   3.559   5.310
42026SOL     OW26101   7.765   2.113   5.525
42026SOL    HW126102   7.836   2.184   5.531
42026SOL    HW226103   7.677   2.152   5.553
42027SOL     OW26104   8.914   3.279   4.677
42027SOL    HW126105   8.855   3.285   4.757
42027SOL    HW226106   8.899   3.191   4.631
42028SOL     OW26107   9.115   3.576   4.296
42028SOL    HW126108   9.074   3.553   4.208
42028SOL    HW226109   9.097   3.502   4.361
42029SOL     OW26110   8.046   2.591   3.994
42029SOL    HW126111   8.070   2.660   3.926
42029SOL    HW226112   7.968   2.624   4.048
42030SOL     OW26113   8.729   2.207   4.668
42030SOL    HW126114   8.643   2.157   4.655
42030SOL    HW226115   8.791   2.153   4.724
42031SOL     OW26116   9.024   3.524   4.031
42031SOL    HW126117   9.113   3.570   4.034
42031SOL    HW226118   9.003   3.500   3.936
42032SOL     OW26119   8.255   2.467   5.189
42032SOL    HW126120   8.208   2.464   5.278
42032SOL    HW226121   8.204   2.412   5.123
42033SOL     OW26122   8.842   2.331   5.398
42033SOL    HW126123   8.822   2.374   5.486
42033SOL    HW226124   8.920   2.269   5.407
42034SOL     OW26125   8.421   2.752   5.296
42034SOL    HW126126   8.467   2.668   5.267
42034SOL    HW226127   8.365   2.786   5.221
42035SOL     OW26128   8.439   2.272   4.966
42035SOL    HW126129   8.362   2.306   5.020
42035SOL    HW226130   8.405   2.221   4.887
42036SOL     OW26131   8.489   2.563   4.153
42036SOL    HW126132   8.515   2.559   4.249
42036SOL    HW226133   8.404   2.512   4.139
42037SOL     OW26134   7.524   2.673   4.513
42037SOL    HW126135   7.623   2.661   4.522
42037SOL    HW226136   7.500   2.768   4.534
42038SOL     OW26137   7.578   3.683   5.295
42038SOL    HW126138   7.568   3.668   5.394
42038SOL    HW226139   7.492   3.719   5.259
42039SOL     OW26140   8.313   2.210   3.919
42039SOL    HW126141   8.372   2.273   3.870
42039SOL    HW226142   8.332   2.116   3.890
42040SOL     OW26143   9.167   2.447   5.555
42040SOL    HW126144   9.141   2.536   5.519
42040SOL    HW226145   9.165   2.379   5.482
42041SOL     OW26146   8.810   3.006   4.269
42041SOL    HW126147   8.893   2.977   4.221
42041SOL    HW226148   8.761   3.073   4.213
42042SOL     OW26149   7.998   2.058   4.609
42042SOL    HW126150   7.993   2.053   4.709
42042SOL    HW226151   8.000   2.154   4.580
42043SOL     OW26152   8.456   3.318   4.201
42043SOL    HW126153   8.410   3.390   4.149
42043SOL    HW226154   8.452   3.338   4.299
42044SOL     OW26155   7.799   3.663   4.577
42044SOL    HW126156   7.849   3.577   4.583
42044SOL    HW226157   7.864   3.740   4.574
42045SOL     OW26158   9.243   2.928   4.597
42045SOL    HW126159   9.181   2.913   4.521
42045SOL    HW226160   9.191   2.939   4.682
42046SOL     OW26161   8.675   3.412   5.230
42046SOL    HW126162   8.681   3.335   5.294
42046SOL    HW226163   8.623   3.386   5.150
42047SOL     OW26164   7.769   2.805   3.966
42047SOL    HW126165   7.851   2.844   3.924
42047SOL    HW226166   7.742   2.723   3.917
42048SOL     OW26167   8.906   2.597   4.452
42048SOL    HW126168   8.901   2.532   4.527
42048SOL    HW226169   8.986   2.656   4.465
42049SOL     OW26170   7.909   3.128   5.451
42049SOL    HW126171   7.859   3.129   5.365
42049SOL    HW226172   7.846   3.110   5.527
42050SOL     OW26173   8.559   3.638   3.961
42050SOL    HW126174   8.499   3.576   4.011
42050SOL    HW226175   8.590   3.594   3.876
42051SOL     OW26176   7.650   2.147   5.222
42051SOL    HW126177   7.570   2.207   5.209
42051SOL    HW226178   7.640   2.098   5.308
42052SOL     OW26179   9.080   3.239   3.805
42052SOL    HW126180   9.048   3.333   3.795
42052SOL    HW226181   9.004   3.176   3.793
42053SOL     OW26182   7.912   3.605   4.047
42053SOL    HW126183   7.945   3.644   4.133
42053SOL    HW226184   7.988   3.598   3.982
42054SOL     OW26185   8.848   1.969   4.150
42054SOL    HW126186   8.824   1.932   4.060
42054SOL    HW226187   8.947   1.985   4.154
42055SOL     OW26188   7.697   3.647   4.965
42055SOL    HW126189   7.754   3.582   5.015
42055SOL    HW226190   7.681   3.614   4.872
42056SOL     OW26191   8.388   3.560   4.628
42056SOL    HW126192   8.468   3.503   4.649
42056SOL    HW226193   8.339   3.520   4.551
42057SOL     OW26194   7.830   2.562   4.204
42057SOL    HW126195   7.875   2.472   4.201
42057SOL    HW226196   7.736   2.551   4.237
42058SOL     OW26197   8.995   2.084   5.453
42058SOL    HW126198   8.990   2.121   5.545
42058SOL    HW226199   8.923   2.015   5.441
42059SOL     OW26200   8.062   1.984   3.841
42059SOL    HW126201   8.160   1.962   3.848
42059SOL    HW226202   8.031   1.967   3.748
42060SOL     OW26203   8.229   2.126   5.473
42060SOL    HW126204   8.296   2.065   5.516
42060SOL    HW226205   8.156   2.145   5.538
42061SOL     OW26206   8.336   3.376   4.919
42061SOL    HW126207   8.313   3.351   4.825
42061SOL    HW226208   8.397   3.307   4.958
42062SOL     OW26209   8.799   2.452   5.157
42062SOL    HW126210   8.827   2.409   5.242
42062SOL    HW226211   8.824   2.548   5.158
42063SOL     OW26212   8.251   3.264   4.648
42063SOL    HW126213   8.341   3.278   4.606
42063SOL    HW226214   8.180   3.266   4.577
42064SOL     OW26215   8.370   2.365   4.623
42064SOL    HW126216   8.345   2.356   4.527
42064SOL    HW226217   8.418   2.283   4.654
42065SOL     OW26218   7.987   1.926   4.236
42065SOL    HW126219   7.906   1.927   4.294
42065SOL    HW226220   7.990   2.009   4.181
42066SOL     OW26221   8.882   3.050   3.765
42066SOL    HW126222   8.914   2.974   3.822
42066SOL    HW226223   8.790   3.077   3.795
42067SOL     OW26224   7.745   1.897   3.895
42067SOL    HW126225   7.794   1.981   3.874
42067SOL    HW226226   7.807   1.832   3.940
42068SOL     OW26227   8.383   2.098   4.204
42068SOL    HW126228   8.335   2.139   4.126
42068SOL    HW226229   8.482   2.096   4.185
42069SOL     OW26230   8.524   2.545   5.188
42069SOL    HW126231   8.444   2.484   5.191
42069SOL    HW226232   8.605   2.492   5.164
42070SOL     OW26233   8.675   3.432   4.517
42070SOL    HW126234   8.696   3.506   4.452
42070SOL    HW226235   8.743   3.432   4.590
42071SOL     OW26236   7.907   3.014   4.465
42071SOL    HW126237   7.836   2.987   4.530
42071SOL    HW226238   7.881   2.986   4.372
42072SOL     OW26239   8.719   3.659   4.315
42072SOL    HW126240   8.763   3.723   4.251
42072SOL    HW226241   8.669   3.711   4.385
42073SOL     OW26242   8.480   2.411   3.740
42073SOL    HW126243   8.439   2.493   3.701
42073SOL    HW226244   8.544   2.437   3.813
42074SOL     OW26245   7.526   2.418   5.110
42074SOL    HW126246   7.618   2.417   5.069
42074SOL    HW226247   7.520   2.492   5.177
42075SOL     OW26248   8.009   2.084   4.871
42075SOL    HW126249   8.047   2.000   4.908
42075SOL    HW226250   7.921   2.103   4.915
42076SOL     OW26251   8.314   2.316   4.366
42076SOL    HW126252   8.282   2.388   4.304
42076SOL    HW226253   8.338   2.235   4.313
42077SOL     OW26254   8.465   1.901   4.477
42077SOL    HW126255   8.393   1.906   4.408
42077SOL    HW226256   8.441   1.832   4.546
42078SOL     OW26257   8.877   3.035   4.591
42078SOL    HW126258   8.822   2.951   4.584
42078SOL    HW226259   8.903   3.064   4.499
42079SOL     OW26260   8.914   2.452   4.716
42079SOL    HW126261   8.884   2.357   4.723
42079SOL    HW226262   8.987   2.468   4.782
42080SOL     OW26263   9.305   2.695   4.101
42080SOL    HW126264   9.347   2.631   4.165
42080SOL    HW226265   9.267   2.644   4.023
42081SOL     OW26266   7.936   3.247   3.898
42081SOL    HW126267   7.849   3.232   3.945
42081SOL    HW226268   7.919   3.273   3.803
42082SOL     OW26269   9.112   3.142   4.381
42082SOL    HW126270   9.211   3.150   4.395
42082SOL    HW226271   9.067   3.226   4.412
42083SOL     OW26272   8.838   2.437   3.802
42083SOL    HW126273   8.784   2.416   3.883
42083SOL    HW226274   8.929   2.396   3.811
42084SOL     OW26275   7.975   2.118   4.052
42084SOL    HW126276   8.002   2.059   3.977
42084SOL    HW226277   7.975   2.213   4.021
42085SOL     OW26278   9.202   3.085   5.312
42085SOL    HW126279   9.293   3.046   5.299
42085SOL    HW226280   9.210   3.181   5.336
42086SOL     OW26281   8.512   3.209   5.064
42086SOL    HW126282   8.432   3.186   5.119
42086SOL    HW226283   8.595   3.183   5.113
42087SOL     OW26284   9.040   3.491   5.349
42087SOL    HW126285   9.067   3.525   5.259
42087SOL    HW226286   9.119   3.453   5.395
42088SOL     OW26287   8.559   3.057   4.824
42088SOL    HW126288   8.519   3.101   4.905
42088SOL    HW226289   8.518   3.094   4.741
42089SOL     OW26290   9.086   2.961   4.803
42089SOL    HW126291   9.091   3.042   4.862
42089SOL    HW226292   9.000   2.963   4.752
42090SOL     OW26293   8.363   1.951   5.126
42090SOL    HW126294   8.388   1.931   5.031
42090SOL    HW226295   8.435   2.007   5.168
42091SOL     OW26296   8.428   2.978   5.443
42091SOL    HW126297   8.329   2.984   5.453
42091SOL    HW226298   8.451   2.898   5.387
42092SOL     OW26299   8.153   2.912   4.092
42092SOL    HW126300   8.139   2.919   4.191
42092SOL    HW226301   8.237   2.861   4.074
42093SOL     OW26302   7.858   2.675   4.975
42093SOL    HW126303   7.944   2.687   5.025
42093SOL    HW226304   7.816   2.588   5.002
42094SOL     OW26305   8.722   2.248   4.986
42094SOL    HW126306   8.743   2.322   5.050
42094SOL    HW226307   8.633   2.265   4.943
42095SOL     OW26308   7.512   3.426   5.055
42095SOL    HW126309   7.466   3.508   5.021
42095SOL    HW226310   7.610   3.445   5.064
42096SOL     OW26311   7.815   2.962   4.225
42096SOL    HW126312   7.808   3.045   4.169
42096SOL    HW226313   7.819   2.882   4.165
42097SOL     OW26314   8.014   2.399   4.589
42097SOL    HW126315   8.026   2.465   4.515
42097SOL    HW226316   8.060   2.433   4.672
42098SOL     OW26317   8.700   3.210   4.112
42098SOL    HW126318   8.750   3.287   4.152
42098SOL    HW226319   8.605   3.212   4.144
42099SOL     OW26320   8.720   3.307   4.866
42099SOL    HW126321   8.767   3.320   4.953
42099SOL    HW226322   8.654   3.233   4.875
42100SOL     OW26323   9.030   2.501   4.196
42100SOL    HW126324   8.999   2.562   4.269
42100SOL    HW226325   9.080   2.553   4.127
42101SOL     OW26326   7.802   3.372   5.053
42101SOL    HW126327   7.781   3.328   4.966
42101SOL    HW226328   7.899   3.398   5.056
42102SOL     OW26329   7.850   2.613   5.322
42102SOL    HW126330   7.918   2.668   5.275
42102SOL    HW226331   7.890   2.525   5.349
42103SOL     OW26332   9.035   2.641   5.394
42103SOL    HW126333   8.943   2.679   5.389
42103SOL    HW226334   9.095   2.688   5.329
42104SOL     OW26335   8.461   1.967   5.494
42104SOL    HW126336   8.467   2.052   5.442
42104SOL    HW226337   8.493   1.891   5.437
42105SOL     OW26338   7.952   1.912   5.464
42105SOL    HW126339   7.910   1.855   5.394
42105SOL    HW226340   7.886   1.981   5.496
42106SOL     OW26341   8.021   2.732   4.753
42106SOL    HW126342   8.065   2.821   4.744
42106SOL    HW226343   7.958   2.732   4.830
42107SOL     OW26344   8.808   2.724   4.769
42107SOL    HW126345   8.733   2.724   4.703
42107SOL    HW226346   8.845   2.632   4.778
42108SOL     OW26347   8.657   2.387   3.999
42108SOL    HW126348   8.670   2.303   4.053
42108SOL    HW226349   8.628   2.461   4.059
42109SOL     OW26350   7.755   2.075   4.955
42109SOL    HW126351   7.732   2.112   5.045
42109SOL    HW226352   7.725   1.980   4.949
42110SOL     OW26353   7.485   3.172   5.006
42110SOL    HW126354   7.538   3.123   5.074
42110SOL    HW226355   7.507   3.270   5.011
42111SOL     OW26356   8.180   2.496   4.788
42111SOL    HW126357   8.239   2.470   4.712
42111SOL    HW226358   8.152   2.592   4.777
42112SOL     OW26359   9.176   2.797   5.578
42112SOL    HW126360   9.130   2.790   5.489
42112SOL    HW226361   9.114   2.841   5.644
42113SOL     OW26362   7.755   1.925   4.342
42113SOL    HW126363   7.744   2.019   4.375
42113SOL    HW226364   7.750   1.862   4.419
42114SOL     OW26365   9.070   2.229   4.098
42114SOL    HW126366   9.072   2.153   4.162
42114SOL    HW226367   9.022   2.306   4.138
42115SOL     OW26368   8.471   2.628   4.690
42115SOL    HW126369   8.486   2.649   4.786
42115SOL    HW226370   8.441   2.533   4.681
42116SOL     OW26371   8.428   3.435   5.424
42116SOL    HW126372   8.408   3.479   5.336
42116SOL    HW226373   8.467   3.344   5.408
42117SOL     OW26374   9.307   3.380   5.329
42117SOL    HW126375   9.321   3.407   5.234
42117SOL    HW226376   9.390   3.402   5.382
42118SOL     OW26377   7.798   2.760   5.528
42118SOL    HW126378   7.874   2.804   5.576
42118SOL    HW226379   7.833   2.713   5.446
42119SOL     OW26380   8.988   2.136   3.849
42119SOL    HW126381   8.927   2.061   3.872
42119SOL    HW226382   9.010   2.188   3.932
42120SOL     OW26383   8.751   2.700   3.766
42120SOL    HW126384   8.785   2.607   3.781
42120SOL    HW226385   8.769   2.727   3.671
42121SOL     OW26386   8.516   3.195   4.573
42121SOL    HW126387   8.523   3.111   4.518
42121SOL    HW226388   8.578   3.264   4.537
42122SOL     OW26389   7.767   2.672   4.673
42122SOL    HW126390   7.860   2.708   4.678
42122SOL    HW226391   7.761   2.587   4.725
42123SOL     OW26392   7.787   2.371   4.730
42123SOL    HW126393   7.735   2.288   4.713
42123SOL    HW226394   7.864   2.376   4.666
42124SOL     OW26395   8.586   2.242   5.402
42124SOL    HW126396   8.541   2.305   5.466
42124SOL    HW226397   8.679   2.273   5.385
42125SOL     OW26398   8.608   2.069   5.201
42125SOL    HW126399   8.608   2.133   5.278
42125SOL    HW226400   8.636   2.117   5.118
42126SOL     OW26401   7.456   3.188   3.924
42126SOL    HW126402   7.363   3.209   3.893
42126SOL    HW226403   7.466   3.089   3.937
42127SOL     OW26404   7.536   3.663   4.651
42127SOL    HW126405   7.494   3.577   4.624
42127SOL    HW226406   7.630   3.666   4.617
42128SOL     OW26407   7.952   3.430   4.634
42128SOL    HW126408   8.018   3.504   4.643
42128SOL    HW226409   7.996   3.351   4.592
42129SOL     OW26410   8.450   2.658   4.962
42129SOL    HW126411   8.491   2.626   5.048
42129SOL    HW226412   8.354   2.631   4.959
42130SOL     OW26413   7.488   2.406   4.838
42130SOL    HW126414   7.573   2.373   4.797
42130SOL    HW226415   7.501   2.421   4.936
42131SOL     OW26416   7.637   2.382   5.446
42131SOL    HW126417   7.696   2.342   5.376
42131SOL    HW226418   7.579   2.453   5.405
42132SOL     OW26419   8.817   2.812   5.384
42132SOL    HW126420   8.856   2.901   5.404
42132SOL    HW226421   8.827   2.792   5.287
42133SOL     OW26422   8.263   2.434   4.049
42133SOL    HW126423   8.270   2.345   4.003
42133SOL    HW226424   8.169   2.468   4.041
42134SOL     OW26425   9.105   2.466   4.930
42134SOL    HW126426   9.067   2.397   4.992
42134SOL    HW226427   9.187   2.430   4.886
42135SOL     OW26428   7.700   3.426   5.468
42135SOL    HW126429   7.670   3.483   5.544
42135SOL    HW226430   7.693   3.329   5.494
42136SOL     OW26431   8.119   2.326   4.993
42136SOL    HW126432   8.085   2.237   4.963
42136SOL    HW226433   8.145   2.380   4.913
42137SOL     OW26434   8.378   3.540   5.189
42137SOL    HW126435   8.354   3.522   5.094
42137SOL    HW226436   8.408   3.634   5.199
42138SOL     OW26437   7.921   2.362   3.915
42138SOL    HW126438   7.982   2.442   3.919
42138SOL    HW226439   7.826   2.393   3.922
42139SOL     OW26440   7.607   2.999   5.190
42139SOL    HW126441   7.629   2.938   5.266
42139SOL    HW226442   7.617   2.950   5.104
42140SOL     OW26443   8.795   2.921   4.958
42140SOL    HW126444   8.819   2.858   4.884
42140SOL    HW226445   8.705   2.961   4.940
42141SOL     OW26446   8.750   2.717   4.033
42141SOL    HW126447   8.664   2.686   4.075
42141SOL    HW226448   8.746   2.703   3.934
42142SOL     OW26449   9.207   3.609   4.878
42142SOL    HW126450   9.268   3.639   4.805
42142SOL    HW226451   9.169   3.520   4.856
42143SOL     OW26452   8.700   3.593   4.852
42143SOL    HW126453   8.784   3.598   4.798
42143SOL    HW226454   8.677   3.497   4.870
42144SOL     OW26455   7.531   3.120   4.746
42144SOL    HW126456   7.526   3.119   4.846
42144SOL    HW226457   7.448   3.079   4.708
42145SOL     OW26458   8.136   3.524   5.440
42145SOL    HW126459   8.080   3.605   5.449
42145SOL    HW226460   8.188   3.528   5.354
42146SOL     OW26461   9.174   1.997   4.247
42146SOL    HW126462   9.247   1.980   4.180
42146SOL    HW226463   9.143   1.910   4.285
42147SOL     OW26464   8.836   3.435   4.201
42147SOL    HW126465   8.903   3.447   4.127
42147SOL    HW226466   8.796   3.524   4.224
42148SOL     OW26467   7.578   3.656   5.575
42148SOL    HW126468   7.537   3.582   5.628
42148SOL    HW226469   7.642   3.707   5.633
42149SOL     OW26470   8.728   2.789   4.396
42149SOL    HW126471   8.788   2.708   4.398
42149SOL    HW226472   8.768   2.858   4.336
42150SOL     OW26473   8.278   3.135   5.146
42150SOL    HW126474   8.273   3.168   5.241
42150SOL    HW226475   8.192   3.154   5.100
42151SOL     OW26476   8.120   3.478   3.878
42151SOL    HW126477   8.129   3.488   3.779
42151SOL    HW226478   8.080   3.389   3.899
42152SOL     OW26479   9.098   3.582   5.118
42152SOL    HW126480   9.151   3.592   5.034
42152SOL    HW226481   9.071   3.672   5.152
42153SOL     OW26482   9.289   2.037   4.687
42153SOL    HW126483   9.328   1.952   4.651
42153SOL    HW226484   9.191   2.039   4.668
42154SOL     OW26485   7.711   2.188   4.444
42154SOL    HW126486   7.632   2.239   4.410
42154SOL    HW226487   7.702   2.173   4.542
42155SOL     OW26488   8.642   3.474   3.755
42155SOL    HW126489   8.648   3.381   3.792
42155SOL    HW226490   8.583   3.474   3.675
42156SOL     OW26491   8.270   2.864   5.096
42156SOL    HW126492   8.310   2.863   5.004
42156SOL    HW226493   8.280   2.956   5.136
42157SOL     OW26494   8.364   2.772   4.015
42157SOL    HW126495   8.427   2.810   3.947
42157SOL    HW226496   8.404   2.689   4.054
42158SOL     OW26497   8.952   3.469   3.768
42158SOL    HW126498   8.860   3.506   3.775
42158SOL    HW226499   8.990   3.489   3.678
42159SOL     OW26500   7.820   3.150   5.214
42159SOL    HW126501   7.807   3.243   5.180
42159SOL    HW226502   7.736   3.098   5.201
42160SOL     OW26503   9.062   3.154   5.013
42160SOL    HW126504   9.122   3.157   5.093
42160SOL    HW226505   8.987   3.218   5.026
42161SOL     OW26506   8.487   2.960   4.420
42161SOL    HW126507   8.417   2.913   4.474
42161SOL    HW226508   8.546   2.892   4.377
42162SOL     OW26509   8.462   2.098   4.695
42162SOL    HW126510   8.454   2.062   4.602
42162SOL    HW226511   8.460   2.022   4.760
42163SOL     OW26512   8.038   3.349   4.215
42163SOL    HW126513   8.080   3.291   4.145
42163SOL    HW226514   7.994   3.428   4.171
42164SOL     OW26515   9.157   2.247   5.105
42164SOL    HW126516   9.230   2.316   5.109
42164SOL    HW226517   9.185   2.172   5.046
42165SOL     OW26518   7.703   3.210   4.014
42165SOL    HW126519   7.607   3.211   3.987
42165SOL    HW226520   7.715   3.263   4.098
42166SOL     OW26521   7.553   2.875   5.450
42166SOL    HW126522   7.476   2.842   5.504
42166SOL    HW226523   7.638   2.845   5.492
42167SOL     OW26524   8.120   2.065   5.213
42167SOL    HW126525   8.210   2.049   5.173
42167SOL    HW226526   8.128   2.070   5.312
42168SOL     OW26527   7.523   2.207   3.757
42168SOL    HW126528   7.431   2.179   3.728
42168SOL    HW226529   7.554   2.284   3.701
42169SOL     OW26530   8.888   2.718   5.122
42169SOL    HW126531   8.831   2.770   5.059
42169SOL    HW226532   8.984   2.730   5.098
42170SOL     OW26533   7.520   2.028   4.042
42170SOL    HW126534   7.503   2.111   3.988
42170SOL    HW226535   7.610   1.991   4.020
42171SOL     OW26536   8.631   3.197   3.843
42171SOL    HW126537   8.532   3.186   3.845
42171SOL    HW226538   8.665   3.212   3.936
42172SOL     OW26539   8.061   2.704   5.155
42172SOL    HW126540   8.117   2.785   5.138
42172SOL    HW226541   8.120   2.624   5.158
42173SOL     OW26542   8.941   3.629   4.683
42173SOL    HW126543   8.974   3.693   4.614
42173SOL    HW226544   9.007   3.623   4.758
42174SOL     OW26545   8.164   2.427   5.432
42174SOL    HW126546   8.183   2.492   5.506
42174SOL    HW226547   8.224   2.347   5.441
42175SOL     OW26548   8.898   3.082   5.357
42175SOL    HW126549   8.889   3.072   5.456
42175SOL    HW226550   8.994   3.075   5.331
42176SOL     OW26551   7.838   3.603   5.284
42176SOL    HW126552   7.747   3.644   5.282
42176SOL    HW226553   7.831   3.509   5.316
42177SOL     OW26554   9.122   2.745   4.978
42177SOL    HW126555   9.095   2.656   4.941
42177SOL    HW226556   9.123   2.813   4.905
42178SOL     OW26557   8.673   2.187   4.173
42178SOL    HW126558   8.738   2.113   4.162
42178SOL    HW226559   8.693   2.237   4.257
42179SOL     OW26560   8.042   2.607   4.376
42179SOL    HW126561   8.092   2.692   4.357
42179SOL    HW226562   7.954   2.609   4.328
42180SOL     OW26563   9.225   2.204   5.366
42180SOL    HW126564   9.208   2.235   5.272
42180SOL    HW226565   9.141   2.167   5.404
42181SOL     OW26566   9.178   2.796   5.241
42181SOL    HW126567   9.216   2.887   5.256
42181SOL    HW226568   9.170   2.779   5.142
42182SOL     OW26569   8.307   3.236   3.740
42182SOL    HW126570   8.261   3.251   3.828
42182SOL    HW226571   8.351   3.321   3.710
42183SOL     OW26572   8.109   3.652   4.677
42183SOL    HW126573   8.063   3.740   4.664
42183SOL    HW226574   8.208   3.664   4.670
42184SOL     OW26575   8.307   2.818   4.585
42184SOL    HW126576   8.361   2.749   4.633
42184SOL    HW226577   8.275   2.887   4.651
42185SOL     OW26578   8.531   2.846   3.811
42185SOL    HW126579   8.508   2.899   3.729
42185SOL    HW226580   8.612   2.790   3.792
42186SOL     OW26581   9.309   3.431   4.575
42186SOL    HW126582   9.238   3.419   4.505
42186SOL    HW226583   9.310   3.352   4.635
42187SOL     OW26584   7.669   3.176   5.568
42187SOL    HW126585   7.604   3.103   5.547
42187SOL    HW226586   7.673   3.190   5.666
42188SOL     OW26587   7.527   3.102   4.377
42188SOL    HW126588   7.526   3.055   4.465
42188SOL    HW226589   7.609   3.074   4.326
42189SOL     OW26590   8.120   3.253   5.348
42189SOL    HW126591   8.042   3.203   5.386
42189SOL    HW226592   8.117   3.348   5.379
42190SOL     OW26593   9.272   2.054   4.951
42190SOL    HW126594   9.268   1.964   4.995
42190SOL    HW226595   9.275   2.043   4.852
42191SOL     OW26596   7.876   2.286   4.244
42191SOL    HW126597   7.906   2.214   4.182
42191SOL    HW226598   7.837   2.246   4.327
42192SOL     OW26599   9.153   3.349   4.828
42192SOL    HW126600   9.060   3.324   4.801
42192SOL    HW226601   9.179   3.299   4.910
42193SOL     OW26602   7.765   2.409   5.004
42193SOL    HW126603   7.803   2.350   5.076
42193SOL    HW226604   7.805   2.383   4.916
42194SOL     OW26605   8.260   3.448   4.411
42194SOL    HW126606   8.292   3.458   4.317
42194SOL    HW226607   8.181   3.386   4.413
42195SOL     OW26608   8.872   2.076   4.836
42195SOL    HW126609   8.924   2.011   4.891
42195SOL    HW226610   8.823   2.139   4.897
42196SOL     OW26611   8.449   1.896   4.878
42196SOL    HW126612   8.386   1.824   4.847
42196SOL    HW226613   8.542   1.860   4.878
42197SOL     OW26614   8.218   3.192   4.025
42197SOL    HW126615   8.172   3.105   4.042
42197SOL    HW226616   8.309   3.189   4.066
42198SOL     OW26617   8.066   3.429   5.008
42198SOL    HW126618   8.061   3.511   5.065
42198SOL    HW226619   8.155   3.426   4.963
42199SOL     OW26620   8.800   1.914   3.892
42199SOL    HW126621   8.835   1.873   3.808
42199SOL    HW226622   8.710   1.876   3.912
42200SOL     OW26623   8.748   2.315   4.415
42200SOL    HW126624   8.689   2.395   4.419
42200SOL    HW226625   8.763   2.280   4.508
42201SOL     OW26626   9.041   2.083   4.606
42201SOL    HW126627   8.957   2.082   4.660
42201SOL    HW226628   9.043   2.166   4.550
42202SOL     OW26629   7.487   2.939   4.024
42202SOL    HW126630   7.586   2.928   4.015
42202SOL    HW226631   7.447   2.853   4.056
42203SOL     OW26632   8.323   3.508   4.061
42203SOL    HW126633   8.246   3.473   4.007
42203SOL    HW226634   8.291   3.579   4.123
42204SOL     OW26635   7.678   2.490   5.699
42204SOL    HW126636   7.585   2.488   5.736
42204SOL    HW226637   7.679   2.451   5.607
42205SOL     OW26638   7.673   2.137   6.582
42205SOL    HW126639   7.708   2.120   6.674
42205SOL    HW226640   7.585   2.092   6.570
42206SOL     OW26641   7.467   2.230   6.233
42206SOL    HW126642   7.385   2.273   6.272
42206SOL    HW226643   7.439   2.157   6.170
42207SOL     OW26644   8.017   3.137   6.751
42207SOL    HW126645   7.924   3.130   6.714
42207SOL    HW226646   8.028   3.226   6.795
42208SOL     OW26647   9.003   3.373   6.289
42208SOL    HW126648   8.946   3.357   6.370
42208SOL    HW226649   8.944   3.383   6.209
42209SOL     OW26650   8.583   2.565   6.303
42209SOL    HW126651   8.640   2.643   6.278
42209SOL    HW226652   8.523   2.591   6.379
42210SOL     OW26653   9.203   2.469   5.817
42210SOL    HW126654   9.191   2.456   5.718
42210SOL    HW226655   9.173   2.388   5.866
42211SOL     OW26656   8.216   3.006   6.609
42211SOL    HW126657   8.138   3.023   6.669
42211SOL    HW226658   8.250   3.093   6.573
42212SOL     OW26659   8.298   2.660   7.409
42212SOL    HW126660   8.294   2.736   7.474
42212SOL    HW226661   8.320   2.696   7.318
42213SOL     OW26662   8.133   2.874   6.251
42213SOL    HW126663   8.202   2.858   6.321
42213SOL    HW226664   8.060   2.931   6.289
42214SOL     OW26665   8.134   3.023   7.389
42214SOL    HW126666   8.194   3.102   7.403
42214SOL    HW226667   8.048   3.054   7.348
42215SOL     OW26668   7.783   3.297   6.647
42215SOL    HW126669   7.705   3.266   6.594
42215SOL    HW226670   7.841   3.355   6.590
42216SOL     OW26671   8.908   3.367   6.925
42216SOL    HW126672   8.932   3.461   6.951
42216SOL    HW226673   8.892   3.313   7.007
42217SOL     OW26674   7.886   2.254   7.085
42217SOL    HW126675   7.968   2.198   7.094
42217SOL    HW226676   7.805   2.196   7.089
42218SOL     OW26677   9.051   2.309   6.323
42218SOL    HW126678   8.977   2.355   6.273
42218SOL    HW226679   9.102   2.377   6.376
42219SOL     OW26680   7.679   3.575   6.069
42219SOL    HW126681   7.713   3.652   6.123
42219SOL    HW226682   7.723   3.575   5.979
42220SOL     OW26683   8.575   3.203   7.276
42220SOL    HW126684   8.622   3.203   7.364
42220SOL    HW226685   8.527   3.116   7.265
42221SOL     OW26686   7.678   3.296   6.124
42221SOL    HW126687   7.652   3.392   6.124
42221SOL    HW226688   7.607   3.242   6.169
42222SOL     OW26689   7.688   2.953   6.472
42222SOL    HW126690   7.702   2.869   6.524
42222SOL    HW226691   7.633   3.017   6.527
42223SOL     OW26692   8.068   3.648   7.025
42223SOL    HW126693   7.976   3.631   7.060
42223SOL    HW226694   8.096   3.740   7.051
42224SOL     OW26695   8.054   2.826   5.709
42224SOL    HW126696   8.061   2.910   5.655
42224SOL    HW226697   8.100   2.839   5.797
42225SOL     OW26698   9.042   1.976   7.066
42225SOL    HW126699   9.024   2.043   6.994
42225SOL    HW226700   9.039   2.022   7.155
42226SOL     OW26701   7.570   2.505   6.149
42226SOL    HW126702   7.525   2.417   6.166
42226SOL    HW226703   7.569   2.559   6.233
42227SOL     OW26704   9.290   3.629   5.945
42227SOL    HW126705   9.344   3.600   6.025
42227SOL    HW226706   9.320   3.719   5.916
42228SOL     OW26707   7.475   3.458   5.703
42228SOL    HW126708   7.456   3.362   5.724
42228SOL    HW226709   7.442   3.516   5.778
42229SOL     OW26710   9.137   2.784   6.198
42229SOL    HW126711   9.232   2.755   6.206
42229SOL    HW226712   9.129   2.849   6.123
42230SOL     OW26713   9.089   2.970   6.018
42230SOL    HW126714   9.175   2.972   5.966
42230SOL    HW226715   9.103   3.017   6.106
42231SOL     OW26716   7.561   2.599   7.183
42231SOL    HW126717   7.649   2.586   7.228
42231SOL    HW226718   7.548   2.696   7.161
42232SOL     OW26719   8.061   3.227   6.312
42232SOL    HW126720   8.012   3.140   6.321
42232SOL    HW226721   8.038   3.270   6.225
42233SOL     OW26722   8.741   3.090   7.009
42233SOL    HW126723   8.778   3.017   6.951
42233SOL    HW226724   8.793   3.095   7.094
42234SOL     OW26725   8.257   1.866   6.088
42234SOL    HW126726   8.297   1.957   6.079
42234SOL    HW226727   8.157   1.874   6.094
42235SOL     OW26728   7.645   2.838   6.850
42235SOL    HW126729   7.734   2.793   6.836
42235SOL    HW226730   7.572   2.773   6.831
42236SOL     OW26731   8.973   2.861   5.776
42236SOL    HW126732   8.910   2.785   5.789
42236SOL    HW226733   9.021   2.879   5.862
42237SOL     OW26734   8.635   3.654   7.202
42237SOL    HW126735   8.659   3.714   7.126
42237SOL    HW226736   8.642   3.559   7.172
42238SOL     OW26737   7.765   2.113   7.387
42238SOL    HW126738   7.836   2.184   7.393
42238SOL    HW226739   7.677   2.152   7.415
42239SOL     OW26740   8.914   3.279   6.539
42239SOL    HW126741   8.855   3.285   6.619
42239SOL    HW226742   8.899   3.191   6.493
42240SOL     OW26743   9.115   3.576   6.158
42240SOL    HW126744   9.074   3.553   6.070
42240SOL    HW226745   9.097   3.502   6.223
42241SOL     OW26746   8.046   2.591   5.856
42241SOL    HW126747   8.070   2.660   5.788
42241SOL    HW226748   7.968   2.624   5.910
42242SOL     OW26749   8.729   2.207   6.530
42242SOL    HW126750   8.643   2.157   6.517
42242SOL    HW226751   8.791   2.153   6.586
42243SOL     OW26752   9.024   3.524   5.893
42243SOL    HW126753   9.113   3.570   5.896
42243SOL    HW226754   9.003   3.500   5.798
42244SOL     OW26755   8.255   2.467   7.051
42244SOL    HW126756   8.208   2.464   7.140
42244SOL    HW226757   8.204   2.412   6.985
42245SOL     OW26758   8.842   2.331   7.260
42245SOL    HW126759   8.822   2.374   7.348
42245SOL    HW226760   8.920   2.269   7.269
42246SOL     OW26761   8.421   2.752   7.158
42246SOL    HW126762   8.467   2.668   7.129
42246SOL    HW226763   8.365   2.786   7.083
42247SOL     OW26764   8.439   2.272   6.828
42247SOL    HW126765   8.362   2.306   6.882
42247SOL    HW226766   8.405   2.221   6.749
42248SOL     OW26767   8.489   2.563   6.015
42248SOL    HW126768   8.515   2.559   6.111
42248SOL    HW226769   8.404   2.512   6.001
42249SOL     OW26770   7.524   2.673   6.375
42249SOL    HW126771   7.623   2.661   6.384
42249SOL    HW226772   7.500   2.768   6.396
42250SOL     OW26773   7.578   3.683   7.157
42250SOL    HW126774   7.568   3.668   7.256
42250SOL    HW226775   7.492   3.719   7.121
42251SOL     OW26776   8.313   2.210   5.781
42251SOL    HW126777   8.372   2.273   5.732
42251SOL    HW226778   8.332   2.116   5.752
42252SOL     OW26779   9.167   2.447   7.417
42252SOL    HW126780   9.141   2.536   7.381
42252SOL    HW226781   9.165   2.379   7.344
42253SOL     OW26782   8.810   3.006   6.131
42253SOL    HW126783   8.893   2.977   6.083
42253SOL    HW226784   8.761   3.073   6.075
42254SOL     OW26785   7.998   2.058   6.471
42254SOL    HW126786   7.993   2.053   6.571
42254SOL    HW226787   8.000   2.154   6.442
42255SOL     OW26788   8.456   3.318   6.063
42255SOL    HW126789   8.410   3.390   6.011
42255SOL    HW226790   8.452   3.338   6.161
42256SOL     OW26791   7.799   3.663   6.439
42256SOL    HW126792   7.849   3.577   6.445
42256SOL    HW226793   7.864   3.740   6.436
42257SOL     OW26794   9.243   2.928   6.459
42257SOL    HW126795   9.181   2.913   6.383
42257SOL    HW226796   9.191   2.939   6.544
42258SOL     OW26797   8.675   3.412   7.092
42258SOL    HW126798   8.681   3.335   7.156
42258SOL    HW226799   8.623   3.386   7.012
42259SOL     OW26800   7.769   2.805   5.828
42259SOL    HW126801   7.851   2.844   5.786
42259SOL    HW226802   7.742   2.723   5.779
42260SOL     OW26803   8.906   2.597   6.314
42260SOL    HW126804   8.901   2.532   6.389
42260SOL    HW226805   8.986   2.656   6.327
42261SOL     OW26806   7.909   3.128   7.313
42261SOL    HW126807   7.859   3.129   7.227
42261SOL    HW226808   7.846   3.110   7.389
42262SOL     OW26809   8.559   3.638   5.823
42262SOL    HW126810   8.499   3.576   5.873
42262SOL    HW226811   8.590   3.594   5.738
42263SOL     OW26812   7.650   2.147   7.084
42263SOL    HW126813   7.570   2.207   7.071
42263SOL    HW226814   7.640   2.098   7.170
42264SOL     OW26815   9.080   3.239   5.667
42264SOL    HW126816   9.048   3.333   5.657
42264SOL    HW226817   9.004   3.176   5.655
42265SOL     OW26818   7.912   3.605   5.909
42265SOL    HW126819   7.945   3.644   5.995
42265SOL    HW226820   7.988   3.598   5.844
42266SOL     OW26821   8.848   1.969   6.012
42266SOL    HW126822   8.824   1.932   5.922
42266SOL    HW226823   8.947   1.985   6.016
42267SOL     OW26824   7.697   3.647   6.827
42267SOL    HW126825   7.754   3.582   6.877
42267SOL    HW226826   7.681   3.614   6.734
42268SOL     OW26827   8.388   3.560   6.490
42268SOL    HW126828   8.468   3.503   6.511
42268SOL    HW226829   8.339   3.520   6.413
42269SOL     OW26830   7.830   2.562   6.066
42269SOL    HW126831   7.875   2.472   6.063
42269SOL    HW226832   7.736   2.551   6.099
42270SOL     OW26833   8.995   2.084   7.315
42270SOL    HW126834   8.990   2.121   7.407
42270SOL    HW226835   8.923   2.015   7.303
42271SOL     OW26836   8.062   1.984   5.703
42271SOL    HW126837   8.160   1.962   5.710
42271SOL    HW226838   8.031   1.967   5.610
42272SOL     OW26839   8.229   2.126   7.335
42272SOL    HW126840   8.296   2.065   7.378
42272SOL    HW226841   8.156   2.145   7.400
42273SOL     OW26842   8.336   3.376   6.781
42273SOL    HW126843   8.313   3.351   6.687
42273SOL    HW226844   8.397   3.307   6.820
42274SOL     OW26845   8.799   2.452   7.019
42274SOL    HW126846   8.827   2.409   7.104
42274SOL    HW226847   8.824   2.548   7.020
42275SOL     OW26848   8.251   3.264   6.510
42275SOL    HW126849   8.341   3.278   6.468
42275SOL    HW226850   8.180   3.266   6.439
42276SOL     OW26851   8.370   2.365   6.485
42276SOL    HW126852   8.345   2.356   6.389
42276SOL    HW226853   8.418   2.283   6.516
42277SOL     OW26854   7.987   1.926   6.098
42277SOL    HW126855   7.906   1.927   6.156
42277SOL    HW226856   7.990   2.009   6.043
42278SOL     OW26857   8.882   3.050   5.627
42278SOL    HW126858   8.914   2.974   5.684
42278SOL    HW226859   8.790   3.077   5.657
42279SOL     OW26860   7.745   1.897   5.757
42279SOL    HW126861   7.794   1.981   5.736
42279SOL    HW226862   7.807   1.832   5.802
42280SOL     OW26863   8.383   2.098   6.066
42280SOL    HW126864   8.335   2.139   5.988
42280SOL    HW226865   8.482   2.096   6.047
42281SOL     OW26866   8.524   2.545   7.050
42281SOL    HW126867   8.444   2.484   7.053
42281SOL    HW226868   8.605   2.492   7.026
42282SOL     OW26869   8.675   3.432   6.379
42282SOL    HW126870   8.696   3.506   6.314
42282SOL    HW226871   8.743   3.432   6.452
42283SOL     OW26872   7.907   3.014   6.327
42283SOL    HW126873   7.836   2.987   6.392
42283SOL    HW226874   7.881   2.986   6.234
42284SOL     OW26875   8.719   3.659   6.177
42284SOL    HW126876   8.763   3.723   6.113
42284SOL    HW226877   8.669   3.711   6.247
42285SOL     OW26878   8.480   2.411   5.602
42285SOL    HW126879   8.439   2.493   5.563
42285SOL    HW226880   8.544   2.437   5.675
42286SOL     OW26881   7.526   2.418   6.972
42286SOL    HW126882   7.618   2.417   6.931
42286SOL    HW226883   7.520   2.492   7.039
42287SOL     OW26884   8.009   2.084   6.733
42287SOL    HW126885   8.047   2.000   6.770
42287SOL    HW226886   7.921   2.103   6.777
42288SOL     OW26887   8.314   2.316   6.228
42288SOL    HW126888   8.282   2.388   6.166
42288SOL    HW226889   8.338   2.235   6.175
42289SOL     OW26890   8.465   1.901   6.339
42289SOL    HW126891   8.393   1.906   6.270
42289SOL    HW226892   8.441   1.832   6.408
42290SOL     OW26893   8.877   3.035   6.453
42290SOL    HW126894   8.822   2.951   6.446
42290SOL    HW226895   8.903   3.064   6.361
42291SOL     OW26896   8.914   2.452   6.578
42291SOL    HW126897   8.884   2.357   6.585
42291SOL    HW226898   8.987   2.468   6.644
42292SOL     OW26899   9.305   2.695   5.963
42292SOL    HW126900   9.347   2.631   6.027
42292SOL    HW226901   9.267   2.644   5.885
42293SOL     OW26902   7.936   3.247   5.760
42293SOL    HW126903   7.849   3.232   5.807
42293SOL    HW226904   7.919   3.273   5.665
42294SOL     OW26905   9.112   3.142   6.243
42294SOL    HW126906   9.211   3.150   6.257
42294SOL    HW226907   9.067   3.226   6.274
42295SOL     OW26908   8.838   2.437   5.664
42295SOL    HW126909   8.784   2.416   5.745
42295SOL    HW226910   8.929   2.396   5.673
42296SOL     OW26911   7.975   2.118   5.914
42296SOL    HW126912   8.002   2.059   5.839
42296SOL    HW226913   7.975   2.213   5.883
42297SOL     OW26914   9.202   3.085   7.174
42297SOL    HW126915   9.293   3.046   7.161
42297SOL    HW226916   9.210   3.181   7.198
42298SOL     OW26917   8.512   3.209   6.926
42298SOL    HW126918   8.432   3.186   6.981
42298SOL    HW226919   8.595   3.183   6.975
42299SOL     OW26920   9.040   3.491   7.211
42299SOL    HW126921   9.067   3.525   7.121
42299SOL    HW226922   9.119   3.453   7.257
42300SOL     OW26923   8.559   3.057   6.686
42300SOL    HW126924   8.519   3.101   6.767
42300SOL    HW226925   8.518   3.094   6.603
42301SOL     OW26926   9.086   2.961   6.665
42301SOL    HW126927   9.091   3.042   6.724
42301SOL    HW226928   9.000   2.963   6.614
42302SOL     OW26929   8.363   1.951   6.988
42302SOL    HW126930   8.388   1.931   6.893
42302SOL    HW226931   8.435   2.007   7.030
42303SOL     OW26932   8.428   2.978   7.305
42303SOL    HW126933   8.329   2.984   7.315
42303SOL    HW226934   8.451   2.898   7.249
42304SOL     OW26935   8.153   2.912   5.954
42304SOL    HW126936   8.139   2.919   6.053
42304SOL    HW226937   8.237   2.861   5.936
42305SOL     OW26938   7.858   2.675   6.837
42305SOL    HW126939   7.944   2.687   6.887
42305SOL    HW226940   7.816   2.588   6.864
42306SOL     OW26941   8.722   2.248   6.848
42306SOL    HW126942   8.743   2.322   6.912
42306SOL    HW226943   8.633   2.265   6.805
42307SOL     OW26944   7.512   3.426   6.917
42307SOL    HW126945   7.466   3.508   6.883
42307SOL    HW226946   7.610   3.445   6.926
42308SOL     OW26947   7.815   2.962   6.087
42308SOL    HW126948   7.808   3.045   6.031
42308SOL    HW226949   7.819   2.882   6.027
42309SOL     OW26950   8.014   2.399   6.451
42309SOL    HW126951   8.026   2.465   6.377
42309SOL    HW226952   8.060   2.433   6.534
42310SOL     OW26953   8.700   3.210   5.974
42310SOL    HW126954   8.750   3.287   6.014
42310SOL    HW226955   8.605   3.212   6.006
42311SOL     OW26956   8.720   3.307   6.728
42311SOL    HW126957   8.767   3.320   6.815
42311SOL    HW226958   8.654   3.233   6.737
42312SOL     OW26959   9.030   2.501   6.058
42312SOL    HW126960   8.999   2.562   6.131
42312SOL    HW226961   9.080   2.553   5.989
42313SOL     OW26962   7.802   3.372   6.915
42313SOL    HW126963   7.781   3.328   6.828
42313SOL    HW226964   7.899   3.398   6.918
42314SOL     OW26965   7.850   2.613   7.184
42314SOL    HW126966   7.918   2.668   7.137
42314SOL    HW226967   7.890   2.525   7.211
42315SOL     OW26968   9.035   2.641   7.256
42315SOL    HW126969   8.943   2.679   7.251
42315SOL    HW226970   9.095   2.688   7.191
42316SOL     OW26971   8.461   1.967   7.356
42316SOL    HW126972   8.467   2.052   7.304
42316SOL    HW226973   8.493   1.891   7.299
42317SOL     OW26974   7.952   1.912   7.326
42317SOL    HW126975   7.910   1.855   7.256
42317SOL    HW226976   7.886   1.981   7.358
42318SOL     OW26977   8.021   2.732   6.615
42318SOL    HW126978   8.065   2.821   6.606
42318SOL    HW226979   7.958   2.732   6.692
42319SOL     OW26980   8.808   2.724   6.631
42319SOL    HW126981   8.733   2.724   6.565
42319SOL    HW226982   8.845   2.632   6.640
42320SOL     OW26983   8.657   2.387   5.861
42320SOL    HW126984   8.670   2.303   5.915
42320SOL    HW226985   8.628   2.461   5.921
42321SOL     OW26986   7.755   2.075   6.817
42321SOL    HW126987   7.732   2.112   6.907
42321SOL    HW226988   7.725   1.980   6.811
42322SOL     OW26989   7.485   3.172   6.868
42322SOL    HW126990   7.538   3.123   6.936
42322SOL    HW226991   7.507   3.270   6.873
42323SOL     OW26992   8.180   2.496   6.650
42323SOL    HW126993   8.239   2.470   6.574
42323SOL    HW226994   8.152   2.592   6.639
42324SOL     OW26995   9.176   2.797   7.440
42324SOL    HW126996   9.130   2.790   7.351
42324SOL    HW226997   9.114   2.841   7.506
42325SOL     OW26998   7.755   1.925   6.204
42325SOL    HW126999   7.744   2.019   6.237
42325SOL    HW227000   7.750   1.862   6.281
42326SOL     OW27001   9.070   2.229   5.960
42326SOL    HW127002   9.072   2.153   6.024
42326SOL    HW227003   9.022   2.306   6.000
42327SOL     OW27004   8.471   2.628   6.552
42327SOL    HW127005   8.486   2.649   6.648
42327SOL    HW227006   8.441   2.533   6.543
42328SOL     OW27007   8.428   3.435   7.286
42328SOL    HW127008   8.408   3.479   7.198
42328SOL    HW227009   8.467   3.344   7.270
42329SOL     OW27010   9.307   3.380   7.191
42329SOL    HW127011   9.321   3.407   7.096
42329SOL    HW227012   9.390   3.402   7.244
42330SOL     OW27013   7.798   2.760   7.390
42330SOL    HW127014   7.874   2.804   7.438
42330SOL    HW227015   7.833   2.713   7.308
42331SOL     OW27016   8.988   2.136   5.711
42331SOL    HW127017   8.927   2.061   5.734
42331SOL    HW227018   9.010   2.188   5.794
42332SOL     OW27019   8.751   2.700   5.628
42332SOL    HW127020   8.785   2.607   5.643
42332SOL    HW227021   8.769   2.727   5.533
42333SOL     OW27022   8.516   3.195   6.435
42333SOL    HW127023   8.523   3.111   6.380
42333SOL    HW227024   8.578   3.264   6.399
42334SOL     OW27025   7.767   2.672   6.535
42334SOL    HW127026   7.860   2.708   6.540
42334SOL    HW227027   7.761   2.587   6.587
42335SOL     OW27028   7.787   2.371   6.592
42335SOL    HW127029   7.735   2.288   6.575
42335SOL    HW227030   7.864   2.376   6.528
42336SOL     OW27031   8.586   2.242   7.264
42336SOL    HW127032   8.541   2.305   7.328
42336SOL    HW227033   8.679   2.273   7.247
42337SOL     OW27034   8.608   2.069   7.063
42337SOL    HW127035   8.608   2.133   7.140
42337SOL    HW227036   8.636   2.117   6.980
42338SOL     OW27037   7.456   3.188   5.786
42338SOL    HW127038   7.363   3.209   5.755
42338SOL    HW227039   7.466   3.089   5.799
42339SOL     OW27040   7.536   3.663   6.513
42339SOL    HW127041   7.494   3.577   6.486
42339SOL    HW227042   7.630   3.666   6.479
42340SOL     OW27043   7.952   3.430   6.496
42340SOL    HW127044   8.018   3.504   6.505
42340SOL    HW227045   7.996   3.351   6.454
42341SOL     OW27046   8.450   2.658   6.824
42341SOL    HW127047   8.491   2.626   6.910
42341SOL    HW227048   8.354   2.631   6.821
42342SOL     OW27049   7.488   2.406   6.700
42342SOL    HW127050   7.573   2.373   6.659
42342SOL    HW227051   7.501   2.421   6.798
42343SOL     OW27052   7.637   2.382   7.308
42343SOL    HW127053   7.696   2.342   7.238
42343SOL    HW227054   7.579   2.453   7.267
42344SOL     OW27055   8.817   2.812   7.246
42344SOL    HW127056   8.856   2.901   7.266
42344SOL    HW227057   8.827   2.792   7.149
42345SOL     OW27058   8.263   2.434   5.911
42345SOL    HW127059   8.270   2.345   5.865
42345SOL    HW227060   8.169   2.468   5.903
42346SOL     OW27061   9.105   2.466   6.792
42346SOL    HW127062   9.067   2.397   6.854
42346SOL    HW227063   9.187   2.430   6.748
42347SOL     OW27064   7.700   3.426   7.330
42347SOL    HW127065   7.670   3.483   7.406
42347SOL    HW227066   7.693   3.329   7.356
42348SOL     OW27067   8.119   2.326   6.855
42348SOL    HW127068   8.085   2.237   6.825
42348SOL    HW227069   8.145   2.380   6.775
42349SOL     OW27070   8.378   3.540   7.051
42349SOL    HW127071   8.354   3.522   6.956
42349SOL    HW227072   8.408   3.634   7.061
42350SOL     OW27073   7.921   2.362   5.777
42350SOL    HW127074   7.982   2.442   5.781
42350SOL    HW227075   7.826   2.393   5.784
42351SOL     OW27076   7.607   2.999   7.052
42351SOL    HW127077   7.629   2.938   7.128
42351SOL    HW227078   7.617   2.950   6.966
42352SOL     OW27079   8.795   2.921   6.820
42352SOL    HW127080   8.819   2.858   6.746
42352SOL    HW227081   8.705   2.961   6.802
42353SOL     OW27082   8.750   2.717   5.895
42353SOL    HW127083   8.664   2.686   5.937
42353SOL    HW227084   8.746   2.703   5.796
42354SOL     OW27085   9.207   3.609   6.740
42354SOL    HW127086   9.268   3.639   6.667
42354SOL    HW227087   9.169   3.520   6.718
42355SOL     OW27088   8.700   3.593   6.714
42355SOL    HW127089   8.784   3.598   6.660
42355SOL    HW227090   8.677   3.497   6.732
42356SOL     OW27091   7.531   3.120   6.608
42356SOL    HW127092   7.526   3.119   6.708
42356SOL    HW227093   7.448   3.079   6.570
42357SOL     OW27094   8.136   3.524   7.302
42357SOL    HW127095   8.080   3.605   7.311
42357SOL    HW227096   8.188   3.528   7.216
42358SOL     OW27097   9.174   1.997   6.109
42358SOL    HW127098   9.247   1.980   6.042
42358SOL    HW227099   9.143   1.910   6.147
42359SOL     OW27100   8.836   3.435   6.063
42359SOL    HW127101   8.903   3.447   5.989
42359SOL    HW227102   8.796   3.524   6.086
42360SOL     OW27103   7.578   3.656   7.437
42360SOL    HW127104   7.537   3.582   7.490
42360SOL    HW227105   7.642   3.707   7.495
42361SOL     OW27106   8.728   2.789   6.258
42361SOL    HW127107   8.788   2.708   6.260
42361SOL    HW227108   8.768   2.858   6.198
42362SOL     OW27109   8.278   3.135   7.008
42362SOL    HW127110   8.273   3.168   7.103
42362SOL    HW227111   8.192   3.154   6.962
42363SOL     OW27112   8.120   3.478   5.740
42363SOL    HW127113   8.129   3.488   5.641
42363SOL    HW227114   8.080   3.389   5.761
42364SOL     OW27115   9.098   3.582   6.980
42364SOL    HW127116   9.151   3.592   6.896
42364SOL    HW227117   9.071   3.672   7.014
42365SOL     OW27118   9.289   2.037   6.549
42365SOL    HW127119   9.328   1.952   6.513
42365SOL    HW227120   9.191   2.039   6.530
42366SOL     OW27121   7.711   2.188   6.306
42366SOL    HW127122   7.632   2.239   6.272
42366SOL    HW227123   7.702   2.173   6.404
42367SOL     OW27124   8.642   3.474   5.617
42367SOL    HW127125   8.648   3.381   5.654
42367SOL    HW227126   8.583   3.474   5.537
42368SOL     OW27127   8.270   2.864   6.958
42368SOL    HW127128   8.310   2.863   6.866
42368SOL    HW227129   8.280   2.956   6.998
42369SOL     OW27130   8.364   2.772   5.877
42369SOL    HW127131   8.427   2.810   5.809
42369SOL    HW227132   8.404   2.689   5.916
42370SOL     OW27133   8.952   3.469   5.630
42370SOL    HW127134   8.860   3.506   5.637
42370SOL    HW227135   8.990   3.489   5.540
42371SOL     OW27136   7.820   3.150   7.076
42371SOL    HW127137   7.807   3.243   7.042
42371SOL    HW227138   7.736   3.098   7.063
42372SOL     OW27139   9.062   3.154   6.875
42372SOL    HW127140   9.122   3.157   6.955
42372SOL    HW227141   8.987   3.218   6.888
42373SOL     OW27142   8.487   2.960   6.282
42373SOL    HW127143   8.417   2.913   6.336
42373SOL    HW227144   8.546   2.892   6.239
42374SOL     OW27145   8.462   2.098   6.557
42374SOL    HW127146   8.454   2.062   6.464
42374SOL    HW227147   8.460   2.022   6.622
42375SOL     OW27148   8.038   3.349   6.077
42375SOL    HW127149   8.080   3.291   6.007
42375SOL    HW227150   7.994   3.428   6.033
42376SOL     OW27151   9.157   2.247   6.967
42376SOL    HW127152   9.230   2.316   6.971
42376SOL    HW227153   9.185   2.172   6.908
42377SOL     OW27154   7.703   3.210   5.876
42377SOL    HW127155   7.607   3.211   5.849
42377SOL    HW227156   7.715   3.263   5.960
42378SOL     OW27157   7.553   2.875   7.312
42378SOL    HW127158   7.476   2.842   7.366
42378SOL    HW227159   7.638   2.845   7.354
42379SOL     OW27160   8.120   2.065   7.075
42379SOL    HW127161   8.210   2.049   7.035
42379SOL    HW227162   8.128   2.070   7.174
42380SOL     OW27163   7.523   2.207   5.619
42380SOL    HW127164   7.431   2.179   5.590
42380SOL    HW227165   7.554   2.284   5.563
42381SOL     OW27166   8.888   2.718   6.984
42381SOL    HW127167   8.831   2.770   6.921
42381SOL    HW227168   8.984   2.730   6.960
42382SOL     OW27169   7.520   2.028   5.904
42382SOL    HW127170   7.503   2.111   5.850
42382SOL    HW227171   7.610   1.991   5.882
42383SOL     OW27172   8.631   3.197   5.705
42383SOL    HW127173   8.532   3.186   5.707
42383SOL    HW227174   8.665   3.212   5.798
42384SOL     OW27175   8.061   2.704   7.017
42384SOL    HW127176   8.117   2.785   7.000
42384SOL    HW227177   8.120   2.624   7.020
42385SOL     OW27178   8.941   3.629   6.545
42385SOL    HW127179   8.974   3.693   6.476
42385SOL    HW227180   9.007   3.623   6.620
42386SOL     OW27181   8.164   2.427   7.294
42386SOL    HW127182   8.183   2.492   7.368
42386SOL    HW227183   8.224   2.347   7.303
42387SOL     OW27184   8.898   3.082   7.219
42387SOL    HW127185   8.889   3.072   7.318
42387SOL    HW227186   8.994   3.075   7.193
42388SOL     OW27187   7.838   3.603   7.146
42388SOL    HW127188   7.747   3.644   7.144
42388SOL    HW227189   7.831   3.509   7.178
42389SOL     OW27190   9.122   2.745   6.840
42389SOL    HW127191   9.095   2.656   6.803
42389SOL    HW227192   9.123   2.813   6.767
42390SOL     OW27193   8.673   2.187   6.035
42390SOL    HW127194   8.738   2.113   6.024
42390SOL    HW227195   8.693   2.237   6.119
42391SOL     OW27196   8.042   2.607   6.238
42391SOL    HW127197   8.092   2.692   6.219
42391SOL    HW227198   7.954   2.609   6.190
42392SOL     OW27199   9.225   2.204   7.228
42392SOL    HW127200   9.208   2.235   7.134
42392SOL    HW227201   9.141   2.167   7.266
42393SOL     OW27202   9.178   2.796   7.103
42393SOL    HW127203   9.216   2.887   7.118
42393SOL    HW227204   9.170   2.779   7.004
42394SOL     OW27205   8.307   3.236   5.602
42394SOL    HW127206   8.261   3.251   5.690
42394SOL    HW227207   8.351   3.321   5.572
42395SOL     OW27208   8.109   3.652   6.539
42395SOL    HW127209   8.063   3.740   6.526
42395SOL    HW227210   8.208   3.664   6.532
42396SOL     OW27211   8.307   2.818   6.447
42396SOL    HW127212   8.361   2.749   6.495
42396SOL    HW227213   8.275   2.887   6.513
42397SOL     OW27214   8.531   2.846   5.673
42397SOL    HW127215   8.508   2.899   5.591
42397SOL    HW227216   8.612   2.790   5.654
42398SOL     OW27217   9.309   3.431   6.437
42398SOL    HW127218   9.238   3.419   6.367
42398SOL    HW227219   9.310   3.352   6.497
42399SOL     OW27220   7.669   3.176   7.430
42399SOL    HW127221   7.604   3.103   7.409
42399SOL    HW227222   7.673   3.190   7.528
42400SOL     OW27223   7.527   3.102   6.239
42400SOL    HW127224   7.526   3.055   6.327
42400SOL    HW227225   7.609   3.074   6.188
42401SOL     OW27226   8.120   3.253   7.210
42401SOL    HW127227   8.042   3.203   7.248
42401SOL    HW227228   8.117   3.348   7.241
42402SOL     OW27229   9.272   2.054   6.813
42402SOL    HW127230   9.268   1.964   6.857
42402SOL    HW227231   9.275   2.043   6.714
42403SOL     OW27232   7.876   2.286   6.106
42403SOL    HW127233   7.906   2.214   6.044
42403SOL    HW227234   7.837   2.246   6.189
42404SOL     OW27235   9.153   3.349   6.690
42404SOL    HW127236   9.060   3.324   6.663
42404SOL    HW227237   9.179   3.299   6.772
42405SOL     OW27238   7.765   2.409   6.866
42405SOL    HW127239   7.803   2.350   6.938
42405SOL    HW227240   7.805   2.383   6.778
42406SOL     OW27241   8.260   3.448   6.273
42406SOL    HW127242   8.292   3.458   6.179
42406SOL    HW227243   8.181   3.386   6.275
42407SOL     OW27244   8.872   2.076   6.698
42407SOL    HW127245   8.924   2.011   6.753
42407SOL    HW227246   8.823   2.139   6.759
42408SOL     OW27247   8.449   1.896   6.740
42408SOL    HW127248   8.386   1.824   6.709
42408SOL    HW227249   8.542   1.860   6.740
42409SOL     OW27250   8.218   3.192   5.887
42409SOL    HW127251   8.172   3.105   5.904
42409SOL    HW227252   8.309   3.189   5.928
42410SOL     OW27253   8.066   3.429   6.870
42410SOL    HW127254   8.061   3.511   6.927
42410SOL    HW227255   8.155   3.426   6.825
42411SOL     OW27256   8.800   1.914   5.754
42411SOL    HW127257   8.835   1.873   5.670
42411SOL    HW227258   8.710   1.876   5.774
42412SOL     OW27259   8.748   2.315   6.277
42412SOL    HW127260   8.689   2.395   6.281
42412SOL    HW227261   8.763   2.280   6.370
42413SOL     OW27262   9.041   2.083   6.468
42413SOL    HW127263   8.957   2.082   6.522
42413SOL    HW227264   9.043   2.166   6.412
42414SOL     OW27265   7.487   2.939   5.886
42414SOL    HW127266   7.586   2.928   5.877
42414SOL    HW227267   7.447   2.853   5.918
42415SOL     OW27268   8.323   3.508   5.923
42415SOL    HW127269   8.246   3.473   5.869
42415SOL    HW227270   8.291   3.579   5.985
42416SOL     OW27271   7.678   2.490   7.561
42416SOL    HW127272   7.585   2.488   7.598
42416SOL    HW227273   7.679   2.451   7.469
42417SOL     OW27274   7.673   2.137   8.444
42417SOL    HW127275   7.708   2.120   8.536
42417SOL    HW227276   7.585   2.092   8.432
42418SOL     OW27277   7.467   2.230   8.095
42418SOL    HW127278   7.385   2.273   8.134
42418SOL    HW227279   7.439   2.157   8.032
42419SOL     OW27280   8.017   3.137   8.613
42419SOL    HW127281   7.924   3.130   8.576
42419SOL    HW227282   8.028   3.226   8.657
42420SOL     OW27283   9.003   3.373   8.151
42420SOL    HW127284   8.946   3.357   8.232
42420SOL    HW227285   8.944   3.383   8.071
42421SOL     OW27286   8.583   2.565   8.165
42421SOL    HW127287   8.640   2.643   8.140
42421SOL    HW227288   8.523   2.591   8.241
42422SOL     OW27289   9.203   2.469   7.679
42422SOL    HW127290   9.191   2.456   7.580
42422SOL    HW227291   9.173   2.388   7.728
42423SOL     OW27292   8.216   3.006   8.471
42423SOL    HW127293   8.138   3.023   8.531
42423SOL    HW227294   8.250   3.093   8.435
42424SOL     OW27295   8.298   2.660   9.271
42424SOL    HW127296   8.294   2.736   9.336
42424SOL    HW227297   8.320   2.696   9.180
42425SOL     OW27298   8.133   2.874   8.113
42425SOL    HW127299   8.202   2.858   8.183
42425SOL    HW227300   8.060   2.931   8.151
42426SOL     OW27301   8.134   3.023   9.251
42426SOL    HW127302   8.194   3.102   9.265
42426SOL    HW227303   8.048   3.054   9.210
42427SOL     OW27304   7.783   3.297   8.509
42427SOL    HW127305   7.705   3.266   8.456
42427SOL    HW227306   7.841   3.355   8.452
42428SOL     OW27307   8.908   3.367   8.787
42428SOL    HW127308   8.932   3.461   8.813
42428SOL    HW227309   8.892   3.313   8.869
42429SOL     OW27310   7.886   2.254   8.947
42429SOL    HW127311   7.968   2.198   8.956
42429SOL    HW227312   7.805   2.196   8.951
42430SOL     OW27313   9.051   2.309   8.185
42430SOL    HW127314   8.977   2.355   8.135
42430SOL    HW227315   9.102   2.377   8.238
42431SOL     OW27316   7.679   3.575   7.931
42431SOL    HW127317   7.713   3.652   7.985
42431SOL    HW227318   7.723   3.575   7.841
42432SOL     OW27319   8.575   3.203   9.138
42432SOL    HW127320   8.622   3.203   9.226
42432SOL    HW227321   8.527   3.116   9.127
42433SOL     OW27322   7.678   3.296   7.986
42433SOL    HW127323   7.652   3.392   7.986
42433SOL    HW227324   7.607   3.242   8.031
42434SOL     OW27325   7.688   2.953   8.334
42434SOL    HW127326   7.702   2.869   8.386
42434SOL    HW227327   7.633   3.017   8.389
42435SOL     OW27328   8.068   3.648   8.887
42435SOL    HW127329   7.976   3.631   8.922
42435SOL    HW227330   8.096   3.740   8.913
42436SOL     OW27331   8.054   2.826   7.571
42436SOL    HW127332   8.061   2.910   7.517
42436SOL    HW227333   8.100   2.839   7.659
42437SOL     OW27334   9.042   1.976   8.928
42437SOL    HW127335   9.024   2.043   8.856
42437SOL    HW227336   9.039   2.022   9.017
42438SOL     OW27337   7.570   2.505   8.011
42438SOL    HW127338   7.525   2.417   8.028
42438SOL    HW227339   7.569   2.559   8.095
42439SOL     OW27340   9.290   3.629   7.807
42439SOL    HW127341   9.344   3.600   7.887
42439SOL    HW227342   9.320   3.719   7.778
42440SOL     OW27343   7.475   3.458   7.565
42440SOL    HW127344   7.456   3.362   7.586
42440SOL    HW227345   7.442   3.516   7.640
42441SOL     OW27346   9.137   2.784   8.060
42441SOL    HW127347   9.232   2.755   8.068
42441SOL    HW227348   9.129   2.849   7.985
42442SOL     OW27349   9.089   2.970   7.880
42442SOL    HW127350   9.175   2.972   7.828
42442SOL    HW227351   9.103   3.017   7.968
42443SOL     OW27352   7.561   2.599   9.045
42443SOL    HW127353   7.649   2.586   9.090
42443SOL    HW227354   7.548   2.696   9.023
42444SOL     OW27355   8.061   3.227   8.174
42444SOL    HW127356   8.012   3.140   8.183
42444SOL    HW227357   8.038   3.270   8.087
42445SOL     OW27358   8.741   3.090   8.871
42445SOL    HW127359   8.778   3.017   8.813
42445SOL    HW227360   8.793   3.095   8.956
42446SOL     OW27361   8.257   1.866   7.950
42446SOL    HW127362   8.297   1.957   7.941
42446SOL    HW227363   8.157   1.874   7.956
42447SOL     OW27364   7.645   2.838   8.712
42447SOL    HW127365   7.734   2.793   8.698
42447SOL    HW227366   7.572   2.773   8.693
42448SOL     OW27367   8.973   2.861   7.638
42448SOL    HW127368   8.910   2.785   7.651
42448SOL    HW227369   9.021   2.879   7.724
42449SOL     OW27370   8.635   3.654   9.064
42449SOL    HW127371   8.659   3.714   8.988
42449SOL    HW227372   8.642   3.559   9.034
42450SOL     OW27373   7.765   2.113   9.249
42450SOL    HW127374   7.836   2.184   9.255
42450SOL    HW227375   7.677   2.152   9.277
42451SOL     OW27376   8.914   3.279   8.401
42451SOL    HW127377   8.855   3.285   8.481
42451SOL    HW227378   8.899   3.191   8.355
42452SOL     OW27379   9.115   3.576   8.020
42452SOL    HW127380   9.074   3.553   7.932
42452SOL    HW227381   9.097   3.502   8.085
42453SOL     OW27382   8.046   2.591   7.718
42453SOL    HW127383   8.070   2.660   7.650
42453SOL    HW227384   7.968   2.624   7.772
42454SOL     OW27385   8.729   2.207   8.392
42454SOL    HW127386   8.643   2.157   8.379
42454SOL    HW227387   8.791   2.153   8.448
42455SOL     OW27388   9.024   3.524   7.755
42455SOL    HW127389   9.113   3.570   7.758
42455SOL    HW227390   9.003   3.500   7.660
42456SOL     OW27391   8.255   2.467   8.913
42456SOL    HW127392   8.208   2.464   9.002
42456SOL    HW227393   8.204   2.412   8.847
42457SOL     OW27394   8.842   2.331   9.122
42457SOL    HW127395   8.822   2.374   9.210
42457SOL    HW227396   8.920   2.269   9.131
42458SOL     OW27397   8.421   2.752   9.020
42458SOL    HW127398   8.467   2.668   8.991
42458SOL    HW227399   8.365   2.786   8.945
42459SOL     OW27400   8.439   2.272   8.690
42459SOL    HW127401   8.362   2.306   8.744
42459SOL    HW227402   8.405   2.221   8.611
42460SOL     OW27403   8.489   2.563   7.877
42460SOL    HW127404   8.515   2.559   7.973
42460SOL    HW227405   8.404   2.512   7.863
42461SOL     OW27406   7.524   2.673   8.237
42461SOL    HW127407   7.623   2.661   8.246
42461SOL    HW227408   7.500   2.768   8.258
42462SOL     OW27409   7.578   3.683   9.019
42462SOL    HW127410   7.568   3.668   9.118
42462SOL    HW227411   7.492   3.719   8.983
42463SOL     OW27412   8.313   2.210   7.643
42463SOL    HW127413   8.372   2.273   7.594
42463SOL    HW227414   8.332   2.116   7.614
42464SOL     OW27415   9.167   2.447   9.279
42464SOL    HW127416   9.141   2.536   9.243
42464SOL    HW227417   9.165   2.379   9.206
42465SOL     OW27418   8.810   3.006   7.993
42465SOL    HW127419   8.893   2.977   7.945
42465SOL    HW227420   8.761   3.073   7.937
42466SOL     OW27421   7.998   2.058   8.333
42466SOL    HW127422   7.993   2.053   8.433
42466SOL    HW227423   8.000   2.154   8.304
42467SOL     OW27424   8.456   3.318   7.925
42467SOL    HW127425   8.410   3.390   7.873
42467SOL    HW227426   8.452   3.338   8.023
42468SOL     OW27427   7.799   3.663   8.301
42468SOL    HW127428   7.849   3.577   8.307
42468SOL    HW227429   7.864   3.740   8.298
42469SOL     OW27430   9.243   2.928   8.321
42469SOL    HW127431   9.181   2.913   8.245
42469SOL    HW227432   9.191   2.939   8.406
42470SOL     OW27433   8.675   3.412   8.954
42470SOL    HW127434   8.681   3.335   9.018
42470SOL    HW227435   8.623   3.386   8.874
42471SOL     OW27436   7.769   2.805   7.690
42471SOL    HW127437   7.851   2.844   7.648
42471SOL    HW227438   7.742   2.723   7.641
42472SOL     OW27439   8.906   2.597   8.176
42472SOL    HW127440   8.901   2.532   8.251
42472SOL    HW227441   8.986   2.656   8.189
42473SOL     OW27442   7.909   3.128   9.175
42473SOL    HW127443   7.859   3.129   9.089
42473SOL    HW227444   7.846   3.110   9.251
42474SOL     OW27445   8.559   3.638   7.685
42474SOL    HW127446   8.499   3.576   7.735
42474SOL    HW227447   8.590   3.594   7.600
42475SOL     OW27448   7.650   2.147   8.946
42475SOL    HW127449   7.570   2.207   8.933
42475SOL    HW227450   7.640   2.098   9.032
42476SOL     OW27451   9.080   3.239   7.529
42476SOL    HW127452   9.048   3.333   7.519
42476SOL    HW227453   9.004   3.176   7.517
42477SOL     OW27454   7.912   3.605   7.771
42477SOL    HW127455   7.945   3.644   7.857
42477SOL    HW227456   7.988   3.598   7.706
42478SOL     OW27457   8.848   1.969   7.874
42478SOL    HW127458   8.824   1.932   7.784
42478SOL    HW227459   8.947   1.985   7.878
42479SOL     OW27460   7.697   3.647   8.689
42479SOL    HW127461   7.754   3.582   8.739
42479SOL    HW227462   7.681   3.614   8.596
42480SOL     OW27463   8.388   3.560   8.352
42480SOL    HW127464   8.468   3.503   8.373
42480SOL    HW227465   8.339   3.520   8.275
42481SOL     OW27466   7.830   2.562   7.928
42481SOL    HW127467   7.875   2.472   7.925
42481SOL    HW227468   7.736   2.551   7.961
42482SOL     OW27469   8.995   2.084   9.177
42482SOL    HW127470   8.990   2.121   9.269
42482SOL    HW227471   8.923   2.015   9.165
42483SOL     OW27472   8.062   1.984   7.565
42483SOL    HW127473   8.160   1.962   7.572
42483SOL    HW227474   8.031   1.967   7.472
42484SOL     OW27475   8.229   2.126   9.197
42484SOL    HW127476   8.296   2.065   9.240
42484SOL    HW227477   8.156   2.145   9.262
42485SOL     OW27478   8.336   3.376   8.643
42485SOL    HW127479   8.313   3.351   8.549
42485SOL    HW227480   8.397   3.307   8.682
42486SOL     OW27481   8.799   2.452   8.881
42486SOL    HW127482   8.827   2.409   8.966
42486SOL    HW227483   8.824   2.548   8.882
42487SOL     OW27484   8.251   3.264   8.372
42487SOL    HW127485   8.341   3.278   8.330
42487SOL    HW227486   8.180   3.266   8.301
42488SOL     OW27487   8.370   2.365   8.347
42488SOL    HW127488   8.345   2.356   8.251
42488SOL    HW227489   8.418   2.283   8.378
42489SOL     OW27490   7.987   1.926   7.960
42489SOL    HW127491   7.906   1.927   8.018
42489SOL    HW227492   7.990   2.009   7.905
42490SOL     OW27493   8.882   3.050   7.489
42490SOL    HW127494   8.914   2.974   7.546
42490SOL    HW227495   8.790   3.077   7.519
42491SOL     OW27496   7.745   1.897   7.619
42491SOL    HW127497   7.794   1.981   7.598
42491SOL    HW227498   7.807   1.832   7.664
42492SOL     OW27499   8.383   2.098   7.928
42492SOL    HW127500   8.335   2.139   7.850
42492SOL    HW227501   8.482   2.096   7.909
42493SOL     OW27502   8.524   2.545   8.912
42493SOL    HW127503   8.444   2.484   8.915
42493SOL    HW227504   8.605   2.492   8.888
42494SOL     OW27505   8.675   3.432   8.241
42494SOL    HW127506   8.696   3.506   8.176
42494SOL    HW227507   8.743   3.432   8.314
42495SOL     OW27508   7.907   3.014   8.189
42495SOL    HW127509   7.836   2.987   8.254
42495SOL    HW227510   7.881   2.986   8.096
42496SOL     OW27511   8.719   3.659   8.039
42496SOL    HW127512   8.763   3.723   7.975
42496SOL    HW227513   8.669   3.711   8.109
42497SOL     OW27514   8.480   2.411   7.464
42497SOL    HW127515   8.439   2.493   7.425
42497SOL    HW227516   8.544   2.437   7.537
42498SOL     OW27517   7.526   2.418   8.834
42498SOL    HW127518   7.618   2.417   8.793
42498SOL    HW227519   7.520   2.492   8.901
42499SOL     OW27520   8.009   2.084   8.595
42499SOL    HW127521   8.047   2.000   8.632
42499SOL    HW227522   7.921   2.103   8.639
42500SOL     OW27523   8.314   2.316   8.090
42500SOL    HW127524   8.282   2.388   8.028
42500SOL    HW227525   8.338   2.235   8.037
42501SOL     OW27526   8.465   1.901   8.201
42501SOL    HW127527   8.393   1.906   8.132
42501SOL    HW227528   8.441   1.832   8.270
42502SOL     OW27529   8.877   3.035   8.315
42502SOL    HW127530   8.822   2.951   8.308
42502SOL    HW227531   8.903   3.064   8.223
42503SOL     OW27532   8.914   2.452   8.440
42503SOL    HW127533   8.884   2.357   8.447
42503SOL    HW227534   8.987   2.468   8.506
42504SOL     OW27535   9.305   2.695   7.825
42504SOL    HW127536   9.347   2.631   7.889
42504SOL    HW227537   9.267   2.644   7.747
42505SOL     OW27538   7.936   3.247   7.622
42505SOL    HW127539   7.849   3.232   7.669
42505SOL    HW227540   7.919   3.273   7.527
42506SOL     OW27541   9.112   3.142   8.105
42506SOL    HW127542   9.211   3.150   8.119
42506SOL    HW227543   9.067   3.226   8.136
42507SOL     OW27544   8.838   2.437   7.526
42507SOL    HW127545   8.784   2.416   7.607
42507SOL    HW227546   8.929   2.396   7.535
42508SOL     OW27547   7.975   2.118   7.776
42508SOL    HW127548   8.002   2.059   7.701
42508SOL    HW227549   7.975   2.213   7.745
42509SOL     OW27550   9.202   3.085   9.036
42509SOL    HW127551   9.293   3.046   9.023
42509SOL    HW227552   9.210   3.181   9.060
42510SOL     OW27553   8.512   3.209   8.788
42510SOL    HW127554   8.432   3.186   8.843
42510SOL    HW227555   8.595   3.183   8.837
42511SOL     OW27556   9.040   3.491   9.073
42511SOL    HW127557   9.067   3.525   8.983
42511SOL    HW227558   9.119   3.453   9.119
42512SOL     OW27559   8.559   3.057   8.548
42512SOL    HW127560   8.519   3.101   8.629
42512SOL    HW227561   8.518   3.094   8.465
42513SOL     OW27562   9.086   2.961   8.527
42513SOL    HW127563   9.091   3.042   8.586
42513SOL    HW227564   9.000   2.963   8.476
42514SOL     OW27565   8.363   1.951   8.850
42514SOL    HW127566   8.388   1.931   8.755
42514SOL    HW227567   8.435   2.007   8.892
42515SOL     OW27568   8.428   2.978   9.167
42515SOL    HW127569   8.329   2.984   9.177
42515SOL    HW227570   8.451   2.898   9.111
42516SOL     OW27571   8.153   2.912   7.816
42516SOL    HW127572   8.139   2.919   7.915
42516SOL    HW227573   8.237   2.861   7.798
42517SOL     OW27574   7.858   2.675   8.699
42517SOL    HW127575   7.944   2.687   8.749
42517SOL    HW227576   7.816   2.588   8.726
42518SOL     OW27577   8.722   2.248   8.710
42518SOL    HW127578   8.743   2.322   8.774
42518SOL    HW227579   8.633   2.265   8.667
42519SOL     OW27580   7.512   3.426   8.779
42519SOL    HW127581   7.466   3.508   8.745
42519SOL    HW227582   7.610   3.445   8.788
42520SOL     OW27583   7.815   2.962   7.949
42520SOL    HW127584   7.808   3.045   7.893
42520SOL    HW227585   7.819   2.882   7.889
42521SOL     OW27586   8.014   2.399   8.313
42521SOL    HW127587   8.026   2.465   8.239
42521SOL    HW227588   8.060   2.433   8.396
42522SOL     OW27589   8.700   3.210   7.836
42522SOL    HW127590   8.750   3.287   7.876
42522SOL    HW227591   8.605   3.212   7.868
42523SOL     OW27592   8.720   3.307   8.590
42523SOL    HW127593   8.767   3.320   8.677
42523SOL    HW227594   8.654   3.233   8.599
42524SOL     OW27595   9.030   2.501   7.920
42524SOL    HW127596   8.999   2.562   7.993
42524SOL    HW227597   9.080   2.553   7.851
42525SOL     OW27598   7.802   3.372   8.777
42525SOL    HW127599   7.781   3.328   8.690
42525SOL    HW227600   7.899   3.398   8.780
42526SOL     OW27601   7.850   2.613   9.046
42526SOL    HW127602   7.918   2.668   8.999
42526SOL    HW227603   7.890   2.525   9.073
42527SOL     OW27604   9.035   2.641   9.118
42527SOL    HW127605   8.943   2.679   9.113
42527SOL    HW227606   9.095   2.688   9.053
42528SOL     OW27607   8.461   1.967   9.218
42528SOL    HW127608   8.467   2.052   9.166
42528SOL    HW227609   8.493   1.891   9.161
42529SOL     OW27610   7.952   1.912   9.188
42529SOL    HW127611   7.910   1.855   9.118
42529SOL    HW227612   7.886   1.981   9.220
42530SOL     OW27613   8.021   2.732   8.477
42530SOL    HW127614   8.065   2.821   8.468
42530SOL    HW227615   7.958   2.732   8.554
42531SOL     OW27616   8.808   2.724   8.493
42531SOL    HW127617   8.733   2.724   8.427
42531SOL    HW227618   8.845   2.632   8.502
42532SOL     OW27619   8.657   2.387   7.723
42532SOL    HW127620   8.670   2.303   7.777
42532SOL    HW227621   8.628   2.461   7.783
42533SOL     OW27622   7.755   2.075   8.679
42533SOL    HW127623   7.732   2.112   8.769
42533SOL    HW227624   7.725   1.980   8.673
42534SOL     OW27625   7.485   3.172   8.730
42534SOL    HW127626   7.538   3.123   8.798
42534SOL    HW227627   7.507   3.270   8.735
42535SOL     OW27628   8.180   2.496   8.512
42535SOL    HW127629   8.239   2.470   8.436
42535SOL    HW227630   8.152   2.592   8.501
42536SOL     OW27631   9.176   2.797   9.302
42536SOL    HW127632   9.130   2.790   9.213
42536SOL    HW227633   9.114   2.841   9.368
42537SOL     OW27634   7.755   1.925   8.066
42537SOL    HW127635   7.744   2.019   8.099
42537SOL    HW227636   7.750   1.862   8.143
42538SOL     OW27637   9.070   2.229   7.822
42538SOL    HW127638   9.072   2.153   7.886
42538SOL    HW227639   9.022   2.306   7.862
42539SOL     OW27640   8.471   2.628   8.414
42539SOL    HW127641   8.486   2.649   8.510
42539SOL    HW227642   8.441   2.533   8.405
42540SOL     OW27643   8.428   3.435   9.148
42540SOL    HW127644   8.408   3.479   9.060
42540SOL    HW227645   8.467   3.344   9.132
42541SOL     OW27646   9.307   3.380   9.053
42541SOL    HW127647   9.321   3.407   8.958
42541SOL    HW227648   9.390   3.402   9.106
42542SOL     OW27649   7.798   2.760   9.252
42542SOL    HW127650   7.874   2.804   9.300
42542SOL    HW227651   7.833   2.713   9.170
42543SOL     OW27652   8.988   2.136   7.573
42543SOL    HW127653   8.927   2.061   7.596
42543SOL    HW227654   9.010   2.188   7.656
42544SOL     OW27655   8.751   2.700   7.490
42544SOL    HW127656   8.785   2.607   7.505
42544SOL    HW227657   8.769   2.727   7.395
42545SOL     OW27658   8.516   3.195   8.297
42545SOL    HW127659   8.523   3.111   8.242
42545SOL    HW227660   8.578   3.264   8.261
42546SOL     OW27661   7.767   2.672   8.397
42546SOL    HW127662   7.860   2.708   8.402
42546SOL    HW227663   7.761   2.587   8.449
42547SOL     OW27664   7.787   2.371   8.454
42547SOL    HW127665   7.735   2.288   8.437
42547SOL    HW227666   7.864   2.376   8.390
42548SOL     OW27667   8.586   2.242   9.126
42548SOL    HW127668   8.541   2.305   9.190
42548SOL    HW227669   8.679   2.273   9.109
42549SOL     OW27670   8.608   2.069   8.925
42549SOL    HW127671   8.608   2.133   9.002
42549SOL    HW227672   8.636   2.117   8.842
42550SOL     OW27673   7.456   3.188   7.648
42550SOL    HW127674   7.363   3.209   7.617
42550SOL    HW227675   7.466   3.089   7.661
42551SOL     OW27676   7.536   3.663   8.375
42551SOL    HW127677   7.494   3.577   8.348
42551SOL    HW227678   7.630   3.666   8.341
42552SOL     OW27679   7.952   3.430   8.358
42552SOL    HW127680   8.018   3.504   8.367
42552SOL    HW227681   7.996   3.351   8.316
42553SOL     OW27682   8.450   2.658   8.686
42553SOL    HW127683   8.491   2.626   8.772
42553SOL    HW227684   8.354   2.631   8.683
42554SOL     OW27685   7.488   2.406   8.562
42554SOL    HW127686   7.573   2.373   8.521
42554SOL    HW227687   7.501   2.421   8.660
42555SOL     OW27688   7.637   2.382   9.170
42555SOL    HW127689   7.696   2.342   9.100
42555SOL    HW227690   7.579   2.453   9.129
42556SOL     OW27691   8.817   2.812   9.108
42556SOL    HW127692   8.856   2.901   9.128
42556SOL    HW227693   8.827   2.792   9.011
42557SOL     OW27694   8.263   2.434   7.773
42557SOL    HW127695   8.270   2.345   7.727
42557SOL    HW227696   8.169   2.468   7.765
42558SOL     OW27697   9.105   2.466   8.654
42558SOL    HW127698   9.067   2.397   8.716
42558SOL    HW227699   9.187   2.430   8.610
42559SOL     OW27700   7.700   3.426   9.192
42559SOL    HW127701   7.670   3.483   9.268
42559SOL    HW227702   7.693   3.329   9.218
42560SOL     OW27703   8.119   2.326   8.717
42560SOL    HW127704   8.085   2.237   8.687
42560SOL    HW227705   8.145   2.380   8.637
42561SOL     OW27706   8.378   3.540   8.913
42561SOL    HW127707   8.354   3.522   8.818
42561SOL    HW227708   8.408   3.634   8.923
42562SOL     OW27709   7.921   2.362   7.639
42562SOL    HW127710   7.982   2.442   7.643
42562SOL    HW227711   7.826   2.393   7.646
42563SOL     OW27712   7.607   2.999   8.914
42563SOL    HW127713   7.629   2.938   8.990
42563SOL    HW227714   7.617   2.950   8.828
42564SOL     OW27715   8.795   2.921   8.682
42564SOL    HW127716   8.819   2.858   8.608
42564SOL    HW227717   8.705   2.961   8.664
42565SOL     OW27718   8.750   2.717   7.757
42565SOL    HW127719   8.664   2.686   7.799
42565SOL    HW227720   8.746   2.703   7.658
42566SOL     OW27721   9.207   3.609   8.602
42566SOL    HW127722   9.268   3.639   8.529
42566SOL    HW227723   9.169   3.520   8.580
42567SOL     OW27724   8.700   3.593   8.576
42567SOL    HW127725   8.784   3.598   8.522
42567SOL    HW227726   8.677   3.497   8.594
42568SOL     OW27727   7.531   3.120   8.470
42568SOL    HW127728   7.526   3.119   8.570
42568SOL    HW227729   7.448   3.079   8.432
42569SOL     OW27730   8.136   3.524   9.164
42569SOL    HW127731   8.080   3.605   9.173
42569SOL    HW227732   8.188   3.528   9.078
42570SOL     OW27733   9.174   1.997   7.971
42570SOL    HW127734   9.247   1.980   7.904
42570SOL    HW227735   9.143   1.910   8.009
42571SOL     OW27736   8.836   3.435   7.925
42571SOL    HW127737   8.903   3.447   7.851
42571SOL    HW227738   8.796   3.524   7.948
42572SOL     OW27739   7.578   3.656   9.299
42572SOL    HW127740   7.537   3.582   9.352
42572SOL    HW227741   7.642   3.707   9.357
42573SOL     OW27742   8.728   2.789   8.120
42573SOL    HW127743   8.788   2.708   8.122
42573SOL    HW227744   8.768   2.858   8.060
42574SOL     OW27745   8.278   3.135   8.870
42574SOL    HW127746   8.273   3.168   8.965
42574SOL    HW227747   8.192   3.154   8.824
42575SOL     OW27748   8.120   3.478   7.602
42575SOL    HW127749   8.129   3.488   7.503
42575SOL    HW227750   8.080   3.389   7.623
42576SOL     OW27751   9.098   3.582   8.842
42576SOL    HW127752   9.151   3.592   8.758
42576SOL    HW227753   9.071   3.672   8.876
42577SOL     OW27754   9.289   2.037   8.411
42577SOL    HW127755   9.328   1.952   8.375
42577SOL    HW227756   9.191   2.039   8.392
42578SOL     OW27757   7.711   2.188   8.168
42578SOL    HW127758   7.632   2.239   8.134
42578SOL    HW227759   7.702   2.173   8.266
42579SOL     OW27760   8.642   3.474   7.479
42579SOL    HW127761   8.648   3.381   7.516
42579SOL    HW227762   8.583   3.474   7.399
42580SOL     OW27763   8.270   2.864   8.820
42580SOL    HW127764   8.310   2.863   8.728
42580SOL    HW227765   8.280   2.956   8.860
42581SOL     OW27766   8.364   2.772   7.739
42581SOL    HW127767   8.427   2.810   7.671
42581SOL    HW227768   8.404   2.689   7.778
42582SOL     OW27769   8.952   3.469   7.492
42582SOL    HW127770   8.860   3.506   7.499
42582SOL    HW227771   8.990   3.489   7.402
42583SOL     OW27772   7.820   3.150   8.938
42583SOL    HW127773   7.807   3.243   8.904
42583SOL    HW227774   7.736   3.098   8.925
42584SOL     OW27775   9.062   3.154   8.737
42584SOL    HW127776   9.122   3.157   8.817
42584SOL    HW227777   8.987   3.218   8.750
42585SOL     OW27778   8.487   2.960   8.144
42585SOL    HW127779   8.417   2.913   8.198
42585SOL    HW227780   8.546   2.892   8.101
42586SOL     OW27781   8.462   2.098   8.419
42586SOL    HW127782   8.454   2.062   8.326
42586SOL    HW227783   8.460   2.022   8.484
42587SOL     OW27784   8.038   3.349   7.939
42587SOL    HW127785   8.080   3.291   7.869
42587SOL    HW227786   7.994   3.428   7.895
42588SOL     OW27787   9.157   2.247   8.829
42588SOL    HW127788   9.230   2.316   8.833
42588SOL    HW227789   9.185   2.172   8.770
42589SOL     OW27790   7.703   3.210   7.738
42589SOL    HW127791   7.607   3.211   7.711
42589SOL    HW227792   7.715   3.263   7.822
42590SOL     OW27793   7.553   2.875   9.174
42590SOL    HW127794   7.476   2.842   9.228
42590SOL    HW227795   7.638   2.845   9.216
42591SOL     OW27796   8.120   2.065   8.937
42591SOL    HW127797   8.210   2.049   8.897
42591SOL    HW227798   8.128   2.070   9.036
42592SOL     OW27799   7.523   2.207   7.481
42592SOL    HW127800   7.431   2.179   7.452
42592SOL    HW227801   7.554   2.284   7.425
42593SOL     OW27802   8.888   2.718   8.846
42593SOL    HW127803   8.831   2.770   8.783
42593SOL    HW227804   8.984   2.730   8.822
42594SOL     OW27805   7.520   2.028   7.766
42594SOL    HW127806   7.503   2.111   7.712
42594SOL    HW227807   7.610   1.991   7.744
42595SOL     OW27808   8.631   3.197   7.567
42595SOL    HW127809   8.532   3.186   7.569
42595SOL    HW227810   8.665   3.212   7.660
42596SOL     OW27811   8.061   2.704   8.879
42596SOL    HW127812   8.117   2.785   8.862
42596SOL    HW227813   8.120   2.624   8.882
42597SOL     OW27814   8.941   3.629   8.407
42597SOL    HW127815   8.974   3.693   8.338
42597SOL    HW227816   9.007   3.623   8.482
42598SOL     OW27817   8.164   2.427   9.156
42598SOL    HW127818   8.183   2.492   9.230
42598SOL    HW227819   8.224   2.347   9.165
42599SOL     OW27820   8.898   3.082   9.081
42599SOL    HW127821   8.889   3.072   9.180
42599SOL    HW227822   8.994   3.075   9.055
42600SOL     OW27823   7.838   3.603   9.008
42600SOL    HW127824   7.747   3.644   9.006
42600SOL    HW227825   7.831   3.509   9.040
42601SOL     OW27826   9.122   2.745   8.702
42601SOL    HW127827   9.095   2.656   8.665
42601SOL    HW227828   9.123   2.813   8.629
42602SOL     OW27829   8.673   2.187   7.897
42602SOL    HW127830   8.738   2.113   7.886
42602SOL    HW227831   8.693   2.237   7.981
42603SOL     OW27832   8.042   2.607   8.100
42603SOL    HW127833   8.092   2.692   8.081
42603SOL    HW227834   7.954   2.609   8.052
42604SOL     OW27835   9.225   2.204   9.090
42604SOL    HW127836   9.208   2.235   8.996
42604SOL    HW227837   9.141   2.167   9.128
42605SOL     OW27838   9.178   2.796   8.965
42605SOL    HW127839   9.216   2.887   8.980
42605SOL    HW227840   9.170   2.779   8.866
42606SOL     OW27841   8.307   3.236   7.464
42606SOL    HW127842   8.261   3.251   7.552
42606SOL    HW227843   8.351   3.321   7.434
42607SOL     OW27844   8.109   3.652   8.401
42607SOL    HW127845   8.063   3.740   8.388
42607SOL    HW227846   8.208   3.664   8.394
42608SOL     OW27847   8.307   2.818   8.309
42608SOL    HW127848   8.361   2.749   8.357
42608SOL    HW227849   8.275   2.887   8.375
42609SOL     OW27850   8.531   2.846   7.535
42609SOL    HW127851   8.508   2.899   7.453
42609SOL    HW227852   8.612   2.790   7.516
42610SOL     OW27853   9.309   3.431   8.299
42610SOL    HW127854   9.238   3.419   8.229
42610SOL    HW227855   9.310   3.352   8.359
42611SOL     OW27856   7.669   3.176   9.292
42611SOL    HW127857   7.604   3.103   9.271
42611SOL    HW227858   7.673   3.190   9.390
42612SOL     OW27859   7.527   3.102   8.101
42612SOL    HW127860   7.526   3.055   8.189
42612SOL    HW227861   7.609   3.074   8.050
42613SOL     OW27862   8.120   3.253   9.072
42613SOL    HW127863   8.042   3.203   9.110
42613SOL    HW227864   8.117   3.348   9.103
42614SOL     OW27865   9.272   2.054   8.675
42614SOL    HW127866   9.268   1.964   8.719
42614SOL    HW227867   9.275   2.043   8.576
42615SOL     OW27868   7.876   2.286   7.968
42615SOL    HW127869   7.906   2.214   7.906
42615SOL    HW227870   7.837   2.246   8.051
42616SOL     OW27871   9.153   3.349   8.552
42616SOL    HW127872   9.060   3.324   8.525
42616SOL    HW227873   9.179   3.299   8.634
42617SOL     OW27874   7.765   2.409   8.728
42617SOL    HW127875   7.803   2.350   8.800
42617SOL    HW227876   7.805   2.383   8.640
42618SOL     OW27877   8.260   3.448   8.135
42618SOL    HW127878   8.292   3.458   8.041
42618SOL    HW227879   8.181   3.386   8.137
42619SOL     OW27880   8.872   2.076   8.560
42619SOL    HW127881   8.924   2.011   8.615
42619SOL    HW227882   8.823   2.139   8.621
42620SOL     OW27883   8.449   1.896   8.602
42620SOL    HW127884   8.386   1.824   8.571
42620SOL    HW227885   8.542   1.860   8.602
42621SOL     OW27886   8.218   3.192   7.749
42621SOL    HW127887   8.172   3.105   7.766
42621SOL    HW227888   8.309   3.189   7.790
42622SOL     OW27889   8.066   3.429   8.732
42622SOL    HW127890   8.061   3.511   8.789
42622SOL    HW227891   8.155   3.426   8.687
42623SOL     OW27892   8.800   1.914   7.616
42623SOL    HW127893   8.835   1.873   7.532
42623SOL    HW227894   8.710   1.876   7.636
42624SOL     OW27895   8.748   2.315   8.139
42624SOL    HW127896   8.689   2.395   8.143
42624SOL    HW227897   8.763   2.280   8.232
42625SOL     OW27898   9.041   2.083   8.330
42625SOL    HW127899   8.957   2.082   8.384
42625SOL    HW227900   9.043   2.166   8.274
42626SOL     OW27901   7.487   2.939   7.748
42626SOL    HW127902   7.586   2.928   7.739
42626SOL    HW227903   7.447   2.853   7.780
42627SOL     OW27904   8.323   3.508   7.785
42627SOL    HW127905   8.246   3.473   7.731
42627SOL    HW227906   8.291   3.579   7.847
42628SOL     OW27907   7.678   2.490   9.423
42628SOL    HW127908   7.585   2.488   9.460
42628SOL    HW227909   7.679   2.451   9.331
42629SOL     OW27910   7.673   2.137  10.306
42629SOL    HW127911   7.708   2.120  10.398
42629SOL    HW227912   7.585   2.092  10.294
42630SOL     OW27913   7.467   2.230   9.957
42630SOL    HW127914   7.385   2.273   9.996
42630SOL    HW227915   7.439   2.157   9.894
42631SOL     OW27916   8.017   3.137  10.475
42631SOL    HW127917   7.924   3.130  10.438
42631SOL    HW227918   8.028   3.226  10.519
42632SOL     OW27919   9.003   3.373  10.013
42632SOL    HW127920   8.946   3.357  10.094
42632SOL    HW227921   8.944   3.383   9.933
42633SOL     OW27922   8.583   2.565  10.027
42633SOL    HW127923   8.640   2.643  10.002
42633SOL    HW227924   8.523   2.591  10.103
42634SOL     OW27925   9.203   2.469   9.541
42634SOL    HW127926   9.191   2.456   9.442
42634SOL    HW227927   9.173   2.388   9.590
42635SOL     OW27928   8.216   3.006  10.333
42635SOL    HW127929   8.138   3.023  10.393
42635SOL    HW227930   8.250   3.093  10.297
42636SOL     OW27931   8.298   2.660  11.133
42636SOL    HW127932   8.294   2.736  11.198
42636SOL    HW227933   8.320   2.696  11.042
42637SOL     OW27934   8.133   2.874   9.975
42637SOL    HW127935   8.202   2.858  10.045
42637SOL    HW227936   8.060   2.931  10.013
42638SOL     OW27937   8.134   3.023  11.113
42638SOL    HW127938   8.194   3.102  11.127
42638SOL    HW227939   8.048   3.054  11.072
42639SOL     OW27940   7.783   3.297  10.371
42639SOL    HW127941   7.705   3.266  10.318
42639SOL    HW227942   7.841   3.355  10.314
42640SOL     OW27943   8.908   3.367  10.649
42640SOL    HW127944   8.932   3.461  10.675
42640SOL    HW227945   8.892   3.313  10.731
42641SOL     OW27946   7.886   2.254  10.809
42641SOL    HW127947   7.968   2.198  10.818
42641SOL    HW227948   7.805   2.196  10.813
42642SOL     OW27949   9.051   2.309  10.047
42642SOL    HW127950   8.977   2.355   9.997
42642SOL    HW227951   9.102   2.377  10.100
42643SOL     OW27952   7.679   3.575   9.793
42643SOL    HW127953   7.713   3.652   9.847
42643SOL    HW227954   7.723   3.575   9.703
42644SOL     OW27955   8.575   3.203  11.000
42644SOL    HW127956   8.622   3.203  11.088
42644SOL    HW227957   8.527   3.116  10.989
42645SOL     OW27958   7.678   3.296   9.848
42645SOL    HW127959   7.652   3.392   9.848
42645SOL    HW227960   7.607   3.242   9.893
42646SOL     OW27961   7.688   2.953  10.196
42646SOL    HW127962   7.702   2.869  10.248
42646SOL    HW227963   7.633   3.017  10.251
42647SOL     OW27964   8.068   3.648  10.749
42647SOL    HW127965   7.976   3.631  10.784
42647SOL    HW227966   8.096   3.740  10.775
42648SOL     OW27967   8.054   2.826   9.433
42648SOL    HW127968   8.061   2.910   9.379
42648SOL    HW227969   8.100   2.839   9.521
42649SOL     OW27970   9.042   1.976  10.790
42649SOL    HW127971   9.024   2.043  10.718
42649SOL    HW227972   9.039   2.022  10.879
42650SOL     OW27973   7.570   2.505   9.873
42650SOL    HW127974   7.525   2.417   9.890
42650SOL    HW227975   7.569   2.559   9.957
42651SOL     OW27976   9.290   3.629   9.669
42651SOL    HW127977   9.344   3.600   9.749
42651SOL    HW227978   9.320   3.719   9.640
42652SOL     OW27979   7.475   3.458   9.427
42652SOL    HW127980   7.456   3.362   9.448
42652SOL    HW227981   7.442   3.516   9.502
42653SOL     OW27982   9.137   2.784   9.922
42653SOL    HW127983   9.232   2.755   9.930
42653SOL    HW227984   9.129   2.849   9.847
42654SOL     OW27985   9.089   2.970   9.742
42654SOL    HW127986   9.175   2.972   9.690
42654SOL    HW227987   9.103   3.017   9.830
42655SOL     OW27988   7.561   2.599  10.907
42655SOL    HW127989   7.649   2.586  10.952
42655SOL    HW227990   7.548   2.696  10.885
42656SOL     OW27991   8.061   3.227  10.036
42656SOL    HW127992   8.012   3.140  10.045
42656SOL    HW227993   8.038   3.270   9.949
42657SOL     OW27994   8.741   3.090  10.733
42657SOL    HW127995   8.778   3.017  10.675
42657SOL    HW227996   8.793   3.095  10.818
42658SOL     OW27997   8.257   1.866   9.812
42658SOL    HW127998   8.297   1.957   9.803
42658SOL    HW227999   8.157   1.874   9.818
42659SOL     OW28000   7.645   2.838  10.574
42659SOL    HW128001   7.734   2.793  10.560
42659SOL    HW228002   7.572   2.773  10.555
42660SOL     OW28003   8.973   2.861   9.500
42660SOL    HW128004   8.910   2.785   9.513
42660SOL    HW228005   9.021   2.879   9.586
42661SOL     OW28006   8.635   3.654  10.926
42661SOL    HW128007   8.659   3.714  10.850
42661SOL    HW228008   8.642   3.559  10.896
42662SOL     OW28009   7.765   2.113  11.111
42662SOL    HW128010   7.836   2.184  11.117
42662SOL    HW228011   7.677   2.152  11.139
42663SOL     OW28012   8.914   3.279  10.263
42663SOL    HW128013   8.855   3.285  10.343
42663SOL    HW228014   8.899   3.191  10.217
42664SOL     OW28015   9.115   3.576   9.882
42664SOL    HW128016   9.074   3.553   9.794
42664SOL    HW228017   9.097   3.502   9.947
42665SOL     OW28018   8.046   2.591   9.580
42665SOL    HW128019   8.070   2.660   9.512
42665SOL    HW228020   7.968   2.624   9.634
42666SOL     OW28021   8.729   2.207  10.254
42666SOL    HW128022   8.643   2.157  10.241
42666SOL    HW228023   8.791   2.153  10.310
42667SOL     OW28024   9.024   3.524   9.617
42667SOL    HW128025   9.113   3.570   9.620
42667SOL    HW228026   9.003   3.500   9.522
42668SOL     OW28027   8.255   2.467  10.775
42668SOL    HW128028   8.208   2.464  10.864
42668SOL    HW228029   8.204   2.412  10.709
42669SOL     OW28030   8.842   2.331  10.984
42669SOL    HW128031   8.822   2.374  11.072
42669SOL    HW228032   8.920   2.269  10.993
42670SOL     OW28033   8.421   2.752  10.882
42670SOL    HW128034   8.467   2.668  10.853
42670SOL    HW228035   8.365   2.786  10.807
42671SOL     OW28036   8.439   2.272  10.552
42671SOL    HW128037   8.362   2.306  10.606
42671SOL    HW228038   8.405   2.221  10.473
42672SOL     OW28039   8.489   2.563   9.739
42672SOL    HW128040   8.515   2.559   9.835
42672SOL    HW228041   8.404   2.512   9.725
42673SOL     OW28042   7.524   2.673  10.099
42673SOL    HW128043   7.623   2.661  10.108
42673SOL    HW228044   7.500   2.768  10.120
42674SOL     OW28045   7.578   3.683  10.881
42674SOL    HW128046   7.568   3.668  10.980
42674SOL    HW228047   7.492   3.719  10.845
42675SOL     OW28048   8.313   2.210   9.505
42675SOL    HW128049   8.372   2.273   9.456
42675SOL    HW228050   8.332   2.116   9.476
42676SOL     OW28051   9.167   2.447  11.141
42676SOL    HW128052   9.141   2.536  11.105
42676SOL    HW228053   9.165   2.379  11.068
42677SOL     OW28054   8.810   3.006   9.855
42677SOL    HW128055   8.893   2.977   9.807
42677SOL    HW228056   8.761   3.073   9.799
42678SOL     OW28057   7.998   2.058  10.195
42678SOL    HW128058   7.993   2.053  10.295
42678SOL    HW228059   8.000   2.154  10.166
42679SOL     OW28060   8.456   3.318   9.787
42679SOL    HW128061   8.410   3.390   9.735
42679SOL    HW228062   8.452   3.338   9.885
42680SOL     OW28063   7.799   3.663  10.163
42680SOL    HW128064   7.849   3.577  10.169
42680SOL    HW228065   7.864   3.740  10.160
42681SOL     OW28066   9.243   2.928  10.183
42681SOL    HW128067   9.181   2.913  10.107
42681SOL    HW228068   9.191   2.939  10.268
42682SOL     OW28069   8.675   3.412  10.816
42682SOL    HW128070   8.681   3.335  10.880
42682SOL    HW228071   8.623   3.386  10.736
42683SOL     OW28072   7.769   2.805   9.552
42683SOL    HW128073   7.851   2.844   9.510
42683SOL    HW228074   7.742   2.723   9.503
42684SOL     OW28075   8.906   2.597  10.038
42684SOL    HW128076   8.901   2.532  10.113
42684SOL    HW228077   8.986   2.656  10.051
42685SOL     OW28078   7.909   3.128  11.037
42685SOL    HW128079   7.859   3.129  10.951
42685SOL    HW228080   7.846   3.110  11.113
42686SOL     OW28081   8.559   3.638   9.547
42686SOL    HW128082   8.499   3.576   9.597
42686SOL    HW228083   8.590   3.594   9.462
42687SOL     OW28084   7.650   2.147  10.808
42687SOL    HW128085   7.570   2.207  10.795
42687SOL    HW228086   7.640   2.098  10.894
42688SOL     OW28087   9.080   3.239   9.391
42688SOL    HW128088   9.048   3.333   9.381
42688SOL    HW228089   9.004   3.176   9.379
42689SOL     OW28090   7.912   3.605   9.633
42689SOL    HW128091   7.945   3.644   9.719
42689SOL    HW228092   7.988   3.598   9.568
42690SOL     OW28093   8.848   1.969   9.736
42690SOL    HW128094   8.824   1.932   9.646
42690SOL    HW228095   8.947   1.985   9.740
42691SOL     OW28096   7.697   3.647  10.551
42691SOL    HW128097   7.754   3.582  10.601
42691SOL    HW228098   7.681   3.614  10.458
42692SOL     OW28099   8.388   3.560  10.214
42692SOL    HW128100   8.468   3.503  10.235
42692SOL    HW228101   8.339   3.520  10.137
42693SOL     OW28102   7.830   2.562   9.790
42693SOL    HW128103   7.875   2.472   9.787
42693SOL    HW228104   7.736   2.551   9.823
42694SOL     OW28105   8.995   2.084  11.039
42694SOL    HW128106   8.990   2.121  11.131
42694SOL    HW228107   8.923   2.015  11.027
42695SOL     OW28108   8.062   1.984   9.427
42695SOL    HW128109   8.160   1.962   9.434
42695SOL    HW228110   8.031   1.967   9.334
42696SOL     OW28111   8.229   2.126  11.059
42696SOL    HW128112   8.296   2.065  11.102
42696SOL    HW228113   8.156   2.145  11.124
42697SOL     OW28114   8.336   3.376  10.505
42697SOL    HW128115   8.313   3.351  10.411
42697SOL    HW228116   8.397   3.307  10.544
42698SOL     OW28117   8.799   2.452  10.743
42698SOL    HW128118   8.827   2.409  10.828
42698SOL    HW228119   8.824   2.548  10.744
42699SOL     OW28120   8.251   3.264  10.234
42699SOL    HW128121   8.341   3.278  10.192
42699SOL    HW228122   8.180   3.266  10.163
42700SOL     OW28123   8.370   2.365  10.209
42700SOL    HW128124   8.345   2.356  10.113
42700SOL    HW228125   8.418   2.283  10.240
42701SOL     OW28126   7.987   1.926   9.822
42701SOL    HW128127   7.906   1.927   9.880
42701SOL    HW228128   7.990   2.009   9.767
42702SOL     OW28129   8.882   3.050   9.351
42702SOL    HW128130   8.914   2.974   9.408
42702SOL    HW228131   8.790   3.077   9.381
42703SOL     OW28132   7.745   1.897   9.481
42703SOL    HW128133   7.794   1.981   9.460
42703SOL    HW228134   7.807   1.832   9.526
42704SOL     OW28135   8.383   2.098   9.790
42704SOL    HW128136   8.335   2.139   9.712
42704SOL    HW228137   8.482   2.096   9.771
42705SOL     OW28138   8.524   2.545  10.774
42705SOL    HW128139   8.444   2.484  10.777
42705SOL    HW228140   8.605   2.492  10.750
42706SOL     OW28141   8.675   3.432  10.103
42706SOL    HW128142   8.696   3.506  10.038
42706SOL    HW228143   8.743   3.432  10.176
42707SOL     OW28144   7.907   3.014  10.051
42707SOL    HW128145   7.836   2.987  10.116
42707SOL    HW228146   7.881   2.986   9.958
42708SOL     OW28147   8.719   3.659   9.901
42708SOL    HW128148   8.763   3.723   9.837
42708SOL    HW228149   8.669   3.711   9.971
42709SOL     OW28150   8.480   2.411   9.326
42709SOL    HW128151   8.439   2.493   9.287
42709SOL    HW228152   8.544   2.437   9.399
42710SOL     OW28153   7.526   2.418  10.696
42710SOL    HW128154   7.618   2.417  10.655
42710SOL    HW228155   7.520   2.492  10.763
42711SOL     OW28156   8.009   2.084  10.457
42711SOL    HW128157   8.047   2.000  10.494
42711SOL    HW228158   7.921   2.103  10.501
42712SOL     OW28159   8.314   2.316   9.952
42712SOL    HW128160   8.282   2.388   9.890
42712SOL    HW228161   8.338   2.235   9.899
42713SOL     OW28162   8.465   1.901  10.063
42713SOL    HW128163   8.393   1.906   9.994
42713SOL    HW228164   8.441   1.832  10.132
42714SOL     OW28165   8.877   3.035  10.177
42714SOL    HW128166   8.822   2.951  10.170
42714SOL    HW228167   8.903   3.064  10.085
42715SOL     OW28168   8.914   2.452  10.302
42715SOL    HW128169   8.884   2.357  10.309
42715SOL    HW228170   8.987   2.468  10.368
42716SOL     OW28171   9.305   2.695   9.687
42716SOL    HW128172   9.347   2.631   9.751
42716SOL    HW228173   9.267   2.644   9.609
42717SOL     OW28174   7.936   3.247   9.484
42717SOL    HW128175   7.849   3.232   9.531
42717SOL    HW228176   7.919   3.273   9.389
42718SOL     OW28177   9.112   3.142   9.967
42718SOL    HW128178   9.211   3.150   9.981
42718SOL    HW228179   9.067   3.226   9.998
42719SOL     OW28180   8.838   2.437   9.388
42719SOL    HW128181   8.784   2.416   9.469
42719SOL    HW228182   8.929   2.396   9.397
42720SOL     OW28183   7.975   2.118   9.638
42720SOL    HW128184   8.002   2.059   9.563
42720SOL    HW228185   7.975   2.213   9.607
42721SOL     OW28186   9.202   3.085  10.898
42721SOL    HW128187   9.293   3.046  10.885
42721SOL    HW228188   9.210   3.181  10.922
42722SOL     OW28189   8.512   3.209  10.650
42722SOL    HW128190   8.432   3.186  10.705
42722SOL    HW228191   8.595   3.183  10.699
42723SOL     OW28192   9.040   3.491  10.935
42723SOL    HW128193   9.067   3.525  10.845
42723SOL    HW228194   9.119   3.453  10.981
42724SOL     OW28195   8.559   3.057  10.410
42724SOL    HW128196   8.519   3.101  10.491
42724SOL    HW228197   8.518   3.094  10.327
42725SOL     OW28198   9.086   2.961  10.389
42725SOL    HW128199   9.091   3.042  10.448
42725SOL    HW228200   9.000   2.963  10.338
42726SOL     OW28201   8.363   1.951  10.712
42726SOL    HW128202   8.388   1.931  10.617
42726SOL    HW228203   8.435   2.007  10.754
42727SOL     OW28204   8.428   2.978  11.029
42727SOL    HW128205   8.329   2.984  11.039
42727SOL    HW228206   8.451   2.898  10.973
42728SOL     OW28207   8.153   2.912   9.678
42728SOL    HW128208   8.139   2.919   9.777
42728SOL    HW228209   8.237   2.861   9.660
42729SOL     OW28210   7.858   2.675  10.561
42729SOL    HW128211   7.944   2.687  10.611
42729SOL    HW228212   7.816   2.588  10.588
42730SOL     OW28213   8.722   2.248  10.572
42730SOL    HW128214   8.743   2.322  10.636
42730SOL    HW228215   8.633   2.265  10.529
42731SOL     OW28216   7.512   3.426  10.641
42731SOL    HW128217   7.466   3.508  10.607
42731SOL    HW228218   7.610   3.445  10.650
42732SOL     OW28219   7.815   2.962   9.811
42732SOL    HW128220   7.808   3.045   9.755
42732SOL    HW228221   7.819   2.882   9.751
42733SOL     OW28222   8.014   2.399  10.175
42733SOL    HW128223   8.026   2.465  10.101
42733SOL    HW228224   8.060   2.433  10.258
42734SOL     OW28225   8.700   3.210   9.698
42734SOL    HW128226   8.750   3.287   9.738
42734SOL    HW228227   8.605   3.212   9.730
42735SOL     OW28228   8.720   3.307  10.452
42735SOL    HW128229   8.767   3.320  10.539
42735SOL    HW228230   8.654   3.233  10.461
42736SOL     OW28231   9.030   2.501   9.782
42736SOL    HW128232   8.999   2.562   9.855
42736SOL    HW228233   9.080   2.553   9.713
42737SOL     OW28234   7.802   3.372  10.639
42737SOL    HW128235   7.781   3.328  10.552
42737SOL    HW228236   7.899   3.398  10.642
42738SOL     OW28237   7.850   2.613  10.908
42738SOL    HW128238   7.918   2.668  10.861
42738SOL    HW228239   7.890   2.525  10.935
42739SOL     OW28240   9.035   2.641  10.980
42739SOL    HW128241   8.943   2.679  10.975
42739SOL    HW228242   9.095   2.688  10.915
42740SOL     OW28243   8.461   1.967  11.080
42740SOL    HW128244   8.467   2.052  11.028
42740SOL    HW228245   8.493   1.891  11.023
42741SOL     OW28246   7.952   1.912  11.050
42741SOL    HW128247   7.910   1.855  10.980
42741SOL    HW228248   7.886   1.981  11.082
42742SOL     OW28249   8.021   2.732  10.339
42742SOL    HW128250   8.065   2.821  10.330
42742SOL    HW228251   7.958   2.732  10.416
42743SOL     OW28252   8.808   2.724  10.355
42743SOL    HW128253   8.733   2.724  10.289
42743SOL    HW228254   8.845   2.632  10.364
42744SOL     OW28255   8.657   2.387   9.585
42744SOL    HW128256   8.670   2.303   9.639
42744SOL    HW228257   8.628   2.461   9.645
42745SOL     OW28258   7.755   2.075  10.541
42745SOL    HW128259   7.732   2.112  10.631
42745SOL    HW228260   7.725   1.980  10.535
42746SOL     OW28261   7.485   3.172  10.592
42746SOL    HW128262   7.538   3.123  10.660
42746SOL    HW228263   7.507   3.270  10.597
42747SOL     OW28264   8.180   2.496  10.374
42747SOL    HW128265   8.239   2.470  10.298
42747SOL    HW228266   8.152   2.592  10.363
42748SOL     OW28267   9.176   2.797  11.164
42748SOL    HW128268   9.130   2.790  11.075
42748SOL    HW228269   9.114   2.841  11.230
42749SOL     OW28270   7.755   1.925   9.928
42749SOL    HW128271   7.744   2.019   9.961
42749SOL    HW228272   7.750   1.862  10.005
42750SOL     OW28273   9.070   2.229   9.684
42750SOL    HW128274   9.072   2.153   9.748
42750SOL    HW228275   9.022   2.306   9.724
42751SOL     OW28276   8.471   2.628  10.276
42751SOL    HW128277   8.486   2.649  10.372
42751SOL    HW228278   8.441   2.533  10.267
42752SOL     OW28279   8.428   3.435  11.010
42752SOL    HW128280   8.408   3.479  10.922
42752SOL    HW228281   8.467   3.344  10.994
42753SOL     OW28282   9.307   3.380  10.915
42753SOL    HW128283   9.321   3.407  10.820
42753SOL    HW228284   9.390   3.402  10.968
42754SOL     OW28285   7.798   2.760  11.114
42754SOL    HW128286   7.874   2.804  11.162
42754SOL    HW228287   7.833   2.713  11.032
42755SOL     OW28288   8.988   2.136   9.435
42755SOL    HW128289   8.927   2.061   9.458
42755SOL    HW228290   9.010   2.188   9.518
42756SOL     OW28291   8.751   2.700   9.352
42756SOL    HW128292   8.785   2.607   9.367
42756SOL    HW228293   8.769   2.727   9.257
42757SOL     OW28294   8.516   3.195  10.159
42757SOL    HW128295   8.523   3.111  10.104
42757SOL    HW228296   8.578   3.264  10.123
42758SOL     OW28297   7.767   2.672  10.259
42758SOL    HW128298   7.860   2.708  10.264
42758SOL    HW228299   7.761   2.587  10.311
42759SOL     OW28300   7.787   2.371  10.316
42759SOL    HW128301   7.735   2.288  10.299
42759SOL    HW228302   7.864   2.376  10.252
42760SOL     OW28303   8.586   2.242  10.988
42760SOL    HW128304   8.541   2.305  11.052
42760SOL    HW228305   8.679   2.273  10.971
42761SOL     OW28306   8.608   2.069  10.787
42761SOL    HW128307   8.608   2.133  10.864
42761SOL    HW228308   8.636   2.117  10.704
42762SOL     OW28309   7.456   3.188   9.510
42762SOL    HW128310   7.363   3.209   9.479
42762SOL    HW228311   7.466   3.089   9.523
42763SOL     OW28312   7.536   3.663  10.237
42763SOL    HW128313   7.494   3.577  10.210
42763SOL    HW228314   7.630   3.666  10.203
42764SOL     OW28315   7.952   3.430  10.220
42764SOL    HW128316   8.018   3.504  10.229
42764SOL    HW228317   7.996   3.351  10.178
42765SOL     OW28318   8.450   2.658  10.548
42765SOL    HW128319   8.491   2.626  10.634
42765SOL    HW228320   8.354   2.631  10.545
42766SOL     OW28321   7.488   2.406  10.424
42766SOL    HW128322   7.573   2.373  10.383
42766SOL    HW228323   7.501   2.421  10.522
42767SOL     OW28324   7.637   2.382  11.032
42767SOL    HW128325   7.696   2.342  10.962
42767SOL    HW228326   7.579   2.453  10.991
42768SOL     OW28327   8.817   2.812  10.970
42768SOL    HW128328   8.856   2.901  10.990
42768SOL    HW228329   8.827   2.792  10.873
42769SOL     OW28330   8.263   2.434   9.635
42769SOL    HW128331   8.270   2.345   9.589
42769SOL    HW228332   8.169   2.468   9.627
42770SOL     OW28333   9.105   2.466  10.516
42770SOL    HW128334   9.067   2.397  10.578
42770SOL    HW228335   9.187   2.430  10.472
42771SOL     OW28336   7.700   3.426  11.054
42771SOL    HW128337   7.670   3.483  11.130
42771SOL    HW228338   7.693   3.329  11.080
42772SOL     OW28339   8.119   2.326  10.579
42772SOL    HW128340   8.085   2.237  10.549
42772SOL    HW228341   8.145   2.380  10.499
42773SOL     OW28342   8.378   3.540  10.775
42773SOL    HW128343   8.354   3.522  10.680
42773SOL    HW228344   8.408   3.634  10.785
42774SOL     OW28345   7.921   2.362   9.501
42774SOL    HW128346   7.982   2.442   9.505
42774SOL    HW228347   7.826   2.393   9.508
42775SOL     OW28348   7.607   2.999  10.776
42775SOL    HW128349   7.629   2.938  10.852
42775SOL    HW228350   7.617   2.950  10.690
42776SOL     OW28351   8.795   2.921  10.544
42776SOL    HW128352   8.819   2.858  10.470
42776SOL    HW228353   8.705   2.961  10.526
42777SOL     OW28354   8.750   2.717   9.619
42777SOL    HW128355   8.664   2.686   9.661
42777SOL    HW228356   8.746   2.703   9.520
42778SOL     OW28357   9.207   3.609  10.464
42778SOL    HW128358   9.268   3.639  10.391
42778SOL    HW228359   9.169   3.520  10.442
42779SOL     OW28360   8.700   3.593  10.438
42779SOL    HW128361   8.784   3.598  10.384
42779SOL    HW228362   8.677   3.497  10.456
42780SOL     OW28363   7.531   3.120  10.332
42780SOL    HW128364   7.526   3.119  10.432
42780SOL    HW228365   7.448   3.079  10.294
42781SOL     OW28366   8.136   3.524  11.026
42781SOL    HW128367   8.080   3.605  11.035
42781SOL    HW228368   8.188   3.528  10.940
42782SOL     OW28369   9.174   1.997   9.833
42782SOL    HW128370   9.247   1.980   9.766
42782SOL    HW228371   9.143   1.910   9.871
42783SOL     OW28372   8.836   3.435   9.787
42783SOL    HW128373   8.903   3.447   9.713
42783SOL    HW228374   8.796   3.524   9.810
42784SOL     OW28375   7.578   3.656  11.161
42784SOL    HW128376   7.537   3.582  11.214
42784SOL    HW228377   7.642   3.707  11.219
42785SOL     OW28378   8.728   2.789   9.982
42785SOL    HW128379   8.788   2.708   9.984
42785SOL    HW228380   8.768   2.858   9.922
42786SOL     OW28381   8.278   3.135  10.732
42786SOL    HW128382   8.273   3.168  10.827
42786SOL    HW228383   8.192   3.154  10.686
42787SOL     OW28384   8.120   3.478   9.464
42787SOL    HW128385   8.129   3.488   9.365
42787SOL    HW228386   8.080   3.389   9.485
42788SOL     OW28387   9.098   3.582  10.704
42788SOL    HW128388   9.151   3.592  10.620
42788SOL    HW228389   9.071   3.672  10.738
42789SOL     OW28390   9.289   2.037  10.273
42789SOL    HW128391   9.328   1.952  10.237
42789SOL    HW228392   9.191   2.039  10.254
42790SOL     OW28393   7.711   2.188  10.030
42790SOL    HW128394   7.632   2.239   9.996
42790SOL    HW228395   7.702   2.173  10.128
42791SOL     OW28396   8.642   3.474   9.341
42791SOL    HW128397   8.648   3.381   9.378
42791SOL    HW228398   8.583   3.474   9.261
42792SOL     OW28399   8.270   2.864  10.682
42792SOL    HW128400   8.310   2.863  10.590
42792SOL    HW228401   8.280   2.956  10.722
42793SOL     OW28402   8.364   2.772   9.601
42793SOL    HW128403   8.427   2.810   9.533
42793SOL    HW228404   8.404   2.689   9.640
42794SOL     OW28405   8.952   3.469   9.354
42794SOL    HW128406   8.860   3.506   9.361
42794SOL    HW228407   8.990   3.489   9.264
42795SOL     OW28408   7.820   3.150  10.800
42795SOL    HW128409   7.807   3.243  10.766
42795SOL    HW228410   7.736   3.098  10.787
42796SOL     OW28411   9.062   3.154  10.599
42796SOL    HW128412   9.122   3.157  10.679
42796SOL    HW228413   8.987   3.218  10.612
42797SOL     OW28414   8.487   2.960  10.006
42797SOL    HW128415   8.417   2.913  10.060
42797SOL    HW228416   8.546   2.892   9.963
42798SOL     OW28417   8.462   2.098  10.281
42798SOL    HW128418   8.454   2.062  10.188
42798SOL    HW228419   8.460   2.022  10.346
42799SOL     OW28420   8.038   3.349   9.801
42799SOL    HW128421   8.080   3.291   9.731
42799SOL    HW228422   7.994   3.428   9.757
42800SOL     OW28423   9.157   2.247  10.691
42800SOL    HW128424   9.230   2.316  10.695
42800SOL    HW228425   9.185   2.172  10.632
42801SOL     OW28426   7.703   3.210   9.600
42801SOL    HW128427   7.607   3.211   9.573
42801SOL    HW228428   7.715   3.263   9.684
42802SOL     OW28429   7.553   2.875  11.036
42802SOL    HW128430   7.476   2.842  11.090
42802SOL    HW228431   7.638   2.845  11.078
42803SOL     OW28432   8.120   2.065  10.799
42803SOL    HW128433   8.210   2.049  10.759
42803SOL    HW228434   8.128   2.070  10.898
42804SOL     OW28435   7.523   2.207   9.343
42804SOL    HW128436   7.431   2.179   9.314
42804SOL    HW228437   7.554   2.284   9.287
42805SOL     OW28438   8.888   2.718  10.708
42805SOL    HW128439   8.831   2.770  10.645
42805SOL    HW228440   8.984   2.730  10.684
42806SOL     OW28441   7.520   2.028   9.628
42806SOL    HW128442   7.503   2.111   9.574
42806SOL    HW228443   7.610   1.991   9.606
42807SOL     OW28444   8.631   3.197   9.429
42807SOL    HW128445   8.532   3.186   9.431
42807SOL    HW228446   8.665   3.212   9.522
42808SOL     OW28447   8.061   2.704  10.741
42808SOL    HW128448   8.117   2.785  10.724
42808SOL    HW228449   8.120   2.624  10.744
42809SOL     OW28450   8.941   3.629  10.269
42809SOL    HW128451   8.974   3.693  10.200
42809SOL    HW228452   9.007   3.623  10.344
42810SOL     OW28453   8.164   2.427  11.018
42810SOL    HW128454   8.183   2.492  11.092
42810SOL    HW228455   8.224   2.347  11.027
42811SOL     OW28456   8.898   3.082  10.943
42811SOL    HW128457   8.889   3.072  11.042
42811SOL    HW228458   8.994   3.075  10.917
42812SOL     OW28459   7.838   3.603  10.870
42812SOL    HW128460   7.747   3.644  10.868
42812SOL    HW228461   7.831   3.509  10.902
42813SOL     OW28462   9.122   2.745  10.564
42813SOL    HW128463   9.095   2.656  10.527
42813SOL    HW228464   9.123   2.813  10.491
42814SOL     OW28465   8.673   2.187   9.759
42814SOL    HW128466   8.738   2.113   9.748
42814SOL    HW228467   8.693   2.237   9.843
42815SOL     OW28468   8.042   2.607   9.962
42815SOL    HW128469   8.092   2.692   9.943
42815SOL    HW228470   7.954   2.609   9.914
42816SOL     OW28471   9.225   2.204  10.952
42816SOL    HW128472   9.208   2.235  10.858
42816SOL    HW228473   9.141   2.167  10.990
42817SOL     OW28474   9.178   2.796  10.827
42817SOL    HW128475   9.216   2.887  10.842
42817SOL    HW228476   9.170   2.779  10.728
42818SOL     OW28477   8.307   3.236   9.326
42818SOL    HW128478   8.261   3.251   9.414
42818SOL    HW228479   8.351   3.321   9.296
42819SOL     OW28480   8.109   3.652  10.263
42819SOL    HW128481   8.063   3.740  10.250
42819SOL    HW228482   8.208   3.664  10.256
42820SOL     OW28483   8.307   2.818  10.171
42820SOL    HW128484   8.361   2.749  10.219
42820SOL    HW228485   8.275   2.887  10.237
42821SOL     OW28486   8.531   2.846   9.397
42821SOL    HW128487   8.508   2.899   9.315
42821SOL    HW228488   8.612   2.790   9.378
42822SOL     OW28489   9.309   3.431  10.161
42822SOL    HW128490   9.238   3.419  10.091
42822SOL    HW228491   9.310   3.352  10.221
42823SOL     OW28492   7.669   3.176  11.154
42823SOL    HW128493   7.604   3.103  11.133
42823SOL    HW228494   7.673   3.190  11.252
42824SOL     OW28495   7.527   3.102   9.963
42824SOL    HW128496   7.526   3.055  10.051
42824SOL    HW228497   7.609   3.074   9.912
42825SOL     OW28498   8.120   3.253  10.934
42825SOL    HW128499   8.042   3.203  10.972
42825SOL    HW228500   8.117   3.348  10.965
42826SOL     OW28501   9.272   2.054  10.537
42826SOL    HW128502   9.268   1.964  10.581
42826SOL    HW228503   9.275   2.043  10.438
42827SOL     OW28504   7.876   2.286   9.830
42827SOL    HW128505   7.906   2.214   9.768
42827SOL    HW228506   7.837   2.246   9.913
42828SOL     OW28507   9.153   3.349  10.414
42828SOL    HW128508   9.060   3.324  10.387
42828SOL    HW228509   9.179   3.299  10.496
42829SOL     OW28510   7.765   2.409  10.590
42829SOL    HW128511   7.803   2.350  10.662
42829SOL    HW228512   7.805   2.383  10.502
42830SOL     OW28513   8.260   3.448   9.997
42830SOL    HW128514   8.292   3.458   9.903
42830SOL    HW228515   8.181   3.386   9.999
42831SOL     OW28516   8.872   2.076  10.422
42831SOL    HW128517   8.924   2.011  10.477
42831SOL    HW228518   8.823   2.139  10.483
42832SOL     OW28519   8.449   1.896  10.464
42832SOL    HW128520   8.386   1.824  10.433
42832SOL    HW228521   8.542   1.860  10.464
42833SOL     OW28522   8.218   3.192   9.611
42833SOL    HW128523   8.172   3.105   9.628
42833SOL    HW228524   8.309   3.189   9.652
42834SOL     OW28525   8.066   3.429  10.594
42834SOL    HW128526   8.061   3.511  10.651
42834SOL    HW228527   8.155   3.426  10.549
42835SOL     OW28528   8.800   1.914   9.478
42835SOL    HW128529   8.835   1.873   9.394
42835SOL    HW228530   8.710   1.876   9.498
42836SOL     OW28531   8.748   2.315  10.001
42836SOL    HW128532   8.689   2.395  10.005
42836SOL    HW228533   8.763   2.280  10.094
42837SOL     OW28534   9.041   2.083  10.192
42837SOL    HW128535   8.957   2.082  10.246
42837SOL    HW228536   9.043   2.166  10.136
42838SOL     OW28537   7.487   2.939   9.610
42838SOL    HW128538   7.586   2.928   9.601
42838SOL    HW228539   7.447   2.853   9.642
42839SOL     OW28540   8.323   3.508   9.647
42839SOL    HW128541   8.246   3.473   9.593
42839SOL    HW228542   8.291   3.579   9.709
42840SOL     OW28543   7.678   2.490  11.285
42840SOL    HW128544   7.585   2.488  11.322
42840SOL    HW228545   7.679   2.451  11.193
42841SOL     OW28546   7.673   2.137  12.168
42841SOL    HW128547   7.708   2.120  12.260
42841SOL    HW228548   7.585   2.092  12.156
42842SOL     OW28549   7.467   2.230  11.819
42842SOL    HW128550   7.385   2.273  11.858
42842SOL    HW228551   7.439   2.157  11.756
42843SOL     OW28552   8.017   3.137  12.337
42843SOL    HW128553   7.924   3.130  12.300
42843SOL    HW228554   8.028   3.226  12.381
42844SOL     OW28555   9.003   3.373  11.875
42844SOL    HW128556   8.946   3.357  11.956
42844SOL    HW228557   8.944   3.383  11.795
42845SOL     OW28558   8.583   2.565  11.889
42845SOL    HW128559   8.640   2.643  11.864
42845SOL    HW228560   8.523   2.591  11.965
42846SOL     OW28561   9.203   2.469  11.403
42846SOL    HW128562   9.191   2.456  11.304
42846SOL    HW228563   9.173   2.388  11.452
42847SOL     OW28564   8.216   3.006  12.195
42847SOL    HW128565   8.138   3.023  12.255
42847SOL    HW228566   8.250   3.093  12.159
42848SOL     OW28567   8.133   2.874  11.837
42848SOL    HW128568   8.202   2.858  11.907
42848SOL    HW228569   8.060   2.931  11.875
42849SOL     OW28570   7.783   3.297  12.233
42849SOL    HW128571   7.705   3.266  12.180
42849SOL    HW228572   7.841   3.355  12.176
42850SOL     OW28573   8.908   3.367  12.511
42850SOL    HW128574   8.932   3.461  12.537
42850SOL    HW228575   8.892   3.313  12.593
42851SOL     OW28576   7.886   2.254  12.671
42851SOL    HW128577   7.968   2.198  12.680
42851SOL    HW228578   7.805   2.196  12.675
42852SOL     OW28579   9.051   2.309  11.909
42852SOL    HW128580   8.977   2.355  11.859
42852SOL    HW228581   9.102   2.377  11.962
42853SOL     OW28582   7.679   3.575  11.655
42853SOL    HW128583   7.713   3.652  11.709
42853SOL    HW228584   7.723   3.575  11.565
42854SOL     OW28585   7.678   3.296  11.710
42854SOL    HW128586   7.652   3.392  11.710
42854SOL    HW228587   7.607   3.242  11.755
42855SOL     OW28588   7.688   2.953  12.058
42855SOL    HW128589   7.702   2.869  12.110
42855SOL    HW228590   7.633   3.017  12.113
42856SOL     OW28591   8.068   3.648  12.611
42856SOL    HW128592   7.976   3.631  12.646
42856SOL    HW228593   8.096   3.740  12.637
42857SOL     OW28594   8.054   2.826  11.295
42857SOL    HW128595   8.061   2.910  11.241
42857SOL    HW228596   8.100   2.839  11.383
42858SOL     OW28597   9.042   1.976  12.652
42858SOL    HW128598   9.024   2.043  12.580
42858SOL    HW228599   9.039   2.022  12.741
42859SOL     OW28600   7.570   2.505  11.735
42859SOL    HW128601   7.525   2.417  11.752
42859SOL    HW228602   7.569   2.559  11.819
42860SOL     OW28603   9.290   3.629  11.531
42860SOL    HW128604   9.344   3.600  11.611
42860SOL    HW228605   9.320   3.719  11.502
42861SOL     OW28606   7.475   3.458  11.289
42861SOL    HW128607   7.456   3.362  11.310
42861SOL    HW228608   7.442   3.516  11.364
42862SOL     OW28609   9.137   2.784  11.784
42862SOL    HW128610   9.232   2.755  11.792
42862SOL    HW228611   9.129   2.849  11.709
42863SOL     OW28612   9.089   2.970  11.604
42863SOL    HW128613   9.175   2.972  11.552
42863SOL    HW228614   9.103   3.017  11.692
42864SOL     OW28615   7.561   2.599  12.769
42864SOL    HW128616   7.649   2.586  12.814
42864SOL    HW228617   7.548   2.696  12.747
42865SOL     OW28618   8.061   3.227  11.898
42865SOL    HW128619   8.012   3.140  11.907
42865SOL    HW228620   8.038   3.270  11.811
42866SOL     OW28621   8.741   3.090  12.595
42866SOL    HW128622   8.778   3.017  12.537
42866SOL    HW228623   8.793   3.095  12.680
42867SOL     OW28624   8.257   1.866  11.674
42867SOL    HW128625   8.297   1.957  11.665
42867SOL    HW228626   8.157   1.874  11.680
42868SOL     OW28627   7.645   2.838  12.436
42868SOL    HW128628   7.734   2.793  12.422
42868SOL    HW228629   7.572   2.773  12.417
42869SOL     OW28630   8.973   2.861  11.362
42869SOL    HW128631   8.910   2.785  11.375
42869SOL    HW228632   9.021   2.879  11.448
42870SOL     OW28633   8.914   3.279  12.125
42870SOL    HW128634   8.855   3.285  12.205
42870SOL    HW228635   8.899   3.191  12.079
42871SOL     OW28636   9.115   3.576  11.744
42871SOL    HW128637   9.074   3.553  11.656
42871SOL    HW228638   9.097   3.502  11.809
42872SOL     OW28639   8.046   2.591  11.442
42872SOL    HW128640   8.070   2.660  11.374
42872SOL    HW228641   7.968   2.624  11.496
42873SOL     OW28642   8.729   2.207  12.116
42873SOL    HW128643   8.643   2.157  12.103
42873SOL    HW228644   8.791   2.153  12.172
42874SOL     OW28645   9.024   3.524  11.479
42874SOL    HW128646   9.113   3.570  11.482
42874SOL    HW228647   9.003   3.500  11.384
42875SOL     OW28648   8.255   2.467  12.637
42875SOL    HW128649   8.208   2.464  12.726
42875SOL    HW228650   8.204   2.412  12.571
42876SOL     OW28651   8.421   2.752  12.744
42876SOL    HW128652   8.467   2.668  12.715
42876SOL    HW228653   8.365   2.786  12.669
42877SOL     OW28654   8.439   2.272  12.414
42877SOL    HW128655   8.362   2.306  12.468
42877SOL    HW228656   8.405   2.221  12.335
42878SOL     OW28657   8.489   2.563  11.601
42878SOL    HW128658   8.515   2.559  11.697
42878SOL    HW228659   8.404   2.512  11.587
42879SOL     OW28660   7.524   2.673  11.961
42879SOL    HW128661   7.623   2.661  11.970
42879SOL    HW228662   7.500   2.768  11.982
42880SOL     OW28663   7.578   3.683  12.743
42880SOL    HW128664   7.568   3.668  12.842
42880SOL    HW228665   7.492   3.719  12.707
42881SOL     OW28666   8.313   2.210  11.367
42881SOL    HW128667   8.372   2.273  11.318
42881SOL    HW228668   8.332   2.116  11.338
42882SOL     OW28669   8.810   3.006  11.717
42882SOL    HW128670   8.893   2.977  11.669
42882SOL    HW228671   8.761   3.073  11.661
42883SOL     OW28672   7.998   2.058  12.057
42883SOL    HW128673   7.993   2.053  12.157
42883SOL    HW228674   8.000   2.154  12.028
42884SOL     OW28675   8.456   3.318  11.649
42884SOL    HW128676   8.410   3.390  11.597
42884SOL    HW228677   8.452   3.338  11.747
42885SOL     OW28678   7.799   3.663  12.025
42885SOL    HW128679   7.849   3.577  12.031
42885SOL    HW228680   7.864   3.740  12.022
42886SOL     OW28681   9.243   2.928  12.045
42886SOL    HW128682   9.181   2.913  11.969
42886SOL    HW228683   9.191   2.939  12.130
42887SOL     OW28684   8.675   3.412  12.678
42887SOL    HW128685   8.681   3.335  12.742
42887SOL    HW228686   8.623   3.386  12.598
42888SOL     OW28687   7.769   2.805  11.414
42888SOL    HW128688   7.851   2.844  11.372
42888SOL    HW228689   7.742   2.723  11.365
42889SOL     OW28690   8.906   2.597  11.900
42889SOL    HW128691   8.901   2.532  11.975
42889SOL    HW228692   8.986   2.656  11.913
42890SOL     OW28693   8.559   3.638  11.409
42890SOL    HW128694   8.499   3.576  11.459
42890SOL    HW228695   8.590   3.594  11.324
42891SOL     OW28696   7.650   2.147  12.670
42891SOL    HW128697   7.570   2.207  12.657
42891SOL    HW228698   7.640   2.098  12.756
42892SOL     OW28699   9.080   3.239  11.253
42892SOL    HW128700   9.048   3.333  11.243
42892SOL    HW228701   9.004   3.176  11.241
42893SOL     OW28702   7.912   3.605  11.495
42893SOL    HW128703   7.945   3.644  11.581
42893SOL    HW228704   7.988   3.598  11.430
42894SOL     OW28705   8.848   1.969  11.598
42894SOL    HW128706   8.824   1.932  11.508
42894SOL    HW228707   8.947   1.985  11.602
42895SOL     OW28708   7.697   3.647  12.413
42895SOL    HW128709   7.754   3.582  12.463
42895SOL    HW228710   7.681   3.614  12.320
42896SOL     OW28711   8.388   3.560  12.076
42896SOL    HW128712   8.468   3.503  12.097
42896SOL    HW228713   8.339   3.520  11.999
42897SOL     OW28714   7.830   2.562  11.652
42897SOL    HW128715   7.875   2.472  11.649
42897SOL    HW228716   7.736   2.551  11.685
42898SOL     OW28717   8.062   1.984  11.289
42898SOL    HW128718   8.160   1.962  11.296
42898SOL    HW228719   8.031   1.967  11.196
42899SOL     OW28720   8.336   3.376  12.367
42899SOL    HW128721   8.313   3.351  12.273
42899SOL    HW228722   8.397   3.307  12.406
42900SOL     OW28723   8.799   2.452  12.605
42900SOL    HW128724   8.827   2.409  12.690
42900SOL    HW228725   8.824   2.548  12.606
42901SOL     OW28726   8.251   3.264  12.096
42901SOL    HW128727   8.341   3.278  12.054
42901SOL    HW228728   8.180   3.266  12.025
42902SOL     OW28729   8.370   2.365  12.071
42902SOL    HW128730   8.345   2.356  11.975
42902SOL    HW228731   8.418   2.283  12.102
42903SOL     OW28732   7.987   1.926  11.684
42903SOL    HW128733   7.906   1.927  11.742
42903SOL    HW228734   7.990   2.009  11.629
42904SOL     OW28735   8.882   3.050  11.213
42904SOL    HW128736   8.914   2.974  11.270
42904SOL    HW228737   8.790   3.077  11.243
42905SOL     OW28738   7.745   1.897  11.343
42905SOL    HW128739   7.794   1.981  11.322
42905SOL    HW228740   7.807   1.832  11.388
42906SOL     OW28741   8.383   2.098  11.652
42906SOL    HW128742   8.335   2.139  11.574
42906SOL    HW228743   8.482   2.096  11.633
42907SOL     OW28744   8.524   2.545  12.636
42907SOL    HW128745   8.444   2.484  12.639
42907SOL    HW228746   8.605   2.492  12.612
42908SOL     OW28747   8.675   3.432  11.965
42908SOL    HW128748   8.696   3.506  11.900
42908SOL    HW228749   8.743   3.432  12.038
42909SOL     OW28750   7.907   3.014  11.913
42909SOL    HW128751   7.836   2.987  11.978
42909SOL    HW228752   7.881   2.986  11.820
42910SOL     OW28753   8.719   3.659  11.763
42910SOL    HW128754   8.763   3.723  11.699
42910SOL    HW228755   8.669   3.711  11.833
42911SOL     OW28756   8.480   2.411  11.188
42911SOL    HW128757   8.439   2.493  11.149
42911SOL    HW228758   8.544   2.437  11.261
42912SOL     OW28759   7.526   2.418  12.558
42912SOL    HW128760   7.618   2.417  12.517
42912SOL    HW228761   7.520   2.492  12.625
42913SOL     OW28762   8.009   2.084  12.319
42913SOL    HW128763   8.047   2.000  12.356
42913SOL    HW228764   7.921   2.103  12.363
42914SOL     OW28765   8.314   2.316  11.814
42914SOL    HW128766   8.282   2.388  11.752
42914SOL    HW228767   8.338   2.235  11.761
42915SOL     OW28768   8.465   1.901  11.925
42915SOL    HW128769   8.393   1.906  11.856
42915SOL    HW228770   8.441   1.832  11.994
42916SOL     OW28771   8.877   3.035  12.039
42916SOL    HW128772   8.822   2.951  12.032
42916SOL    HW228773   8.903   3.064  11.947
42917SOL     OW28774   8.914   2.452  12.164
42917SOL    HW128775   8.884   2.357  12.171
42917SOL    HW228776   8.987   2.468  12.230
42918SOL     OW28777   9.305   2.695  11.549
42918SOL    HW128778   9.347   2.631  11.613
42918SOL    HW228779   9.267   2.644  11.471
42919SOL     OW28780   7.936   3.247  11.346
42919SOL    HW128781   7.849   3.232  11.393
42919SOL    HW228782   7.919   3.273  11.251
42920SOL     OW28783   9.112   3.142  11.829
42920SOL    HW128784   9.211   3.150  11.843
42920SOL    HW228785   9.067   3.226  11.860
42921SOL     OW28786   8.838   2.437  11.250
42921SOL    HW128787   8.784   2.416  11.331
42921SOL    HW228788   8.929   2.396  11.259
42922SOL     OW28789   7.975   2.118  11.500
42922SOL    HW128790   8.002   2.059  11.425
42922SOL    HW228791   7.975   2.213  11.469
42923SOL     OW28792   9.202   3.085  12.760
42923SOL    HW128793   9.293   3.046  12.747
42923SOL    HW228794   9.210   3.181  12.784
42924SOL     OW28795   8.512   3.209  12.512
42924SOL    HW128796   8.432   3.186  12.567
42924SOL    HW228797   8.595   3.183  12.561
42925SOL     OW28798   8.559   3.057  12.272
42925SOL    HW128799   8.519   3.101  12.353
42925SOL    HW228800   8.518   3.094  12.189
42926SOL     OW28801   9.086   2.961  12.251
42926SOL    HW128802   9.091   3.042  12.310
42926SOL    HW228803   9.000   2.963  12.200
42927SOL     OW28804   8.363   1.951  12.574
42927SOL    HW128805   8.388   1.931  12.479
42927SOL    HW228806   8.435   2.007  12.616
42928SOL     OW28807   8.153   2.912  11.540
42928SOL    HW128808   8.139   2.919  11.639
42928SOL    HW228809   8.237   2.861  11.522
42929SOL     OW28810   7.858   2.675  12.423
42929SOL    HW128811   7.944   2.687  12.473
42929SOL    HW228812   7.816   2.588  12.450
42930SOL     OW28813   8.722   2.248  12.434
42930SOL    HW128814   8.743   2.322  12.498
42930SOL    HW228815   8.633   2.265  12.391
42931SOL     OW28816   7.512   3.426  12.503
42931SOL    HW128817   7.466   3.508  12.469
42931SOL    HW228818   7.610   3.445  12.512
42932SOL     OW28819   7.815   2.962  11.673
42932SOL    HW128820   7.808   3.045  11.617
42932SOL    HW228821   7.819   2.882  11.613
42933SOL     OW28822   8.014   2.399  12.037
42933SOL    HW128823   8.026   2.465  11.963
42933SOL    HW228824   8.060   2.433  12.120
42934SOL     OW28825   8.700   3.210  11.560
42934SOL    HW128826   8.750   3.287  11.600
42934SOL    HW228827   8.605   3.212  11.592
42935SOL     OW28828   8.720   3.307  12.314
42935SOL    HW128829   8.767   3.320  12.401
42935SOL    HW228830   8.654   3.233  12.323
42936SOL     OW28831   9.030   2.501  11.644
42936SOL    HW128832   8.999   2.562  11.717
42936SOL    HW228833   9.080   2.553  11.575
42937SOL     OW28834   7.802   3.372  12.501
42937SOL    HW128835   7.781   3.328  12.414
42937SOL    HW228836   7.899   3.398  12.504
42938SOL     OW28837   7.850   2.613  12.770
42938SOL    HW128838   7.918   2.668  12.723
42938SOL    HW228839   7.890   2.525  12.797
42939SOL     OW28840   9.035   2.641  12.842
42939SOL    HW128841   8.943   2.679  12.837
42939SOL    HW228842   9.095   2.688  12.777
42940SOL     OW28843   8.021   2.732  12.201
42940SOL    HW128844   8.065   2.821  12.192
42940SOL    HW228845   7.958   2.732  12.278
42941SOL     OW28846   8.808   2.724  12.217
42941SOL    HW128847   8.733   2.724  12.151
42941SOL    HW228848   8.845   2.632  12.226
42942SOL     OW28849   8.657   2.387  11.447
42942SOL    HW128850   8.670   2.303  11.501
42942SOL    HW228851   8.628   2.461  11.507
42943SOL     OW28852   7.755   2.075  12.403
42943SOL    HW128853   7.732   2.112  12.493
42943SOL    HW228854   7.725   1.980  12.397
42944SOL     OW28855   7.485   3.172  12.454
42944SOL    HW128856   7.538   3.123  12.522
42944SOL    HW228857   7.507   3.270  12.459
42945SOL     OW28858   8.180   2.496  12.236
42945SOL    HW128859   8.239   2.470  12.160
42945SOL    HW228860   8.152   2.592  12.225
42946SOL     OW28861   7.755   1.925  11.790
42946SOL    HW128862   7.744   2.019  11.823
42946SOL    HW228863   7.750   1.862  11.867
42947SOL     OW28864   9.070   2.229  11.546
42947SOL    HW128865   9.072   2.153  11.610
42947SOL    HW228866   9.022   2.306  11.586
42948SOL     OW28867   8.471   2.628  12.138
42948SOL    HW128868   8.486   2.649  12.234
42948SOL    HW228869   8.441   2.533  12.129
42949SOL     OW28870   8.988   2.136  11.297
42949SOL    HW128871   8.927   2.061  11.320
42949SOL    HW228872   9.010   2.188  11.380
42950SOL     OW28873   8.751   2.700  11.214
42950SOL    HW128874   8.785   2.607  11.229
42950SOL    HW228875   8.769   2.727  11.119
42951SOL     OW28876   8.516   3.195  12.021
42951SOL    HW128877   8.523   3.111  11.966
42951SOL    HW228878   8.578   3.264  11.985
42952SOL     OW28879   7.767   2.672  12.121
42952SOL    HW128880   7.860   2.708  12.126
42952SOL    HW228881   7.761   2.587  12.173
42953SOL     OW28882   7.787   2.371  12.178
42953SOL    HW128883   7.735   2.288  12.161
42953SOL    HW228884   7.864   2.376  12.114
42954SOL     OW28885   8.608   2.069  12.649
42954SOL    HW128886   8.608   2.133  12.726
42954SOL    HW228887   8.636   2.117  12.566
42955SOL     OW28888   7.456   3.188  11.372
42955SOL    HW128889   7.363   3.209  11.341
42955SOL    HW228890   7.466   3.089  11.385
42956SOL     OW28891   7.536   3.663  12.099
42956SOL    HW128892   7.494   3.577  12.072
42956SOL    HW228893   7.630   3.666  12.065
42957SOL     OW28894   7.952   3.430  12.082
42957SOL    HW128895   8.018   3.504  12.091
42957SOL    HW228896   7.996   3.351  12.040
42958SOL     OW28897   8.450   2.658  12.410
42958SOL    HW128898   8.491   2.626  12.496
42958SOL    HW228899   8.354   2.631  12.407
42959SOL     OW28900   7.488   2.406  12.286
42959SOL    HW128901   7.573   2.373  12.245
42959SOL    HW228902   7.501   2.421  12.384
42960SOL     OW28903   8.263   2.434  11.497
42960SOL    HW128904   8.270   2.345  11.451
42960SOL    HW228905   8.169   2.468  11.489
42961SOL     OW28906   9.105   2.466  12.378
42961SOL    HW128907   9.067   2.397  12.440
42961SOL    HW228908   9.187   2.430  12.334
42962SOL     OW28909   7.700   3.426  12.916
42962SOL    HW128910   7.670   3.483  12.992
42962SOL    HW228911   7.693   3.329  12.942
42963SOL     OW28912   8.119   2.326  12.441
42963SOL    HW128913   8.085   2.237  12.411
42963SOL    HW228914   8.145   2.380  12.361
42964SOL     OW28915   8.378   3.540  12.637
42964SOL    HW128916   8.354   3.522  12.542
42964SOL    HW228917   8.408   3.634  12.647
42965SOL     OW28918   7.921   2.362  11.363
42965SOL    HW128919   7.982   2.442  11.367
42965SOL    HW228920   7.826   2.393  11.370
42966SOL     OW28921   7.607   2.999  12.638
42966SOL    HW128922   7.629   2.938  12.714
42966SOL    HW228923   7.617   2.950  12.552
42967SOL     OW28924   8.795   2.921  12.406
42967SOL    HW128925   8.819   2.858  12.332
42967SOL    HW228926   8.705   2.961  12.388
42968SOL     OW28927   8.750   2.717  11.481
42968SOL    HW128928   8.664   2.686  11.523
42968SOL    HW228929   8.746   2.703  11.382
42969SOL     OW28930   9.207   3.609  12.326
42969SOL    HW128931   9.268   3.639  12.253
42969SOL    HW228932   9.169   3.520  12.304
42970SOL     OW28933   8.700   3.593  12.300
42970SOL    HW128934   8.784   3.598  12.246
42970SOL    HW228935   8.677   3.497  12.318
42971SOL     OW28936   7.531   3.120  12.194
42971SOL    HW128937   7.526   3.119  12.294
42971SOL    HW228938   7.448   3.079  12.156
42972SOL     OW28939   9.174   1.997  11.695
42972SOL    HW128940   9.247   1.980  11.628
42972SOL    HW228941   9.143   1.910  11.733
42973SOL     OW28942   8.836   3.435  11.649
42973SOL    HW128943   8.903   3.447  11.575
42973SOL    HW228944   8.796   3.524  11.672
42974SOL     OW28945   8.728   2.789  11.844
42974SOL    HW128946   8.788   2.708  11.846
42974SOL    HW228947   8.768   2.858  11.784
42975SOL     OW28948   8.278   3.135  12.594
42975SOL    HW128949   8.273   3.168  12.689
42975SOL    HW228950   8.192   3.154  12.548
42976SOL     OW28951   8.120   3.478  11.326
42976SOL    HW128952   8.129   3.488  11.227
42976SOL    HW228953   8.080   3.389  11.347
42977SOL     OW28954   9.098   3.582  12.566
42977SOL    HW128955   9.151   3.592  12.482
42977SOL    HW228956   9.071   3.672  12.600
42978SOL     OW28957   9.289   2.037  12.135
42978SOL    HW128958   9.328   1.952  12.099
42978SOL    HW228959   9.191   2.039  12.116
42979SOL     OW28960   7.711   2.188  11.892
42979SOL    HW128961   7.632   2.239  11.858
42979SOL    HW228962   7.702   2.173  11.990
42980SOL     OW28963   8.642   3.474  11.203
42980SOL    HW128964   8.648   3.381  11.240
42980SOL    HW228965   8.583   3.474  11.123
42981SOL     OW28966   8.270   2.864  12.544
42981SOL    HW128967   8.310   2.863  12.452
42981SOL    HW228968   8.280   2.956  12.584
42982SOL     OW28969   8.364   2.772  11.463
42982SOL    HW128970   8.427   2.810  11.395
42982SOL    HW228971   8.404   2.689  11.502
42983SOL     OW28972   8.952   3.469  11.216
42983SOL    HW128973   8.860   3.506  11.223
42983SOL    HW228974   8.990   3.489  11.126
42984SOL     OW28975   7.820   3.150  12.662
42984SOL    HW128976   7.807   3.243  12.628
42984SOL    HW228977   7.736   3.098  12.649
42985SOL     OW28978   9.062   3.154  12.461
42985SOL    HW128979   9.122   3.157  12.541
42985SOL    HW228980   8.987   3.218  12.474
42986SOL     OW28981   8.487   2.960  11.868
42986SOL    HW128982   8.417   2.913  11.922
42986SOL    HW228983   8.546   2.892  11.825
42987SOL     OW28984   8.462   2.098  12.143
42987SOL    HW128985   8.454   2.062  12.050
42987SOL    HW228986   8.460   2.022  12.208
42988SOL     OW28987   8.038   3.349  11.663
42988SOL    HW128988   8.080   3.291  11.593
42988SOL    HW228989   7.994   3.428  11.619
42989SOL     OW28990   9.157   2.247  12.553
42989SOL    HW128991   9.230   2.316  12.557
42989SOL    HW228992   9.185   2.172  12.494
42990SOL     OW28993   7.703   3.210  11.462
42990SOL    HW128994   7.607   3.211  11.435
42990SOL    HW228995   7.715   3.263  11.546
42991SOL     OW28996   7.553   2.875  12.898
42991SOL    HW128997   7.476   2.842  12.952
42991SOL    HW228998   7.638   2.845  12.940
42992SOL     OW28999   8.120   2.065  12.661
42992SOL    HW129000   8.210   2.049  12.621
42992SOL    HW229001   8.128   2.070  12.760
42993SOL     OW29002   7.523   2.207  11.205
42993SOL    HW129003   7.431   2.179  11.176
42993SOL    HW229004   7.554   2.284  11.149
42994SOL     OW29005   8.888   2.718  12.570
42994SOL    HW129006   8.831   2.770  12.507
42994SOL    HW229007   8.984   2.730  12.546
42995SOL     OW29008   7.520   2.028  11.490
42995SOL    HW129009   7.503   2.111  11.436
42995SOL    HW229010   7.610   1.991  11.468
42996SOL     OW29011   8.631   3.197  11.291
42996SOL    HW129012   8.532   3.186  11.293
42996SOL    HW229013   8.665   3.212  11.384
42997SOL     OW29014   8.061   2.704  12.603
42997SOL    HW129015   8.117   2.785  12.586
42997SOL    HW229016   8.120   2.624  12.606
42998SOL     OW29017   8.941   3.629  12.131
42998SOL    HW129018   8.974   3.693  12.062
42998SOL    HW229019   9.007   3.623  12.206
42999SOL     OW29020   8.164   2.427  12.880
42999SOL    HW129021   8.183   2.492  12.954
42999SOL    HW229022   8.224   2.347  12.889
43000SOL     OW29023   7.838   3.603  12.732
43000SOL    HW129024   7.747   3.644  12.730
43000SOL    HW229025   7.831   3.509  12.764
43001SOL     OW29026   9.122   2.745  12.426
43001SOL    HW129027   9.095   2.656  12.389
43001SOL    HW229028   9.123   2.813  12.353
43002SOL     OW29029   8.673   2.187  11.621
43002SOL    HW129030   8.738   2.113  11.610
43002SOL    HW229031   8.693   2.237  11.705
43003SOL     OW29032   8.042   2.607  11.824
43003SOL    HW129033   8.092   2.692  11.805
43003SOL    HW229034   7.954   2.609  11.776
43004SOL     OW29035   9.225   2.204  12.814
43004SOL    HW129036   9.208   2.235  12.720
43004SOL    HW229037   9.141   2.167  12.852
43005SOL     OW29038   9.178   2.796  12.689
43005SOL    HW129039   9.216   2.887  12.704
43005SOL    HW229040   9.170   2.779  12.590
43006SOL     OW29041   8.307   3.236  11.188
43006SOL    HW129042   8.261   3.251  11.276
43006SOL    HW229043   8.351   3.321  11.158
43007SOL     OW29044   8.109   3.652  12.125
43007SOL    HW129045   8.063   3.740  12.112
43007SOL    HW229046   8.208   3.664  12.118
43008SOL     OW29047   8.307   2.818  12.033
43008SOL    HW129048   8.361   2.749  12.081
43008SOL    HW229049   8.275   2.887  12.099
43009SOL     OW29050   8.531   2.846  11.259
43009SOL    HW129051   8.508   2.899  11.177
43009SOL    HW229052   8.612   2.790  11.240
43010SOL     OW29053   9.309   3.431  12.023
43010SOL    HW129054   9.238   3.419  11.953
43010SOL    HW229055   9.310   3.352  12.083
43011SOL     OW29056   7.527   3.102  11.825
43011SOL    HW129057   7.526   3.055  11.913
43011SOL    HW229058   7.609   3.074  11.774
43012SOL     OW29059   8.120   3.253  12.796
43012SOL    HW129060   8.042   3.203  12.834
43012SOL    HW229061   8.117   3.348  12.827
43013SOL     OW29062   9.272   2.054  12.399
43013SOL    HW129063   9.268   1.964  12.443
43013SOL    HW229064   9.275   2.043  12.300
43014SOL     OW29065   7.876   2.286  11.692
43014SOL    HW129066   7.906   2.214  11.630
43014SOL    HW229067   7.837   2.246  11.775
43015SOL     OW29068   9.153   3.349  12.276
43015SOL    HW129069   9.060   3.324  12.249
43015SOL    HW229070   9.179   3.299  12.358
43016SOL     OW29071   7.765   2.409  12.452
43016SOL    HW129072   7.803   2.350  12.524
43016SOL    HW229073   7.805   2.383  12.364
43017SOL     OW29074   8.260   3.448  11.859
43017SOL    HW129075   8.292   3.458  11.765
43017SOL    HW229076   8.181   3.386  11.861
43018SOL     OW29077   8.872   2.076  12.284
43018SOL    HW129078   8.924   2.011  12.339
43018SOL    HW229079   8.823   2.139  12.345
43019SOL     OW29080   8.449   1.896  12.326
43019SOL    HW129081   8.386   1.824  12.295
43019SOL    HW229082   8.542   1.860  12.326
43020SOL     OW29083   8.218   3.192  11.473
43020SOL    HW129084   8.172   3.105  11.490
43020SOL    HW229085   8.309   3.189  11.514
43021SOL     OW29086   8.066   3.429  12.456
43021SOL    HW129087   8.061   3.511  12.513
43021SOL    HW229088   8.155   3.426  12.411
43022SOL     OW29089   8.800   1.914  11.340
43022SOL    HW129090   8.835   1.873  11.256
43022SOL    HW229091   8.710   1.876  11.360
43023SOL     OW29092   8.748   2.315  11.863
43023SOL    HW129093   8.689   2.395  11.867
43023SOL    HW229094   8.763   2.280  11.956
43024SOL     OW29095   9.041   2.083  12.054
43024SOL    HW129096   8.957   2.082  12.108
43024SOL    HW229097   9.043   2.166  11.998
43025SOL     OW29098   7.487   2.939  11.472
43025SOL    HW129099   7.586   2.928  11.463
43025SOL    HW229100   7.447   2.853  11.504
43026SOL     OW29101   8.323   3.508  11.509
43026SOL    HW129102   8.246   3.473  11.455
43026SOL    HW229103   8.291   3.579  11.571
43027SOL     OW29104   7.678   4.352   0.113
43027SOL    HW129105   7.585   4.350   0.150
43027SOL    HW229106   7.679   4.313   0.021
43028SOL     OW29107   7.673   3.999   0.996
43028SOL    HW129108   7.708   3.982   1.088
43028SOL    HW229109   7.585   3.954   0.984
43029SOL     OW29110   7.467   4.092   0.647
43029SOL    HW129111   7.385   4.135   0.686
43029SOL    HW229112   7.439   4.019   0.584
43030SOL     OW29113   8.017   4.999   1.165
43030SOL    HW129114   7.924   4.992   1.128
43030SOL    HW229115   8.028   5.088   1.209
43031SOL     OW29116   9.003   5.235   0.703
43031SOL    HW129117   8.946   5.219   0.784
43031SOL    HW229118   8.944   5.245   0.623
43032SOL     OW29119   8.583   4.427   0.717
43032SOL    HW129120   8.640   4.505   0.692
43032SOL    HW229121   8.523   4.453   0.793
43033SOL     OW29122   9.203   4.331   0.231
43033SOL    HW129123   9.191   4.318   0.132
43033SOL    HW229124   9.173   4.250   0.280
43034SOL     OW29125   8.216   4.868   1.023
43034SOL    HW129126   8.138   4.885   1.083
43034SOL    HW229127   8.250   4.955   0.987
43035SOL     OW29128   8.298   4.522   1.823
43035SOL    HW129129   8.294   4.598   1.888
43035SOL    HW229130   8.320   4.558   1.732
43036SOL     OW29131   8.133   4.736   0.665
43036SOL    HW129132   8.202   4.720   0.735
43036SOL    HW229133   8.060   4.793   0.703
43037SOL     OW29134   8.134   4.885   1.803
43037SOL    HW129135   8.194   4.964   1.817
43037SOL    HW229136   8.048   4.916   1.762
43038SOL     OW29137   7.783   5.159   1.061
43038SOL    HW129138   7.705   5.128   1.008
43038SOL    HW229139   7.841   5.217   1.004
43039SOL     OW29140   8.908   5.229   1.339
43039SOL    HW129141   8.932   5.323   1.365
43039SOL    HW229142   8.892   5.175   1.421
43040SOL     OW29143   7.886   4.116   1.499
43040SOL    HW129144   7.968   4.060   1.508
43040SOL    HW229145   7.805   4.058   1.503
43041SOL     OW29146   9.051   4.171   0.737
43041SOL    HW129147   8.977   4.217   0.687
43041SOL    HW229148   9.102   4.239   0.790
43042SOL     OW29149   7.679   5.437   0.483
43042SOL    HW129150   7.713   5.514   0.537
43042SOL    HW229151   7.723   5.437   0.393
43043SOL     OW29152   8.575   5.065   1.690
43043SOL    HW129153   8.622   5.065   1.778
43043SOL    HW229154   8.527   4.978   1.679
43044SOL     OW29155   7.678   5.158   0.538
43044SOL    HW129156   7.652   5.254   0.538
43044SOL    HW229157   7.607   5.104   0.583
43045SOL     OW29158   7.688   4.815   0.886
43045SOL    HW129159   7.702   4.731   0.938
43045SOL    HW229160   7.633   4.879   0.941
43046SOL     OW29161   8.068   5.510   1.439
43046SOL    HW129162   7.976   5.493   1.474
43046SOL    HW229163   8.096   5.602   1.465
43047SOL     OW29164   8.054   4.688   0.123
43047SOL    HW129165   8.061   4.772   0.069
43047SOL    HW229166   8.100   4.701   0.211
43048SOL     OW29167   9.042   3.838   1.480
43048SOL    HW129168   9.024   3.905   1.408
43048SOL    HW229169   9.039   3.884   1.569
43049SOL     OW29170   7.570   4.367   0.563
43049SOL    HW129171   7.525   4.279   0.580
43049SOL    HW229172   7.569   4.421   0.647
43050SOL     OW29173   9.290   5.491   0.359
43050SOL    HW129174   9.344   5.462   0.439
43050SOL    HW229175   9.320   5.581   0.330
43051SOL     OW29176   7.475   5.320   0.117
43051SOL    HW129177   7.456   5.224   0.138
43051SOL    HW229178   7.442   5.378   0.192
43052SOL     OW29179   9.137   4.646   0.612
43052SOL    HW129180   9.232   4.617   0.620
43052SOL    HW229181   9.129   4.711   0.537
43053SOL     OW29182   9.089   4.832   0.432
43053SOL    HW129183   9.175   4.834   0.380
43053SOL    HW229184   9.103   4.879   0.520
43054SOL     OW29185   7.561   4.461   1.597
43054SOL    HW129186   7.649   4.448   1.642
43054SOL    HW229187   7.548   4.558   1.575
43055SOL     OW29188   8.061   5.089   0.726
43055SOL    HW129189   8.012   5.002   0.735
43055SOL    HW229190   8.038   5.132   0.639
43056SOL     OW29191   8.741   4.952   1.423
43056SOL    HW129192   8.778   4.879   1.365
43056SOL    HW229193   8.793   4.957   1.508
43057SOL     OW29194   8.257   3.728   0.502
43057SOL    HW129195   8.297   3.819   0.493
43057SOL    HW229196   8.157   3.736   0.508
43058SOL     OW29197   7.645   4.700   1.264
43058SOL    HW129198   7.734   4.655   1.250
43058SOL    HW229199   7.572   4.635   1.245
43059SOL     OW29200   8.973   4.723   0.190
43059SOL    HW129201   8.910   4.647   0.203
43059SOL    HW229202   9.021   4.741   0.276
43060SOL     OW29203   8.635   5.516   1.616
43060SOL    HW129204   8.659   5.576   1.540
43060SOL    HW229205   8.642   5.421   1.586
43061SOL     OW29206   7.765   3.975   1.801
43061SOL    HW129207   7.836   4.046   1.807
43061SOL    HW229208   7.677   4.014   1.829
43062SOL     OW29209   8.914   5.141   0.953
43062SOL    HW129210   8.855   5.147   1.033
43062SOL    HW229211   8.899   5.053   0.907
43063SOL     OW29212   9.115   5.438   0.572
43063SOL    HW129213   9.074   5.415   0.484
43063SOL    HW229214   9.097   5.364   0.637
43064SOL     OW29215   8.046   4.453   0.270
43064SOL    HW129216   8.070   4.522   0.202
43064SOL    HW229217   7.968   4.486   0.324
43065SOL     OW29218   8.729   4.069   0.944
43065SOL    HW129219   8.643   4.019   0.931
43065SOL    HW229220   8.791   4.015   1.000
43066SOL     OW29221   9.024   5.386   0.307
43066SOL    HW129222   9.113   5.432   0.310
43066SOL    HW229223   9.003   5.362   0.212
43067SOL     OW29224   8.255   4.329   1.465
43067SOL    HW129225   8.208   4.326   1.554
43067SOL    HW229226   8.204   4.274   1.399
43068SOL     OW29227   8.842   4.193   1.674
43068SOL    HW129228   8.822   4.236   1.762
43068SOL    HW229229   8.920   4.131   1.683
43069SOL     OW29230   8.421   4.614   1.572
43069SOL    HW129231   8.467   4.530   1.543
43069SOL    HW229232   8.365   4.648   1.497
43070SOL     OW29233   8.439   4.134   1.242
43070SOL    HW129234   8.362   4.168   1.296
43070SOL    HW229235   8.405   4.083   1.163
43071SOL     OW29236   8.489   4.425   0.429
43071SOL    HW129237   8.515   4.421   0.525
43071SOL    HW229238   8.404   4.374   0.415
43072SOL     OW29239   7.524   4.535   0.789
43072SOL    HW129240   7.623   4.523   0.798
43072SOL    HW229241   7.500   4.630   0.810
43073SOL     OW29242   7.578   5.545   1.571
43073SOL    HW129243   7.568   5.530   1.670
43073SOL    HW229244   7.492   5.581   1.535
43074SOL     OW29245   8.313   4.072   0.195
43074SOL    HW129246   8.372   4.135   0.146
43074SOL    HW229247   8.332   3.978   0.166
43075SOL     OW29248   9.167   4.309   1.831
43075SOL    HW129249   9.141   4.398   1.795
43075SOL    HW229250   9.165   4.241   1.758
43076SOL     OW29251   8.810   4.868   0.545
43076SOL    HW129252   8.893   4.839   0.497
43076SOL    HW229253   8.761   4.935   0.489
43077SOL     OW29254   7.998   3.920   0.885
43077SOL    HW129255   7.993   3.915   0.985
43077SOL    HW229256   8.000   4.016   0.856
43078SOL     OW29257   8.456   5.180   0.477
43078SOL    HW129258   8.410   5.252   0.425
43078SOL    HW229259   8.452   5.200   0.575
43079SOL     OW29260   7.799   5.525   0.853
43079SOL    HW129261   7.849   5.439   0.859
43079SOL    HW229262   7.864   5.602   0.850
43080SOL     OW29263   9.243   4.790   0.873
43080SOL    HW129264   9.181   4.775   0.797
43080SOL    HW229265   9.191   4.801   0.958
43081SOL     OW29266   8.675   5.274   1.506
43081SOL    HW129267   8.681   5.197   1.570
43081SOL    HW229268   8.623   5.248   1.426
43082SOL     OW29269   7.769   4.667   0.242
43082SOL    HW129270   7.851   4.706   0.200
43082SOL    HW229271   7.742   4.585   0.193
43083SOL     OW29272   8.906   4.459   0.728
43083SOL    HW129273   8.901   4.394   0.803
43083SOL    HW229274   8.986   4.518   0.741
43084SOL     OW29275   7.909   4.990   1.727
43084SOL    HW129276   7.859   4.991   1.641
43084SOL    HW229277   7.846   4.972   1.803
43085SOL     OW29278   8.559   5.500   0.237
43085SOL    HW129279   8.499   5.438   0.287
43085SOL    HW229280   8.590   5.456   0.152
43086SOL     OW29281   7.650   4.009   1.498
43086SOL    HW129282   7.570   4.069   1.485
43086SOL    HW229283   7.640   3.960   1.584
43087SOL     OW29284   9.080   5.101   0.081
43087SOL    HW129285   9.048   5.195   0.071
43087SOL    HW229286   9.004   5.038   0.069
43088SOL     OW29287   7.912   5.467   0.323
43088SOL    HW129288   7.945   5.506   0.409
43088SOL    HW229289   7.988   5.460   0.258
43089SOL     OW29290   8.848   3.831   0.426
43089SOL    HW129291   8.824   3.794   0.336
43089SOL    HW229292   8.947   3.847   0.430
43090SOL     OW29293   7.697   5.509   1.241
43090SOL    HW129294   7.754   5.444   1.291
43090SOL    HW229295   7.681   5.476   1.148
43091SOL     OW29296   8.388   5.422   0.904
43091SOL    HW129297   8.468   5.365   0.925
43091SOL    HW229298   8.339   5.382   0.827
43092SOL     OW29299   7.830   4.424   0.480
43092SOL    HW129300   7.875   4.334   0.477
43092SOL    HW229301   7.736   4.413   0.513
43093SOL     OW29302   8.995   3.946   1.729
43093SOL    HW129303   8.990   3.983   1.821
43093SOL    HW229304   8.923   3.877   1.717
43094SOL     OW29305   8.062   3.846   0.117
43094SOL    HW129306   8.160   3.824   0.124
43094SOL    HW229307   8.031   3.829   0.024
43095SOL     OW29308   8.229   3.988   1.749
43095SOL    HW129309   8.296   3.927   1.792
43095SOL    HW229310   8.156   4.007   1.814
43096SOL     OW29311   8.336   5.238   1.195
43096SOL    HW129312   8.313   5.213   1.101
43096SOL    HW229313   8.397   5.169   1.234
43097SOL     OW29314   8.799   4.314   1.433
43097SOL    HW129315   8.827   4.271   1.518
43097SOL    HW229316   8.824   4.410   1.434
43098SOL     OW29317   8.251   5.126   0.924
43098SOL    HW129318   8.341   5.140   0.882
43098SOL    HW229319   8.180   5.128   0.853
43099SOL     OW29320   8.370   4.227   0.899
43099SOL    HW129321   8.345   4.218   0.803
43099SOL    HW229322   8.418   4.145   0.930
43100SOL     OW29323   7.987   3.788   0.512
43100SOL    HW129324   7.906   3.789   0.570
43100SOL    HW229325   7.990   3.871   0.457
43101SOL     OW29326   8.882   4.912   0.041
43101SOL    HW129327   8.914   4.836   0.098
43101SOL    HW229328   8.790   4.939   0.071
43102SOL     OW29329   7.745   3.759   0.171
43102SOL    HW129330   7.794   3.843   0.150
43102SOL    HW229331   7.807   3.694   0.216
43103SOL     OW29332   8.383   3.960   0.480
43103SOL    HW129333   8.335   4.001   0.402
43103SOL    HW229334   8.482   3.958   0.461
43104SOL     OW29335   8.524   4.407   1.464
43104SOL    HW129336   8.444   4.346   1.467
43104SOL    HW229337   8.605   4.354   1.440
43105SOL     OW29338   8.675   5.294   0.793
43105SOL    HW129339   8.696   5.368   0.728
43105SOL    HW229340   8.743   5.294   0.866
43106SOL     OW29341   7.907   4.876   0.741
43106SOL    HW129342   7.836   4.849   0.806
43106SOL    HW229343   7.881   4.848   0.648
43107SOL     OW29344   8.719   5.521   0.591
43107SOL    HW129345   8.763   5.585   0.527
43107SOL    HW229346   8.669   5.573   0.661
43108SOL     OW29347   8.480   4.273   0.016
43108SOL    HW129348   8.439   4.355  -0.023
43108SOL    HW229349   8.544   4.299   0.089
43109SOL     OW29350   7.526   4.280   1.386
43109SOL    HW129351   7.618   4.279   1.345
43109SOL    HW229352   7.520   4.354   1.453
43110SOL     OW29353   8.009   3.946   1.147
43110SOL    HW129354   8.047   3.862   1.184
43110SOL    HW229355   7.921   3.965   1.191
43111SOL     OW29356   8.314   4.178   0.642
43111SOL    HW129357   8.282   4.250   0.580
43111SOL    HW229358   8.338   4.097   0.589
43112SOL     OW29359   8.465   3.763   0.753
43112SOL    HW129360   8.393   3.768   0.684
43112SOL    HW229361   8.441   3.694   0.822
43113SOL     OW29362   8.877   4.897   0.867
43113SOL    HW129363   8.822   4.813   0.860
43113SOL    HW229364   8.903   4.926   0.775
43114SOL     OW29365   8.914   4.314   0.992
43114SOL    HW129366   8.884   4.219   0.999
43114SOL    HW229367   8.987   4.330   1.058
43115SOL     OW29368   9.305   4.557   0.377
43115SOL    HW129369   9.347   4.493   0.441
43115SOL    HW229370   9.267   4.506   0.299
43116SOL     OW29371   7.936   5.109   0.174
43116SOL    HW129372   7.849   5.094   0.221
43116SOL    HW229373   7.919   5.135   0.079
43117SOL     OW29374   9.112   5.004   0.657
43117SOL    HW129375   9.211   5.012   0.671
43117SOL    HW229376   9.067   5.088   0.688
43118SOL     OW29377   8.838   4.299   0.078
43118SOL    HW129378   8.784   4.278   0.159
43118SOL    HW229379   8.929   4.258   0.087
43119SOL     OW29380   7.975   3.980   0.328
43119SOL    HW129381   8.002   3.921   0.253
43119SOL    HW229382   7.975   4.075   0.297
43120SOL     OW29383   9.202   4.947   1.588
43120SOL    HW129384   9.293   4.908   1.575
43120SOL    HW229385   9.210   5.043   1.612
43121SOL     OW29386   8.512   5.071   1.340
43121SOL    HW129387   8.432   5.048   1.395
43121SOL    HW229388   8.595   5.045   1.389
43122SOL     OW29389   9.040   5.353   1.625
43122SOL    HW129390   9.067   5.387   1.535
43122SOL    HW229391   9.119   5.315   1.671
43123SOL     OW29392   8.559   4.919   1.100
43123SOL    HW129393   8.519   4.963   1.181
43123SOL    HW229394   8.518   4.956   1.017
43124SOL     OW29395   9.086   4.823   1.079
43124SOL    HW129396   9.091   4.904   1.138
43124SOL    HW229397   9.000   4.825   1.028
43125SOL     OW29398   8.363   3.813   1.402
43125SOL    HW129399   8.388   3.793   1.307
43125SOL    HW229400   8.435   3.869   1.444
43126SOL     OW29401   8.428   4.840   1.719
43126SOL    HW129402   8.329   4.846   1.729
43126SOL    HW229403   8.451   4.760   1.663
43127SOL     OW29404   8.153   4.774   0.368
43127SOL    HW129405   8.139   4.781   0.467
43127SOL    HW229406   8.237   4.723   0.350
43128SOL     OW29407   7.858   4.537   1.251
43128SOL    HW129408   7.944   4.549   1.301
43128SOL    HW229409   7.816   4.450   1.278
43129SOL     OW29410   8.722   4.110   1.262
43129SOL    HW129411   8.743   4.184   1.326
43129SOL    HW229412   8.633   4.127   1.219
43130SOL     OW29413   7.512   5.288   1.331
43130SOL    HW129414   7.466   5.370   1.297
43130SOL    HW229415   7.610   5.307   1.340
43131SOL     OW29416   7.815   4.824   0.501
43131SOL    HW129417   7.808   4.907   0.445
43131SOL    HW229418   7.819   4.744   0.441
43132SOL     OW29419   8.014   4.261   0.865
43132SOL    HW129420   8.026   4.327   0.791
43132SOL    HW229421   8.060   4.295   0.948
43133SOL     OW29422   8.700   5.072   0.388
43133SOL    HW129423   8.750   5.149   0.428
43133SOL    HW229424   8.605   5.074   0.420
43134SOL     OW29425   8.720   5.169   1.142
43134SOL    HW129426   8.767   5.182   1.229
43134SOL    HW229427   8.654   5.095   1.151
43135SOL     OW29428   9.030   4.363   0.472
43135SOL    HW129429   8.999   4.424   0.545
43135SOL    HW229430   9.080   4.415   0.403
43136SOL     OW29431   7.802   5.234   1.329
43136SOL    HW129432   7.781   5.190   1.242
43136SOL    HW229433   7.899   5.260   1.332
43137SOL     OW29434   7.850   4.475   1.598
43137SOL    HW129435   7.918   4.530   1.551
43137SOL    HW229436   7.890   4.387   1.625
43138SOL     OW29437   9.035   4.503   1.670
43138SOL    HW129438   8.943   4.541   1.665
43138SOL    HW229439   9.095   4.550   1.605
43139SOL     OW29440   8.461   3.829   1.770
43139SOL    HW129441   8.467   3.914   1.718
43139SOL    HW229442   8.493   3.753   1.713
43140SOL     OW29443   7.952   3.774   1.740
43140SOL    HW129444   7.910   3.717   1.670
43140SOL    HW229445   7.886   3.843   1.772
43141SOL     OW29446   8.021   4.594   1.029
43141SOL    HW129447   8.065   4.683   1.020
43141SOL    HW229448   7.958   4.594   1.106
43142SOL     OW29449   8.808   4.586   1.045
43142SOL    HW129450   8.733   4.586   0.979
43142SOL    HW229451   8.845   4.494   1.054
43143SOL     OW29452   8.657   4.249   0.275
43143SOL    HW129453   8.670   4.165   0.329
43143SOL    HW229454   8.628   4.323   0.335
43144SOL     OW29455   7.755   3.937   1.231
43144SOL    HW129456   7.732   3.974   1.321
43144SOL    HW229457   7.725   3.842   1.225
43145SOL     OW29458   7.485   5.034   1.282
43145SOL    HW129459   7.538   4.985   1.350
43145SOL    HW229460   7.507   5.132   1.287
43146SOL     OW29461   8.180   4.358   1.064
43146SOL    HW129462   8.239   4.332   0.988
43146SOL    HW229463   8.152   4.454   1.053
43147SOL     OW29464   9.176   4.659   1.854
43147SOL    HW129465   9.130   4.652   1.765
43147SOL    HW229466   9.114   4.703   1.920
43148SOL     OW29467   7.755   3.787   0.618
43148SOL    HW129468   7.744   3.881   0.651
43148SOL    HW229469   7.750   3.724   0.695
43149SOL     OW29470   9.070   4.091   0.374
43149SOL    HW129471   9.072   4.015   0.438
43149SOL    HW229472   9.022   4.168   0.414
43150SOL     OW29473   8.471   4.490   0.966
43150SOL    HW129474   8.486   4.511   1.062
43150SOL    HW229475   8.441   4.395   0.957
43151SOL     OW29476   8.428   5.297   1.700
43151SOL    HW129477   8.408   5.341   1.612
43151SOL    HW229478   8.467   5.206   1.684
43152SOL     OW29479   9.307   5.242   1.605
43152SOL    HW129480   9.321   5.269   1.510
43152SOL    HW229481   9.390   5.264   1.658
43153SOL     OW29482   7.798   4.622   1.804
43153SOL    HW129483   7.874   4.666   1.852
43153SOL    HW229484   7.833   4.575   1.722
43154SOL     OW29485   8.988   3.998   0.125
43154SOL    HW129486   8.927   3.923   0.148
43154SOL    HW229487   9.010   4.050   0.208
43155SOL     OW29488   8.751   4.562   0.042
43155SOL    HW129489   8.785   4.469   0.057
43155SOL    HW229490   8.769   4.589  -0.053
43156SOL     OW29491   8.516   5.057   0.849
43156SOL    HW129492   8.523   4.973   0.794
43156SOL    HW229493   8.578   5.126   0.813
43157SOL     OW29494   7.767   4.534   0.949
43157SOL    HW129495   7.860   4.570   0.954
43157SOL    HW229496   7.761   4.449   1.001
43158SOL     OW29497   7.787   4.233   1.006
43158SOL    HW129498   7.735   4.150   0.989
43158SOL    HW229499   7.864   4.238   0.942
43159SOL     OW29500   8.586   4.104   1.678
43159SOL    HW129501   8.541   4.167   1.742
43159SOL    HW229502   8.679   4.135   1.661
43160SOL     OW29503   8.608   3.931   1.477
43160SOL    HW129504   8.608   3.995   1.554
43160SOL    HW229505   8.636   3.979   1.394
43161SOL     OW29506   7.456   5.050   0.200
43161SOL    HW129507   7.363   5.071   0.169
43161SOL    HW229508   7.466   4.951   0.213
43162SOL     OW29509   7.536   5.525   0.927
43162SOL    HW129510   7.494   5.439   0.900
43162SOL    HW229511   7.630   5.528   0.893
43163SOL     OW29512   7.952   5.292   0.910
43163SOL    HW129513   8.018   5.366   0.919
43163SOL    HW229514   7.996   5.213   0.868
43164SOL     OW29515   8.450   4.520   1.238
43164SOL    HW129516   8.491   4.488   1.324
43164SOL    HW229517   8.354   4.493   1.235
43165SOL     OW29518   7.488   4.268   1.114
43165SOL    HW129519   7.573   4.235   1.073
43165SOL    HW229520   7.501   4.283   1.212
43166SOL     OW29521   7.637   4.244   1.722
43166SOL    HW129522   7.696   4.204   1.652
43166SOL    HW229523   7.579   4.315   1.681
43167SOL     OW29524   8.817   4.674   1.660
43167SOL    HW129525   8.856   4.763   1.680
43167SOL    HW229526   8.827   4.654   1.563
43168SOL     OW29527   8.263   4.296   0.325
43168SOL    HW129528   8.270   4.207   0.279
43168SOL    HW229529   8.169   4.330   0.317
43169SOL     OW29530   9.105   4.328   1.206
43169SOL    HW129531   9.067   4.259   1.268
43169SOL    HW229532   9.187   4.292   1.162
43170SOL     OW29533   7.700   5.288   1.744
43170SOL    HW129534   7.670   5.345   1.820
43170SOL    HW229535   7.693   5.191   1.770
43171SOL     OW29536   8.119   4.188   1.269
43171SOL    HW129537   8.085   4.099   1.239
43171SOL    HW229538   8.145   4.242   1.189
43172SOL     OW29539   8.378   5.402   1.465
43172SOL    HW129540   8.354   5.384   1.370
43172SOL    HW229541   8.408   5.496   1.475
43173SOL     OW29542   7.921   4.224   0.191
43173SOL    HW129543   7.982   4.304   0.195
43173SOL    HW229544   7.826   4.255   0.198
43174SOL     OW29545   7.607   4.861   1.466
43174SOL    HW129546   7.629   4.800   1.542
43174SOL    HW229547   7.617   4.812   1.380
43175SOL     OW29548   8.795   4.783   1.234
43175SOL    HW129549   8.819   4.720   1.160
43175SOL    HW229550   8.705   4.823   1.216
43176SOL     OW29551   8.750   4.579   0.309
43176SOL    HW129552   8.664   4.548   0.351
43176SOL    HW229553   8.746   4.565   0.210
43177SOL     OW29554   9.207   5.471   1.154
43177SOL    HW129555   9.268   5.501   1.081
43177SOL    HW229556   9.169   5.382   1.132
43178SOL     OW29557   8.700   5.455   1.128
43178SOL    HW129558   8.784   5.460   1.074
43178SOL    HW229559   8.677   5.359   1.146
43179SOL     OW29560   7.531   4.982   1.022
43179SOL    HW129561   7.526   4.981   1.122
43179SOL    HW229562   7.448   4.941   0.984
43180SOL     OW29563   8.136   5.386   1.716
43180SOL    HW129564   8.080   5.467   1.725
43180SOL    HW229565   8.188   5.390   1.630
43181SOL     OW29566   8.351   3.810   0.133
43181SOL    HW129567   8.402   3.811   0.047
43181SOL    HW229568   8.407   3.768   0.204
43182SOL     OW29569   9.174   3.859   0.523
43182SOL    HW129570   9.247   3.842   0.456
43182SOL    HW229571   9.143   3.772   0.561
43183SOL     OW29572   8.836   5.297   0.477
43183SOL    HW129573   8.903   5.309   0.403
43183SOL    HW229574   8.796   5.386   0.500
43184SOL     OW29575   7.578   5.518   1.851
43184SOL    HW129576   7.537   5.444   1.904
43184SOL    HW229577   7.642   5.569   1.909
43185SOL     OW29578   8.728   4.651   0.672
43185SOL    HW129579   8.788   4.570   0.674
43185SOL    HW229580   8.768   4.720   0.612
43186SOL     OW29581   8.278   4.997   1.422
43186SOL    HW129582   8.273   5.030   1.517
43186SOL    HW229583   8.192   5.016   1.376
43187SOL     OW29584   8.120   5.340   0.154
43187SOL    HW129585   8.129   5.350   0.055
43187SOL    HW229586   8.080   5.251   0.175
43188SOL     OW29587   9.098   5.444   1.394
43188SOL    HW129588   9.151   5.454   1.310
43188SOL    HW229589   9.071   5.534   1.428
43189SOL     OW29590   9.289   3.899   0.963
43189SOL    HW129591   9.328   3.814   0.927
43189SOL    HW229592   9.191   3.901   0.944
43190SOL     OW29593   7.711   4.050   0.720
43190SOL    HW129594   7.632   4.101   0.686
43190SOL    HW229595   7.702   4.035   0.818
43191SOL     OW29596   8.642   5.336   0.031
43191SOL    HW129597   8.648   5.243   0.068
43191SOL    HW229598   8.583   5.336  -0.049
43192SOL     OW29599   8.270   4.726   1.372
43192SOL    HW129600   8.310   4.725   1.280
43192SOL    HW229601   8.280   4.818   1.412
43193SOL     OW29602   8.364   4.634   0.291
43193SOL    HW129603   8.427   4.672   0.223
43193SOL    HW229604   8.404   4.551   0.330
43194SOL     OW29605   8.952   5.331   0.044
43194SOL    HW129606   8.860   5.368   0.051
43194SOL    HW229607   8.990   5.351  -0.046
43195SOL     OW29608   7.820   5.012   1.490
43195SOL    HW129609   7.807   5.105   1.456
43195SOL    HW229610   7.736   4.960   1.477
43196SOL     OW29611   9.062   5.016   1.289
43196SOL    HW129612   9.122   5.019   1.369
43196SOL    HW229613   8.987   5.080   1.302
43197SOL     OW29614   8.487   4.822   0.696
43197SOL    HW129615   8.417   4.775   0.750
43197SOL    HW229616   8.546   4.754   0.653
43198SOL     OW29617   8.462   3.960   0.971
43198SOL    HW129618   8.454   3.924   0.878
43198SOL    HW229619   8.460   3.884   1.036
43199SOL     OW29620   8.038   5.211   0.491
43199SOL    HW129621   8.080   5.153   0.421
43199SOL    HW229622   7.994   5.290   0.447
43200SOL     OW29623   9.157   4.109   1.381
43200SOL    HW129624   9.230   4.178   1.385
43200SOL    HW229625   9.185   4.034   1.322
43201SOL     OW29626   7.703   5.072   0.290
43201SOL    HW129627   7.607   5.073   0.263
43201SOL    HW229628   7.715   5.125   0.374
43202SOL     OW29629   7.553   4.737   1.726
43202SOL    HW129630   7.476   4.704   1.780
43202SOL    HW229631   7.638   4.707   1.768
43203SOL     OW29632   8.120   3.927   1.489
43203SOL    HW129633   8.210   3.911   1.449
43203SOL    HW229634   8.128   3.932   1.588
43204SOL     OW29635   8.888   4.580   1.398
43204SOL    HW129636   8.831   4.632   1.335
43204SOL    HW229637   8.984   4.592   1.374
43205SOL     OW29638   7.520   3.890   0.318
43205SOL    HW129639   7.503   3.973   0.264
43205SOL    HW229640   7.610   3.853   0.296
43206SOL     OW29641   8.631   5.059   0.119
43206SOL    HW129642   8.532   5.048   0.121
43206SOL    HW229643   8.665   5.074   0.212
43207SOL     OW29644   8.061   4.566   1.431
43207SOL    HW129645   8.117   4.647   1.414
43207SOL    HW229646   8.120   4.486   1.434
43208SOL     OW29647   8.941   5.491   0.959
43208SOL    HW129648   8.974   5.555   0.890
43208SOL    HW229649   9.007   5.485   1.034
43209SOL     OW29650   8.164   4.289   1.708
43209SOL    HW129651   8.183   4.354   1.782
43209SOL    HW229652   8.224   4.209   1.717
43210SOL     OW29653   8.898   4.944   1.633
43210SOL    HW129654   8.889   4.934   1.732
43210SOL    HW229655   8.994   4.937   1.607
43211SOL     OW29656   7.838   5.465   1.560
43211SOL    HW129657   7.747   5.506   1.558
43211SOL    HW229658   7.831   5.371   1.592
43212SOL     OW29659   9.122   4.607   1.254
43212SOL    HW129660   9.095   4.518   1.217
43212SOL    HW229661   9.123   4.675   1.181
43213SOL     OW29662   8.673   4.049   0.449
43213SOL    HW129663   8.738   3.975   0.438
43213SOL    HW229664   8.693   4.099   0.533
43214SOL     OW29665   8.042   4.469   0.652
43214SOL    HW129666   8.092   4.554   0.633
43214SOL    HW229667   7.954   4.471   0.604
43215SOL     OW29668   9.225   4.066   1.642
43215SOL    HW129669   9.208   4.097   1.548
43215SOL    HW229670   9.141   4.029   1.680
43216SOL     OW29671   9.178   4.658   1.517
43216SOL    HW129672   9.216   4.749   1.532
43216SOL    HW229673   9.170   4.641   1.418
43217SOL     OW29674   8.307   5.098   0.016
43217SOL    HW129675   8.261   5.113   0.104
43217SOL    HW229676   8.351   5.183  -0.014
43218SOL     OW29677   8.109   5.514   0.953
43218SOL    HW129678   8.063   5.602   0.940
43218SOL    HW229679   8.208   5.526   0.946
43219SOL     OW29680   8.307   4.680   0.861
43219SOL    HW129681   8.361   4.611   0.909
43219SOL    HW229682   8.275   4.749   0.927
43220SOL     OW29683   8.531   4.708   0.087
43220SOL    HW129684   8.508   4.761   0.005
43220SOL    HW229685   8.612   4.652   0.068
43221SOL     OW29686   9.309   5.293   0.851
43221SOL    HW129687   9.238   5.281   0.781
43221SOL    HW229688   9.310   5.214   0.911
43222SOL     OW29689   7.669   5.038   1.844
43222SOL    HW129690   7.604   4.965   1.823
43222SOL    HW229691   7.673   5.052   1.942
43223SOL     OW29692   7.527   4.964   0.653
43223SOL    HW129693   7.526   4.917   0.741
43223SOL    HW229694   7.609   4.936   0.602
43224SOL     OW29695   8.120   5.115   1.624
43224SOL    HW129696   8.042   5.065   1.662
43224SOL    HW229697   8.117   5.210   1.655
43225SOL     OW29698   9.272   3.916   1.227
43225SOL    HW129699   9.268   3.826   1.271
43225SOL    HW229700   9.275   3.905   1.128
43226SOL     OW29701   7.876   4.148   0.520
43226SOL    HW129702   7.906   4.076   0.458
43226SOL    HW229703   7.837   4.108   0.603
43227SOL     OW29704   9.153   5.211   1.104
43227SOL    HW129705   9.060   5.186   1.077
43227SOL    HW229706   9.179   5.161   1.186
43228SOL     OW29707   7.765   4.271   1.280
43228SOL    HW129708   7.803   4.212   1.352
43228SOL    HW229709   7.805   4.245   1.192
43229SOL     OW29710   8.260   5.310   0.687
43229SOL    HW129711   8.292   5.320   0.593
43229SOL    HW229712   8.181   5.248   0.689
43230SOL     OW29713   8.872   3.938   1.112
43230SOL    HW129714   8.924   3.873   1.167
43230SOL    HW229715   8.823   4.001   1.173
43231SOL     OW29716   8.449   3.758   1.154
43231SOL    HW129717   8.386   3.686   1.123
43231SOL    HW229718   8.542   3.722   1.154
43232SOL     OW29719   8.218   5.054   0.301
43232SOL    HW129720   8.172   4.967   0.318
43232SOL    HW229721   8.309   5.051   0.342
43233SOL     OW29722   8.066   5.291   1.284
43233SOL    HW129723   8.061   5.373   1.341
43233SOL    HW229724   8.155   5.288   1.239
43234SOL     OW29725   8.800   3.776   0.168
43234SOL    HW129726   8.835   3.735   0.084
43234SOL    HW229727   8.710   3.738   0.188
43235SOL     OW29728   8.748   4.177   0.691
43235SOL    HW129729   8.689   4.257   0.695
43235SOL    HW229730   8.763   4.142   0.784
43236SOL     OW29731   9.041   3.945   0.882
43236SOL    HW129732   8.957   3.944   0.936
43236SOL    HW229733   9.043   4.028   0.826
43237SOL     OW29734   7.487   4.801   0.300
43237SOL    HW129735   7.586   4.790   0.291
43237SOL    HW229736   7.447   4.715   0.332
43238SOL     OW29737   8.323   5.370   0.337
43238SOL    HW129738   8.246   5.335   0.283
43238SOL    HW229739   8.291   5.441   0.399
43239SOL     OW29740   7.678   4.352   1.975
43239SOL    HW129741   7.585   4.350   2.012
43239SOL    HW229742   7.679   4.313   1.883
43240SOL     OW29743   7.673   3.999   2.858
43240SOL    HW129744   7.708   3.982   2.950
43240SOL    HW229745   7.585   3.954   2.846
43241SOL     OW29746   7.467   4.092   2.509
43241SOL    HW129747   7.385   4.135   2.548
43241SOL    HW229748   7.439   4.019   2.446
43242SOL     OW29749   8.017   4.999   3.027
43242SOL    HW129750   7.924   4.992   2.990
43242SOL    HW229751   8.028   5.088   3.071
43243SOL     OW29752   9.003   5.235   2.565
43243SOL    HW129753   8.946   5.219   2.646
43243SOL    HW229754   8.944   5.245   2.485
43244SOL     OW29755   8.583   4.427   2.579
43244SOL    HW129756   8.640   4.505   2.554
43244SOL    HW229757   8.523   4.453   2.655
43245SOL     OW29758   9.203   4.331   2.093
43245SOL    HW129759   9.191   4.318   1.994
43245SOL    HW229760   9.173   4.250   2.142
43246SOL     OW29761   8.216   4.868   2.885
43246SOL    HW129762   8.138   4.885   2.945
43246SOL    HW229763   8.250   4.955   2.849
43247SOL     OW29764   8.298   4.522   3.685
43247SOL    HW129765   8.294   4.598   3.750
43247SOL    HW229766   8.320   4.558   3.594
43248SOL     OW29767   8.133   4.736   2.527
43248SOL    HW129768   8.202   4.720   2.597
43248SOL    HW229769   8.060   4.793   2.565
43249SOL     OW29770   8.134   4.885   3.665
43249SOL    HW129771   8.194   4.964   3.679
43249SOL    HW229772   8.048   4.916   3.624
43250SOL     OW29773   7.783   5.159   2.923
43250SOL    HW129774   7.705   5.128   2.870
43250SOL    HW229775   7.841   5.217   2.866
43251SOL     OW29776   8.908   5.229   3.201
43251SOL    HW129777   8.932   5.323   3.227
43251SOL    HW229778   8.892   5.175   3.283
43252SOL     OW29779   7.886   4.116   3.361
43252SOL    HW129780   7.968   4.060   3.370
43252SOL    HW229781   7.805   4.058   3.365
43253SOL     OW29782   9.051   4.171   2.599
43253SOL    HW129783   8.977   4.217   2.549
43253SOL    HW229784   9.102   4.239   2.652
43254SOL     OW29785   7.679   5.437   2.345
43254SOL    HW129786   7.713   5.514   2.399
43254SOL    HW229787   7.723   5.437   2.255
43255SOL     OW29788   8.575   5.065   3.552
43255SOL    HW129789   8.622   5.065   3.640
43255SOL    HW229790   8.527   4.978   3.541
43256SOL     OW29791   7.678   5.158   2.400
43256SOL    HW129792   7.652   5.254   2.400
43256SOL    HW229793   7.607   5.104   2.445
43257SOL     OW29794   7.688   4.815   2.748
43257SOL    HW129795   7.702   4.731   2.800
43257SOL    HW229796   7.633   4.879   2.803
43258SOL     OW29797   8.068   5.510   3.301
43258SOL    HW129798   7.976   5.493   3.336
43258SOL    HW229799   8.096   5.602   3.327
43259SOL     OW29800   8.054   4.688   1.985
43259SOL    HW129801   8.061   4.772   1.931
43259SOL    HW229802   8.100   4.701   2.073
43260SOL     OW29803   9.042   3.838   3.342
43260SOL    HW129804   9.024   3.905   3.270
43260SOL    HW229805   9.039   3.884   3.431
43261SOL     OW29806   7.570   4.367   2.425
43261SOL    HW129807   7.525   4.279   2.442
43261SOL    HW229808   7.569   4.421   2.509
43262SOL     OW29809   9.290   5.491   2.221
43262SOL    HW129810   9.344   5.462   2.301
43262SOL    HW229811   9.320   5.581   2.192
43263SOL     OW29812   7.475   5.320   1.979
43263SOL    HW129813   7.456   5.224   2.000
43263SOL    HW229814   7.442   5.378   2.054
43264SOL     OW29815   9.137   4.646   2.474
43264SOL    HW129816   9.232   4.617   2.482
43264SOL    HW229817   9.129   4.711   2.399
43265SOL     OW29818   9.089   4.832   2.294
43265SOL    HW129819   9.175   4.834   2.242
43265SOL    HW229820   9.103   4.879   2.382
43266SOL     OW29821   7.561   4.461   3.459
43266SOL    HW129822   7.649   4.448   3.504
43266SOL    HW229823   7.548   4.558   3.437
43267SOL     OW29824   8.061   5.089   2.588
43267SOL    HW129825   8.012   5.002   2.597
43267SOL    HW229826   8.038   5.132   2.501
43268SOL     OW29827   8.741   4.952   3.285
43268SOL    HW129828   8.778   4.879   3.227
43268SOL    HW229829   8.793   4.957   3.370
43269SOL     OW29830   8.257   3.728   2.364
43269SOL    HW129831   8.297   3.819   2.355
43269SOL    HW229832   8.157   3.736   2.370
43270SOL     OW29833   7.645   4.700   3.126
43270SOL    HW129834   7.734   4.655   3.112
43270SOL    HW229835   7.572   4.635   3.107
43271SOL     OW29836   8.973   4.723   2.052
43271SOL    HW129837   8.910   4.647   2.065
43271SOL    HW229838   9.021   4.741   2.138
43272SOL     OW29839   8.635   5.516   3.478
43272SOL    HW129840   8.659   5.576   3.402
43272SOL    HW229841   8.642   5.421   3.448
43273SOL     OW29842   7.765   3.975   3.663
43273SOL    HW129843   7.836   4.046   3.669
43273SOL    HW229844   7.677   4.014   3.691
43274SOL     OW29845   8.914   5.141   2.815
43274SOL    HW129846   8.855   5.147   2.895
43274SOL    HW229847   8.899   5.053   2.769
43275SOL     OW29848   9.115   5.438   2.434
43275SOL    HW129849   9.074   5.415   2.346
43275SOL    HW229850   9.097   5.364   2.499
43276SOL     OW29851   8.046   4.453   2.132
43276SOL    HW129852   8.070   4.522   2.064
43276SOL    HW229853   7.968   4.486   2.186
43277SOL     OW29854   8.729   4.069   2.806
43277SOL    HW129855   8.643   4.019   2.793
43277SOL    HW229856   8.791   4.015   2.862
43278SOL     OW29857   9.024   5.386   2.169
43278SOL    HW129858   9.113   5.432   2.172
43278SOL    HW229859   9.003   5.362   2.074
43279SOL     OW29860   8.255   4.329   3.327
43279SOL    HW129861   8.208   4.326   3.416
43279SOL    HW229862   8.204   4.274   3.261
43280SOL     OW29863   8.842   4.193   3.536
43280SOL    HW129864   8.822   4.236   3.624
43280SOL    HW229865   8.920   4.131   3.545
43281SOL     OW29866   8.421   4.614   3.434
43281SOL    HW129867   8.467   4.530   3.405
43281SOL    HW229868   8.365   4.648   3.359
43282SOL     OW29869   8.439   4.134   3.104
43282SOL    HW129870   8.362   4.168   3.158
43282SOL    HW229871   8.405   4.083   3.025
43283SOL     OW29872   8.489   4.425   2.291
43283SOL    HW129873   8.515   4.421   2.387
43283SOL    HW229874   8.404   4.374   2.277
43284SOL     OW29875   7.524   4.535   2.651
43284SOL    HW129876   7.623   4.523   2.660
43284SOL    HW229877   7.500   4.630   2.672
43285SOL     OW29878   7.578   5.545   3.433
43285SOL    HW129879   7.568   5.530   3.532
43285SOL    HW229880   7.492   5.581   3.397
43286SOL     OW29881   8.313   4.072   2.057
43286SOL    HW129882   8.372   4.135   2.008
43286SOL    HW229883   8.332   3.978   2.028
43287SOL     OW29884   9.167   4.309   3.693
43287SOL    HW129885   9.141   4.398   3.657
43287SOL    HW229886   9.165   4.241   3.620
43288SOL     OW29887   8.810   4.868   2.407
43288SOL    HW129888   8.893   4.839   2.359
43288SOL    HW229889   8.761   4.935   2.351
43289SOL     OW29890   7.998   3.920   2.747
43289SOL    HW129891   7.993   3.915   2.847
43289SOL    HW229892   8.000   4.016   2.718
43290SOL     OW29893   8.456   5.180   2.339
43290SOL    HW129894   8.410   5.252   2.287
43290SOL    HW229895   8.452   5.200   2.437
43291SOL     OW29896   7.799   5.525   2.715
43291SOL    HW129897   7.849   5.439   2.721
43291SOL    HW229898   7.864   5.602   2.712
43292SOL     OW29899   9.243   4.790   2.735
43292SOL    HW129900   9.181   4.775   2.659
43292SOL    HW229901   9.191   4.801   2.820
43293SOL     OW29902   8.675   5.274   3.368
43293SOL    HW129903   8.681   5.197   3.432
43293SOL    HW229904   8.623   5.248   3.288
43294SOL     OW29905   7.769   4.667   2.104
43294SOL    HW129906   7.851   4.706   2.062
43294SOL    HW229907   7.742   4.585   2.055
43295SOL     OW29908   8.906   4.459   2.590
43295SOL    HW129909   8.901   4.394   2.665
43295SOL    HW229910   8.986   4.518   2.603
43296SOL     OW29911   7.909   4.990   3.589
43296SOL    HW129912   7.859   4.991   3.503
43296SOL    HW229913   7.846   4.972   3.665
43297SOL     OW29914   8.559   5.500   2.099
43297SOL    HW129915   8.499   5.438   2.149
43297SOL    HW229916   8.590   5.456   2.014
43298SOL     OW29917   7.650   4.009   3.360
43298SOL    HW129918   7.570   4.069   3.347
43298SOL    HW229919   7.640   3.960   3.446
43299SOL     OW29920   9.080   5.101   1.943
43299SOL    HW129921   9.048   5.195   1.933
43299SOL    HW229922   9.004   5.038   1.931
43300SOL     OW29923   7.912   5.467   2.185
43300SOL    HW129924   7.945   5.506   2.271
43300SOL    HW229925   7.988   5.460   2.120
43301SOL     OW29926   8.848   3.831   2.288
43301SOL    HW129927   8.824   3.794   2.198
43301SOL    HW229928   8.947   3.847   2.292
43302SOL     OW29929   7.697   5.509   3.103
43302SOL    HW129930   7.754   5.444   3.153
43302SOL    HW229931   7.681   5.476   3.010
43303SOL     OW29932   8.388   5.422   2.766
43303SOL    HW129933   8.468   5.365   2.787
43303SOL    HW229934   8.339   5.382   2.689
43304SOL     OW29935   7.830   4.424   2.342
43304SOL    HW129936   7.875   4.334   2.339
43304SOL    HW229937   7.736   4.413   2.375
43305SOL     OW29938   8.995   3.946   3.591
43305SOL    HW129939   8.990   3.983   3.683
43305SOL    HW229940   8.923   3.877   3.579
43306SOL     OW29941   8.062   3.846   1.979
43306SOL    HW129942   8.160   3.824   1.986
43306SOL    HW229943   8.031   3.829   1.886
43307SOL     OW29944   8.229   3.988   3.611
43307SOL    HW129945   8.296   3.927   3.654
43307SOL    HW229946   8.156   4.007   3.676
43308SOL     OW29947   8.336   5.238   3.057
43308SOL    HW129948   8.313   5.213   2.963
43308SOL    HW229949   8.397   5.169   3.096
43309SOL     OW29950   8.799   4.314   3.295
43309SOL    HW129951   8.827   4.271   3.380
43309SOL    HW229952   8.824   4.410   3.296
43310SOL     OW29953   8.251   5.126   2.786
43310SOL    HW129954   8.341   5.140   2.744
43310SOL    HW229955   8.180   5.128   2.715
43311SOL     OW29956   8.370   4.227   2.761
43311SOL    HW129957   8.345   4.218   2.665
43311SOL    HW229958   8.418   4.145   2.792
43312SOL     OW29959   7.987   3.788   2.374
43312SOL    HW129960   7.906   3.789   2.432
43312SOL    HW229961   7.990   3.871   2.319
43313SOL     OW29962   8.882   4.912   1.903
43313SOL    HW129963   8.914   4.836   1.960
43313SOL    HW229964   8.790   4.939   1.933
43314SOL     OW29965   7.745   3.759   2.033
43314SOL    HW129966   7.794   3.843   2.012
43314SOL    HW229967   7.807   3.694   2.078
43315SOL     OW29968   8.383   3.960   2.342
43315SOL    HW129969   8.335   4.001   2.264
43315SOL    HW229970   8.482   3.958   2.323
43316SOL     OW29971   8.524   4.407   3.326
43316SOL    HW129972   8.444   4.346   3.329
43316SOL    HW229973   8.605   4.354   3.302
43317SOL     OW29974   8.675   5.294   2.655
43317SOL    HW129975   8.696   5.368   2.590
43317SOL    HW229976   8.743   5.294   2.728
43318SOL     OW29977   7.907   4.876   2.603
43318SOL    HW129978   7.836   4.849   2.668
43318SOL    HW229979   7.881   4.848   2.510
43319SOL     OW29980   8.719   5.521   2.453
43319SOL    HW129981   8.763   5.585   2.389
43319SOL    HW229982   8.669   5.573   2.523
43320SOL     OW29983   8.480   4.273   1.878
43320SOL    HW129984   8.439   4.355   1.839
43320SOL    HW229985   8.544   4.299   1.951
43321SOL     OW29986   7.526   4.280   3.248
43321SOL    HW129987   7.618   4.279   3.207
43321SOL    HW229988   7.520   4.354   3.315
43322SOL     OW29989   8.009   3.946   3.009
43322SOL    HW129990   8.047   3.862   3.046
43322SOL    HW229991   7.921   3.965   3.053
43323SOL     OW29992   8.314   4.178   2.504
43323SOL    HW129993   8.282   4.250   2.442
43323SOL    HW229994   8.338   4.097   2.451
43324SOL     OW29995   8.465   3.763   2.615
43324SOL    HW129996   8.393   3.768   2.546
43324SOL    HW229997   8.441   3.694   2.684
43325SOL     OW29998   8.877   4.897   2.729
43325SOL    HW129999   8.822   4.813   2.722
43325SOL    HW230000   8.903   4.926   2.637
43326SOL     OW30001   8.914   4.314   2.854
43326SOL    HW130002   8.884   4.219   2.861
43326SOL    HW230003   8.987   4.330   2.920
43327SOL     OW30004   9.305   4.557   2.239
43327SOL    HW130005   9.347   4.493   2.303
43327SOL    HW230006   9.267   4.506   2.161
43328SOL     OW30007   7.936   5.109   2.036
43328SOL    HW130008   7.849   5.094   2.083
43328SOL    HW230009   7.919   5.135   1.941
43329SOL     OW30010   9.112   5.004   2.519
43329SOL    HW130011   9.211   5.012   2.533
43329SOL    HW230012   9.067   5.088   2.550
43330SOL     OW30013   8.838   4.299   1.940
43330SOL    HW130014   8.784   4.278   2.021
43330SOL    HW230015   8.929   4.258   1.949
43331SOL     OW30016   7.975   3.980   2.190
43331SOL    HW130017   8.002   3.921   2.115
43331SOL    HW230018   7.975   4.075   2.159
43332SOL     OW30019   9.202   4.947   3.450
43332SOL    HW130020   9.293   4.908   3.437
43332SOL    HW230021   9.210   5.043   3.474
43333SOL     OW30022   8.512   5.071   3.202
43333SOL    HW130023   8.432   5.048   3.257
43333SOL    HW230024   8.595   5.045   3.251
43334SOL     OW30025   9.040   5.353   3.487
43334SOL    HW130026   9.067   5.387   3.397
43334SOL    HW230027   9.119   5.315   3.533
43335SOL     OW30028   8.559   4.919   2.962
43335SOL    HW130029   8.519   4.963   3.043
43335SOL    HW230030   8.518   4.956   2.879
43336SOL     OW30031   9.086   4.823   2.941
43336SOL    HW130032   9.091   4.904   3.000
43336SOL    HW230033   9.000   4.825   2.890
43337SOL     OW30034   8.363   3.813   3.264
43337SOL    HW130035   8.388   3.793   3.169
43337SOL    HW230036   8.435   3.869   3.306
43338SOL     OW30037   8.428   4.840   3.581
43338SOL    HW130038   8.329   4.846   3.591
43338SOL    HW230039   8.451   4.760   3.525
43339SOL     OW30040   8.153   4.774   2.230
43339SOL    HW130041   8.139   4.781   2.329
43339SOL    HW230042   8.237   4.723   2.212
43340SOL     OW30043   7.858   4.537   3.113
43340SOL    HW130044   7.944   4.549   3.163
43340SOL    HW230045   7.816   4.450   3.140
43341SOL     OW30046   8.722   4.110   3.124
43341SOL    HW130047   8.743   4.184   3.188
43341SOL    HW230048   8.633   4.127   3.081
43342SOL     OW30049   7.512   5.288   3.193
43342SOL    HW130050   7.466   5.370   3.159
43342SOL    HW230051   7.610   5.307   3.202
43343SOL     OW30052   7.815   4.824   2.363
43343SOL    HW130053   7.808   4.907   2.307
43343SOL    HW230054   7.819   4.744   2.303
43344SOL     OW30055   8.014   4.261   2.727
43344SOL    HW130056   8.026   4.327   2.653
43344SOL    HW230057   8.060   4.295   2.810
43345SOL     OW30058   8.700   5.072   2.250
43345SOL    HW130059   8.750   5.149   2.290
43345SOL    HW230060   8.605   5.074   2.282
43346SOL     OW30061   8.720   5.169   3.004
43346SOL    HW130062   8.767   5.182   3.091
43346SOL    HW230063   8.654   5.095   3.013
43347SOL     OW30064   9.030   4.363   2.334
43347SOL    HW130065   8.999   4.424   2.407
43347SOL    HW230066   9.080   4.415   2.265
43348SOL     OW30067   7.802   5.234   3.191
43348SOL    HW130068   7.781   5.190   3.104
43348SOL    HW230069   7.899   5.260   3.194
43349SOL     OW30070   7.850   4.475   3.460
43349SOL    HW130071   7.918   4.530   3.413
43349SOL    HW230072   7.890   4.387   3.487
43350SOL     OW30073   9.035   4.503   3.532
43350SOL    HW130074   8.943   4.541   3.527
43350SOL    HW230075   9.095   4.550   3.467
43351SOL     OW30076   8.461   3.829   3.632
43351SOL    HW130077   8.467   3.914   3.580
43351SOL    HW230078   8.493   3.753   3.575
43352SOL     OW30079   7.952   3.774   3.602
43352SOL    HW130080   7.910   3.717   3.532
43352SOL    HW230081   7.886   3.843   3.634
43353SOL     OW30082   8.021   4.594   2.891
43353SOL    HW130083   8.065   4.683   2.882
43353SOL    HW230084   7.958   4.594   2.968
43354SOL     OW30085   8.808   4.586   2.907
43354SOL    HW130086   8.733   4.586   2.841
43354SOL    HW230087   8.845   4.494   2.916
43355SOL     OW30088   8.657   4.249   2.137
43355SOL    HW130089   8.670   4.165   2.191
43355SOL    HW230090   8.628   4.323   2.197
43356SOL     OW30091   7.755   3.937   3.093
43356SOL    HW130092   7.732   3.974   3.183
43356SOL    HW230093   7.725   3.842   3.087
43357SOL     OW30094   7.485   5.034   3.144
43357SOL    HW130095   7.538   4.985   3.212
43357SOL    HW230096   7.507   5.132   3.149
43358SOL     OW30097   8.180   4.358   2.926
43358SOL    HW130098   8.239   4.332   2.850
43358SOL    HW230099   8.152   4.454   2.915
43359SOL     OW30100   9.176   4.659   3.716
43359SOL    HW130101   9.130   4.652   3.627
43359SOL    HW230102   9.114   4.703   3.782
43360SOL     OW30103   7.755   3.787   2.480
43360SOL    HW130104   7.744   3.881   2.513
43360SOL    HW230105   7.750   3.724   2.557
43361SOL     OW30106   9.070   4.091   2.236
43361SOL    HW130107   9.072   4.015   2.300
43361SOL    HW230108   9.022   4.168   2.276
43362SOL     OW30109   8.471   4.490   2.828
43362SOL    HW130110   8.486   4.511   2.924
43362SOL    HW230111   8.441   4.395   2.819
43363SOL     OW30112   8.428   5.297   3.562
43363SOL    HW130113   8.408   5.341   3.474
43363SOL    HW230114   8.467   5.206   3.546
43364SOL     OW30115   9.307   5.242   3.467
43364SOL    HW130116   9.321   5.269   3.372
43364SOL    HW230117   9.390   5.264   3.520
43365SOL     OW30118   7.798   4.622   3.666
43365SOL    HW130119   7.874   4.666   3.714
43365SOL    HW230120   7.833   4.575   3.584
43366SOL     OW30121   8.988   3.998   1.987
43366SOL    HW130122   8.927   3.923   2.010
43366SOL    HW230123   9.010   4.050   2.070
43367SOL     OW30124   8.751   4.562   1.904
43367SOL    HW130125   8.785   4.469   1.919
43367SOL    HW230126   8.769   4.589   1.809
43368SOL     OW30127   8.516   5.057   2.711
43368SOL    HW130128   8.523   4.973   2.656
43368SOL    HW230129   8.578   5.126   2.675
43369SOL     OW30130   7.767   4.534   2.811
43369SOL    HW130131   7.860   4.570   2.816
43369SOL    HW230132   7.761   4.449   2.863
43370SOL     OW30133   7.787   4.233   2.868
43370SOL    HW130134   7.735   4.150   2.851
43370SOL    HW230135   7.864   4.238   2.804
43371SOL     OW30136   8.586   4.104   3.540
43371SOL    HW130137   8.541   4.167   3.604
43371SOL    HW230138   8.679   4.135   3.523
43372SOL     OW30139   8.608   3.931   3.339
43372SOL    HW130140   8.608   3.995   3.416
43372SOL    HW230141   8.636   3.979   3.256
43373SOL     OW30142   7.456   5.050   2.062
43373SOL    HW130143   7.363   5.071   2.031
43373SOL    HW230144   7.466   4.951   2.075
43374SOL     OW30145   7.536   5.525   2.789
43374SOL    HW130146   7.494   5.439   2.762
43374SOL    HW230147   7.630   5.528   2.755
43375SOL     OW30148   7.952   5.292   2.772
43375SOL    HW130149   8.018   5.366   2.781
43375SOL    HW230150   7.996   5.213   2.730
43376SOL     OW30151   8.450   4.520   3.100
43376SOL    HW130152   8.491   4.488   3.186
43376SOL    HW230153   8.354   4.493   3.097
43377SOL     OW30154   7.488   4.268   2.976
43377SOL    HW130155   7.573   4.235   2.935
43377SOL    HW230156   7.501   4.283   3.074
43378SOL     OW30157   7.637   4.244   3.584
43378SOL    HW130158   7.696   4.204   3.514
43378SOL    HW230159   7.579   4.315   3.543
43379SOL     OW30160   8.817   4.674   3.522
43379SOL    HW130161   8.856   4.763   3.542
43379SOL    HW230162   8.827   4.654   3.425
43380SOL     OW30163   8.263   4.296   2.187
43380SOL    HW130164   8.270   4.207   2.141
43380SOL    HW230165   8.169   4.330   2.179
43381SOL     OW30166   9.105   4.328   3.068
43381SOL    HW130167   9.067   4.259   3.130
43381SOL    HW230168   9.187   4.292   3.024
43382SOL     OW30169   7.700   5.288   3.606
43382SOL    HW130170   7.670   5.345   3.682
43382SOL    HW230171   7.693   5.191   3.632
43383SOL     OW30172   8.119   4.188   3.131
43383SOL    HW130173   8.085   4.099   3.101
43383SOL    HW230174   8.145   4.242   3.051
43384SOL     OW30175   8.378   5.402   3.327
43384SOL    HW130176   8.354   5.384   3.232
43384SOL    HW230177   8.408   5.496   3.337
43385SOL     OW30178   7.921   4.224   2.053
43385SOL    HW130179   7.982   4.304   2.057
43385SOL    HW230180   7.826   4.255   2.060
43386SOL     OW30181   7.607   4.861   3.328
43386SOL    HW130182   7.629   4.800   3.404
43386SOL    HW230183   7.617   4.812   3.242
43387SOL     OW30184   8.795   4.783   3.096
43387SOL    HW130185   8.819   4.720   3.022
43387SOL    HW230186   8.705   4.823   3.078
43388SOL     OW30187   8.750   4.579   2.171
43388SOL    HW130188   8.664   4.548   2.213
43388SOL    HW230189   8.746   4.565   2.072
43389SOL     OW30190   9.207   5.471   3.016
43389SOL    HW130191   9.268   5.501   2.943
43389SOL    HW230192   9.169   5.382   2.994
43390SOL     OW30193   8.700   5.455   2.990
43390SOL    HW130194   8.784   5.460   2.936
43390SOL    HW230195   8.677   5.359   3.008
43391SOL     OW30196   7.531   4.982   2.884
43391SOL    HW130197   7.526   4.981   2.984
43391SOL    HW230198   7.448   4.941   2.846
43392SOL     OW30199   8.136   5.386   3.578
43392SOL    HW130200   8.080   5.467   3.587
43392SOL    HW230201   8.188   5.390   3.492
43393SOL     OW30202   9.174   3.859   2.385
43393SOL    HW130203   9.247   3.842   2.318
43393SOL    HW230204   9.143   3.772   2.423
43394SOL     OW30205   8.836   5.297   2.339
43394SOL    HW130206   8.903   5.309   2.265
43394SOL    HW230207   8.796   5.386   2.362
43395SOL     OW30208   7.578   5.518   3.713
43395SOL    HW130209   7.537   5.444   3.766
43395SOL    HW230210   7.642   5.569   3.771
43396SOL     OW30211   8.728   4.651   2.534
43396SOL    HW130212   8.788   4.570   2.536
43396SOL    HW230213   8.768   4.720   2.474
43397SOL     OW30214   8.278   4.997   3.284
43397SOL    HW130215   8.273   5.030   3.379
43397SOL    HW230216   8.192   5.016   3.238
43398SOL     OW30217   8.120   5.340   2.016
43398SOL    HW130218   8.129   5.350   1.917
43398SOL    HW230219   8.080   5.251   2.037
43399SOL     OW30220   9.098   5.444   3.256
43399SOL    HW130221   9.151   5.454   3.172
43399SOL    HW230222   9.071   5.534   3.290
43400SOL     OW30223   9.289   3.899   2.825
43400SOL    HW130224   9.328   3.814   2.789
43400SOL    HW230225   9.191   3.901   2.806
43401SOL     OW30226   7.711   4.050   2.582
43401SOL    HW130227   7.632   4.101   2.548
43401SOL    HW230228   7.702   4.035   2.680
43402SOL     OW30229   8.642   5.336   1.893
43402SOL    HW130230   8.648   5.243   1.930
43402SOL    HW230231   8.583   5.336   1.813
43403SOL     OW30232   8.270   4.726   3.234
43403SOL    HW130233   8.310   4.725   3.142
43403SOL    HW230234   8.280   4.818   3.274
43404SOL     OW30235   8.364   4.634   2.153
43404SOL    HW130236   8.427   4.672   2.085
43404SOL    HW230237   8.404   4.551   2.192
43405SOL     OW30238   8.952   5.331   1.906
43405SOL    HW130239   8.860   5.368   1.913
43405SOL    HW230240   8.990   5.351   1.816
43406SOL     OW30241   7.820   5.012   3.352
43406SOL    HW130242   7.807   5.105   3.318
43406SOL    HW230243   7.736   4.960   3.339
43407SOL     OW30244   9.062   5.016   3.151
43407SOL    HW130245   9.122   5.019   3.231
43407SOL    HW230246   8.987   5.080   3.164
43408SOL     OW30247   8.487   4.822   2.558
43408SOL    HW130248   8.417   4.775   2.612
43408SOL    HW230249   8.546   4.754   2.515
43409SOL     OW30250   8.462   3.960   2.833
43409SOL    HW130251   8.454   3.924   2.740
43409SOL    HW230252   8.460   3.884   2.898
43410SOL     OW30253   8.038   5.211   2.353
43410SOL    HW130254   8.080   5.153   2.283
43410SOL    HW230255   7.994   5.290   2.309
43411SOL     OW30256   9.157   4.109   3.243
43411SOL    HW130257   9.230   4.178   3.247
43411SOL    HW230258   9.185   4.034   3.184
43412SOL     OW30259   7.703   5.072   2.152
43412SOL    HW130260   7.607   5.073   2.125
43412SOL    HW230261   7.715   5.125   2.236
43413SOL     OW30262   7.553   4.737   3.588
43413SOL    HW130263   7.476   4.704   3.642
43413SOL    HW230264   7.638   4.707   3.630
43414SOL     OW30265   8.120   3.927   3.351
43414SOL    HW130266   8.210   3.911   3.311
43414SOL    HW230267   8.128   3.932   3.450
43415SOL     OW30268   7.523   4.069   1.895
43415SOL    HW130269   7.431   4.041   1.866
43415SOL    HW230270   7.554   4.146   1.839
43416SOL     OW30271   8.888   4.580   3.260
43416SOL    HW130272   8.831   4.632   3.197
43416SOL    HW230273   8.984   4.592   3.236
43417SOL     OW30274   7.520   3.890   2.180
43417SOL    HW130275   7.503   3.973   2.126
43417SOL    HW230276   7.610   3.853   2.158
43418SOL     OW30277   8.631   5.059   1.981
43418SOL    HW130278   8.532   5.048   1.983
43418SOL    HW230279   8.665   5.074   2.074
43419SOL     OW30280   8.061   4.566   3.293
43419SOL    HW130281   8.117   4.647   3.276
43419SOL    HW230282   8.120   4.486   3.296
43420SOL     OW30283   8.941   5.491   2.821
43420SOL    HW130284   8.974   5.555   2.752
43420SOL    HW230285   9.007   5.485   2.896
43421SOL     OW30286   8.164   4.289   3.570
43421SOL    HW130287   8.183   4.354   3.644
43421SOL    HW230288   8.224   4.209   3.579
43422SOL     OW30289   8.898   4.944   3.495
43422SOL    HW130290   8.889   4.934   3.594
43422SOL    HW230291   8.994   4.937   3.469
43423SOL     OW30292   7.838   5.465   3.422
43423SOL    HW130293   7.747   5.506   3.420
43423SOL    HW230294   7.831   5.371   3.454
43424SOL     OW30295   9.122   4.607   3.116
43424SOL    HW130296   9.095   4.518   3.079
43424SOL    HW230297   9.123   4.675   3.043
43425SOL     OW30298   8.673   4.049   2.311
43425SOL    HW130299   8.738   3.975   2.300
43425SOL    HW230300   8.693   4.099   2.395
43426SOL     OW30301   8.042   4.469   2.514
43426SOL    HW130302   8.092   4.554   2.495
43426SOL    HW230303   7.954   4.471   2.466
43427SOL     OW30304   9.225   4.066   3.504
43427SOL    HW130305   9.208   4.097   3.410
43427SOL    HW230306   9.141   4.029   3.542
43428SOL     OW30307   9.178   4.658   3.379
43428SOL    HW130308   9.216   4.749   3.394
43428SOL    HW230309   9.170   4.641   3.280
43429SOL     OW30310   8.307   5.098   1.878
43429SOL    HW130311   8.261   5.113   1.966
43429SOL    HW230312   8.351   5.183   1.848
43430SOL     OW30313   8.109   5.514   2.815
43430SOL    HW130314   8.063   5.602   2.802
43430SOL    HW230315   8.208   5.526   2.808
43431SOL     OW30316   8.307   4.680   2.723
43431SOL    HW130317   8.361   4.611   2.771
43431SOL    HW230318   8.275   4.749   2.789
43432SOL     OW30319   8.531   4.708   1.949
43432SOL    HW130320   8.508   4.761   1.867
43432SOL    HW230321   8.612   4.652   1.930
43433SOL     OW30322   9.309   5.293   2.713
43433SOL    HW130323   9.238   5.281   2.643
43433SOL    HW230324   9.310   5.214   2.773
43434SOL     OW30325   7.669   5.038   3.706
43434SOL    HW130326   7.604   4.965   3.685
43434SOL    HW230327   7.673   5.052   3.804
43435SOL     OW30328   7.527   4.964   2.515
43435SOL    HW130329   7.526   4.917   2.603
43435SOL    HW230330   7.609   4.936   2.464
43436SOL     OW30331   8.120   5.115   3.486
43436SOL    HW130332   8.042   5.065   3.524
43436SOL    HW230333   8.117   5.210   3.517
43437SOL     OW30334   9.272   3.916   3.089
43437SOL    HW130335   9.268   3.826   3.133
43437SOL    HW230336   9.275   3.905   2.990
43438SOL     OW30337   7.876   4.148   2.382
43438SOL    HW130338   7.906   4.076   2.320
43438SOL    HW230339   7.837   4.108   2.465
43439SOL     OW30340   9.153   5.211   2.966
43439SOL    HW130341   9.060   5.186   2.939
43439SOL    HW230342   9.179   5.161   3.048
43440SOL     OW30343   7.765   4.271   3.142
43440SOL    HW130344   7.803   4.212   3.214
43440SOL    HW230345   7.805   4.245   3.054
43441SOL     OW30346   8.260   5.310   2.549
43441SOL    HW130347   8.292   5.320   2.455
43441SOL    HW230348   8.181   5.248   2.551
43442SOL     OW30349   8.872   3.938   2.974
43442SOL    HW130350   8.924   3.873   3.029
43442SOL    HW230351   8.823   4.001   3.035
43443SOL     OW30352   8.449   3.758   3.016
43443SOL    HW130353   8.386   3.686   2.985
43443SOL    HW230354   8.542   3.722   3.016
43444SOL     OW30355   8.218   5.054   2.163
43444SOL    HW130356   8.172   4.967   2.180
43444SOL    HW230357   8.309   5.051   2.204
43445SOL     OW30358   8.066   5.291   3.146
43445SOL    HW130359   8.061   5.373   3.203
43445SOL    HW230360   8.155   5.288   3.101
43446SOL     OW30361   8.800   3.776   2.030
43446SOL    HW130362   8.835   3.735   1.946
43446SOL    HW230363   8.710   3.738   2.050
43447SOL     OW30364   8.748   4.177   2.553
43447SOL    HW130365   8.689   4.257   2.557
43447SOL    HW230366   8.763   4.142   2.646
43448SOL     OW30367   9.041   3.945   2.744
43448SOL    HW130368   8.957   3.944   2.798
43448SOL    HW230369   9.043   4.028   2.688
43449SOL     OW30370   7.487   4.801   2.162
43449SOL    HW130371   7.586   4.790   2.153
43449SOL    HW230372   7.447   4.715   2.194
43450SOL     OW30373   8.323   5.370   2.199
43450SOL    HW130374   8.246   5.335   2.145
43450SOL    HW230375   8.291   5.441   2.261
43451SOL     OW30376   7.678   4.352   3.837
43451SOL    HW130377   7.585   4.350   3.874
43451SOL    HW230378   7.679   4.313   3.745
43452SOL     OW30379   7.673   3.999   4.720
43452SOL    HW130380   7.708   3.982   4.812
43452SOL    HW230381   7.585   3.954   4.708
43453SOL     OW30382   7.467   4.092   4.371
43453SOL    HW130383   7.385   4.135   4.410
43453SOL    HW230384   7.439   4.019   4.308
43454SOL     OW30385   8.017   4.999   4.889
43454SOL    HW130386   7.924   4.992   4.852
43454SOL    HW230387   8.028   5.088   4.933
43455SOL     OW30388   9.003   5.235   4.427
43455SOL    HW130389   8.946   5.219   4.508
43455SOL    HW230390   8.944   5.245   4.347
43456SOL     OW30391   8.583   4.427   4.441
43456SOL    HW130392   8.640   4.505   4.416
43456SOL    HW230393   8.523   4.453   4.517
43457SOL     OW30394   9.203   4.331   3.955
43457SOL    HW130395   9.191   4.318   3.856
43457SOL    HW230396   9.173   4.250   4.004
43458SOL     OW30397   8.216   4.868   4.747
43458SOL    HW130398   8.138   4.885   4.807
43458SOL    HW230399   8.250   4.955   4.711
43459SOL     OW30400   8.298   4.522   5.547
43459SOL    HW130401   8.294   4.598   5.612
43459SOL    HW230402   8.320   4.558   5.456
43460SOL     OW30403   8.133   4.736   4.389
43460SOL    HW130404   8.202   4.720   4.459
43460SOL    HW230405   8.060   4.793   4.427
43461SOL     OW30406   8.134   4.885   5.527
43461SOL    HW130407   8.194   4.964   5.541
43461SOL    HW230408   8.048   4.916   5.486
43462SOL     OW30409   7.783   5.159   4.785
43462SOL    HW130410   7.705   5.128   4.732
43462SOL    HW230411   7.841   5.217   4.728
43463SOL     OW30412   8.908   5.229   5.063
43463SOL    HW130413   8.932   5.323   5.089
43463SOL    HW230414   8.892   5.175   5.145
43464SOL     OW30415   7.886   4.116   5.223
43464SOL    HW130416   7.968   4.060   5.232
43464SOL    HW230417   7.805   4.058   5.227
43465SOL     OW30418   9.051   4.171   4.461
43465SOL    HW130419   8.977   4.217   4.411
43465SOL    HW230420   9.102   4.239   4.514
43466SOL     OW30421   7.679   5.437   4.207
43466SOL    HW130422   7.713   5.514   4.261
43466SOL    HW230423   7.723   5.437   4.117
43467SOL     OW30424   8.575   5.065   5.414
43467SOL    HW130425   8.622   5.065   5.502
43467SOL    HW230426   8.527   4.978   5.403
43468SOL     OW30427   7.678   5.158   4.262
43468SOL    HW130428   7.652   5.254   4.262
43468SOL    HW230429   7.607   5.104   4.307
43469SOL     OW30430   7.688   4.815   4.610
43469SOL    HW130431   7.702   4.731   4.662
43469SOL    HW230432   7.633   4.879   4.665
43470SOL     OW30433   8.068   5.510   5.163
43470SOL    HW130434   7.976   5.493   5.198
43470SOL    HW230435   8.096   5.602   5.189
43471SOL     OW30436   8.054   4.688   3.847
43471SOL    HW130437   8.061   4.772   3.793
43471SOL    HW230438   8.100   4.701   3.935
43472SOL     OW30439   9.042   3.838   5.204
43472SOL    HW130440   9.024   3.905   5.132
43472SOL    HW230441   9.039   3.884   5.293
43473SOL     OW30442   7.570   4.367   4.287
43473SOL    HW130443   7.525   4.279   4.304
43473SOL    HW230444   7.569   4.421   4.371
43474SOL     OW30445   9.290   5.491   4.083
43474SOL    HW130446   9.344   5.462   4.163
43474SOL    HW230447   9.320   5.581   4.054
43475SOL     OW30448   7.475   5.320   3.841
43475SOL    HW130449   7.456   5.224   3.862
43475SOL    HW230450   7.442   5.378   3.916
43476SOL     OW30451   9.137   4.646   4.336
43476SOL    HW130452   9.232   4.617   4.344
43476SOL    HW230453   9.129   4.711   4.261
43477SOL     OW30454   9.089   4.832   4.156
43477SOL    HW130455   9.175   4.834   4.104
43477SOL    HW230456   9.103   4.879   4.244
43478SOL     OW30457   7.561   4.461   5.321
43478SOL    HW130458   7.649   4.448   5.366
43478SOL    HW230459   7.548   4.558   5.299
43479SOL     OW30460   8.061   5.089   4.450
43479SOL    HW130461   8.012   5.002   4.459
43479SOL    HW230462   8.038   5.132   4.363
43480SOL     OW30463   8.741   4.952   5.147
43480SOL    HW130464   8.778   4.879   5.089
43480SOL    HW230465   8.793   4.957   5.232
43481SOL     OW30466   8.257   3.728   4.226
43481SOL    HW130467   8.297   3.819   4.217
43481SOL    HW230468   8.157   3.736   4.232
43482SOL     OW30469   7.645   4.700   4.988
43482SOL    HW130470   7.734   4.655   4.974
43482SOL    HW230471   7.572   4.635   4.969
43483SOL     OW30472   8.973   4.723   3.914
43483SOL    HW130473   8.910   4.647   3.927
43483SOL    HW230474   9.021   4.741   4.000
43484SOL     OW30475   8.635   5.516   5.340
43484SOL    HW130476   8.659   5.576   5.264
43484SOL    HW230477   8.642   5.421   5.310
43485SOL     OW30478   7.765   3.975   5.525
43485SOL    HW130479   7.836   4.046   5.531
43485SOL    HW230480   7.677   4.014   5.553
43486SOL     OW30481   8.914   5.141   4.677
43486SOL    HW130482   8.855   5.147   4.757
43486SOL    HW230483   8.899   5.053   4.631
43487SOL     OW30484   9.115   5.438   4.296
43487SOL    HW130485   9.074   5.415   4.208
43487SOL    HW230486   9.097   5.364   4.361
43488SOL     OW30487   8.046   4.453   3.994
43488SOL    HW130488   8.070   4.522   3.926
43488SOL    HW230489   7.968   4.486   4.048
43489SOL     OW30490   8.729   4.069   4.668
43489SOL    HW130491   8.643   4.019   4.655
43489SOL    HW230492   8.791   4.015   4.724
43490SOL     OW30493   9.024   5.386   4.031
43490SOL    HW130494   9.113   5.432   4.034
43490SOL    HW230495   9.003   5.362   3.936
43491SOL     OW30496   8.255   4.329   5.189
43491SOL    HW130497   8.208   4.326   5.278
43491SOL    HW230498   8.204   4.274   5.123
43492SOL     OW30499   8.842   4.193   5.398
43492SOL    HW130500   8.822   4.236   5.486
43492SOL    HW230501   8.920   4.131   5.407
43493SOL     OW30502   8.421   4.614   5.296
43493SOL    HW130503   8.467   4.530   5.267
43493SOL    HW230504   8.365   4.648   5.221
43494SOL     OW30505   8.439   4.134   4.966
43494SOL    HW130506   8.362   4.168   5.020
43494SOL    HW230507   8.405   4.083   4.887
43495SOL     OW30508   8.489   4.425   4.153
43495SOL    HW130509   8.515   4.421   4.249
43495SOL    HW230510   8.404   4.374   4.139
43496SOL     OW30511   7.524   4.535   4.513
43496SOL    HW130512   7.623   4.523   4.522
43496SOL    HW230513   7.500   4.630   4.534
43497SOL     OW30514   7.578   5.545   5.295
43497SOL    HW130515   7.568   5.530   5.394
43497SOL    HW230516   7.492   5.581   5.259
43498SOL     OW30517   8.313   4.072   3.919
43498SOL    HW130518   8.372   4.135   3.870
43498SOL    HW230519   8.332   3.978   3.890
43499SOL     OW30520   9.167   4.309   5.555
43499SOL    HW130521   9.141   4.398   5.519
43499SOL    HW230522   9.165   4.241   5.482
43500SOL     OW30523   8.810   4.868   4.269
43500SOL    HW130524   8.893   4.839   4.221
43500SOL    HW230525   8.761   4.935   4.213
43501SOL     OW30526   7.998   3.920   4.609
43501SOL    HW130527   7.993   3.915   4.709
43501SOL    HW230528   8.000   4.016   4.580
43502SOL     OW30529   8.456   5.180   4.201
43502SOL    HW130530   8.410   5.252   4.149
43502SOL    HW230531   8.452   5.200   4.299
43503SOL     OW30532   7.799   5.525   4.577
43503SOL    HW130533   7.849   5.439   4.583
43503SOL    HW230534   7.864   5.602   4.574
43504SOL     OW30535   9.243   4.790   4.597
43504SOL    HW130536   9.181   4.775   4.521
43504SOL    HW230537   9.191   4.801   4.682
43505SOL     OW30538   8.675   5.274   5.230
43505SOL    HW130539   8.681   5.197   5.294
43505SOL    HW230540   8.623   5.248   5.150
43506SOL     OW30541   7.769   4.667   3.966
43506SOL    HW130542   7.851   4.706   3.924
43506SOL    HW230543   7.742   4.585   3.917
43507SOL     OW30544   8.906   4.459   4.452
43507SOL    HW130545   8.901   4.394   4.527
43507SOL    HW230546   8.986   4.518   4.465
43508SOL     OW30547   7.909   4.990   5.451
43508SOL    HW130548   7.859   4.991   5.365
43508SOL    HW230549   7.846   4.972   5.527
43509SOL     OW30550   8.559   5.500   3.961
43509SOL    HW130551   8.499   5.438   4.011
43509SOL    HW230552   8.590   5.456   3.876
43510SOL     OW30553   7.650   4.009   5.222
43510SOL    HW130554   7.570   4.069   5.209
43510SOL    HW230555   7.640   3.960   5.308
43511SOL     OW30556   9.080   5.101   3.805
43511SOL    HW130557   9.048   5.195   3.795
43511SOL    HW230558   9.004   5.038   3.793
43512SOL     OW30559   7.912   5.467   4.047
43512SOL    HW130560   7.945   5.506   4.133
43512SOL    HW230561   7.988   5.460   3.982
43513SOL     OW30562   8.848   3.831   4.150
43513SOL    HW130563   8.824   3.794   4.060
43513SOL    HW230564   8.947   3.847   4.154
43514SOL     OW30565   7.697   5.509   4.965
43514SOL    HW130566   7.754   5.444   5.015
43514SOL    HW230567   7.681   5.476   4.872
43515SOL     OW30568   8.388   5.422   4.628
43515SOL    HW130569   8.468   5.365   4.649
43515SOL    HW230570   8.339   5.382   4.551
43516SOL     OW30571   7.830   4.424   4.204
43516SOL    HW130572   7.875   4.334   4.201
43516SOL    HW230573   7.736   4.413   4.237
43517SOL     OW30574   8.995   3.946   5.453
43517SOL    HW130575   8.990   3.983   5.545
43517SOL    HW230576   8.923   3.877   5.441
43518SOL     OW30577   8.062   3.846   3.841
43518SOL    HW130578   8.160   3.824   3.848
43518SOL    HW230579   8.031   3.829   3.748
43519SOL     OW30580   8.229   3.988   5.473
43519SOL    HW130581   8.296   3.927   5.516
43519SOL    HW230582   8.156   4.007   5.538
43520SOL     OW30583   8.336   5.238   4.919
43520SOL    HW130584   8.313   5.213   4.825
43520SOL    HW230585   8.397   5.169   4.958
43521SOL     OW30586   8.799   4.314   5.157
43521SOL    HW130587   8.827   4.271   5.242
43521SOL    HW230588   8.824   4.410   5.158
43522SOL     OW30589   8.251   5.126   4.648
43522SOL    HW130590   8.341   5.140   4.606
43522SOL    HW230591   8.180   5.128   4.577
43523SOL     OW30592   8.370   4.227   4.623
43523SOL    HW130593   8.345   4.218   4.527
43523SOL    HW230594   8.418   4.145   4.654
43524SOL     OW30595   7.987   3.788   4.236
43524SOL    HW130596   7.906   3.789   4.294
43524SOL    HW230597   7.990   3.871   4.181
43525SOL     OW30598   8.882   4.912   3.765
43525SOL    HW130599   8.914   4.836   3.822
43525SOL    HW230600   8.790   4.939   3.795
43526SOL     OW30601   7.745   3.759   3.895
43526SOL    HW130602   7.794   3.843   3.874
43526SOL    HW230603   7.807   3.694   3.940
43527SOL     OW30604   8.383   3.960   4.204
43527SOL    HW130605   8.335   4.001   4.126
43527SOL    HW230606   8.482   3.958   4.185
43528SOL     OW30607   8.524   4.407   5.188
43528SOL    HW130608   8.444   4.346   5.191
43528SOL    HW230609   8.605   4.354   5.164
43529SOL     OW30610   8.675   5.294   4.517
43529SOL    HW130611   8.696   5.368   4.452
43529SOL    HW230612   8.743   5.294   4.590
43530SOL     OW30613   7.907   4.876   4.465
43530SOL    HW130614   7.836   4.849   4.530
43530SOL    HW230615   7.881   4.848   4.372
43531SOL     OW30616   8.719   5.521   4.315
43531SOL    HW130617   8.763   5.585   4.251
43531SOL    HW230618   8.669   5.573   4.385
43532SOL     OW30619   8.480   4.273   3.740
43532SOL    HW130620   8.439   4.355   3.701
43532SOL    HW230621   8.544   4.299   3.813
43533SOL     OW30622   7.526   4.280   5.110
43533SOL    HW130623   7.618   4.279   5.069
43533SOL    HW230624   7.520   4.354   5.177
43534SOL     OW30625   8.009   3.946   4.871
43534SOL    HW130626   8.047   3.862   4.908
43534SOL    HW230627   7.921   3.965   4.915
43535SOL     OW30628   8.314   4.178   4.366
43535SOL    HW130629   8.282   4.250   4.304
43535SOL    HW230630   8.338   4.097   4.313
43536SOL     OW30631   8.465   3.763   4.477
43536SOL    HW130632   8.393   3.768   4.408
43536SOL    HW230633   8.441   3.694   4.546
43537SOL     OW30634   8.877   4.897   4.591
43537SOL    HW130635   8.822   4.813   4.584
43537SOL    HW230636   8.903   4.926   4.499
43538SOL     OW30637   8.914   4.314   4.716
43538SOL    HW130638   8.884   4.219   4.723
43538SOL    HW230639   8.987   4.330   4.782
43539SOL     OW30640   9.305   4.557   4.101
43539SOL    HW130641   9.347   4.493   4.165
43539SOL    HW230642   9.267   4.506   4.023
43540SOL     OW30643   7.936   5.109   3.898
43540SOL    HW130644   7.849   5.094   3.945
43540SOL    HW230645   7.919   5.135   3.803
43541SOL     OW30646   9.112   5.004   4.381
43541SOL    HW130647   9.211   5.012   4.395
43541SOL    HW230648   9.067   5.088   4.412
43542SOL     OW30649   8.838   4.299   3.802
43542SOL    HW130650   8.784   4.278   3.883
43542SOL    HW230651   8.929   4.258   3.811
43543SOL     OW30652   7.975   3.980   4.052
43543SOL    HW130653   8.002   3.921   3.977
43543SOL    HW230654   7.975   4.075   4.021
43544SOL     OW30655   9.202   4.947   5.312
43544SOL    HW130656   9.293   4.908   5.299
43544SOL    HW230657   9.210   5.043   5.336
43545SOL     OW30658   8.512   5.071   5.064
43545SOL    HW130659   8.432   5.048   5.119
43545SOL    HW230660   8.595   5.045   5.113
43546SOL     OW30661   9.040   5.353   5.349
43546SOL    HW130662   9.067   5.387   5.259
43546SOL    HW230663   9.119   5.315   5.395
43547SOL     OW30664   8.559   4.919   4.824
43547SOL    HW130665   8.519   4.963   4.905
43547SOL    HW230666   8.518   4.956   4.741
43548SOL     OW30667   9.086   4.823   4.803
43548SOL    HW130668   9.091   4.904   4.862
43548SOL    HW230669   9.000   4.825   4.752
43549SOL     OW30670   8.363   3.813   5.126
43549SOL    HW130671   8.388   3.793   5.031
43549SOL    HW230672   8.435   3.869   5.168
43550SOL     OW30673   8.428   4.840   5.443
43550SOL    HW130674   8.329   4.846   5.453
43550SOL    HW230675   8.451   4.760   5.387
43551SOL     OW30676   8.153   4.774   4.092
43551SOL    HW130677   8.139   4.781   4.191
43551SOL    HW230678   8.237   4.723   4.074
43552SOL     OW30679   7.858   4.537   4.975
43552SOL    HW130680   7.944   4.549   5.025
43552SOL    HW230681   7.816   4.450   5.002
43553SOL     OW30682   8.722   4.110   4.986
43553SOL    HW130683   8.743   4.184   5.050
43553SOL    HW230684   8.633   4.127   4.943
43554SOL     OW30685   7.512   5.288   5.055
43554SOL    HW130686   7.466   5.370   5.021
43554SOL    HW230687   7.610   5.307   5.064
43555SOL     OW30688   7.815   4.824   4.225
43555SOL    HW130689   7.808   4.907   4.169
43555SOL    HW230690   7.819   4.744   4.165
43556SOL     OW30691   8.014   4.261   4.589
43556SOL    HW130692   8.026   4.327   4.515
43556SOL    HW230693   8.060   4.295   4.672
43557SOL     OW30694   8.700   5.072   4.112
43557SOL    HW130695   8.750   5.149   4.152
43557SOL    HW230696   8.605   5.074   4.144
43558SOL     OW30697   8.720   5.169   4.866
43558SOL    HW130698   8.767   5.182   4.953
43558SOL    HW230699   8.654   5.095   4.875
43559SOL     OW30700   9.030   4.363   4.196
43559SOL    HW130701   8.999   4.424   4.269
43559SOL    HW230702   9.080   4.415   4.127
43560SOL     OW30703   7.802   5.234   5.053
43560SOL    HW130704   7.781   5.190   4.966
43560SOL    HW230705   7.899   5.260   5.056
43561SOL     OW30706   7.850   4.475   5.322
43561SOL    HW130707   7.918   4.530   5.275
43561SOL    HW230708   7.890   4.387   5.349
43562SOL     OW30709   9.035   4.503   5.394
43562SOL    HW130710   8.943   4.541   5.389
43562SOL    HW230711   9.095   4.550   5.329
43563SOL     OW30712   8.461   3.829   5.494
43563SOL    HW130713   8.467   3.914   5.442
43563SOL    HW230714   8.493   3.753   5.437
43564SOL     OW30715   7.952   3.774   5.464
43564SOL    HW130716   7.910   3.717   5.394
43564SOL    HW230717   7.886   3.843   5.496
43565SOL     OW30718   8.021   4.594   4.753
43565SOL    HW130719   8.065   4.683   4.744
43565SOL    HW230720   7.958   4.594   4.830
43566SOL     OW30721   8.808   4.586   4.769
43566SOL    HW130722   8.733   4.586   4.703
43566SOL    HW230723   8.845   4.494   4.778
43567SOL     OW30724   8.657   4.249   3.999
43567SOL    HW130725   8.670   4.165   4.053
43567SOL    HW230726   8.628   4.323   4.059
43568SOL     OW30727   7.755   3.937   4.955
43568SOL    HW130728   7.732   3.974   5.045
43568SOL    HW230729   7.725   3.842   4.949
43569SOL     OW30730   7.485   5.034   5.006
43569SOL    HW130731   7.538   4.985   5.074
43569SOL    HW230732   7.507   5.132   5.011
43570SOL     OW30733   8.180   4.358   4.788
43570SOL    HW130734   8.239   4.332   4.712
43570SOL    HW230735   8.152   4.454   4.777
43571SOL     OW30736   9.176   4.659   5.578
43571SOL    HW130737   9.130   4.652   5.489
43571SOL    HW230738   9.114   4.703   5.644
43572SOL     OW30739   7.755   3.787   4.342
43572SOL    HW130740   7.744   3.881   4.375
43572SOL    HW230741   7.750   3.724   4.419
43573SOL     OW30742   9.070   4.091   4.098
43573SOL    HW130743   9.072   4.015   4.162
43573SOL    HW230744   9.022   4.168   4.138
43574SOL     OW30745   8.471   4.490   4.690
43574SOL    HW130746   8.486   4.511   4.786
43574SOL    HW230747   8.441   4.395   4.681
43575SOL     OW30748   8.428   5.297   5.424
43575SOL    HW130749   8.408   5.341   5.336
43575SOL    HW230750   8.467   5.206   5.408
43576SOL     OW30751   9.307   5.242   5.329
43576SOL    HW130752   9.321   5.269   5.234
43576SOL    HW230753   9.390   5.264   5.382
43577SOL     OW30754   7.798   4.622   5.528
43577SOL    HW130755   7.874   4.666   5.576
43577SOL    HW230756   7.833   4.575   5.446
43578SOL     OW30757   8.988   3.998   3.849
43578SOL    HW130758   8.927   3.923   3.872
43578SOL    HW230759   9.010   4.050   3.932
43579SOL     OW30760   8.751   4.562   3.766
43579SOL    HW130761   8.785   4.469   3.781
43579SOL    HW230762   8.769   4.589   3.671
43580SOL     OW30763   8.516   5.057   4.573
43580SOL    HW130764   8.523   4.973   4.518
43580SOL    HW230765   8.578   5.126   4.537
43581SOL     OW30766   7.767   4.534   4.673
43581SOL    HW130767   7.860   4.570   4.678
43581SOL    HW230768   7.761   4.449   4.725
43582SOL     OW30769   7.787   4.233   4.730
43582SOL    HW130770   7.735   4.150   4.713
43582SOL    HW230771   7.864   4.238   4.666
43583SOL     OW30772   8.586   4.104   5.402
43583SOL    HW130773   8.541   4.167   5.466
43583SOL    HW230774   8.679   4.135   5.385
43584SOL     OW30775   8.608   3.931   5.201
43584SOL    HW130776   8.608   3.995   5.278
43584SOL    HW230777   8.636   3.979   5.118
43585SOL     OW30778   7.456   5.050   3.924
43585SOL    HW130779   7.363   5.071   3.893
43585SOL    HW230780   7.466   4.951   3.937
43586SOL     OW30781   7.536   5.525   4.651
43586SOL    HW130782   7.494   5.439   4.624
43586SOL    HW230783   7.630   5.528   4.617
43587SOL     OW30784   7.952   5.292   4.634
43587SOL    HW130785   8.018   5.366   4.643
43587SOL    HW230786   7.996   5.213   4.592
43588SOL     OW30787   8.450   4.520   4.962
43588SOL    HW130788   8.491   4.488   5.048
43588SOL    HW230789   8.354   4.493   4.959
43589SOL     OW30790   7.488   4.268   4.838
43589SOL    HW130791   7.573   4.235   4.797
43589SOL    HW230792   7.501   4.283   4.936
43590SOL     OW30793   7.637   4.244   5.446
43590SOL    HW130794   7.696   4.204   5.376
43590SOL    HW230795   7.579   4.315   5.405
43591SOL     OW30796   8.817   4.674   5.384
43591SOL    HW130797   8.856   4.763   5.404
43591SOL    HW230798   8.827   4.654   5.287
43592SOL     OW30799   8.263   4.296   4.049
43592SOL    HW130800   8.270   4.207   4.003
43592SOL    HW230801   8.169   4.330   4.041
43593SOL     OW30802   9.105   4.328   4.930
43593SOL    HW130803   9.067   4.259   4.992
43593SOL    HW230804   9.187   4.292   4.886
43594SOL     OW30805   7.700   5.288   5.468
43594SOL    HW130806   7.670   5.345   5.544
43594SOL    HW230807   7.693   5.191   5.494
43595SOL     OW30808   8.119   4.188   4.993
43595SOL    HW130809   8.085   4.099   4.963
43595SOL    HW230810   8.145   4.242   4.913
43596SOL     OW30811   8.378   5.402   5.189
43596SOL    HW130812   8.354   5.384   5.094
43596SOL    HW230813   8.408   5.496   5.199
43597SOL     OW30814   7.921   4.224   3.915
43597SOL    HW130815   7.982   4.304   3.919
43597SOL    HW230816   7.826   4.255   3.922
43598SOL     OW30817   7.607   4.861   5.190
43598SOL    HW130818   7.629   4.800   5.266
43598SOL    HW230819   7.617   4.812   5.104
43599SOL     OW30820   8.795   4.783   4.958
43599SOL    HW130821   8.819   4.720   4.884
43599SOL    HW230822   8.705   4.823   4.940
43600SOL     OW30823   8.750   4.579   4.033
43600SOL    HW130824   8.664   4.548   4.075
43600SOL    HW230825   8.746   4.565   3.934
43601SOL     OW30826   9.207   5.471   4.878
43601SOL    HW130827   9.268   5.501   4.805
43601SOL    HW230828   9.169   5.382   4.856
43602SOL     OW30829   8.700   5.455   4.852
43602SOL    HW130830   8.784   5.460   4.798
43602SOL    HW230831   8.677   5.359   4.870
43603SOL     OW30832   7.531   4.982   4.746
43603SOL    HW130833   7.526   4.981   4.846
43603SOL    HW230834   7.448   4.941   4.708
43604SOL     OW30835   8.136   5.386   5.440
43604SOL    HW130836   8.080   5.467   5.449
43604SOL    HW230837   8.188   5.390   5.354
43605SOL     OW30838   9.174   3.859   4.247
43605SOL    HW130839   9.247   3.842   4.180
43605SOL    HW230840   9.143   3.772   4.285
43606SOL     OW30841   8.836   5.297   4.201
43606SOL    HW130842   8.903   5.309   4.127
43606SOL    HW230843   8.796   5.386   4.224
43607SOL     OW30844   7.578   5.518   5.575
43607SOL    HW130845   7.537   5.444   5.628
43607SOL    HW230846   7.642   5.569   5.633
43608SOL     OW30847   8.728   4.651   4.396
43608SOL    HW130848   8.788   4.570   4.398
43608SOL    HW230849   8.768   4.720   4.336
43609SOL     OW30850   8.278   4.997   5.146
43609SOL    HW130851   8.273   5.030   5.241
43609SOL    HW230852   8.192   5.016   5.100
43610SOL     OW30853   8.120   5.340   3.878
43610SOL    HW130854   8.129   5.350   3.779
43610SOL    HW230855   8.080   5.251   3.899
43611SOL     OW30856   9.098   5.444   5.118
43611SOL    HW130857   9.151   5.454   5.034
43611SOL    HW230858   9.071   5.534   5.152
43612SOL     OW30859   9.289   3.899   4.687
43612SOL    HW130860   9.328   3.814   4.651
43612SOL    HW230861   9.191   3.901   4.668
43613SOL     OW30862   7.711   4.050   4.444
43613SOL    HW130863   7.632   4.101   4.410
43613SOL    HW230864   7.702   4.035   4.542
43614SOL     OW30865   8.642   5.336   3.755
43614SOL    HW130866   8.648   5.243   3.792
43614SOL    HW230867   8.583   5.336   3.675
43615SOL     OW30868   8.270   4.726   5.096
43615SOL    HW130869   8.310   4.725   5.004
43615SOL    HW230870   8.280   4.818   5.136
43616SOL     OW30871   8.364   4.634   4.015
43616SOL    HW130872   8.427   4.672   3.947
43616SOL    HW230873   8.404   4.551   4.054
43617SOL     OW30874   8.952   5.331   3.768
43617SOL    HW130875   8.860   5.368   3.775
43617SOL    HW230876   8.990   5.351   3.678
43618SOL     OW30877   7.820   5.012   5.214
43618SOL    HW130878   7.807   5.105   5.180
43618SOL    HW230879   7.736   4.960   5.201
43619SOL     OW30880   9.062   5.016   5.013
43619SOL    HW130881   9.122   5.019   5.093
43619SOL    HW230882   8.987   5.080   5.026
43620SOL     OW30883   8.487   4.822   4.420
43620SOL    HW130884   8.417   4.775   4.474
43620SOL    HW230885   8.546   4.754   4.377
43621SOL     OW30886   8.462   3.960   4.695
43621SOL    HW130887   8.454   3.924   4.602
43621SOL    HW230888   8.460   3.884   4.760
43622SOL     OW30889   8.038   5.211   4.215
43622SOL    HW130890   8.080   5.153   4.145
43622SOL    HW230891   7.994   5.290   4.171
43623SOL     OW30892   9.157   4.109   5.105
43623SOL    HW130893   9.230   4.178   5.109
43623SOL    HW230894   9.185   4.034   5.046
43624SOL     OW30895   7.703   5.072   4.014
43624SOL    HW130896   7.607   5.073   3.987
43624SOL    HW230897   7.715   5.125   4.098
43625SOL     OW30898   7.553   4.737   5.450
43625SOL    HW130899   7.476   4.704   5.504
43625SOL    HW230900   7.638   4.707   5.492
43626SOL     OW30901   8.120   3.927   5.213
43626SOL    HW130902   8.210   3.911   5.173
43626SOL    HW230903   8.128   3.932   5.312
43627SOL     OW30904   7.523   4.069   3.757
43627SOL    HW130905   7.431   4.041   3.728
43627SOL    HW230906   7.554   4.146   3.701
43628SOL     OW30907   8.888   4.580   5.122
43628SOL    HW130908   8.831   4.632   5.059
43628SOL    HW230909   8.984   4.592   5.098
43629SOL     OW30910   7.520   3.890   4.042
43629SOL    HW130911   7.503   3.973   3.988
43629SOL    HW230912   7.610   3.853   4.020
43630SOL     OW30913   8.631   5.059   3.843
43630SOL    HW130914   8.532   5.048   3.845
43630SOL    HW230915   8.665   5.074   3.936
43631SOL     OW30916   8.061   4.566   5.155
43631SOL    HW130917   8.117   4.647   5.138
43631SOL    HW230918   8.120   4.486   5.158
43632SOL     OW30919   8.941   5.491   4.683
43632SOL    HW130920   8.974   5.555   4.614
43632SOL    HW230921   9.007   5.485   4.758
43633SOL     OW30922   8.164   4.289   5.432
43633SOL    HW130923   8.183   4.354   5.506
43633SOL    HW230924   8.224   4.209   5.441
43634SOL     OW30925   8.898   4.944   5.357
43634SOL    HW130926   8.889   4.934   5.456
43634SOL    HW230927   8.994   4.937   5.331
43635SOL     OW30928   7.838   5.465   5.284
43635SOL    HW130929   7.747   5.506   5.282
43635SOL    HW230930   7.831   5.371   5.316
43636SOL     OW30931   9.122   4.607   4.978
43636SOL    HW130932   9.095   4.518   4.941
43636SOL    HW230933   9.123   4.675   4.905
43637SOL     OW30934   8.673   4.049   4.173
43637SOL    HW130935   8.738   3.975   4.162
43637SOL    HW230936   8.693   4.099   4.257
43638SOL     OW30937   8.042   4.469   4.376
43638SOL    HW130938   8.092   4.554   4.357
43638SOL    HW230939   7.954   4.471   4.328
43639SOL     OW30940   9.225   4.066   5.366
43639SOL    HW130941   9.208   4.097   5.272
43639SOL    HW230942   9.141   4.029   5.404
43640SOL     OW30943   9.178   4.658   5.241
43640SOL    HW130944   9.216   4.749   5.256
43640SOL    HW230945   9.170   4.641   5.142
43641SOL     OW30946   8.307   5.098   3.740
43641SOL    HW130947   8.261   5.113   3.828
43641SOL    HW230948   8.351   5.183   3.710
43642SOL     OW30949   8.109   5.514   4.677
43642SOL    HW130950   8.063   5.602   4.664
43642SOL    HW230951   8.208   5.526   4.670
43643SOL     OW30952   8.307   4.680   4.585
43643SOL    HW130953   8.361   4.611   4.633
43643SOL    HW230954   8.275   4.749   4.651
43644SOL     OW30955   8.531   4.708   3.811
43644SOL    HW130956   8.508   4.761   3.729
43644SOL    HW230957   8.612   4.652   3.792
43645SOL     OW30958   9.309   5.293   4.575
43645SOL    HW130959   9.238   5.281   4.505
43645SOL    HW230960   9.310   5.214   4.635
43646SOL     OW30961   7.669   5.038   5.568
43646SOL    HW130962   7.604   4.965   5.547
43646SOL    HW230963   7.673   5.052   5.666
43647SOL     OW30964   7.527   4.964   4.377
43647SOL    HW130965   7.526   4.917   4.465
43647SOL    HW230966   7.609   4.936   4.326
43648SOL     OW30967   8.120   5.115   5.348
43648SOL    HW130968   8.042   5.065   5.386
43648SOL    HW230969   8.117   5.210   5.379
43649SOL     OW30970   9.272   3.916   4.951
43649SOL    HW130971   9.268   3.826   4.995
43649SOL    HW230972   9.275   3.905   4.852
43650SOL     OW30973   7.876   4.148   4.244
43650SOL    HW130974   7.906   4.076   4.182
43650SOL    HW230975   7.837   4.108   4.327
43651SOL     OW30976   9.153   5.211   4.828
43651SOL    HW130977   9.060   5.186   4.801
43651SOL    HW230978   9.179   5.161   4.910
43652SOL     OW30979   7.765   4.271   5.004
43652SOL    HW130980   7.803   4.212   5.076
43652SOL    HW230981   7.805   4.245   4.916
43653SOL     OW30982   8.260   5.310   4.411
43653SOL    HW130983   8.292   5.320   4.317
43653SOL    HW230984   8.181   5.248   4.413
43654SOL     OW30985   8.872   3.938   4.836
43654SOL    HW130986   8.924   3.873   4.891
43654SOL    HW230987   8.823   4.001   4.897
43655SOL     OW30988   8.449   3.758   4.878
43655SOL    HW130989   8.386   3.686   4.847
43655SOL    HW230990   8.542   3.722   4.878
43656SOL     OW30991   8.218   5.054   4.025
43656SOL    HW130992   8.172   4.967   4.042
43656SOL    HW230993   8.309   5.051   4.066
43657SOL     OW30994   8.066   5.291   5.008
43657SOL    HW130995   8.061   5.373   5.065
43657SOL    HW230996   8.155   5.288   4.963
43658SOL     OW30997   8.800   3.776   3.892
43658SOL    HW130998   8.835   3.735   3.808
43658SOL    HW230999   8.710   3.738   3.912
43659SOL     OW31000   8.748   4.177   4.415
43659SOL    HW131001   8.689   4.257   4.419
43659SOL    HW231002   8.763   4.142   4.508
43660SOL     OW31003   9.041   3.945   4.606
43660SOL    HW131004   8.957   3.944   4.660
43660SOL    HW231005   9.043   4.028   4.550
43661SOL     OW31006   7.487   4.801   4.024
43661SOL    HW131007   7.586   4.790   4.015
43661SOL    HW231008   7.447   4.715   4.056
43662SOL     OW31009   8.323   5.370   4.061
43662SOL    HW131010   8.246   5.335   4.007
43662SOL    HW231011   8.291   5.441   4.123
43663SOL     OW31012   7.678   4.352   5.699
43663SOL    HW131013   7.585   4.350   5.736
43663SOL    HW231014   7.679   4.313   5.607
43664SOL     OW31015   7.673   3.999   6.582
43664SOL    HW131016   7.708   3.982   6.674
43664SOL    HW231017   7.585   3.954   6.570
43665SOL     OW31018   7.467   4.092   6.233
43665SOL    HW131019   7.385   4.135   6.272
43665SOL    HW231020   7.439   4.019   6.170
43666SOL     OW31021   8.017   4.999   6.751
43666SOL    HW131022   7.924   4.992   6.714
43666SOL    HW231023   8.028   5.088   6.795
43667SOL     OW31024   9.003   5.235   6.289
43667SOL    HW131025   8.946   5.219   6.370
43667SOL    HW231026   8.944   5.245   6.209
43668SOL     OW31027   8.583   4.427   6.303
43668SOL    HW131028   8.640   4.505   6.278
43668SOL    HW231029   8.523   4.453   6.379
43669SOL     OW31030   9.203   4.331   5.817
43669SOL    HW131031   9.191   4.318   5.718
43669SOL    HW231032   9.173   4.250   5.866
43670SOL     OW31033   8.216   4.868   6.609
43670SOL    HW131034   8.138   4.885   6.669
43670SOL    HW231035   8.250   4.955   6.573
43671SOL     OW31036   8.298   4.522   7.409
43671SOL    HW131037   8.294   4.598   7.474
43671SOL    HW231038   8.320   4.558   7.318
43672SOL     OW31039   8.133   4.736   6.251
43672SOL    HW131040   8.202   4.720   6.321
43672SOL    HW231041   8.060   4.793   6.289
43673SOL     OW31042   8.134   4.885   7.389
43673SOL    HW131043   8.194   4.964   7.403
43673SOL    HW231044   8.048   4.916   7.348
43674SOL     OW31045   7.783   5.159   6.647
43674SOL    HW131046   7.705   5.128   6.594
43674SOL    HW231047   7.841   5.217   6.590
43675SOL     OW31048   8.908   5.229   6.925
43675SOL    HW131049   8.932   5.323   6.951
43675SOL    HW231050   8.892   5.175   7.007
43676SOL     OW31051   7.886   4.116   7.085
43676SOL    HW131052   7.968   4.060   7.094
43676SOL    HW231053   7.805   4.058   7.089
43677SOL     OW31054   9.051   4.171   6.323
43677SOL    HW131055   8.977   4.217   6.273
43677SOL    HW231056   9.102   4.239   6.376
43678SOL     OW31057   7.679   5.437   6.069
43678SOL    HW131058   7.713   5.514   6.123
43678SOL    HW231059   7.723   5.437   5.979
43679SOL     OW31060   8.575   5.065   7.276
43679SOL    HW131061   8.622   5.065   7.364
43679SOL    HW231062   8.527   4.978   7.265
43680SOL     OW31063   7.678   5.158   6.124
43680SOL    HW131064   7.652   5.254   6.124
43680SOL    HW231065   7.607   5.104   6.169
43681SOL     OW31066   7.688   4.815   6.472
43681SOL    HW131067   7.702   4.731   6.524
43681SOL    HW231068   7.633   4.879   6.527
43682SOL     OW31069   8.068   5.510   7.025
43682SOL    HW131070   7.976   5.493   7.060
43682SOL    HW231071   8.096   5.602   7.051
43683SOL     OW31072   8.054   4.688   5.709
43683SOL    HW131073   8.061   4.772   5.655
43683SOL    HW231074   8.100   4.701   5.797
43684SOL     OW31075   9.042   3.838   7.066
43684SOL    HW131076   9.024   3.905   6.994
43684SOL    HW231077   9.039   3.884   7.155
43685SOL     OW31078   7.570   4.367   6.149
43685SOL    HW131079   7.525   4.279   6.166
43685SOL    HW231080   7.569   4.421   6.233
43686SOL     OW31081   9.290   5.491   5.945
43686SOL    HW131082   9.344   5.462   6.025
43686SOL    HW231083   9.320   5.581   5.916
43687SOL     OW31084   7.475   5.320   5.703
43687SOL    HW131085   7.456   5.224   5.724
43687SOL    HW231086   7.442   5.378   5.778
43688SOL     OW31087   9.137   4.646   6.198
43688SOL    HW131088   9.232   4.617   6.206
43688SOL    HW231089   9.129   4.711   6.123
43689SOL     OW31090   9.089   4.832   6.018
43689SOL    HW131091   9.175   4.834   5.966
43689SOL    HW231092   9.103   4.879   6.106
43690SOL     OW31093   7.561   4.461   7.183
43690SOL    HW131094   7.649   4.448   7.228
43690SOL    HW231095   7.548   4.558   7.161
43691SOL     OW31096   8.061   5.089   6.312
43691SOL    HW131097   8.012   5.002   6.321
43691SOL    HW231098   8.038   5.132   6.225
43692SOL     OW31099   8.741   4.952   7.009
43692SOL    HW131100   8.778   4.879   6.951
43692SOL    HW231101   8.793   4.957   7.094
43693SOL     OW31102   8.257   3.728   6.088
43693SOL    HW131103   8.297   3.819   6.079
43693SOL    HW231104   8.157   3.736   6.094
43694SOL     OW31105   7.645   4.700   6.850
43694SOL    HW131106   7.734   4.655   6.836
43694SOL    HW231107   7.572   4.635   6.831
43695SOL     OW31108   8.973   4.723   5.776
43695SOL    HW131109   8.910   4.647   5.789
43695SOL    HW231110   9.021   4.741   5.862
43696SOL     OW31111   8.635   5.516   7.202
43696SOL    HW131112   8.659   5.576   7.126
43696SOL    HW231113   8.642   5.421   7.172
43697SOL     OW31114   7.765   3.975   7.387
43697SOL    HW131115   7.836   4.046   7.393
43697SOL    HW231116   7.677   4.014   7.415
43698SOL     OW31117   8.914   5.141   6.539
43698SOL    HW131118   8.855   5.147   6.619
43698SOL    HW231119   8.899   5.053   6.493
43699SOL     OW31120   9.115   5.438   6.158
43699SOL    HW131121   9.074   5.415   6.070
43699SOL    HW231122   9.097   5.364   6.223
43700SOL     OW31123   8.046   4.453   5.856
43700SOL    HW131124   8.070   4.522   5.788
43700SOL    HW231125   7.968   4.486   5.910
43701SOL     OW31126   8.729   4.069   6.530
43701SOL    HW131127   8.643   4.019   6.517
43701SOL    HW231128   8.791   4.015   6.586
43702SOL     OW31129   9.024   5.386   5.893
43702SOL    HW131130   9.113   5.432   5.896
43702SOL    HW231131   9.003   5.362   5.798
43703SOL     OW31132   8.255   4.329   7.051
43703SOL    HW131133   8.208   4.326   7.140
43703SOL    HW231134   8.204   4.274   6.985
43704SOL     OW31135   8.842   4.193   7.260
43704SOL    HW131136   8.822   4.236   7.348
43704SOL    HW231137   8.920   4.131   7.269
43705SOL     OW31138   8.421   4.614   7.158
43705SOL    HW131139   8.467   4.530   7.129
43705SOL    HW231140   8.365   4.648   7.083
43706SOL     OW31141   8.439   4.134   6.828
43706SOL    HW131142   8.362   4.168   6.882
43706SOL    HW231143   8.405   4.083   6.749
43707SOL     OW31144   8.489   4.425   6.015
43707SOL    HW131145   8.515   4.421   6.111
43707SOL    HW231146   8.404   4.374   6.001
43708SOL     OW31147   7.524   4.535   6.375
43708SOL    HW131148   7.623   4.523   6.384
43708SOL    HW231149   7.500   4.630   6.396
43709SOL     OW31150   7.578   5.545   7.157
43709SOL    HW131151   7.568   5.530   7.256
43709SOL    HW231152   7.492   5.581   7.121
43710SOL     OW31153   8.313   4.072   5.781
43710SOL    HW131154   8.372   4.135   5.732
43710SOL    HW231155   8.332   3.978   5.752
43711SOL     OW31156   9.167   4.309   7.417
43711SOL    HW131157   9.141   4.398   7.381
43711SOL    HW231158   9.165   4.241   7.344
43712SOL     OW31159   8.810   4.868   6.131
43712SOL    HW131160   8.893   4.839   6.083
43712SOL    HW231161   8.761   4.935   6.075
43713SOL     OW31162   7.998   3.920   6.471
43713SOL    HW131163   7.993   3.915   6.571
43713SOL    HW231164   8.000   4.016   6.442
43714SOL     OW31165   8.456   5.180   6.063
43714SOL    HW131166   8.410   5.252   6.011
43714SOL    HW231167   8.452   5.200   6.161
43715SOL     OW31168   7.799   5.525   6.439
43715SOL    HW131169   7.849   5.439   6.445
43715SOL    HW231170   7.864   5.602   6.436
43716SOL     OW31171   9.243   4.790   6.459
43716SOL    HW131172   9.181   4.775   6.383
43716SOL    HW231173   9.191   4.801   6.544
43717SOL     OW31174   8.675   5.274   7.092
43717SOL    HW131175   8.681   5.197   7.156
43717SOL    HW231176   8.623   5.248   7.012
43718SOL     OW31177   7.769   4.667   5.828
43718SOL    HW131178   7.851   4.706   5.786
43718SOL    HW231179   7.742   4.585   5.779
43719SOL     OW31180   8.906   4.459   6.314
43719SOL    HW131181   8.901   4.394   6.389
43719SOL    HW231182   8.986   4.518   6.327
43720SOL     OW31183   7.909   4.990   7.313
43720SOL    HW131184   7.859   4.991   7.227
43720SOL    HW231185   7.846   4.972   7.389
43721SOL     OW31186   8.559   5.500   5.823
43721SOL    HW131187   8.499   5.438   5.873
43721SOL    HW231188   8.590   5.456   5.738
43722SOL     OW31189   7.650   4.009   7.084
43722SOL    HW131190   7.570   4.069   7.071
43722SOL    HW231191   7.640   3.960   7.170
43723SOL     OW31192   9.080   5.101   5.667
43723SOL    HW131193   9.048   5.195   5.657
43723SOL    HW231194   9.004   5.038   5.655
43724SOL     OW31195   7.912   5.467   5.909
43724SOL    HW131196   7.945   5.506   5.995
43724SOL    HW231197   7.988   5.460   5.844
43725SOL     OW31198   8.848   3.831   6.012
43725SOL    HW131199   8.824   3.794   5.922
43725SOL    HW231200   8.947   3.847   6.016
43726SOL     OW31201   7.697   5.509   6.827
43726SOL    HW131202   7.754   5.444   6.877
43726SOL    HW231203   7.681   5.476   6.734
43727SOL     OW31204   8.388   5.422   6.490
43727SOL    HW131205   8.468   5.365   6.511
43727SOL    HW231206   8.339   5.382   6.413
43728SOL     OW31207   7.830   4.424   6.066
43728SOL    HW131208   7.875   4.334   6.063
43728SOL    HW231209   7.736   4.413   6.099
43729SOL     OW31210   8.995   3.946   7.315
43729SOL    HW131211   8.990   3.983   7.407
43729SOL    HW231212   8.923   3.877   7.303
43730SOL     OW31213   8.062   3.846   5.703
43730SOL    HW131214   8.160   3.824   5.710
43730SOL    HW231215   8.031   3.829   5.610
43731SOL     OW31216   8.229   3.988   7.335
43731SOL    HW131217   8.296   3.927   7.378
43731SOL    HW231218   8.156   4.007   7.400
43732SOL     OW31219   8.336   5.238   6.781
43732SOL    HW131220   8.313   5.213   6.687
43732SOL    HW231221   8.397   5.169   6.820
43733SOL     OW31222   8.799   4.314   7.019
43733SOL    HW131223   8.827   4.271   7.104
43733SOL    HW231224   8.824   4.410   7.020
43734SOL     OW31225   8.251   5.126   6.510
43734SOL    HW131226   8.341   5.140   6.468
43734SOL    HW231227   8.180   5.128   6.439
43735SOL     OW31228   8.370   4.227   6.485
43735SOL    HW131229   8.345   4.218   6.389
43735SOL    HW231230   8.418   4.145   6.516
43736SOL     OW31231   7.987   3.788   6.098
43736SOL    HW131232   7.906   3.789   6.156
43736SOL    HW231233   7.990   3.871   6.043
43737SOL     OW31234   8.882   4.912   5.627
43737SOL    HW131235   8.914   4.836   5.684
43737SOL    HW231236   8.790   4.939   5.657
43738SOL     OW31237   7.745   3.759   5.757
43738SOL    HW131238   7.794   3.843   5.736
43738SOL    HW231239   7.807   3.694   5.802
43739SOL     OW31240   8.383   3.960   6.066
43739SOL    HW131241   8.335   4.001   5.988
43739SOL    HW231242   8.482   3.958   6.047
43740SOL     OW31243   8.524   4.407   7.050
43740SOL    HW131244   8.444   4.346   7.053
43740SOL    HW231245   8.605   4.354   7.026
43741SOL     OW31246   8.675   5.294   6.379
43741SOL    HW131247   8.696   5.368   6.314
43741SOL    HW231248   8.743   5.294   6.452
43742SOL     OW31249   7.907   4.876   6.327
43742SOL    HW131250   7.836   4.849   6.392
43742SOL    HW231251   7.881   4.848   6.234
43743SOL     OW31252   8.719   5.521   6.177
43743SOL    HW131253   8.763   5.585   6.113
43743SOL    HW231254   8.669   5.573   6.247
43744SOL     OW31255   8.480   4.273   5.602
43744SOL    HW131256   8.439   4.355   5.563
43744SOL    HW231257   8.544   4.299   5.675
43745SOL     OW31258   7.526   4.280   6.972
43745SOL    HW131259   7.618   4.279   6.931
43745SOL    HW231260   7.520   4.354   7.039
43746SOL     OW31261   8.009   3.946   6.733
43746SOL    HW131262   8.047   3.862   6.770
43746SOL    HW231263   7.921   3.965   6.777
43747SOL     OW31264   8.314   4.178   6.228
43747SOL    HW131265   8.282   4.250   6.166
43747SOL    HW231266   8.338   4.097   6.175
43748SOL     OW31267   8.465   3.763   6.339
43748SOL    HW131268   8.393   3.768   6.270
43748SOL    HW231269   8.441   3.694   6.408
43749SOL     OW31270   8.877   4.897   6.453
43749SOL    HW131271   8.822   4.813   6.446
43749SOL    HW231272   8.903   4.926   6.361
43750SOL     OW31273   8.914   4.314   6.578
43750SOL    HW131274   8.884   4.219   6.585
43750SOL    HW231275   8.987   4.330   6.644
43751SOL     OW31276   9.305   4.557   5.963
43751SOL    HW131277   9.347   4.493   6.027
43751SOL    HW231278   9.267   4.506   5.885
43752SOL     OW31279   7.936   5.109   5.760
43752SOL    HW131280   7.849   5.094   5.807
43752SOL    HW231281   7.919   5.135   5.665
43753SOL     OW31282   9.112   5.004   6.243
43753SOL    HW131283   9.211   5.012   6.257
43753SOL    HW231284   9.067   5.088   6.274
43754SOL     OW31285   8.838   4.299   5.664
43754SOL    HW131286   8.784   4.278   5.745
43754SOL    HW231287   8.929   4.258   5.673
43755SOL     OW31288   7.975   3.980   5.914
43755SOL    HW131289   8.002   3.921   5.839
43755SOL    HW231290   7.975   4.075   5.883
43756SOL     OW31291   9.202   4.947   7.174
43756SOL    HW131292   9.293   4.908   7.161
43756SOL    HW231293   9.210   5.043   7.198
43757SOL     OW31294   8.512   5.071   6.926
43757SOL    HW131295   8.432   5.048   6.981
43757SOL    HW231296   8.595   5.045   6.975
43758SOL     OW31297   9.040   5.353   7.211
43758SOL    HW131298   9.067   5.387   7.121
43758SOL    HW231299   9.119   5.315   7.257
43759SOL     OW31300   8.559   4.919   6.686
43759SOL    HW131301   8.519   4.963   6.767
43759SOL    HW231302   8.518   4.956   6.603
43760SOL     OW31303   9.086   4.823   6.665
43760SOL    HW131304   9.091   4.904   6.724
43760SOL    HW231305   9.000   4.825   6.614
43761SOL     OW31306   8.363   3.813   6.988
43761SOL    HW131307   8.388   3.793   6.893
43761SOL    HW231308   8.435   3.869   7.030
43762SOL     OW31309   8.428   4.840   7.305
43762SOL    HW131310   8.329   4.846   7.315
43762SOL    HW231311   8.451   4.760   7.249
43763SOL     OW31312   8.153   4.774   5.954
43763SOL    HW131313   8.139   4.781   6.053
43763SOL    HW231314   8.237   4.723   5.936
43764SOL     OW31315   7.858   4.537   6.837
43764SOL    HW131316   7.944   4.549   6.887
43764SOL    HW231317   7.816   4.450   6.864
43765SOL     OW31318   8.722   4.110   6.848
43765SOL    HW131319   8.743   4.184   6.912
43765SOL    HW231320   8.633   4.127   6.805
43766SOL     OW31321   7.512   5.288   6.917
43766SOL    HW131322   7.466   5.370   6.883
43766SOL    HW231323   7.610   5.307   6.926
43767SOL     OW31324   7.815   4.824   6.087
43767SOL    HW131325   7.808   4.907   6.031
43767SOL    HW231326   7.819   4.744   6.027
43768SOL     OW31327   8.014   4.261   6.451
43768SOL    HW131328   8.026   4.327   6.377
43768SOL    HW231329   8.060   4.295   6.534
43769SOL     OW31330   8.700   5.072   5.974
43769SOL    HW131331   8.750   5.149   6.014
43769SOL    HW231332   8.605   5.074   6.006
43770SOL     OW31333   8.720   5.169   6.728
43770SOL    HW131334   8.767   5.182   6.815
43770SOL    HW231335   8.654   5.095   6.737
43771SOL     OW31336   9.030   4.363   6.058
43771SOL    HW131337   8.999   4.424   6.131
43771SOL    HW231338   9.080   4.415   5.989
43772SOL     OW31339   7.802   5.234   6.915
43772SOL    HW131340   7.781   5.190   6.828
43772SOL    HW231341   7.899   5.260   6.918
43773SOL     OW31342   7.850   4.475   7.184
43773SOL    HW131343   7.918   4.530   7.137
43773SOL    HW231344   7.890   4.387   7.211
43774SOL     OW31345   9.035   4.503   7.256
43774SOL    HW131346   8.943   4.541   7.251
43774SOL    HW231347   9.095   4.550   7.191
43775SOL     OW31348   8.461   3.829   7.356
43775SOL    HW131349   8.467   3.914   7.304
43775SOL    HW231350   8.493   3.753   7.299
43776SOL     OW31351   7.952   3.774   7.326
43776SOL    HW131352   7.910   3.717   7.256
43776SOL    HW231353   7.886   3.843   7.358
43777SOL     OW31354   8.021   4.594   6.615
43777SOL    HW131355   8.065   4.683   6.606
43777SOL    HW231356   7.958   4.594   6.692
43778SOL     OW31357   8.808   4.586   6.631
43778SOL    HW131358   8.733   4.586   6.565
43778SOL    HW231359   8.845   4.494   6.640
43779SOL     OW31360   8.657   4.249   5.861
43779SOL    HW131361   8.670   4.165   5.915
43779SOL    HW231362   8.628   4.323   5.921
43780SOL     OW31363   7.755   3.937   6.817
43780SOL    HW131364   7.732   3.974   6.907
43780SOL    HW231365   7.725   3.842   6.811
43781SOL     OW31366   7.485   5.034   6.868
43781SOL    HW131367   7.538   4.985   6.936
43781SOL    HW231368   7.507   5.132   6.873
43782SOL     OW31369   8.180   4.358   6.650
43782SOL    HW131370   8.239   4.332   6.574
43782SOL    HW231371   8.152   4.454   6.639
43783SOL     OW31372   9.176   4.659   7.440
43783SOL    HW131373   9.130   4.652   7.351
43783SOL    HW231374   9.114   4.703   7.506
43784SOL     OW31375   7.755   3.787   6.204
43784SOL    HW131376   7.744   3.881   6.237
43784SOL    HW231377   7.750   3.724   6.281
43785SOL     OW31378   9.070   4.091   5.960
43785SOL    HW131379   9.072   4.015   6.024
43785SOL    HW231380   9.022   4.168   6.000
43786SOL     OW31381   8.471   4.490   6.552
43786SOL    HW131382   8.486   4.511   6.648
43786SOL    HW231383   8.441   4.395   6.543
43787SOL     OW31384   8.428   5.297   7.286
43787SOL    HW131385   8.408   5.341   7.198
43787SOL    HW231386   8.467   5.206   7.270
43788SOL     OW31387   9.307   5.242   7.191
43788SOL    HW131388   9.321   5.269   7.096
43788SOL    HW231389   9.390   5.264   7.244
43789SOL     OW31390   7.798   4.622   7.390
43789SOL    HW131391   7.874   4.666   7.438
43789SOL    HW231392   7.833   4.575   7.308
43790SOL     OW31393   8.988   3.998   5.711
43790SOL    HW131394   8.927   3.923   5.734
43790SOL    HW231395   9.010   4.050   5.794
43791SOL     OW31396   8.751   4.562   5.628
43791SOL    HW131397   8.785   4.469   5.643
43791SOL    HW231398   8.769   4.589   5.533
43792SOL     OW31399   8.516   5.057   6.435
43792SOL    HW131400   8.523   4.973   6.380
43792SOL    HW231401   8.578   5.126   6.399
43793SOL     OW31402   7.767   4.534   6.535
43793SOL    HW131403   7.860   4.570   6.540
43793SOL    HW231404   7.761   4.449   6.587
43794SOL     OW31405   7.787   4.233   6.592
43794SOL    HW131406   7.735   4.150   6.575
43794SOL    HW231407   7.864   4.238   6.528
43795SOL     OW31408   8.586   4.104   7.264
43795SOL    HW131409   8.541   4.167   7.328
43795SOL    HW231410   8.679   4.135   7.247
43796SOL     OW31411   8.608   3.931   7.063
43796SOL    HW131412   8.608   3.995   7.140
43796SOL    HW231413   8.636   3.979   6.980
43797SOL     OW31414   7.456   5.050   5.786
43797SOL    HW131415   7.363   5.071   5.755
43797SOL    HW231416   7.466   4.951   5.799
43798SOL     OW31417   7.536   5.525   6.513
43798SOL    HW131418   7.494   5.439   6.486
43798SOL    HW231419   7.630   5.528   6.479
43799SOL     OW31420   7.952   5.292   6.496
43799SOL    HW131421   8.018   5.366   6.505
43799SOL    HW231422   7.996   5.213   6.454
43800SOL     OW31423   8.450   4.520   6.824
43800SOL    HW131424   8.491   4.488   6.910
43800SOL    HW231425   8.354   4.493   6.821
43801SOL     OW31426   7.488   4.268   6.700
43801SOL    HW131427   7.573   4.235   6.659
43801SOL    HW231428   7.501   4.283   6.798
43802SOL     OW31429   7.637   4.244   7.308
43802SOL    HW131430   7.696   4.204   7.238
43802SOL    HW231431   7.579   4.315   7.267
43803SOL     OW31432   8.817   4.674   7.246
43803SOL    HW131433   8.856   4.763   7.266
43803SOL    HW231434   8.827   4.654   7.149
43804SOL     OW31435   8.263   4.296   5.911
43804SOL    HW131436   8.270   4.207   5.865
43804SOL    HW231437   8.169   4.330   5.903
43805SOL     OW31438   9.105   4.328   6.792
43805SOL    HW131439   9.067   4.259   6.854
43805SOL    HW231440   9.187   4.292   6.748
43806SOL     OW31441   7.700   5.288   7.330
43806SOL    HW131442   7.670   5.345   7.406
43806SOL    HW231443   7.693   5.191   7.356
43807SOL     OW31444   8.119   4.188   6.855
43807SOL    HW131445   8.085   4.099   6.825
43807SOL    HW231446   8.145   4.242   6.775
43808SOL     OW31447   8.378   5.402   7.051
43808SOL    HW131448   8.354   5.384   6.956
43808SOL    HW231449   8.408   5.496   7.061
43809SOL     OW31450   7.921   4.224   5.777
43809SOL    HW131451   7.982   4.304   5.781
43809SOL    HW231452   7.826   4.255   5.784
43810SOL     OW31453   7.607   4.861   7.052
43810SOL    HW131454   7.629   4.800   7.128
43810SOL    HW231455   7.617   4.812   6.966
43811SOL     OW31456   8.795   4.783   6.820
43811SOL    HW131457   8.819   4.720   6.746
43811SOL    HW231458   8.705   4.823   6.802
43812SOL     OW31459   8.750   4.579   5.895
43812SOL    HW131460   8.664   4.548   5.937
43812SOL    HW231461   8.746   4.565   5.796
43813SOL     OW31462   9.207   5.471   6.740
43813SOL    HW131463   9.268   5.501   6.667
43813SOL    HW231464   9.169   5.382   6.718
43814SOL     OW31465   8.700   5.455   6.714
43814SOL    HW131466   8.784   5.460   6.660
43814SOL    HW231467   8.677   5.359   6.732
43815SOL     OW31468   7.531   4.982   6.608
43815SOL    HW131469   7.526   4.981   6.708
43815SOL    HW231470   7.448   4.941   6.570
43816SOL     OW31471   8.136   5.386   7.302
43816SOL    HW131472   8.080   5.467   7.311
43816SOL    HW231473   8.188   5.390   7.216
43817SOL     OW31474   9.174   3.859   6.109
43817SOL    HW131475   9.247   3.842   6.042
43817SOL    HW231476   9.143   3.772   6.147
43818SOL     OW31477   8.836   5.297   6.063
43818SOL    HW131478   8.903   5.309   5.989
43818SOL    HW231479   8.796   5.386   6.086
43819SOL     OW31480   7.578   5.518   7.437
43819SOL    HW131481   7.537   5.444   7.490
43819SOL    HW231482   7.642   5.569   7.495
43820SOL     OW31483   8.728   4.651   6.258
43820SOL    HW131484   8.788   4.570   6.260
43820SOL    HW231485   8.768   4.720   6.198
43821SOL     OW31486   8.278   4.997   7.008
43821SOL    HW131487   8.273   5.030   7.103
43821SOL    HW231488   8.192   5.016   6.962
43822SOL     OW31489   8.120   5.340   5.740
43822SOL    HW131490   8.129   5.350   5.641
43822SOL    HW231491   8.080   5.251   5.761
43823SOL     OW31492   9.098   5.444   6.980
43823SOL    HW131493   9.151   5.454   6.896
43823SOL    HW231494   9.071   5.534   7.014
43824SOL     OW31495   9.289   3.899   6.549
43824SOL    HW131496   9.328   3.814   6.513
43824SOL    HW231497   9.191   3.901   6.530
43825SOL     OW31498   7.711   4.050   6.306
43825SOL    HW131499   7.632   4.101   6.272
43825SOL    HW231500   7.702   4.035   6.404
43826SOL     OW31501   8.642   5.336   5.617
43826SOL    HW131502   8.648   5.243   5.654
43826SOL    HW231503   8.583   5.336   5.537
43827SOL     OW31504   8.270   4.726   6.958
43827SOL    HW131505   8.310   4.725   6.866
43827SOL    HW231506   8.280   4.818   6.998
43828SOL     OW31507   8.364   4.634   5.877
43828SOL    HW131508   8.427   4.672   5.809
43828SOL    HW231509   8.404   4.551   5.916
43829SOL     OW31510   8.952   5.331   5.630
43829SOL    HW131511   8.860   5.368   5.637
43829SOL    HW231512   8.990   5.351   5.540
43830SOL     OW31513   7.820   5.012   7.076
43830SOL    HW131514   7.807   5.105   7.042
43830SOL    HW231515   7.736   4.960   7.063
43831SOL     OW31516   9.062   5.016   6.875
43831SOL    HW131517   9.122   5.019   6.955
43831SOL    HW231518   8.987   5.080   6.888
43832SOL     OW31519   8.487   4.822   6.282
43832SOL    HW131520   8.417   4.775   6.336
43832SOL    HW231521   8.546   4.754   6.239
43833SOL     OW31522   8.462   3.960   6.557
43833SOL    HW131523   8.454   3.924   6.464
43833SOL    HW231524   8.460   3.884   6.622
43834SOL     OW31525   8.038   5.211   6.077
43834SOL    HW131526   8.080   5.153   6.007
43834SOL    HW231527   7.994   5.290   6.033
43835SOL     OW31528   9.157   4.109   6.967
43835SOL    HW131529   9.230   4.178   6.971
43835SOL    HW231530   9.185   4.034   6.908
43836SOL     OW31531   7.703   5.072   5.876
43836SOL    HW131532   7.607   5.073   5.849
43836SOL    HW231533   7.715   5.125   5.960
43837SOL     OW31534   7.553   4.737   7.312
43837SOL    HW131535   7.476   4.704   7.366
43837SOL    HW231536   7.638   4.707   7.354
43838SOL     OW31537   8.120   3.927   7.075
43838SOL    HW131538   8.210   3.911   7.035
43838SOL    HW231539   8.128   3.932   7.174
43839SOL     OW31540   7.523   4.069   5.619
43839SOL    HW131541   7.431   4.041   5.590
43839SOL    HW231542   7.554   4.146   5.563
43840SOL     OW31543   8.888   4.580   6.984
43840SOL    HW131544   8.831   4.632   6.921
43840SOL    HW231545   8.984   4.592   6.960
43841SOL     OW31546   7.520   3.890   5.904
43841SOL    HW131547   7.503   3.973   5.850
43841SOL    HW231548   7.610   3.853   5.882
43842SOL     OW31549   8.631   5.059   5.705
43842SOL    HW131550   8.532   5.048   5.707
43842SOL    HW231551   8.665   5.074   5.798
43843SOL     OW31552   8.061   4.566   7.017
43843SOL    HW131553   8.117   4.647   7.000
43843SOL    HW231554   8.120   4.486   7.020
43844SOL     OW31555   8.941   5.491   6.545
43844SOL    HW131556   8.974   5.555   6.476
43844SOL    HW231557   9.007   5.485   6.620
43845SOL     OW31558   8.164   4.289   7.294
43845SOL    HW131559   8.183   4.354   7.368
43845SOL    HW231560   8.224   4.209   7.303
43846SOL     OW31561   8.898   4.944   7.219
43846SOL    HW131562   8.889   4.934   7.318
43846SOL    HW231563   8.994   4.937   7.193
43847SOL     OW31564   7.838   5.465   7.146
43847SOL    HW131565   7.747   5.506   7.144
43847SOL    HW231566   7.831   5.371   7.178
43848SOL     OW31567   9.122   4.607   6.840
43848SOL    HW131568   9.095   4.518   6.803
43848SOL    HW231569   9.123   4.675   6.767
43849SOL     OW31570   8.673   4.049   6.035
43849SOL    HW131571   8.738   3.975   6.024
43849SOL    HW231572   8.693   4.099   6.119
43850SOL     OW31573   8.042   4.469   6.238
43850SOL    HW131574   8.092   4.554   6.219
43850SOL    HW231575   7.954   4.471   6.190
43851SOL     OW31576   9.225   4.066   7.228
43851SOL    HW131577   9.208   4.097   7.134
43851SOL    HW231578   9.141   4.029   7.266
43852SOL     OW31579   9.178   4.658   7.103
43852SOL    HW131580   9.216   4.749   7.118
43852SOL    HW231581   9.170   4.641   7.004
43853SOL     OW31582   8.307   5.098   5.602
43853SOL    HW131583   8.261   5.113   5.690
43853SOL    HW231584   8.351   5.183   5.572
43854SOL     OW31585   8.109   5.514   6.539
43854SOL    HW131586   8.063   5.602   6.526
43854SOL    HW231587   8.208   5.526   6.532
43855SOL     OW31588   8.307   4.680   6.447
43855SOL    HW131589   8.361   4.611   6.495
43855SOL    HW231590   8.275   4.749   6.513
43856SOL     OW31591   8.531   4.708   5.673
43856SOL    HW131592   8.508   4.761   5.591
43856SOL    HW231593   8.612   4.652   5.654
43857SOL     OW31594   9.309   5.293   6.437
43857SOL    HW131595   9.238   5.281   6.367
43857SOL    HW231596   9.310   5.214   6.497
43858SOL     OW31597   7.669   5.038   7.430
43858SOL    HW131598   7.604   4.965   7.409
43858SOL    HW231599   7.673   5.052   7.528
43859SOL     OW31600   7.527   4.964   6.239
43859SOL    HW131601   7.526   4.917   6.327
43859SOL    HW231602   7.609   4.936   6.188
43860SOL     OW31603   8.120   5.115   7.210
43860SOL    HW131604   8.042   5.065   7.248
43860SOL    HW231605   8.117   5.210   7.241
43861SOL     OW31606   9.272   3.916   6.813
43861SOL    HW131607   9.268   3.826   6.857
43861SOL    HW231608   9.275   3.905   6.714
43862SOL     OW31609   7.876   4.148   6.106
43862SOL    HW131610   7.906   4.076   6.044
43862SOL    HW231611   7.837   4.108   6.189
43863SOL     OW31612   9.153   5.211   6.690
43863SOL    HW131613   9.060   5.186   6.663
43863SOL    HW231614   9.179   5.161   6.772
43864SOL     OW31615   7.765   4.271   6.866
43864SOL    HW131616   7.803   4.212   6.938
43864SOL    HW231617   7.805   4.245   6.778
43865SOL     OW31618   8.260   5.310   6.273
43865SOL    HW131619   8.292   5.320   6.179
43865SOL    HW231620   8.181   5.248   6.275
43866SOL     OW31621   8.872   3.938   6.698
43866SOL    HW131622   8.924   3.873   6.753
43866SOL    HW231623   8.823   4.001   6.759
43867SOL     OW31624   8.449   3.758   6.740
43867SOL    HW131625   8.386   3.686   6.709
43867SOL    HW231626   8.542   3.722   6.740
43868SOL     OW31627   8.218   5.054   5.887
43868SOL    HW131628   8.172   4.967   5.904
43868SOL    HW231629   8.309   5.051   5.928
43869SOL     OW31630   8.066   5.291   6.870
43869SOL    HW131631   8.061   5.373   6.927
43869SOL    HW231632   8.155   5.288   6.825
43870SOL     OW31633   8.800   3.776   5.754
43870SOL    HW131634   8.835   3.735   5.670
43870SOL    HW231635   8.710   3.738   5.774
43871SOL     OW31636   8.748   4.177   6.277
43871SOL    HW131637   8.689   4.257   6.281
43871SOL    HW231638   8.763   4.142   6.370
43872SOL     OW31639   9.041   3.945   6.468
43872SOL    HW131640   8.957   3.944   6.522
43872SOL    HW231641   9.043   4.028   6.412
43873SOL     OW31642   7.487   4.801   5.886
43873SOL    HW131643   7.586   4.790   5.877
43873SOL    HW231644   7.447   4.715   5.918
43874SOL     OW31645   8.323   5.370   5.923
43874SOL    HW131646   8.246   5.335   5.869
43874SOL    HW231647   8.291   5.441   5.985
43875SOL     OW31648   7.678   4.352   7.561
43875SOL    HW131649   7.585   4.350   7.598
43875SOL    HW231650   7.679   4.313   7.469
43876SOL     OW31651   7.673   3.999   8.444
43876SOL    HW131652   7.708   3.982   8.536
43876SOL    HW231653   7.585   3.954   8.432
43877SOL     OW31654   7.467   4.092   8.095
43877SOL    HW131655   7.385   4.135   8.134
43877SOL    HW231656   7.439   4.019   8.032
43878SOL     OW31657   8.017   4.999   8.613
43878SOL    HW131658   7.924   4.992   8.576
43878SOL    HW231659   8.028   5.088   8.657
43879SOL     OW31660   9.003   5.235   8.151
43879SOL    HW131661   8.946   5.219   8.232
43879SOL    HW231662   8.944   5.245   8.071
43880SOL     OW31663   8.583   4.427   8.165
43880SOL    HW131664   8.640   4.505   8.140
43880SOL    HW231665   8.523   4.453   8.241
43881SOL     OW31666   9.203   4.331   7.679
43881SOL    HW131667   9.191   4.318   7.580
43881SOL    HW231668   9.173   4.250   7.728
43882SOL     OW31669   8.216   4.868   8.471
43882SOL    HW131670   8.138   4.885   8.531
43882SOL    HW231671   8.250   4.955   8.435
43883SOL     OW31672   8.298   4.522   9.271
43883SOL    HW131673   8.294   4.598   9.336
43883SOL    HW231674   8.320   4.558   9.180
43884SOL     OW31675   8.133   4.736   8.113
43884SOL    HW131676   8.202   4.720   8.183
43884SOL    HW231677   8.060   4.793   8.151
43885SOL     OW31678   8.134   4.885   9.251
43885SOL    HW131679   8.194   4.964   9.265
43885SOL    HW231680   8.048   4.916   9.210
43886SOL     OW31681   7.783   5.159   8.509
43886SOL    HW131682   7.705   5.128   8.456
43886SOL    HW231683   7.841   5.217   8.452
43887SOL     OW31684   8.908   5.229   8.787
43887SOL    HW131685   8.932   5.323   8.813
43887SOL    HW231686   8.892   5.175   8.869
43888SOL     OW31687   7.886   4.116   8.947
43888SOL    HW131688   7.968   4.060   8.956
43888SOL    HW231689   7.805   4.058   8.951
43889SOL     OW31690   9.051   4.171   8.185
43889SOL    HW131691   8.977   4.217   8.135
43889SOL    HW231692   9.102   4.239   8.238
43890SOL     OW31693   7.679   5.437   7.931
43890SOL    HW131694   7.713   5.514   7.985
43890SOL    HW231695   7.723   5.437   7.841
43891SOL     OW31696   8.575   5.065   9.138
43891SOL    HW131697   8.622   5.065   9.226
43891SOL    HW231698   8.527   4.978   9.127
43892SOL     OW31699   7.678   5.158   7.986
43892SOL    HW131700   7.652   5.254   7.986
43892SOL    HW231701   7.607   5.104   8.031
43893SOL     OW31702   7.688   4.815   8.334
43893SOL    HW131703   7.702   4.731   8.386
43893SOL    HW231704   7.633   4.879   8.389
43894SOL     OW31705   8.068   5.510   8.887
43894SOL    HW131706   7.976   5.493   8.922
43894SOL    HW231707   8.096   5.602   8.913
43895SOL     OW31708   8.054   4.688   7.571
43895SOL    HW131709   8.061   4.772   7.517
43895SOL    HW231710   8.100   4.701   7.659
43896SOL     OW31711   9.042   3.838   8.928
43896SOL    HW131712   9.024   3.905   8.856
43896SOL    HW231713   9.039   3.884   9.017
43897SOL     OW31714   7.570   4.367   8.011
43897SOL    HW131715   7.525   4.279   8.028
43897SOL    HW231716   7.569   4.421   8.095
43898SOL     OW31717   9.290   5.491   7.807
43898SOL    HW131718   9.344   5.462   7.887
43898SOL    HW231719   9.320   5.581   7.778
43899SOL     OW31720   7.475   5.320   7.565
43899SOL    HW131721   7.456   5.224   7.586
43899SOL    HW231722   7.442   5.378   7.640
43900SOL     OW31723   9.137   4.646   8.060
43900SOL    HW131724   9.232   4.617   8.068
43900SOL    HW231725   9.129   4.711   7.985
43901SOL     OW31726   9.089   4.832   7.880
43901SOL    HW131727   9.175   4.834   7.828
43901SOL    HW231728   9.103   4.879   7.968
43902SOL     OW31729   7.561   4.461   9.045
43902SOL    HW131730   7.649   4.448   9.090
43902SOL    HW231731   7.548   4.558   9.023
43903SOL     OW31732   8.061   5.089   8.174
43903SOL    HW131733   8.012   5.002   8.183
43903SOL    HW231734   8.038   5.132   8.087
43904SOL     OW31735   8.741   4.952   8.871
43904SOL    HW131736   8.778   4.879   8.813
43904SOL    HW231737   8.793   4.957   8.956
43905SOL     OW31738   8.257   3.728   7.950
43905SOL    HW131739   8.297   3.819   7.941
43905SOL    HW231740   8.157   3.736   7.956
43906SOL     OW31741   7.645   4.700   8.712
43906SOL    HW131742   7.734   4.655   8.698
43906SOL    HW231743   7.572   4.635   8.693
43907SOL     OW31744   8.973   4.723   7.638
43907SOL    HW131745   8.910   4.647   7.651
43907SOL    HW231746   9.021   4.741   7.724
43908SOL     OW31747   8.635   5.516   9.064
43908SOL    HW131748   8.659   5.576   8.988
43908SOL    HW231749   8.642   5.421   9.034
43909SOL     OW31750   7.765   3.975   9.249
43909SOL    HW131751   7.836   4.046   9.255
43909SOL    HW231752   7.677   4.014   9.277
43910SOL     OW31753   8.914   5.141   8.401
43910SOL    HW131754   8.855   5.147   8.481
43910SOL    HW231755   8.899   5.053   8.355
43911SOL     OW31756   9.115   5.438   8.020
43911SOL    HW131757   9.074   5.415   7.932
43911SOL    HW231758   9.097   5.364   8.085
43912SOL     OW31759   8.046   4.453   7.718
43912SOL    HW131760   8.070   4.522   7.650
43912SOL    HW231761   7.968   4.486   7.772
43913SOL     OW31762   8.729   4.069   8.392
43913SOL    HW131763   8.643   4.019   8.379
43913SOL    HW231764   8.791   4.015   8.448
43914SOL     OW31765   9.024   5.386   7.755
43914SOL    HW131766   9.113   5.432   7.758
43914SOL    HW231767   9.003   5.362   7.660
43915SOL     OW31768   8.255   4.329   8.913
43915SOL    HW131769   8.208   4.326   9.002
43915SOL    HW231770   8.204   4.274   8.847
43916SOL     OW31771   8.842   4.193   9.122
43916SOL    HW131772   8.822   4.236   9.210
43916SOL    HW231773   8.920   4.131   9.131
43917SOL     OW31774   8.421   4.614   9.020
43917SOL    HW131775   8.467   4.530   8.991
43917SOL    HW231776   8.365   4.648   8.945
43918SOL     OW31777   8.439   4.134   8.690
43918SOL    HW131778   8.362   4.168   8.744
43918SOL    HW231779   8.405   4.083   8.611
43919SOL     OW31780   8.489   4.425   7.877
43919SOL    HW131781   8.515   4.421   7.973
43919SOL    HW231782   8.404   4.374   7.863
43920SOL     OW31783   7.524   4.535   8.237
43920SOL    HW131784   7.623   4.523   8.246
43920SOL    HW231785   7.500   4.630   8.258
43921SOL     OW31786   7.578   5.545   9.019
43921SOL    HW131787   7.568   5.530   9.118
43921SOL    HW231788   7.492   5.581   8.983
43922SOL     OW31789   8.313   4.072   7.643
43922SOL    HW131790   8.372   4.135   7.594
43922SOL    HW231791   8.332   3.978   7.614
43923SOL     OW31792   9.167   4.309   9.279
43923SOL    HW131793   9.141   4.398   9.243
43923SOL    HW231794   9.165   4.241   9.206
43924SOL     OW31795   8.810   4.868   7.993
43924SOL    HW131796   8.893   4.839   7.945
43924SOL    HW231797   8.761   4.935   7.937
43925SOL     OW31798   7.998   3.920   8.333
43925SOL    HW131799   7.993   3.915   8.433
43925SOL    HW231800   8.000   4.016   8.304
43926SOL     OW31801   8.456   5.180   7.925
43926SOL    HW131802   8.410   5.252   7.873
43926SOL    HW231803   8.452   5.200   8.023
43927SOL     OW31804   7.799   5.525   8.301
43927SOL    HW131805   7.849   5.439   8.307
43927SOL    HW231806   7.864   5.602   8.298
43928SOL     OW31807   9.243   4.790   8.321
43928SOL    HW131808   9.181   4.775   8.245
43928SOL    HW231809   9.191   4.801   8.406
43929SOL     OW31810   8.675   5.274   8.954
43929SOL    HW131811   8.681   5.197   9.018
43929SOL    HW231812   8.623   5.248   8.874
43930SOL     OW31813   7.769   4.667   7.690
43930SOL    HW131814   7.851   4.706   7.648
43930SOL    HW231815   7.742   4.585   7.641
43931SOL     OW31816   8.906   4.459   8.176
43931SOL    HW131817   8.901   4.394   8.251
43931SOL    HW231818   8.986   4.518   8.189
43932SOL     OW31819   7.909   4.990   9.175
43932SOL    HW131820   7.859   4.991   9.089
43932SOL    HW231821   7.846   4.972   9.251
43933SOL     OW31822   8.559   5.500   7.685
43933SOL    HW131823   8.499   5.438   7.735
43933SOL    HW231824   8.590   5.456   7.600
43934SOL     OW31825   7.650   4.009   8.946
43934SOL    HW131826   7.570   4.069   8.933
43934SOL    HW231827   7.640   3.960   9.032
43935SOL     OW31828   9.080   5.101   7.529
43935SOL    HW131829   9.048   5.195   7.519
43935SOL    HW231830   9.004   5.038   7.517
43936SOL     OW31831   7.912   5.467   7.771
43936SOL    HW131832   7.945   5.506   7.857
43936SOL    HW231833   7.988   5.460   7.706
43937SOL     OW31834   8.848   3.831   7.874
43937SOL    HW131835   8.824   3.794   7.784
43937SOL    HW231836   8.947   3.847   7.878
43938SOL     OW31837   7.697   5.509   8.689
43938SOL    HW131838   7.754   5.444   8.739
43938SOL    HW231839   7.681   5.476   8.596
43939SOL     OW31840   8.388   5.422   8.352
43939SOL    HW131841   8.468   5.365   8.373
43939SOL    HW231842   8.339   5.382   8.275
43940SOL     OW31843   7.830   4.424   7.928
43940SOL    HW131844   7.875   4.334   7.925
43940SOL    HW231845   7.736   4.413   7.961
43941SOL     OW31846   8.995   3.946   9.177
43941SOL    HW131847   8.990   3.983   9.269
43941SOL    HW231848   8.923   3.877   9.165
43942SOL     OW31849   8.062   3.846   7.565
43942SOL    HW131850   8.160   3.824   7.572
43942SOL    HW231851   8.031   3.829   7.472
43943SOL     OW31852   8.229   3.988   9.197
43943SOL    HW131853   8.296   3.927   9.240
43943SOL    HW231854   8.156   4.007   9.262
43944SOL     OW31855   8.336   5.238   8.643
43944SOL    HW131856   8.313   5.213   8.549
43944SOL    HW231857   8.397   5.169   8.682
43945SOL     OW31858   8.799   4.314   8.881
43945SOL    HW131859   8.827   4.271   8.966
43945SOL    HW231860   8.824   4.410   8.882
43946SOL     OW31861   8.251   5.126   8.372
43946SOL    HW131862   8.341   5.140   8.330
43946SOL    HW231863   8.180   5.128   8.301
43947SOL     OW31864   8.370   4.227   8.347
43947SOL    HW131865   8.345   4.218   8.251
43947SOL    HW231866   8.418   4.145   8.378
43948SOL     OW31867   7.987   3.788   7.960
43948SOL    HW131868   7.906   3.789   8.018
43948SOL    HW231869   7.990   3.871   7.905
43949SOL     OW31870   8.882   4.912   7.489
43949SOL    HW131871   8.914   4.836   7.546
43949SOL    HW231872   8.790   4.939   7.519
43950SOL     OW31873   7.745   3.759   7.619
43950SOL    HW131874   7.794   3.843   7.598
43950SOL    HW231875   7.807   3.694   7.664
43951SOL     OW31876   8.383   3.960   7.928
43951SOL    HW131877   8.335   4.001   7.850
43951SOL    HW231878   8.482   3.958   7.909
43952SOL     OW31879   8.524   4.407   8.912
43952SOL    HW131880   8.444   4.346   8.915
43952SOL    HW231881   8.605   4.354   8.888
43953SOL     OW31882   8.675   5.294   8.241
43953SOL    HW131883   8.696   5.368   8.176
43953SOL    HW231884   8.743   5.294   8.314
43954SOL     OW31885   7.907   4.876   8.189
43954SOL    HW131886   7.836   4.849   8.254
43954SOL    HW231887   7.881   4.848   8.096
43955SOL     OW31888   8.719   5.521   8.039
43955SOL    HW131889   8.763   5.585   7.975
43955SOL    HW231890   8.669   5.573   8.109
43956SOL     OW31891   8.480   4.273   7.464
43956SOL    HW131892   8.439   4.355   7.425
43956SOL    HW231893   8.544   4.299   7.537
43957SOL     OW31894   7.526   4.280   8.834
43957SOL    HW131895   7.618   4.279   8.793
43957SOL    HW231896   7.520   4.354   8.901
43958SOL     OW31897   8.009   3.946   8.595
43958SOL    HW131898   8.047   3.862   8.632
43958SOL    HW231899   7.921   3.965   8.639
43959SOL     OW31900   8.314   4.178   8.090
43959SOL    HW131901   8.282   4.250   8.028
43959SOL    HW231902   8.338   4.097   8.037
43960SOL     OW31903   8.465   3.763   8.201
43960SOL    HW131904   8.393   3.768   8.132
43960SOL    HW231905   8.441   3.694   8.270
43961SOL     OW31906   8.877   4.897   8.315
43961SOL    HW131907   8.822   4.813   8.308
43961SOL    HW231908   8.903   4.926   8.223
43962SOL     OW31909   8.914   4.314   8.440
43962SOL    HW131910   8.884   4.219   8.447
43962SOL    HW231911   8.987   4.330   8.506
43963SOL     OW31912   9.305   4.557   7.825
43963SOL    HW131913   9.347   4.493   7.889
43963SOL    HW231914   9.267   4.506   7.747
43964SOL     OW31915   7.936   5.109   7.622
43964SOL    HW131916   7.849   5.094   7.669
43964SOL    HW231917   7.919   5.135   7.527
43965SOL     OW31918   9.112   5.004   8.105
43965SOL    HW131919   9.211   5.012   8.119
43965SOL    HW231920   9.067   5.088   8.136
43966SOL     OW31921   8.838   4.299   7.526
43966SOL    HW131922   8.784   4.278   7.607
43966SOL    HW231923   8.929   4.258   7.535
43967SOL     OW31924   7.975   3.980   7.776
43967SOL    HW131925   8.002   3.921   7.701
43967SOL    HW231926   7.975   4.075   7.745
43968SOL     OW31927   9.202   4.947   9.036
43968SOL    HW131928   9.293   4.908   9.023
43968SOL    HW231929   9.210   5.043   9.060
43969SOL     OW31930   8.512   5.071   8.788
43969SOL    HW131931   8.432   5.048   8.843
43969SOL    HW231932   8.595   5.045   8.837
43970SOL     OW31933   9.040   5.353   9.073
43970SOL    HW131934   9.067   5.387   8.983
43970SOL    HW231935   9.119   5.315   9.119
43971SOL     OW31936   8.559   4.919   8.548
43971SOL    HW131937   8.519   4.963   8.629
43971SOL    HW231938   8.518   4.956   8.465
43972SOL     OW31939   9.086   4.823   8.527
43972SOL    HW131940   9.091   4.904   8.586
43972SOL    HW231941   9.000   4.825   8.476
43973SOL     OW31942   8.363   3.813   8.850
43973SOL    HW131943   8.388   3.793   8.755
43973SOL    HW231944   8.435   3.869   8.892
43974SOL     OW31945   8.428   4.840   9.167
43974SOL    HW131946   8.329   4.846   9.177
43974SOL    HW231947   8.451   4.760   9.111
43975SOL     OW31948   8.153   4.774   7.816
43975SOL    HW131949   8.139   4.781   7.915
43975SOL    HW231950   8.237   4.723   7.798
43976SOL     OW31951   7.858   4.537   8.699
43976SOL    HW131952   7.944   4.549   8.749
43976SOL    HW231953   7.816   4.450   8.726
43977SOL     OW31954   8.722   4.110   8.710
43977SOL    HW131955   8.743   4.184   8.774
43977SOL    HW231956   8.633   4.127   8.667
43978SOL     OW31957   7.512   5.288   8.779
43978SOL    HW131958   7.466   5.370   8.745
43978SOL    HW231959   7.610   5.307   8.788
43979SOL     OW31960   7.815   4.824   7.949
43979SOL    HW131961   7.808   4.907   7.893
43979SOL    HW231962   7.819   4.744   7.889
43980SOL     OW31963   8.014   4.261   8.313
43980SOL    HW131964   8.026   4.327   8.239
43980SOL    HW231965   8.060   4.295   8.396
43981SOL     OW31966   8.700   5.072   7.836
43981SOL    HW131967   8.750   5.149   7.876
43981SOL    HW231968   8.605   5.074   7.868
43982SOL     OW31969   8.720   5.169   8.590
43982SOL    HW131970   8.767   5.182   8.677
43982SOL    HW231971   8.654   5.095   8.599
43983SOL     OW31972   9.030   4.363   7.920
43983SOL    HW131973   8.999   4.424   7.993
43983SOL    HW231974   9.080   4.415   7.851
43984SOL     OW31975   7.802   5.234   8.777
43984SOL    HW131976   7.781   5.190   8.690
43984SOL    HW231977   7.899   5.260   8.780
43985SOL     OW31978   7.850   4.475   9.046
43985SOL    HW131979   7.918   4.530   8.999
43985SOL    HW231980   7.890   4.387   9.073
43986SOL     OW31981   9.035   4.503   9.118
43986SOL    HW131982   8.943   4.541   9.113
43986SOL    HW231983   9.095   4.550   9.053
43987SOL     OW31984   8.461   3.829   9.218
43987SOL    HW131985   8.467   3.914   9.166
43987SOL    HW231986   8.493   3.753   9.161
43988SOL     OW31987   7.952   3.774   9.188
43988SOL    HW131988   7.910   3.717   9.118
43988SOL    HW231989   7.886   3.843   9.220
43989SOL     OW31990   8.021   4.594   8.477
43989SOL    HW131991   8.065   4.683   8.468
43989SOL    HW231992   7.958   4.594   8.554
43990SOL     OW31993   8.808   4.586   8.493
43990SOL    HW131994   8.733   4.586   8.427
43990SOL    HW231995   8.845   4.494   8.502
43991SOL     OW31996   8.657   4.249   7.723
43991SOL    HW131997   8.670   4.165   7.777
43991SOL    HW231998   8.628   4.323   7.783
43992SOL     OW31999   7.755   3.937   8.679
43992SOL    HW132000   7.732   3.974   8.769
43992SOL    HW232001   7.725   3.842   8.673
43993SOL     OW32002   7.485   5.034   8.730
43993SOL    HW132003   7.538   4.985   8.798
43993SOL    HW232004   7.507   5.132   8.735
43994SOL     OW32005   8.180   4.358   8.512
43994SOL    HW132006   8.239   4.332   8.436
43994SOL    HW232007   8.152   4.454   8.501
43995SOL     OW32008   9.176   4.659   9.302
43995SOL    HW132009   9.130   4.652   9.213
43995SOL    HW232010   9.114   4.703   9.368
43996SOL     OW32011   7.755   3.787   8.066
43996SOL    HW132012   7.744   3.881   8.099
43996SOL    HW232013   7.750   3.724   8.143
43997SOL     OW32014   9.070   4.091   7.822
43997SOL    HW132015   9.072   4.015   7.886
43997SOL    HW232016   9.022   4.168   7.862
43998SOL     OW32017   8.471   4.490   8.414
43998SOL    HW132018   8.486   4.511   8.510
43998SOL    HW232019   8.441   4.395   8.405
43999SOL     OW32020   8.428   5.297   9.148
43999SOL    HW132021   8.408   5.341   9.060
43999SOL    HW232022   8.467   5.206   9.132
44000SOL     OW32023   9.307   5.242   9.053
44000SOL    HW132024   9.321   5.269   8.958
44000SOL    HW232025   9.390   5.264   9.106
44001SOL     OW32026   7.798   4.622   9.252
44001SOL    HW132027   7.874   4.666   9.300
44001SOL    HW232028   7.833   4.575   9.170
44002SOL     OW32029   8.988   3.998   7.573
44002SOL    HW132030   8.927   3.923   7.596
44002SOL    HW232031   9.010   4.050   7.656
44003SOL     OW32032   8.751   4.562   7.490
44003SOL    HW132033   8.785   4.469   7.505
44003SOL    HW232034   8.769   4.589   7.395
44004SOL     OW32035   8.516   5.057   8.297
44004SOL    HW132036   8.523   4.973   8.242
44004SOL    HW232037   8.578   5.126   8.261
44005SOL     OW32038   7.767   4.534   8.397
44005SOL    HW132039   7.860   4.570   8.402
44005SOL    HW232040   7.761   4.449   8.449
44006SOL     OW32041   7.787   4.233   8.454
44006SOL    HW132042   7.735   4.150   8.437
44006SOL    HW232043   7.864   4.238   8.390
44007SOL     OW32044   8.586   4.104   9.126
44007SOL    HW132045   8.541   4.167   9.190
44007SOL    HW232046   8.679   4.135   9.109
44008SOL     OW32047   8.608   3.931   8.925
44008SOL    HW132048   8.608   3.995   9.002
44008SOL    HW232049   8.636   3.979   8.842
44009SOL     OW32050   7.456   5.050   7.648
44009SOL    HW132051   7.363   5.071   7.617
44009SOL    HW232052   7.466   4.951   7.661
44010SOL     OW32053   7.536   5.525   8.375
44010SOL    HW132054   7.494   5.439   8.348
44010SOL    HW232055   7.630   5.528   8.341
44011SOL     OW32056   7.952   5.292   8.358
44011SOL    HW132057   8.018   5.366   8.367
44011SOL    HW232058   7.996   5.213   8.316
44012SOL     OW32059   8.450   4.520   8.686
44012SOL    HW132060   8.491   4.488   8.772
44012SOL    HW232061   8.354   4.493   8.683
44013SOL     OW32062   7.488   4.268   8.562
44013SOL    HW132063   7.573   4.235   8.521
44013SOL    HW232064   7.501   4.283   8.660
44014SOL     OW32065   7.637   4.244   9.170
44014SOL    HW132066   7.696   4.204   9.100
44014SOL    HW232067   7.579   4.315   9.129
44015SOL     OW32068   8.817   4.674   9.108
44015SOL    HW132069   8.856   4.763   9.128
44015SOL    HW232070   8.827   4.654   9.011
44016SOL     OW32071   8.263   4.296   7.773
44016SOL    HW132072   8.270   4.207   7.727
44016SOL    HW232073   8.169   4.330   7.765
44017SOL     OW32074   9.105   4.328   8.654
44017SOL    HW132075   9.067   4.259   8.716
44017SOL    HW232076   9.187   4.292   8.610
44018SOL     OW32077   7.700   5.288   9.192
44018SOL    HW132078   7.670   5.345   9.268
44018SOL    HW232079   7.693   5.191   9.218
44019SOL     OW32080   8.119   4.188   8.717
44019SOL    HW132081   8.085   4.099   8.687
44019SOL    HW232082   8.145   4.242   8.637
44020SOL     OW32083   8.378   5.402   8.913
44020SOL    HW132084   8.354   5.384   8.818
44020SOL    HW232085   8.408   5.496   8.923
44021SOL     OW32086   7.921   4.224   7.639
44021SOL    HW132087   7.982   4.304   7.643
44021SOL    HW232088   7.826   4.255   7.646
44022SOL     OW32089   7.607   4.861   8.914
44022SOL    HW132090   7.629   4.800   8.990
44022SOL    HW232091   7.617   4.812   8.828
44023SOL     OW32092   8.795   4.783   8.682
44023SOL    HW132093   8.819   4.720   8.608
44023SOL    HW232094   8.705   4.823   8.664
44024SOL     OW32095   8.750   4.579   7.757
44024SOL    HW132096   8.664   4.548   7.799
44024SOL    HW232097   8.746   4.565   7.658
44025SOL     OW32098   9.207   5.471   8.602
44025SOL    HW132099   9.268   5.501   8.529
44025SOL    HW232100   9.169   5.382   8.580
44026SOL     OW32101   8.700   5.455   8.576
44026SOL    HW132102   8.784   5.460   8.522
44026SOL    HW232103   8.677   5.359   8.594
44027SOL     OW32104   7.531   4.982   8.470
44027SOL    HW132105   7.526   4.981   8.570
44027SOL    HW232106   7.448   4.941   8.432
44028SOL     OW32107   8.136   5.386   9.164
44028SOL    HW132108   8.080   5.467   9.173
44028SOL    HW232109   8.188   5.390   9.078
44029SOL     OW32110   9.174   3.859   7.971
44029SOL    HW132111   9.247   3.842   7.904
44029SOL    HW232112   9.143   3.772   8.009
44030SOL     OW32113   8.836   5.297   7.925
44030SOL    HW132114   8.903   5.309   7.851
44030SOL    HW232115   8.796   5.386   7.948
44031SOL     OW32116   7.578   5.518   9.299
44031SOL    HW132117   7.537   5.444   9.352
44031SOL    HW232118   7.642   5.569   9.357
44032SOL     OW32119   8.728   4.651   8.120
44032SOL    HW132120   8.788   4.570   8.122
44032SOL    HW232121   8.768   4.720   8.060
44033SOL     OW32122   8.278   4.997   8.870
44033SOL    HW132123   8.273   5.030   8.965
44033SOL    HW232124   8.192   5.016   8.824
44034SOL     OW32125   8.120   5.340   7.602
44034SOL    HW132126   8.129   5.350   7.503
44034SOL    HW232127   8.080   5.251   7.623
44035SOL     OW32128   9.098   5.444   8.842
44035SOL    HW132129   9.151   5.454   8.758
44035SOL    HW232130   9.071   5.534   8.876
44036SOL     OW32131   9.289   3.899   8.411
44036SOL    HW132132   9.328   3.814   8.375
44036SOL    HW232133   9.191   3.901   8.392
44037SOL     OW32134   7.711   4.050   8.168
44037SOL    HW132135   7.632   4.101   8.134
44037SOL    HW232136   7.702   4.035   8.266
44038SOL     OW32137   8.642   5.336   7.479
44038SOL    HW132138   8.648   5.243   7.516
44038SOL    HW232139   8.583   5.336   7.399
44039SOL     OW32140   8.270   4.726   8.820
44039SOL    HW132141   8.310   4.725   8.728
44039SOL    HW232142   8.280   4.818   8.860
44040SOL     OW32143   8.364   4.634   7.739
44040SOL    HW132144   8.427   4.672   7.671
44040SOL    HW232145   8.404   4.551   7.778
44041SOL     OW32146   8.952   5.331   7.492
44041SOL    HW132147   8.860   5.368   7.499
44041SOL    HW232148   8.990   5.351   7.402
44042SOL     OW32149   7.820   5.012   8.938
44042SOL    HW132150   7.807   5.105   8.904
44042SOL    HW232151   7.736   4.960   8.925
44043SOL     OW32152   9.062   5.016   8.737
44043SOL    HW132153   9.122   5.019   8.817
44043SOL    HW232154   8.987   5.080   8.750
44044SOL     OW32155   8.487   4.822   8.144
44044SOL    HW132156   8.417   4.775   8.198
44044SOL    HW232157   8.546   4.754   8.101
44045SOL     OW32158   8.462   3.960   8.419
44045SOL    HW132159   8.454   3.924   8.326
44045SOL    HW232160   8.460   3.884   8.484
44046SOL     OW32161   8.038   5.211   7.939
44046SOL    HW132162   8.080   5.153   7.869
44046SOL    HW232163   7.994   5.290   7.895
44047SOL     OW32164   9.157   4.109   8.829
44047SOL    HW132165   9.230   4.178   8.833
44047SOL    HW232166   9.185   4.034   8.770
44048SOL     OW32167   7.703   5.072   7.738
44048SOL    HW132168   7.607   5.073   7.711
44048SOL    HW232169   7.715   5.125   7.822
44049SOL     OW32170   7.553   4.737   9.174
44049SOL    HW132171   7.476   4.704   9.228
44049SOL    HW232172   7.638   4.707   9.216
44050SOL     OW32173   8.120   3.927   8.937
44050SOL    HW132174   8.210   3.911   8.897
44050SOL    HW232175   8.128   3.932   9.036
44051SOL     OW32176   7.523   4.069   7.481
44051SOL    HW132177   7.431   4.041   7.452
44051SOL    HW232178   7.554   4.146   7.425
44052SOL     OW32179   8.888   4.580   8.846
44052SOL    HW132180   8.831   4.632   8.783
44052SOL    HW232181   8.984   4.592   8.822
44053SOL     OW32182   7.520   3.890   7.766
44053SOL    HW132183   7.503   3.973   7.712
44053SOL    HW232184   7.610   3.853   7.744
44054SOL     OW32185   8.631   5.059   7.567
44054SOL    HW132186   8.532   5.048   7.569
44054SOL    HW232187   8.665   5.074   7.660
44055SOL     OW32188   8.061   4.566   8.879
44055SOL    HW132189   8.117   4.647   8.862
44055SOL    HW232190   8.120   4.486   8.882
44056SOL     OW32191   8.941   5.491   8.407
44056SOL    HW132192   8.974   5.555   8.338
44056SOL    HW232193   9.007   5.485   8.482
44057SOL     OW32194   8.164   4.289   9.156
44057SOL    HW132195   8.183   4.354   9.230
44057SOL    HW232196   8.224   4.209   9.165
44058SOL     OW32197   8.898   4.944   9.081
44058SOL    HW132198   8.889   4.934   9.180
44058SOL    HW232199   8.994   4.937   9.055
44059SOL     OW32200   7.838   5.465   9.008
44059SOL    HW132201   7.747   5.506   9.006
44059SOL    HW232202   7.831   5.371   9.040
44060SOL     OW32203   9.122   4.607   8.702
44060SOL    HW132204   9.095   4.518   8.665
44060SOL    HW232205   9.123   4.675   8.629
44061SOL     OW32206   8.673   4.049   7.897
44061SOL    HW132207   8.738   3.975   7.886
44061SOL    HW232208   8.693   4.099   7.981
44062SOL     OW32209   8.042   4.469   8.100
44062SOL    HW132210   8.092   4.554   8.081
44062SOL    HW232211   7.954   4.471   8.052
44063SOL     OW32212   9.225   4.066   9.090
44063SOL    HW132213   9.208   4.097   8.996
44063SOL    HW232214   9.141   4.029   9.128
44064SOL     OW32215   9.178   4.658   8.965
44064SOL    HW132216   9.216   4.749   8.980
44064SOL    HW232217   9.170   4.641   8.866
44065SOL     OW32218   8.307   5.098   7.464
44065SOL    HW132219   8.261   5.113   7.552
44065SOL    HW232220   8.351   5.183   7.434
44066SOL     OW32221   8.109   5.514   8.401
44066SOL    HW132222   8.063   5.602   8.388
44066SOL    HW232223   8.208   5.526   8.394
44067SOL     OW32224   8.307   4.680   8.309
44067SOL    HW132225   8.361   4.611   8.357
44067SOL    HW232226   8.275   4.749   8.375
44068SOL     OW32227   8.531   4.708   7.535
44068SOL    HW132228   8.508   4.761   7.453
44068SOL    HW232229   8.612   4.652   7.516
44069SOL     OW32230   9.309   5.293   8.299
44069SOL    HW132231   9.238   5.281   8.229
44069SOL    HW232232   9.310   5.214   8.359
44070SOL     OW32233   7.669   5.038   9.292
44070SOL    HW132234   7.604   4.965   9.271
44070SOL    HW232235   7.673   5.052   9.390
44071SOL     OW32236   7.527   4.964   8.101
44071SOL    HW132237   7.526   4.917   8.189
44071SOL    HW232238   7.609   4.936   8.050
44072SOL     OW32239   8.120   5.115   9.072
44072SOL    HW132240   8.042   5.065   9.110
44072SOL    HW232241   8.117   5.210   9.103
44073SOL     OW32242   9.272   3.916   8.675
44073SOL    HW132243   9.268   3.826   8.719
44073SOL    HW232244   9.275   3.905   8.576
44074SOL     OW32245   7.876   4.148   7.968
44074SOL    HW132246   7.906   4.076   7.906
44074SOL    HW232247   7.837   4.108   8.051
44075SOL     OW32248   9.153   5.211   8.552
44075SOL    HW132249   9.060   5.186   8.525
44075SOL    HW232250   9.179   5.161   8.634
44076SOL     OW32251   7.765   4.271   8.728
44076SOL    HW132252   7.803   4.212   8.800
44076SOL    HW232253   7.805   4.245   8.640
44077SOL     OW32254   8.260   5.310   8.135
44077SOL    HW132255   8.292   5.320   8.041
44077SOL    HW232256   8.181   5.248   8.137
44078SOL     OW32257   8.872   3.938   8.560
44078SOL    HW132258   8.924   3.873   8.615
44078SOL    HW232259   8.823   4.001   8.621
44079SOL     OW32260   8.449   3.758   8.602
44079SOL    HW132261   8.386   3.686   8.571
44079SOL    HW232262   8.542   3.722   8.602
44080SOL     OW32263   8.218   5.054   7.749
44080SOL    HW132264   8.172   4.967   7.766
44080SOL    HW232265   8.309   5.051   7.790
44081SOL     OW32266   8.066   5.291   8.732
44081SOL    HW132267   8.061   5.373   8.789
44081SOL    HW232268   8.155   5.288   8.687
44082SOL     OW32269   8.800   3.776   7.616
44082SOL    HW132270   8.835   3.735   7.532
44082SOL    HW232271   8.710   3.738   7.636
44083SOL     OW32272   8.748   4.177   8.139
44083SOL    HW132273   8.689   4.257   8.143
44083SOL    HW232274   8.763   4.142   8.232
44084SOL     OW32275   9.041   3.945   8.330
44084SOL    HW132276   8.957   3.944   8.384
44084SOL    HW232277   9.043   4.028   8.274
44085SOL     OW32278   7.487   4.801   7.748
44085SOL    HW132279   7.586   4.790   7.739
44085SOL    HW232280   7.447   4.715   7.780
44086SOL     OW32281   8.323   5.370   7.785
44086SOL    HW132282   8.246   5.335   7.731
44086SOL    HW232283   8.291   5.441   7.847
44087SOL     OW32284   7.678   4.352   9.423
44087SOL    HW132285   7.585   4.350   9.460
44087SOL    HW232286   7.679   4.313   9.331
44088SOL     OW32287   7.673   3.999  10.306
44088SOL    HW132288   7.708   3.982  10.398
44088SOL    HW232289   7.585   3.954  10.294
44089SOL     OW32290   7.467   4.092   9.957
44089SOL    HW132291   7.385   4.135   9.996
44089SOL    HW232292   7.439   4.019   9.894
44090SOL     OW32293   8.017   4.999  10.475
44090SOL    HW132294   7.924   4.992  10.438
44090SOL    HW232295   8.028   5.088  10.519
44091SOL     OW32296   9.003   5.235  10.013
44091SOL    HW132297   8.946   5.219  10.094
44091SOL    HW232298   8.944   5.245   9.933
44092SOL     OW32299   8.583   4.427  10.027
44092SOL    HW132300   8.640   4.505  10.002
44092SOL    HW232301   8.523   4.453  10.103
44093SOL     OW32302   9.203   4.331   9.541
44093SOL    HW132303   9.191   4.318   9.442
44093SOL    HW232304   9.173   4.250   9.590
44094SOL     OW32305   8.216   4.868  10.333
44094SOL    HW132306   8.138   4.885  10.393
44094SOL    HW232307   8.250   4.955  10.297
44095SOL     OW32308   8.298   4.522  11.133
44095SOL    HW132309   8.294   4.598  11.198
44095SOL    HW232310   8.320   4.558  11.042
44096SOL     OW32311   8.133   4.736   9.975
44096SOL    HW132312   8.202   4.720  10.045
44096SOL    HW232313   8.060   4.793  10.013
44097SOL     OW32314   8.134   4.885  11.113
44097SOL    HW132315   8.194   4.964  11.127
44097SOL    HW232316   8.048   4.916  11.072
44098SOL     OW32317   7.783   5.159  10.371
44098SOL    HW132318   7.705   5.128  10.318
44098SOL    HW232319   7.841   5.217  10.314
44099SOL     OW32320   8.908   5.229  10.649
44099SOL    HW132321   8.932   5.323  10.675
44099SOL    HW232322   8.892   5.175  10.731
44100SOL     OW32323   7.886   4.116  10.809
44100SOL    HW132324   7.968   4.060  10.818
44100SOL    HW232325   7.805   4.058  10.813
44101SOL     OW32326   9.051   4.171  10.047
44101SOL    HW132327   8.977   4.217   9.997
44101SOL    HW232328   9.102   4.239  10.100
44102SOL     OW32329   7.679   5.437   9.793
44102SOL    HW132330   7.713   5.514   9.847
44102SOL    HW232331   7.723   5.437   9.703
44103SOL     OW32332   8.575   5.065  11.000
44103SOL    HW132333   8.622   5.065  11.088
44103SOL    HW232334   8.527   4.978  10.989
44104SOL     OW32335   7.678   5.158   9.848
44104SOL    HW132336   7.652   5.254   9.848
44104SOL    HW232337   7.607   5.104   9.893
44105SOL     OW32338   7.688   4.815  10.196
44105SOL    HW132339   7.702   4.731  10.248
44105SOL    HW232340   7.633   4.879  10.251
44106SOL     OW32341   8.068   5.510  10.749
44106SOL    HW132342   7.976   5.493  10.784
44106SOL    HW232343   8.096   5.602  10.775
44107SOL     OW32344   8.054   4.688   9.433
44107SOL    HW132345   8.061   4.772   9.379
44107SOL    HW232346   8.100   4.701   9.521
44108SOL     OW32347   9.042   3.838  10.790
44108SOL    HW132348   9.024   3.905  10.718
44108SOL    HW232349   9.039   3.884  10.879
44109SOL     OW32350   7.570   4.367   9.873
44109SOL    HW132351   7.525   4.279   9.890
44109SOL    HW232352   7.569   4.421   9.957
44110SOL     OW32353   9.290   5.491   9.669
44110SOL    HW132354   9.344   5.462   9.749
44110SOL    HW232355   9.320   5.581   9.640
44111SOL     OW32356   7.475   5.320   9.427
44111SOL    HW132357   7.456   5.224   9.448
44111SOL    HW232358   7.442   5.378   9.502
44112SOL     OW32359   9.137   4.646   9.922
44112SOL    HW132360   9.232   4.617   9.930
44112SOL    HW232361   9.129   4.711   9.847
44113SOL     OW32362   9.089   4.832   9.742
44113SOL    HW132363   9.175   4.834   9.690
44113SOL    HW232364   9.103   4.879   9.830
44114SOL     OW32365   7.561   4.461  10.907
44114SOL    HW132366   7.649   4.448  10.952
44114SOL    HW232367   7.548   4.558  10.885
44115SOL     OW32368   8.061   5.089  10.036
44115SOL    HW132369   8.012   5.002  10.045
44115SOL    HW232370   8.038   5.132   9.949
44116SOL     OW32371   8.741   4.952  10.733
44116SOL    HW132372   8.778   4.879  10.675
44116SOL    HW232373   8.793   4.957  10.818
44117SOL     OW32374   8.257   3.728   9.812
44117SOL    HW132375   8.297   3.819   9.803
44117SOL    HW232376   8.157   3.736   9.818
44118SOL     OW32377   7.645   4.700  10.574
44118SOL    HW132378   7.734   4.655  10.560
44118SOL    HW232379   7.572   4.635  10.555
44119SOL     OW32380   8.973   4.723   9.500
44119SOL    HW132381   8.910   4.647   9.513
44119SOL    HW232382   9.021   4.741   9.586
44120SOL     OW32383   8.635   5.516  10.926
44120SOL    HW132384   8.659   5.576  10.850
44120SOL    HW232385   8.642   5.421  10.896
44121SOL     OW32386   7.765   3.975  11.111
44121SOL    HW132387   7.836   4.046  11.117
44121SOL    HW232388   7.677   4.014  11.139
44122SOL     OW32389   8.914   5.141  10.263
44122SOL    HW132390   8.855   5.147  10.343
44122SOL    HW232391   8.899   5.053  10.217
44123SOL     OW32392   9.115   5.438   9.882
44123SOL    HW132393   9.074   5.415   9.794
44123SOL    HW232394   9.097   5.364   9.947
44124SOL     OW32395   8.046   4.453   9.580
44124SOL    HW132396   8.070   4.522   9.512
44124SOL    HW232397   7.968   4.486   9.634
44125SOL     OW32398   8.729   4.069  10.254
44125SOL    HW132399   8.643   4.019  10.241
44125SOL    HW232400   8.791   4.015  10.310
44126SOL     OW32401   9.024   5.386   9.617
44126SOL    HW132402   9.113   5.432   9.620
44126SOL    HW232403   9.003   5.362   9.522
44127SOL     OW32404   8.255   4.329  10.775
44127SOL    HW132405   8.208   4.326  10.864
44127SOL    HW232406   8.204   4.274  10.709
44128SOL     OW32407   8.842   4.193  10.984
44128SOL    HW132408   8.822   4.236  11.072
44128SOL    HW232409   8.920   4.131  10.993
44129SOL     OW32410   8.421   4.614  10.882
44129SOL    HW132411   8.467   4.530  10.853
44129SOL    HW232412   8.365   4.648  10.807
44130SOL     OW32413   8.439   4.134  10.552
44130SOL    HW132414   8.362   4.168  10.606
44130SOL    HW232415   8.405   4.083  10.473
44131SOL     OW32416   8.489   4.425   9.739
44131SOL    HW132417   8.515   4.421   9.835
44131SOL    HW232418   8.404   4.374   9.725
44132SOL     OW32419   7.524   4.535  10.099
44132SOL    HW132420   7.623   4.523  10.108
44132SOL    HW232421   7.500   4.630  10.120
44133SOL     OW32422   7.578   5.545  10.881
44133SOL    HW132423   7.568   5.530  10.980
44133SOL    HW232424   7.492   5.581  10.845
44134SOL     OW32425   8.313   4.072   9.505
44134SOL    HW132426   8.372   4.135   9.456
44134SOL    HW232427   8.332   3.978   9.476
44135SOL     OW32428   9.167   4.309  11.141
44135SOL    HW132429   9.141   4.398  11.105
44135SOL    HW232430   9.165   4.241  11.068
44136SOL     OW32431   8.810   4.868   9.855
44136SOL    HW132432   8.893   4.839   9.807
44136SOL    HW232433   8.761   4.935   9.799
44137SOL     OW32434   7.998   3.920  10.195
44137SOL    HW132435   7.993   3.915  10.295
44137SOL    HW232436   8.000   4.016  10.166
44138SOL     OW32437   8.456   5.180   9.787
44138SOL    HW132438   8.410   5.252   9.735
44138SOL    HW232439   8.452   5.200   9.885
44139SOL     OW32440   7.799   5.525  10.163
44139SOL    HW132441   7.849   5.439  10.169
44139SOL    HW232442   7.864   5.602  10.160
44140SOL     OW32443   9.243   4.790  10.183
44140SOL    HW132444   9.181   4.775  10.107
44140SOL    HW232445   9.191   4.801  10.268
44141SOL     OW32446   8.675   5.274  10.816
44141SOL    HW132447   8.681   5.197  10.880
44141SOL    HW232448   8.623   5.248  10.736
44142SOL     OW32449   7.769   4.667   9.552
44142SOL    HW132450   7.851   4.706   9.510
44142SOL    HW232451   7.742   4.585   9.503
44143SOL     OW32452   8.906   4.459  10.038
44143SOL    HW132453   8.901   4.394  10.113
44143SOL    HW232454   8.986   4.518  10.051
44144SOL     OW32455   7.909   4.990  11.037
44144SOL    HW132456   7.859   4.991  10.951
44144SOL    HW232457   7.846   4.972  11.113
44145SOL     OW32458   8.559   5.500   9.547
44145SOL    HW132459   8.499   5.438   9.597
44145SOL    HW232460   8.590   5.456   9.462
44146SOL     OW32461   7.650   4.009  10.808
44146SOL    HW132462   7.570   4.069  10.795
44146SOL    HW232463   7.640   3.960  10.894
44147SOL     OW32464   9.080   5.101   9.391
44147SOL    HW132465   9.048   5.195   9.381
44147SOL    HW232466   9.004   5.038   9.379
44148SOL     OW32467   7.912   5.467   9.633
44148SOL    HW132468   7.945   5.506   9.719
44148SOL    HW232469   7.988   5.460   9.568
44149SOL     OW32470   8.848   3.831   9.736
44149SOL    HW132471   8.824   3.794   9.646
44149SOL    HW232472   8.947   3.847   9.740
44150SOL     OW32473   7.697   5.509  10.551
44150SOL    HW132474   7.754   5.444  10.601
44150SOL    HW232475   7.681   5.476  10.458
44151SOL     OW32476   8.388   5.422  10.214
44151SOL    HW132477   8.468   5.365  10.235
44151SOL    HW232478   8.339   5.382  10.137
44152SOL     OW32479   7.830   4.424   9.790
44152SOL    HW132480   7.875   4.334   9.787
44152SOL    HW232481   7.736   4.413   9.823
44153SOL     OW32482   8.995   3.946  11.039
44153SOL    HW132483   8.990   3.983  11.131
44153SOL    HW232484   8.923   3.877  11.027
44154SOL     OW32485   8.062   3.846   9.427
44154SOL    HW132486   8.160   3.824   9.434
44154SOL    HW232487   8.031   3.829   9.334
44155SOL     OW32488   8.229   3.988  11.059
44155SOL    HW132489   8.296   3.927  11.102
44155SOL    HW232490   8.156   4.007  11.124
44156SOL     OW32491   8.336   5.238  10.505
44156SOL    HW132492   8.313   5.213  10.411
44156SOL    HW232493   8.397   5.169  10.544
44157SOL     OW32494   8.799   4.314  10.743
44157SOL    HW132495   8.827   4.271  10.828
44157SOL    HW232496   8.824   4.410  10.744
44158SOL     OW32497   8.251   5.126  10.234
44158SOL    HW132498   8.341   5.140  10.192
44158SOL    HW232499   8.180   5.128  10.163
44159SOL     OW32500   8.370   4.227  10.209
44159SOL    HW132501   8.345   4.218  10.113
44159SOL    HW232502   8.418   4.145  10.240
44160SOL     OW32503   7.987   3.788   9.822
44160SOL    HW132504   7.906   3.789   9.880
44160SOL    HW232505   7.990   3.871   9.767
44161SOL     OW32506   8.882   4.912   9.351
44161SOL    HW132507   8.914   4.836   9.408
44161SOL    HW232508   8.790   4.939   9.381
44162SOL     OW32509   7.745   3.759   9.481
44162SOL    HW132510   7.794   3.843   9.460
44162SOL    HW232511   7.807   3.694   9.526
44163SOL     OW32512   8.383   3.960   9.790
44163SOL    HW132513   8.335   4.001   9.712
44163SOL    HW232514   8.482   3.958   9.771
44164SOL     OW32515   8.524   4.407  10.774
44164SOL    HW132516   8.444   4.346  10.777
44164SOL    HW232517   8.605   4.354  10.750
44165SOL     OW32518   8.675   5.294  10.103
44165SOL    HW132519   8.696   5.368  10.038
44165SOL    HW232520   8.743   5.294  10.176
44166SOL     OW32521   7.907   4.876  10.051
44166SOL    HW132522   7.836   4.849  10.116
44166SOL    HW232523   7.881   4.848   9.958
44167SOL     OW32524   8.719   5.521   9.901
44167SOL    HW132525   8.763   5.585   9.837
44167SOL    HW232526   8.669   5.573   9.971
44168SOL     OW32527   8.480   4.273   9.326
44168SOL    HW132528   8.439   4.355   9.287
44168SOL    HW232529   8.544   4.299   9.399
44169SOL     OW32530   7.526   4.280  10.696
44169SOL    HW132531   7.618   4.279  10.655
44169SOL    HW232532   7.520   4.354  10.763
44170SOL     OW32533   8.009   3.946  10.457
44170SOL    HW132534   8.047   3.862  10.494
44170SOL    HW232535   7.921   3.965  10.501
44171SOL     OW32536   8.314   4.178   9.952
44171SOL    HW132537   8.282   4.250   9.890
44171SOL    HW232538   8.338   4.097   9.899
44172SOL     OW32539   8.465   3.763  10.063
44172SOL    HW132540   8.393   3.768   9.994
44172SOL    HW232541   8.441   3.694  10.132
44173SOL     OW32542   8.877   4.897  10.177
44173SOL    HW132543   8.822   4.813  10.170
44173SOL    HW232544   8.903   4.926  10.085
44174SOL     OW32545   8.914   4.314  10.302
44174SOL    HW132546   8.884   4.219  10.309
44174SOL    HW232547   8.987   4.330  10.368
44175SOL     OW32548   9.305   4.557   9.687
44175SOL    HW132549   9.347   4.493   9.751
44175SOL    HW232550   9.267   4.506   9.609
44176SOL     OW32551   7.936   5.109   9.484
44176SOL    HW132552   7.849   5.094   9.531
44176SOL    HW232553   7.919   5.135   9.389
44177SOL     OW32554   9.112   5.004   9.967
44177SOL    HW132555   9.211   5.012   9.981
44177SOL    HW232556   9.067   5.088   9.998
44178SOL     OW32557   8.838   4.299   9.388
44178SOL    HW132558   8.784   4.278   9.469
44178SOL    HW232559   8.929   4.258   9.397
44179SOL     OW32560   7.975   3.980   9.638
44179SOL    HW132561   8.002   3.921   9.563
44179SOL    HW232562   7.975   4.075   9.607
44180SOL     OW32563   9.202   4.947  10.898
44180SOL    HW132564   9.293   4.908  10.885
44180SOL    HW232565   9.210   5.043  10.922
44181SOL     OW32566   8.512   5.071  10.650
44181SOL    HW132567   8.432   5.048  10.705
44181SOL    HW232568   8.595   5.045  10.699
44182SOL     OW32569   9.040   5.353  10.935
44182SOL    HW132570   9.067   5.387  10.845
44182SOL    HW232571   9.119   5.315  10.981
44183SOL     OW32572   8.559   4.919  10.410
44183SOL    HW132573   8.519   4.963  10.491
44183SOL    HW232574   8.518   4.956  10.327
44184SOL     OW32575   9.086   4.823  10.389
44184SOL    HW132576   9.091   4.904  10.448
44184SOL    HW232577   9.000   4.825  10.338
44185SOL     OW32578   8.363   3.813  10.712
44185SOL    HW132579   8.388   3.793  10.617
44185SOL    HW232580   8.435   3.869  10.754
44186SOL     OW32581   8.428   4.840  11.029
44186SOL    HW132582   8.329   4.846  11.039
44186SOL    HW232583   8.451   4.760  10.973
44187SOL     OW32584   8.153   4.774   9.678
44187SOL    HW132585   8.139   4.781   9.777
44187SOL    HW232586   8.237   4.723   9.660
44188SOL     OW32587   7.858   4.537  10.561
44188SOL    HW132588   7.944   4.549  10.611
44188SOL    HW232589   7.816   4.450  10.588
44189SOL     OW32590   8.722   4.110  10.572
44189SOL    HW132591   8.743   4.184  10.636
44189SOL    HW232592   8.633   4.127  10.529
44190SOL     OW32593   7.512   5.288  10.641
44190SOL    HW132594   7.466   5.370  10.607
44190SOL    HW232595   7.610   5.307  10.650
44191SOL     OW32596   7.815   4.824   9.811
44191SOL    HW132597   7.808   4.907   9.755
44191SOL    HW232598   7.819   4.744   9.751
44192SOL     OW32599   8.014   4.261  10.175
44192SOL    HW132600   8.026   4.327  10.101
44192SOL    HW232601   8.060   4.295  10.258
44193SOL     OW32602   8.700   5.072   9.698
44193SOL    HW132603   8.750   5.149   9.738
44193SOL    HW232604   8.605   5.074   9.730
44194SOL     OW32605   8.720   5.169  10.452
44194SOL    HW132606   8.767   5.182  10.539
44194SOL    HW232607   8.654   5.095  10.461
44195SOL     OW32608   9.030   4.363   9.782
44195SOL    HW132609   8.999   4.424   9.855
44195SOL    HW232610   9.080   4.415   9.713
44196SOL     OW32611   7.802   5.234  10.639
44196SOL    HW132612   7.781   5.190  10.552
44196SOL    HW232613   7.899   5.260  10.642
44197SOL     OW32614   7.850   4.475  10.908
44197SOL    HW132615   7.918   4.530  10.861
44197SOL    HW232616   7.890   4.387  10.935
44198SOL     OW32617   9.035   4.503  10.980
44198SOL    HW132618   8.943   4.541  10.975
44198SOL    HW232619   9.095   4.550  10.915
44199SOL     OW32620   8.461   3.829  11.080
44199SOL    HW132621   8.467   3.914  11.028
44199SOL    HW232622   8.493   3.753  11.023
44200SOL     OW32623   7.952   3.774  11.050
44200SOL    HW132624   7.910   3.717  10.980
44200SOL    HW232625   7.886   3.843  11.082
44201SOL     OW32626   8.021   4.594  10.339
44201SOL    HW132627   8.065   4.683  10.330
44201SOL    HW232628   7.958   4.594  10.416
44202SOL     OW32629   8.808   4.586  10.355
44202SOL    HW132630   8.733   4.586  10.289
44202SOL    HW232631   8.845   4.494  10.364
44203SOL     OW32632   8.657   4.249   9.585
44203SOL    HW132633   8.670   4.165   9.639
44203SOL    HW232634   8.628   4.323   9.645
44204SOL     OW32635   7.755   3.937  10.541
44204SOL    HW132636   7.732   3.974  10.631
44204SOL    HW232637   7.725   3.842  10.535
44205SOL     OW32638   7.485   5.034  10.592
44205SOL    HW132639   7.538   4.985  10.660
44205SOL    HW232640   7.507   5.132  10.597
44206SOL     OW32641   8.180   4.358  10.374
44206SOL    HW132642   8.239   4.332  10.298
44206SOL    HW232643   8.152   4.454  10.363
44207SOL     OW32644   9.176   4.659  11.164
44207SOL    HW132645   9.130   4.652  11.075
44207SOL    HW232646   9.114   4.703  11.230
44208SOL     OW32647   7.755   3.787   9.928
44208SOL    HW132648   7.744   3.881   9.961
44208SOL    HW232649   7.750   3.724  10.005
44209SOL     OW32650   9.070   4.091   9.684
44209SOL    HW132651   9.072   4.015   9.748
44209SOL    HW232652   9.022   4.168   9.724
44210SOL     OW32653   8.471   4.490  10.276
44210SOL    HW132654   8.486   4.511  10.372
44210SOL    HW232655   8.441   4.395  10.267
44211SOL     OW32656   8.428   5.297  11.010
44211SOL    HW132657   8.408   5.341  10.922
44211SOL    HW232658   8.467   5.206  10.994
44212SOL     OW32659   9.307   5.242  10.915
44212SOL    HW132660   9.321   5.269  10.820
44212SOL    HW232661   9.390   5.264  10.968
44213SOL     OW32662   7.798   4.622  11.114
44213SOL    HW132663   7.874   4.666  11.162
44213SOL    HW232664   7.833   4.575  11.032
44214SOL     OW32665   8.988   3.998   9.435
44214SOL    HW132666   8.927   3.923   9.458
44214SOL    HW232667   9.010   4.050   9.518
44215SOL     OW32668   8.751   4.562   9.352
44215SOL    HW132669   8.785   4.469   9.367
44215SOL    HW232670   8.769   4.589   9.257
44216SOL     OW32671   8.516   5.057  10.159
44216SOL    HW132672   8.523   4.973  10.104
44216SOL    HW232673   8.578   5.126  10.123
44217SOL     OW32674   7.767   4.534  10.259
44217SOL    HW132675   7.860   4.570  10.264
44217SOL    HW232676   7.761   4.449  10.311
44218SOL     OW32677   7.787   4.233  10.316
44218SOL    HW132678   7.735   4.150  10.299
44218SOL    HW232679   7.864   4.238  10.252
44219SOL     OW32680   8.586   4.104  10.988
44219SOL    HW132681   8.541   4.167  11.052
44219SOL    HW232682   8.679   4.135  10.971
44220SOL     OW32683   8.608   3.931  10.787
44220SOL    HW132684   8.608   3.995  10.864
44220SOL    HW232685   8.636   3.979  10.704
44221SOL     OW32686   7.456   5.050   9.510
44221SOL    HW132687   7.363   5.071   9.479
44221SOL    HW232688   7.466   4.951   9.523
44222SOL     OW32689   7.536   5.525  10.237
44222SOL    HW132690   7.494   5.439  10.210
44222SOL    HW232691   7.630   5.528  10.203
44223SOL     OW32692   7.952   5.292  10.220
44223SOL    HW132693   8.018   5.366  10.229
44223SOL    HW232694   7.996   5.213  10.178
44224SOL     OW32695   8.450   4.520  10.548
44224SOL    HW132696   8.491   4.488  10.634
44224SOL    HW232697   8.354   4.493  10.545
44225SOL     OW32698   7.488   4.268  10.424
44225SOL    HW132699   7.573   4.235  10.383
44225SOL    HW232700   7.501   4.283  10.522
44226SOL     OW32701   7.637   4.244  11.032
44226SOL    HW132702   7.696   4.204  10.962
44226SOL    HW232703   7.579   4.315  10.991
44227SOL     OW32704   8.817   4.674  10.970
44227SOL    HW132705   8.856   4.763  10.990
44227SOL    HW232706   8.827   4.654  10.873
44228SOL     OW32707   8.263   4.296   9.635
44228SOL    HW132708   8.270   4.207   9.589
44228SOL    HW232709   8.169   4.330   9.627
44229SOL     OW32710   9.105   4.328  10.516
44229SOL    HW132711   9.067   4.259  10.578
44229SOL    HW232712   9.187   4.292  10.472
44230SOL     OW32713   7.700   5.288  11.054
44230SOL    HW132714   7.670   5.345  11.130
44230SOL    HW232715   7.693   5.191  11.080
44231SOL     OW32716   8.119   4.188  10.579
44231SOL    HW132717   8.085   4.099  10.549
44231SOL    HW232718   8.145   4.242  10.499
44232SOL     OW32719   8.378   5.402  10.775
44232SOL    HW132720   8.354   5.384  10.680
44232SOL    HW232721   8.408   5.496  10.785
44233SOL     OW32722   7.921   4.224   9.501
44233SOL    HW132723   7.982   4.304   9.505
44233SOL    HW232724   7.826   4.255   9.508
44234SOL     OW32725   7.607   4.861  10.776
44234SOL    HW132726   7.629   4.800  10.852
44234SOL    HW232727   7.617   4.812  10.690
44235SOL     OW32728   8.795   4.783  10.544
44235SOL    HW132729   8.819   4.720  10.470
44235SOL    HW232730   8.705   4.823  10.526
44236SOL     OW32731   8.750   4.579   9.619
44236SOL    HW132732   8.664   4.548   9.661
44236SOL    HW232733   8.746   4.565   9.520
44237SOL     OW32734   9.207   5.471  10.464
44237SOL    HW132735   9.268   5.501  10.391
44237SOL    HW232736   9.169   5.382  10.442
44238SOL     OW32737   8.700   5.455  10.438
44238SOL    HW132738   8.784   5.460  10.384
44238SOL    HW232739   8.677   5.359  10.456
44239SOL     OW32740   7.531   4.982  10.332
44239SOL    HW132741   7.526   4.981  10.432
44239SOL    HW232742   7.448   4.941  10.294
44240SOL     OW32743   8.136   5.386  11.026
44240SOL    HW132744   8.080   5.467  11.035
44240SOL    HW232745   8.188   5.390  10.940
44241SOL     OW32746   9.174   3.859   9.833
44241SOL    HW132747   9.247   3.842   9.766
44241SOL    HW232748   9.143   3.772   9.871
44242SOL     OW32749   8.836   5.297   9.787
44242SOL    HW132750   8.903   5.309   9.713
44242SOL    HW232751   8.796   5.386   9.810
44243SOL     OW32752   7.578   5.518  11.161
44243SOL    HW132753   7.537   5.444  11.214
44243SOL    HW232754   7.642   5.569  11.219
44244SOL     OW32755   8.728   4.651   9.982
44244SOL    HW132756   8.788   4.570   9.984
44244SOL    HW232757   8.768   4.720   9.922
44245SOL     OW32758   8.278   4.997  10.732
44245SOL    HW132759   8.273   5.030  10.827
44245SOL    HW232760   8.192   5.016  10.686
44246SOL     OW32761   8.120   5.340   9.464
44246SOL    HW132762   8.129   5.350   9.365
44246SOL    HW232763   8.080   5.251   9.485
44247SOL     OW32764   9.098   5.444  10.704
44247SOL    HW132765   9.151   5.454  10.620
44247SOL    HW232766   9.071   5.534  10.738
44248SOL     OW32767   9.289   3.899  10.273
44248SOL    HW132768   9.328   3.814  10.237
44248SOL    HW232769   9.191   3.901  10.254
44249SOL     OW32770   7.711   4.050  10.030
44249SOL    HW132771   7.632   4.101   9.996
44249SOL    HW232772   7.702   4.035  10.128
44250SOL     OW32773   8.642   5.336   9.341
44250SOL    HW132774   8.648   5.243   9.378
44250SOL    HW232775   8.583   5.336   9.261
44251SOL     OW32776   8.270   4.726  10.682
44251SOL    HW132777   8.310   4.725  10.590
44251SOL    HW232778   8.280   4.818  10.722
44252SOL     OW32779   8.364   4.634   9.601
44252SOL    HW132780   8.427   4.672   9.533
44252SOL    HW232781   8.404   4.551   9.640
44253SOL     OW32782   8.952   5.331   9.354
44253SOL    HW132783   8.860   5.368   9.361
44253SOL    HW232784   8.990   5.351   9.264
44254SOL     OW32785   7.820   5.012  10.800
44254SOL    HW132786   7.807   5.105  10.766
44254SOL    HW232787   7.736   4.960  10.787
44255SOL     OW32788   9.062   5.016  10.599
44255SOL    HW132789   9.122   5.019  10.679
44255SOL    HW232790   8.987   5.080  10.612
44256SOL     OW32791   8.487   4.822  10.006
44256SOL    HW132792   8.417   4.775  10.060
44256SOL    HW232793   8.546   4.754   9.963
44257SOL     OW32794   8.462   3.960  10.281
44257SOL    HW132795   8.454   3.924  10.188
44257SOL    HW232796   8.460   3.884  10.346
44258SOL     OW32797   8.038   5.211   9.801
44258SOL    HW132798   8.080   5.153   9.731
44258SOL    HW232799   7.994   5.290   9.757
44259SOL     OW32800   9.157   4.109  10.691
44259SOL    HW132801   9.230   4.178  10.695
44259SOL    HW232802   9.185   4.034  10.632
44260SOL     OW32803   7.703   5.072   9.600
44260SOL    HW132804   7.607   5.073   9.573
44260SOL    HW232805   7.715   5.125   9.684
44261SOL     OW32806   7.553   4.737  11.036
44261SOL    HW132807   7.476   4.704  11.090
44261SOL    HW232808   7.638   4.707  11.078
44262SOL     OW32809   8.120   3.927  10.799
44262SOL    HW132810   8.210   3.911  10.759
44262SOL    HW232811   8.128   3.932  10.898
44263SOL     OW32812   7.523   4.069   9.343
44263SOL    HW132813   7.431   4.041   9.314
44263SOL    HW232814   7.554   4.146   9.287
44264SOL     OW32815   8.888   4.580  10.708
44264SOL    HW132816   8.831   4.632  10.645
44264SOL    HW232817   8.984   4.592  10.684
44265SOL     OW32818   7.520   3.890   9.628
44265SOL    HW132819   7.503   3.973   9.574
44265SOL    HW232820   7.610   3.853   9.606
44266SOL     OW32821   8.631   5.059   9.429
44266SOL    HW132822   8.532   5.048   9.431
44266SOL    HW232823   8.665   5.074   9.522
44267SOL     OW32824   8.061   4.566  10.741
44267SOL    HW132825   8.117   4.647  10.724
44267SOL    HW232826   8.120   4.486  10.744
44268SOL     OW32827   8.941   5.491  10.269
44268SOL    HW132828   8.974   5.555  10.200
44268SOL    HW232829   9.007   5.485  10.344
44269SOL     OW32830   8.164   4.289  11.018
44269SOL    HW132831   8.183   4.354  11.092
44269SOL    HW232832   8.224   4.209  11.027
44270SOL     OW32833   8.898   4.944  10.943
44270SOL    HW132834   8.889   4.934  11.042
44270SOL    HW232835   8.994   4.937  10.917
44271SOL     OW32836   7.838   5.465  10.870
44271SOL    HW132837   7.747   5.506  10.868
44271SOL    HW232838   7.831   5.371  10.902
44272SOL     OW32839   9.122   4.607  10.564
44272SOL    HW132840   9.095   4.518  10.527
44272SOL    HW232841   9.123   4.675  10.491
44273SOL     OW32842   8.673   4.049   9.759
44273SOL    HW132843   8.738   3.975   9.748
44273SOL    HW232844   8.693   4.099   9.843
44274SOL     OW32845   8.042   4.469   9.962
44274SOL    HW132846   8.092   4.554   9.943
44274SOL    HW232847   7.954   4.471   9.914
44275SOL     OW32848   9.225   4.066  10.952
44275SOL    HW132849   9.208   4.097  10.858
44275SOL    HW232850   9.141   4.029  10.990
44276SOL     OW32851   9.178   4.658  10.827
44276SOL    HW132852   9.216   4.749  10.842
44276SOL    HW232853   9.170   4.641  10.728
44277SOL     OW32854   8.307   5.098   9.326
44277SOL    HW132855   8.261   5.113   9.414
44277SOL    HW232856   8.351   5.183   9.296
44278SOL     OW32857   8.109   5.514  10.263
44278SOL    HW132858   8.063   5.602  10.250
44278SOL    HW232859   8.208   5.526  10.256
44279SOL     OW32860   8.307   4.680  10.171
44279SOL    HW132861   8.361   4.611  10.219
44279SOL    HW232862   8.275   4.749  10.237
44280SOL     OW32863   8.531   4.708   9.397
44280SOL    HW132864   8.508   4.761   9.315
44280SOL    HW232865   8.612   4.652   9.378
44281SOL     OW32866   9.309   5.293  10.161
44281SOL    HW132867   9.238   5.281  10.091
44281SOL    HW232868   9.310   5.214  10.221
44282SOL     OW32869   7.669   5.038  11.154
44282SOL    HW132870   7.604   4.965  11.133
44282SOL    HW232871   7.673   5.052  11.252
44283SOL     OW32872   7.527   4.964   9.963
44283SOL    HW132873   7.526   4.917  10.051
44283SOL    HW232874   7.609   4.936   9.912
44284SOL     OW32875   8.120   5.115  10.934
44284SOL    HW132876   8.042   5.065  10.972
44284SOL    HW232877   8.117   5.210  10.965
44285SOL     OW32878   9.272   3.916  10.537
44285SOL    HW132879   9.268   3.826  10.581
44285SOL    HW232880   9.275   3.905  10.438
44286SOL     OW32881   7.876   4.148   9.830
44286SOL    HW132882   7.906   4.076   9.768
44286SOL    HW232883   7.837   4.108   9.913
44287SOL     OW32884   9.153   5.211  10.414
44287SOL    HW132885   9.060   5.186  10.387
44287SOL    HW232886   9.179   5.161  10.496
44288SOL     OW32887   7.765   4.271  10.590
44288SOL    HW132888   7.803   4.212  10.662
44288SOL    HW232889   7.805   4.245  10.502
44289SOL     OW32890   8.260   5.310   9.997
44289SOL    HW132891   8.292   5.320   9.903
44289SOL    HW232892   8.181   5.248   9.999
44290SOL     OW32893   8.872   3.938  10.422
44290SOL    HW132894   8.924   3.873  10.477
44290SOL    HW232895   8.823   4.001  10.483
44291SOL     OW32896   8.449   3.758  10.464
44291SOL    HW132897   8.386   3.686  10.433
44291SOL    HW232898   8.542   3.722  10.464
44292SOL     OW32899   8.218   5.054   9.611
44292SOL    HW132900   8.172   4.967   9.628
44292SOL    HW232901   8.309   5.051   9.652
44293SOL     OW32902   8.066   5.291  10.594
44293SOL    HW132903   8.061   5.373  10.651
44293SOL    HW232904   8.155   5.288  10.549
44294SOL     OW32905   8.800   3.776   9.478
44294SOL    HW132906   8.835   3.735   9.394
44294SOL    HW232907   8.710   3.738   9.498
44295SOL     OW32908   8.748   4.177  10.001
44295SOL    HW132909   8.689   4.257  10.005
44295SOL    HW232910   8.763   4.142  10.094
44296SOL     OW32911   9.041   3.945  10.192
44296SOL    HW132912   8.957   3.944  10.246
44296SOL    HW232913   9.043   4.028  10.136
44297SOL     OW32914   7.487   4.801   9.610
44297SOL    HW132915   7.586   4.790   9.601
44297SOL    HW232916   7.447   4.715   9.642
44298SOL     OW32917   8.323   5.370   9.647
44298SOL    HW132918   8.246   5.335   9.593
44298SOL    HW232919   8.291   5.441   9.709
44299SOL     OW32920   7.678   4.352  11.285
44299SOL    HW132921   7.585   4.350  11.322
44299SOL    HW232922   7.679   4.313  11.193
44300SOL     OW32923   7.673   3.999  12.168
44300SOL    HW132924   7.708   3.982  12.260
44300SOL    HW232925   7.585   3.954  12.156
44301SOL     OW32926   7.467   4.092  11.819
44301SOL    HW132927   7.385   4.135  11.858
44301SOL    HW232928   7.439   4.019  11.756
44302SOL     OW32929   8.017   4.999  12.337
44302SOL    HW132930   7.924   4.992  12.300
44302SOL    HW232931   8.028   5.088  12.381
44303SOL     OW32932   9.003   5.235  11.875
44303SOL    HW132933   8.946   5.219  11.956
44303SOL    HW232934   8.944   5.245  11.795
44304SOL     OW32935   8.583   4.427  11.889
44304SOL    HW132936   8.640   4.505  11.864
44304SOL    HW232937   8.523   4.453  11.965
44305SOL     OW32938   9.203   4.331  11.403
44305SOL    HW132939   9.191   4.318  11.304
44305SOL    HW232940   9.173   4.250  11.452
44306SOL     OW32941   8.216   4.868  12.195
44306SOL    HW132942   8.138   4.885  12.255
44306SOL    HW232943   8.250   4.955  12.159
44307SOL     OW32944   8.133   4.736  11.837
44307SOL    HW132945   8.202   4.720  11.907
44307SOL    HW232946   8.060   4.793  11.875
44308SOL     OW32947   7.783   5.159  12.233
44308SOL    HW132948   7.705   5.128  12.180
44308SOL    HW232949   7.841   5.217  12.176
44309SOL     OW32950   8.908   5.229  12.511
44309SOL    HW132951   8.932   5.323  12.537
44309SOL    HW232952   8.892   5.175  12.593
44310SOL     OW32953   7.886   4.116  12.671
44310SOL    HW132954   7.968   4.060  12.680
44310SOL    HW232955   7.805   4.058  12.675
44311SOL     OW32956   9.051   4.171  11.909
44311SOL    HW132957   8.977   4.217  11.859
44311SOL    HW232958   9.102   4.239  11.962
44312SOL     OW32959   7.679   5.437  11.655
44312SOL    HW132960   7.713   5.514  11.709
44312SOL    HW232961   7.723   5.437  11.565
44313SOL     OW32962   7.678   5.158  11.710
44313SOL    HW132963   7.652   5.254  11.710
44313SOL    HW232964   7.607   5.104  11.755
44314SOL     OW32965   7.688   4.815  12.058
44314SOL    HW132966   7.702   4.731  12.110
44314SOL    HW232967   7.633   4.879  12.113
44315SOL     OW32968   8.068   5.510  12.611
44315SOL    HW132969   7.976   5.493  12.646
44315SOL    HW232970   8.096   5.602  12.637
44316SOL     OW32971   8.054   4.688  11.295
44316SOL    HW132972   8.061   4.772  11.241
44316SOL    HW232973   8.100   4.701  11.383
44317SOL     OW32974   9.042   3.838  12.652
44317SOL    HW132975   9.024   3.905  12.580
44317SOL    HW232976   9.039   3.884  12.741
44318SOL     OW32977   7.570   4.367  11.735
44318SOL    HW132978   7.525   4.279  11.752
44318SOL    HW232979   7.569   4.421  11.819
44319SOL     OW32980   9.290   5.491  11.531
44319SOL    HW132981   9.344   5.462  11.611
44319SOL    HW232982   9.320   5.581  11.502
44320SOL     OW32983   7.475   5.320  11.289
44320SOL    HW132984   7.456   5.224  11.310
44320SOL    HW232985   7.442   5.378  11.364
44321SOL     OW32986   9.137   4.646  11.784
44321SOL    HW132987   9.232   4.617  11.792
44321SOL    HW232988   9.129   4.711  11.709
44322SOL     OW32989   9.089   4.832  11.604
44322SOL    HW132990   9.175   4.834  11.552
44322SOL    HW232991   9.103   4.879  11.692
44323SOL     OW32992   7.561   4.461  12.769
44323SOL    HW132993   7.649   4.448  12.814
44323SOL    HW232994   7.548   4.558  12.747
44324SOL     OW32995   8.061   5.089  11.898
44324SOL    HW132996   8.012   5.002  11.907
44324SOL    HW232997   8.038   5.132  11.811
44325SOL     OW32998   8.741   4.952  12.595
44325SOL    HW132999   8.778   4.879  12.537
44325SOL    HW233000   8.793   4.957  12.680
44326SOL     OW33001   8.257   3.728  11.674
44326SOL    HW133002   8.297   3.819  11.665
44326SOL    HW233003   8.157   3.736  11.680
44327SOL     OW33004   7.645   4.700  12.436
44327SOL    HW133005   7.734   4.655  12.422
44327SOL    HW233006   7.572   4.635  12.417
44328SOL     OW33007   8.973   4.723  11.362
44328SOL    HW133008   8.910   4.647  11.375
44328SOL    HW233009   9.021   4.741  11.448
44329SOL     OW33010   8.914   5.141  12.125
44329SOL    HW133011   8.855   5.147  12.205
44329SOL    HW233012   8.899   5.053  12.079
44330SOL     OW33013   9.115   5.438  11.744
44330SOL    HW133014   9.074   5.415  11.656
44330SOL    HW233015   9.097   5.364  11.809
44331SOL     OW33016   8.046   4.453  11.442
44331SOL    HW133017   8.070   4.522  11.374
44331SOL    HW233018   7.968   4.486  11.496
44332SOL     OW33019   8.729   4.069  12.116
44332SOL    HW133020   8.643   4.019  12.103
44332SOL    HW233021   8.791   4.015  12.172
44333SOL     OW33022   9.024   5.386  11.479
44333SOL    HW133023   9.113   5.432  11.482
44333SOL    HW233024   9.003   5.362  11.384
44334SOL     OW33025   8.255   4.329  12.637
44334SOL    HW133026   8.208   4.326  12.726
44334SOL    HW233027   8.204   4.274  12.571
44335SOL     OW33028   8.421   4.614  12.744
44335SOL    HW133029   8.467   4.530  12.715
44335SOL    HW233030   8.365   4.648  12.669
44336SOL     OW33031   8.439   4.134  12.414
44336SOL    HW133032   8.362   4.168  12.468
44336SOL    HW233033   8.405   4.083  12.335
44337SOL     OW33034   8.489   4.425  11.601
44337SOL    HW133035   8.515   4.421  11.697
44337SOL    HW233036   8.404   4.374  11.587
44338SOL     OW33037   7.524   4.535  11.961
44338SOL    HW133038   7.623   4.523  11.970
44338SOL    HW233039   7.500   4.630  11.982
44339SOL     OW33040   7.578   5.545  12.743
44339SOL    HW133041   7.568   5.530  12.842
44339SOL    HW233042   7.492   5.581  12.707
44340SOL     OW33043   8.313   4.072  11.367
44340SOL    HW133044   8.372   4.135  11.318
44340SOL    HW233045   8.332   3.978  11.338
44341SOL     OW33046   8.810   4.868  11.717
44341SOL    HW133047   8.893   4.839  11.669
44341SOL    HW233048   8.761   4.935  11.661
44342SOL     OW33049   7.998   3.920  12.057
44342SOL    HW133050   7.993   3.915  12.157
44342SOL    HW233051   8.000   4.016  12.028
44343SOL     OW33052   8.456   5.180  11.649
44343SOL    HW133053   8.410   5.252  11.597
44343SOL    HW233054   8.452   5.200  11.747
44344SOL     OW33055   7.799   5.525  12.025
44344SOL    HW133056   7.849   5.439  12.031
44344SOL    HW233057   7.864   5.602  12.022
44345SOL     OW33058   9.243   4.790  12.045
44345SOL    HW133059   9.181   4.775  11.969
44345SOL    HW233060   9.191   4.801  12.130
44346SOL     OW33061   8.675   5.274  12.678
44346SOL    HW133062   8.681   5.197  12.742
44346SOL    HW233063   8.623   5.248  12.598
44347SOL     OW33064   7.769   4.667  11.414
44347SOL    HW133065   7.851   4.706  11.372
44347SOL    HW233066   7.742   4.585  11.365
44348SOL     OW33067   8.906   4.459  11.900
44348SOL    HW133068   8.901   4.394  11.975
44348SOL    HW233069   8.986   4.518  11.913
44349SOL     OW33070   8.559   5.500  11.409
44349SOL    HW133071   8.499   5.438  11.459
44349SOL    HW233072   8.590   5.456  11.324
44350SOL     OW33073   7.650   4.009  12.670
44350SOL    HW133074   7.570   4.069  12.657
44350SOL    HW233075   7.640   3.960  12.756
44351SOL     OW33076   9.080   5.101  11.253
44351SOL    HW133077   9.048   5.195  11.243
44351SOL    HW233078   9.004   5.038  11.241
44352SOL     OW33079   7.912   5.467  11.495
44352SOL    HW133080   7.945   5.506  11.581
44352SOL    HW233081   7.988   5.460  11.430
44353SOL     OW33082   8.848   3.831  11.598
44353SOL    HW133083   8.824   3.794  11.508
44353SOL    HW233084   8.947   3.847  11.602
44354SOL     OW33085   7.697   5.509  12.413
44354SOL    HW133086   7.754   5.444  12.463
44354SOL    HW233087   7.681   5.476  12.320
44355SOL     OW33088   8.388   5.422  12.076
44355SOL    HW133089   8.468   5.365  12.097
44355SOL    HW233090   8.339   5.382  11.999
44356SOL     OW33091   7.830   4.424  11.652
44356SOL    HW133092   7.875   4.334  11.649
44356SOL    HW233093   7.736   4.413  11.685
44357SOL     OW33094   8.062   3.846  11.289
44357SOL    HW133095   8.160   3.824  11.296
44357SOL    HW233096   8.031   3.829  11.196
44358SOL     OW33097   8.336   5.238  12.367
44358SOL    HW133098   8.313   5.213  12.273
44358SOL    HW233099   8.397   5.169  12.406
44359SOL     OW33100   8.799   4.314  12.605
44359SOL    HW133101   8.827   4.271  12.690
44359SOL    HW233102   8.824   4.410  12.606
44360SOL     OW33103   8.251   5.126  12.096
44360SOL    HW133104   8.341   5.140  12.054
44360SOL    HW233105   8.180   5.128  12.025
44361SOL     OW33106   8.370   4.227  12.071
44361SOL    HW133107   8.345   4.218  11.975
44361SOL    HW233108   8.418   4.145  12.102
44362SOL     OW33109   7.987   3.788  11.684
44362SOL    HW133110   7.906   3.789  11.742
44362SOL    HW233111   7.990   3.871  11.629
44363SOL     OW33112   8.882   4.912  11.213
44363SOL    HW133113   8.914   4.836  11.270
44363SOL    HW233114   8.790   4.939  11.243
44364SOL     OW33115   7.745   3.759  11.343
44364SOL    HW133116   7.794   3.843  11.322
44364SOL    HW233117   7.807   3.694  11.388
44365SOL     OW33118   8.383   3.960  11.652
44365SOL    HW133119   8.335   4.001  11.574
44365SOL    HW233120   8.482   3.958  11.633
44366SOL     OW33121   8.524   4.407  12.636
44366SOL    HW133122   8.444   4.346  12.639
44366SOL    HW233123   8.605   4.354  12.612
44367SOL     OW33124   8.675   5.294  11.965
44367SOL    HW133125   8.696   5.368  11.900
44367SOL    HW233126   8.743   5.294  12.038
44368SOL     OW33127   7.907   4.876  11.913
44368SOL    HW133128   7.836   4.849  11.978
44368SOL    HW233129   7.881   4.848  11.820
44369SOL     OW33130   8.719   5.521  11.763
44369SOL    HW133131   8.763   5.585  11.699
44369SOL    HW233132   8.669   5.573  11.833
44370SOL     OW33133   8.480   4.273  11.188
44370SOL    HW133134   8.439   4.355  11.149
44370SOL    HW233135   8.544   4.299  11.261
44371SOL     OW33136   7.526   4.280  12.558
44371SOL    HW133137   7.618   4.279  12.517
44371SOL    HW233138   7.520   4.354  12.625
44372SOL     OW33139   8.009   3.946  12.319
44372SOL    HW133140   8.047   3.862  12.356
44372SOL    HW233141   7.921   3.965  12.363
44373SOL     OW33142   8.314   4.178  11.814
44373SOL    HW133143   8.282   4.250  11.752
44373SOL    HW233144   8.338   4.097  11.761
44374SOL     OW33145   8.465   3.763  11.925
44374SOL    HW133146   8.393   3.768  11.856
44374SOL    HW233147   8.441   3.694  11.994
44375SOL     OW33148   8.877   4.897  12.039
44375SOL    HW133149   8.822   4.813  12.032
44375SOL    HW233150   8.903   4.926  11.947
44376SOL     OW33151   8.914   4.314  12.164
44376SOL    HW133152   8.884   4.219  12.171
44376SOL    HW233153   8.987   4.330  12.230
44377SOL     OW33154   9.305   4.557  11.549
44377SOL    HW133155   9.347   4.493  11.613
44377SOL    HW233156   9.267   4.506  11.471
44378SOL     OW33157   7.936   5.109  11.346
44378SOL    HW133158   7.849   5.094  11.393
44378SOL    HW233159   7.919   5.135  11.251
44379SOL     OW33160   9.112   5.004  11.829
44379SOL    HW133161   9.211   5.012  11.843
44379SOL    HW233162   9.067   5.088  11.860
44380SOL     OW33163   8.838   4.299  11.250
44380SOL    HW133164   8.784   4.278  11.331
44380SOL    HW233165   8.929   4.258  11.259
44381SOL     OW33166   7.975   3.980  11.500
44381SOL    HW133167   8.002   3.921  11.425
44381SOL    HW233168   7.975   4.075  11.469
44382SOL     OW33169   9.202   4.947  12.760
44382SOL    HW133170   9.293   4.908  12.747
44382SOL    HW233171   9.210   5.043  12.784
44383SOL     OW33172   8.512   5.071  12.512
44383SOL    HW133173   8.432   5.048  12.567
44383SOL    HW233174   8.595   5.045  12.561
44384SOL     OW33175   8.559   4.919  12.272
44384SOL    HW133176   8.519   4.963  12.353
44384SOL    HW233177   8.518   4.956  12.189
44385SOL     OW33178   9.086   4.823  12.251
44385SOL    HW133179   9.091   4.904  12.310
44385SOL    HW233180   9.000   4.825  12.200
44386SOL     OW33181   8.363   3.813  12.574
44386SOL    HW133182   8.388   3.793  12.479
44386SOL    HW233183   8.435   3.869  12.616
44387SOL     OW33184   8.153   4.774  11.540
44387SOL    HW133185   8.139   4.781  11.639
44387SOL    HW233186   8.237   4.723  11.522
44388SOL     OW33187   7.858   4.537  12.423
44388SOL    HW133188   7.944   4.549  12.473
44388SOL    HW233189   7.816   4.450  12.450
44389SOL     OW33190   8.722   4.110  12.434
44389SOL    HW133191   8.743   4.184  12.498
44389SOL    HW233192   8.633   4.127  12.391
44390SOL     OW33193   7.512   5.288  12.503
44390SOL    HW133194   7.466   5.370  12.469
44390SOL    HW233195   7.610   5.307  12.512
44391SOL     OW33196   7.815   4.824  11.673
44391SOL    HW133197   7.808   4.907  11.617
44391SOL    HW233198   7.819   4.744  11.613
44392SOL     OW33199   8.014   4.261  12.037
44392SOL    HW133200   8.026   4.327  11.963
44392SOL    HW233201   8.060   4.295  12.120
44393SOL     OW33202   8.700   5.072  11.560
44393SOL    HW133203   8.750   5.149  11.600
44393SOL    HW233204   8.605   5.074  11.592
44394SOL     OW33205   8.720   5.169  12.314
44394SOL    HW133206   8.767   5.182  12.401
44394SOL    HW233207   8.654   5.095  12.323
44395SOL     OW33208   9.030   4.363  11.644
44395SOL    HW133209   8.999   4.424  11.717
44395SOL    HW233210   9.080   4.415  11.575
44396SOL     OW33211   7.802   5.234  12.501
44396SOL    HW133212   7.781   5.190  12.414
44396SOL    HW233213   7.899   5.260  12.504
44397SOL     OW33214   7.850   4.475  12.770
44397SOL    HW133215   7.918   4.530  12.723
44397SOL    HW233216   7.890   4.387  12.797
44398SOL     OW33217   9.035   4.503  12.842
44398SOL    HW133218   8.943   4.541  12.837
44398SOL    HW233219   9.095   4.550  12.777
44399SOL     OW33220   8.021   4.594  12.201
44399SOL    HW133221   8.065   4.683  12.192
44399SOL    HW233222   7.958   4.594  12.278
44400SOL     OW33223   8.808   4.586  12.217
44400SOL    HW133224   8.733   4.586  12.151
44400SOL    HW233225   8.845   4.494  12.226
44401SOL     OW33226   8.657   4.249  11.447
44401SOL    HW133227   8.670   4.165  11.501
44401SOL    HW233228   8.628   4.323  11.507
44402SOL     OW33229   7.755   3.937  12.403
44402SOL    HW133230   7.732   3.974  12.493
44402SOL    HW233231   7.725   3.842  12.397
44403SOL     OW33232   7.485   5.034  12.454
44403SOL    HW133233   7.538   4.985  12.522
44403SOL    HW233234   7.507   5.132  12.459
44404SOL     OW33235   8.180   4.358  12.236
44404SOL    HW133236   8.239   4.332  12.160
44404SOL    HW233237   8.152   4.454  12.225
44405SOL     OW33238   7.755   3.787  11.790
44405SOL    HW133239   7.744   3.881  11.823
44405SOL    HW233240   7.750   3.724  11.867
44406SOL     OW33241   9.070   4.091  11.546
44406SOL    HW133242   9.072   4.015  11.610
44406SOL    HW233243   9.022   4.168  11.586
44407SOL     OW33244   8.471   4.490  12.138
44407SOL    HW133245   8.486   4.511  12.234
44407SOL    HW233246   8.441   4.395  12.129
44408SOL     OW33247   8.988   3.998  11.297
44408SOL    HW133248   8.927   3.923  11.320
44408SOL    HW233249   9.010   4.050  11.380
44409SOL     OW33250   8.751   4.562  11.214
44409SOL    HW133251   8.785   4.469  11.229
44409SOL    HW233252   8.769   4.589  11.119
44410SOL     OW33253   8.516   5.057  12.021
44410SOL    HW133254   8.523   4.973  11.966
44410SOL    HW233255   8.578   5.126  11.985
44411SOL     OW33256   7.767   4.534  12.121
44411SOL    HW133257   7.860   4.570  12.126
44411SOL    HW233258   7.761   4.449  12.173
44412SOL     OW33259   7.787   4.233  12.178
44412SOL    HW133260   7.735   4.150  12.161
44412SOL    HW233261   7.864   4.238  12.114
44413SOL     OW33262   8.608   3.931  12.649
44413SOL    HW133263   8.608   3.995  12.726
44413SOL    HW233264   8.636   3.979  12.566
44414SOL     OW33265   7.456   5.050  11.372
44414SOL    HW133266   7.363   5.071  11.341
44414SOL    HW233267   7.466   4.951  11.385
44415SOL     OW33268   7.536   5.525  12.099
44415SOL    HW133269   7.494   5.439  12.072
44415SOL    HW233270   7.630   5.528  12.065
44416SOL     OW33271   7.952   5.292  12.082
44416SOL    HW133272   8.018   5.366  12.091
44416SOL    HW233273   7.996   5.213  12.040
44417SOL     OW33274   8.450   4.520  12.410
44417SOL    HW133275   8.491   4.488  12.496
44417SOL    HW233276   8.354   4.493  12.407
44418SOL     OW33277   7.488   4.268  12.286
44418SOL    HW133278   7.573   4.235  12.245
44418SOL    HW233279   7.501   4.283  12.384
44419SOL     OW33280   8.263   4.296  11.497
44419SOL    HW133281   8.270   4.207  11.451
44419SOL    HW233282   8.169   4.330  11.489
44420SOL     OW33283   9.105   4.328  12.378
44420SOL    HW133284   9.067   4.259  12.440
44420SOL    HW233285   9.187   4.292  12.334
44421SOL     OW33286   7.700   5.288  12.916
44421SOL    HW133287   7.670   5.345  12.992
44421SOL    HW233288   7.693   5.191  12.942
44422SOL     OW33289   8.119   4.188  12.441
44422SOL    HW133290   8.085   4.099  12.411
44422SOL    HW233291   8.145   4.242  12.361
44423SOL     OW33292   8.378   5.402  12.637
44423SOL    HW133293   8.354   5.384  12.542
44423SOL    HW233294   8.408   5.496  12.647
44424SOL     OW33295   7.921   4.224  11.363
44424SOL    HW133296   7.982   4.304  11.367
44424SOL    HW233297   7.826   4.255  11.370
44425SOL     OW33298   7.607   4.861  12.638
44425SOL    HW133299   7.629   4.800  12.714
44425SOL    HW233300   7.617   4.812  12.552
44426SOL     OW33301   8.795   4.783  12.406
44426SOL    HW133302   8.819   4.720  12.332
44426SOL    HW233303   8.705   4.823  12.388
44427SOL     OW33304   8.750   4.579  11.481
44427SOL    HW133305   8.664   4.548  11.523
44427SOL    HW233306   8.746   4.565  11.382
44428SOL     OW33307   9.207   5.471  12.326
44428SOL    HW133308   9.268   5.501  12.253
44428SOL    HW233309   9.169   5.382  12.304
44429SOL     OW33310   8.700   5.455  12.300
44429SOL    HW133311   8.784   5.460  12.246
44429SOL    HW233312   8.677   5.359  12.318
44430SOL     OW33313   7.531   4.982  12.194
44430SOL    HW133314   7.526   4.981  12.294
44430SOL    HW233315   7.448   4.941  12.156
44431SOL     OW33316   9.174   3.859  11.695
44431SOL    HW133317   9.247   3.842  11.628
44431SOL    HW233318   9.143   3.772  11.733
44432SOL     OW33319   8.836   5.297  11.649
44432SOL    HW133320   8.903   5.309  11.575
44432SOL    HW233321   8.796   5.386  11.672
44433SOL     OW33322   8.728   4.651  11.844
44433SOL    HW133323   8.788   4.570  11.846
44433SOL    HW233324   8.768   4.720  11.784
44434SOL     OW33325   8.278   4.997  12.594
44434SOL    HW133326   8.273   5.030  12.689
44434SOL    HW233327   8.192   5.016  12.548
44435SOL     OW33328   8.120   5.340  11.326
44435SOL    HW133329   8.129   5.350  11.227
44435SOL    HW233330   8.080   5.251  11.347
44436SOL     OW33331   9.098   5.444  12.566
44436SOL    HW133332   9.151   5.454  12.482
44436SOL    HW233333   9.071   5.534  12.600
44437SOL     OW33334   9.289   3.899  12.135
44437SOL    HW133335   9.328   3.814  12.099
44437SOL    HW233336   9.191   3.901  12.116
44438SOL     OW33337   7.711   4.050  11.892
44438SOL    HW133338   7.632   4.101  11.858
44438SOL    HW233339   7.702   4.035  11.990
44439SOL     OW33340   8.642   5.336  11.203
44439SOL    HW133341   8.648   5.243  11.240
44439SOL    HW233342   8.583   5.336  11.123
44440SOL     OW33343   8.270   4.726  12.544
44440SOL    HW133344   8.310   4.725  12.452
44440SOL    HW233345   8.280   4.818  12.584
44441SOL     OW33346   8.364   4.634  11.463
44441SOL    HW133347   8.427   4.672  11.395
44441SOL    HW233348   8.404   4.551  11.502
44442SOL     OW33349   8.952   5.331  11.216
44442SOL    HW133350   8.860   5.368  11.223
44442SOL    HW233351   8.990   5.351  11.126
44443SOL     OW33352   7.820   5.012  12.662
44443SOL    HW133353   7.807   5.105  12.628
44443SOL    HW233354   7.736   4.960  12.649
44444SOL     OW33355   9.062   5.016  12.461
44444SOL    HW133356   9.122   5.019  12.541
44444SOL    HW233357   8.987   5.080  12.474
44445SOL     OW33358   8.487   4.822  11.868
44445SOL    HW133359   8.417   4.775  11.922
44445SOL    HW233360   8.546   4.754  11.825
44446SOL     OW33361   8.462   3.960  12.143
44446SOL    HW133362   8.454   3.924  12.050
44446SOL    HW233363   8.460   3.884  12.208
44447SOL     OW33364   8.038   5.211  11.663
44447SOL    HW133365   8.080   5.153  11.593
44447SOL    HW233366   7.994   5.290  11.619
44448SOL     OW33367   9.157   4.109  12.553
44448SOL    HW133368   9.230   4.178  12.557
44448SOL    HW233369   9.185   4.034  12.494
44449SOL     OW33370   7.703   5.072  11.462
44449SOL    HW133371   7.607   5.073  11.435
44449SOL    HW233372   7.715   5.125  11.546
44450SOL     OW33373   7.553   4.737  12.898
44450SOL    HW133374   7.476   4.704  12.952
44450SOL    HW233375   7.638   4.707  12.940
44451SOL     OW33376   8.120   3.927  12.661
44451SOL    HW133377   8.210   3.911  12.621
44451SOL    HW233378   8.128   3.932  12.760
44452SOL     OW33379   7.523   4.069  11.205
44452SOL    HW133380   7.431   4.041  11.176
44452SOL    HW233381   7.554   4.146  11.149
44453SOL     OW33382   8.888   4.580  12.570
44453SOL    HW133383   8.831   4.632  12.507
44453SOL    HW233384   8.984   4.592  12.546
44454SOL     OW33385   7.520   3.890  11.490
44454SOL    HW133386   7.503   3.973  11.436
44454SOL    HW233387   7.610   3.853  11.468
44455SOL     OW33388   8.631   5.059  11.291
44455SOL    HW133389   8.532   5.048  11.293
44455SOL    HW233390   8.665   5.074  11.384
44456SOL     OW33391   8.061   4.566  12.603
44456SOL    HW133392   8.117   4.647  12.586
44456SOL    HW233393   8.120   4.486  12.606
44457SOL     OW33394   8.941   5.491  12.131
44457SOL    HW133395   8.974   5.555  12.062
44457SOL    HW233396   9.007   5.485  12.206
44458SOL     OW33397   8.164   4.289  12.880
44458SOL    HW133398   8.183   4.354  12.954
44458SOL    HW233399   8.224   4.209  12.889
44459SOL     OW33400   7.838   5.465  12.732
44459SOL    HW133401   7.747   5.506  12.730
44459SOL    HW233402   7.831   5.371  12.764
44460SOL     OW33403   9.122   4.607  12.426
44460SOL    HW133404   9.095   4.518  12.389
44460SOL    HW233405   9.123   4.675  12.353
44461SOL     OW33406   8.673   4.049  11.621
44461SOL    HW133407   8.738   3.975  11.610
44461SOL    HW233408   8.693   4.099  11.705
44462SOL     OW33409   8.042   4.469  11.824
44462SOL    HW133410   8.092   4.554  11.805
44462SOL    HW233411   7.954   4.471  11.776
44463SOL     OW33412   9.225   4.066  12.814
44463SOL    HW133413   9.208   4.097  12.720
44463SOL    HW233414   9.141   4.029  12.852
44464SOL     OW33415   9.178   4.658  12.689
44464SOL    HW133416   9.216   4.749  12.704
44464SOL    HW233417   9.170   4.641  12.590
44465SOL     OW33418   8.307   5.098  11.188
44465SOL    HW133419   8.261   5.113  11.276
44465SOL    HW233420   8.351   5.183  11.158
44466SOL     OW33421   8.109   5.514  12.125
44466SOL    HW133422   8.063   5.602  12.112
44466SOL    HW233423   8.208   5.526  12.118
44467SOL     OW33424   8.307   4.680  12.033
44467SOL    HW133425   8.361   4.611  12.081
44467SOL    HW233426   8.275   4.749  12.099
44468SOL     OW33427   8.531   4.708  11.259
44468SOL    HW133428   8.508   4.761  11.177
44468SOL    HW233429   8.612   4.652  11.240
44469SOL     OW33430   9.309   5.293  12.023
44469SOL    HW133431   9.238   5.281  11.953
44469SOL    HW233432   9.310   5.214  12.083
44470SOL     OW33433   7.527   4.964  11.825
44470SOL    HW133434   7.526   4.917  11.913
44470SOL    HW233435   7.609   4.936  11.774
44471SOL     OW33436   8.120   5.115  12.796
44471SOL    HW133437   8.042   5.065  12.834
44471SOL    HW233438   8.117   5.210  12.827
44472SOL     OW33439   9.272   3.916  12.399
44472SOL    HW133440   9.268   3.826  12.443
44472SOL    HW233441   9.275   3.905  12.300
44473SOL     OW33442   7.876   4.148  11.692
44473SOL    HW133443   7.906   4.076  11.630
44473SOL    HW233444   7.837   4.108  11.775
44474SOL     OW33445   9.153   5.211  12.276
44474SOL    HW133446   9.060   5.186  12.249
44474SOL    HW233447   9.179   5.161  12.358
44475SOL     OW33448   7.765   4.271  12.452
44475SOL    HW133449   7.803   4.212  12.524
44475SOL    HW233450   7.805   4.245  12.364
44476SOL     OW33451   8.260   5.310  11.859
44476SOL    HW133452   8.292   5.320  11.765
44476SOL    HW233453   8.181   5.248  11.861
44477SOL     OW33454   8.872   3.938  12.284
44477SOL    HW133455   8.924   3.873  12.339
44477SOL    HW233456   8.823   4.001  12.345
44478SOL     OW33457   8.449   3.758  12.326
44478SOL    HW133458   8.386   3.686  12.295
44478SOL    HW233459   8.542   3.722  12.326
44479SOL     OW33460   8.218   5.054  11.473
44479SOL    HW133461   8.172   4.967  11.490
44479SOL    HW233462   8.309   5.051  11.514
44480SOL     OW33463   8.066   5.291  12.456
44480SOL    HW133464   8.061   5.373  12.513
44480SOL    HW233465   8.155   5.288  12.411
44481SOL     OW33466   8.800   3.776  11.340
44481SOL    HW133467   8.835   3.735  11.256
44481SOL    HW233468   8.710   3.738  11.360
44482SOL     OW33469   8.748   4.177  11.863
44482SOL    HW133470   8.689   4.257  11.867
44482SOL    HW233471   8.763   4.142  11.956
44483SOL     OW33472   9.041   3.945  12.054
44483SOL    HW133473   8.957   3.944  12.108
44483SOL    HW233474   9.043   4.028  11.998
44484SOL     OW33475   7.487   4.801  11.472
44484SOL    HW133476   7.586   4.790  11.463
44484SOL    HW233477   7.447   4.715  11.504
44485SOL     OW33478   8.323   5.370  11.509
44485SOL    HW133479   8.246   5.335  11.455
44485SOL    HW233480   8.291   5.441  11.571
44486SOL     OW33481   7.678   6.214   0.113
44486SOL    HW133482   7.585   6.212   0.150
44486SOL    HW233483   7.679   6.175   0.021
44487SOL     OW33484   7.673   5.861   0.996
44487SOL    HW133485   7.708   5.844   1.088
44487SOL    HW233486   7.585   5.816   0.984
44488SOL     OW33487   7.467   5.954   0.647
44488SOL    HW133488   7.385   5.997   0.686
44488SOL    HW233489   7.439   5.881   0.584
44489SOL     OW33490   8.017   6.861   1.165
44489SOL    HW133491   7.924   6.854   1.128
44489SOL    HW233492   8.028   6.950   1.209
44490SOL     OW33493   9.003   7.097   0.703
44490SOL    HW133494   8.946   7.081   0.784
44490SOL    HW233495   8.944   7.107   0.623
44491SOL     OW33496   8.583   6.289   0.717
44491SOL    HW133497   8.640   6.367   0.692
44491SOL    HW233498   8.523   6.315   0.793
44492SOL     OW33499   9.203   6.193   0.231
44492SOL    HW133500   9.191   6.180   0.132
44492SOL    HW233501   9.173   6.112   0.280
44493SOL     OW33502   8.216   6.730   1.023
44493SOL    HW133503   8.138   6.747   1.083
44493SOL    HW233504   8.250   6.817   0.987
44494SOL     OW33505   8.298   6.384   1.823
44494SOL    HW133506   8.294   6.460   1.888
44494SOL    HW233507   8.320   6.420   1.732
44495SOL     OW33508   8.133   6.598   0.665
44495SOL    HW133509   8.202   6.582   0.735
44495SOL    HW233510   8.060   6.655   0.703
44496SOL     OW33511   8.134   6.747   1.803
44496SOL    HW133512   8.194   6.826   1.817
44496SOL    HW233513   8.048   6.778   1.762
44497SOL     OW33514   7.783   7.021   1.061
44497SOL    HW133515   7.705   6.990   1.008
44497SOL    HW233516   7.841   7.079   1.004
44498SOL     OW33517   8.908   7.091   1.339
44498SOL    HW133518   8.932   7.185   1.365
44498SOL    HW233519   8.892   7.037   1.421
44499SOL     OW33520   7.886   5.978   1.499
44499SOL    HW133521   7.968   5.922   1.508
44499SOL    HW233522   7.805   5.920   1.503
44500SOL     OW33523   9.051   6.033   0.737
44500SOL    HW133524   8.977   6.079   0.687
44500SOL    HW233525   9.102   6.101   0.790
44501SOL     OW33526   7.679   7.299   0.483
44501SOL    HW133527   7.713   7.376   0.537
44501SOL    HW233528   7.723   7.299   0.393
44502SOL     OW33529   8.575   6.927   1.690
44502SOL    HW133530   8.622   6.927   1.778
44502SOL    HW233531   8.527   6.840   1.679
44503SOL     OW33532   7.678   7.020   0.538
44503SOL    HW133533   7.652   7.116   0.538
44503SOL    HW233534   7.607   6.966   0.583
44504SOL     OW33535   7.688   6.677   0.886
44504SOL    HW133536   7.702   6.593   0.938
44504SOL    HW233537   7.633   6.741   0.941
44505SOL     OW33538   8.068   7.372   1.439
44505SOL    HW133539   7.976   7.355   1.474
44505SOL    HW233540   8.096   7.464   1.465
44506SOL     OW33541   8.054   6.550   0.123
44506SOL    HW133542   8.061   6.634   0.069
44506SOL    HW233543   8.100   6.563   0.211
44507SOL     OW33544   9.042   5.700   1.480
44507SOL    HW133545   9.024   5.767   1.408
44507SOL    HW233546   9.039   5.746   1.569
44508SOL     OW33547   7.570   6.229   0.563
44508SOL    HW133548   7.525   6.141   0.580
44508SOL    HW233549   7.569   6.283   0.647
44509SOL     OW33550   9.290   7.353   0.359
44509SOL    HW133551   9.344   7.324   0.439
44509SOL    HW233552   9.320   7.443   0.330
44510SOL     OW33553   7.475   7.182   0.117
44510SOL    HW133554   7.456   7.086   0.138
44510SOL    HW233555   7.442   7.240   0.192
44511SOL     OW33556   9.137   6.508   0.612
44511SOL    HW133557   9.232   6.479   0.620
44511SOL    HW233558   9.129   6.573   0.537
44512SOL     OW33559   9.089   6.694   0.432
44512SOL    HW133560   9.175   6.696   0.380
44512SOL    HW233561   9.103   6.741   0.520
44513SOL     OW33562   7.561   6.323   1.597
44513SOL    HW133563   7.649   6.310   1.642
44513SOL    HW233564   7.548   6.420   1.575
44514SOL     OW33565   8.061   6.951   0.726
44514SOL    HW133566   8.012   6.864   0.735
44514SOL    HW233567   8.038   6.994   0.639
44515SOL     OW33568   8.741   6.814   1.423
44515SOL    HW133569   8.778   6.741   1.365
44515SOL    HW233570   8.793   6.819   1.508
44516SOL     OW33571   8.257   5.590   0.502
44516SOL    HW133572   8.297   5.681   0.493
44516SOL    HW233573   8.157   5.598   0.508
44517SOL     OW33574   7.645   6.562   1.264
44517SOL    HW133575   7.734   6.517   1.250
44517SOL    HW233576   7.572   6.497   1.245
44518SOL     OW33577   8.973   6.585   0.190
44518SOL    HW133578   8.910   6.509   0.203
44518SOL    HW233579   9.021   6.603   0.276
44519SOL     OW33580   8.635   7.378   1.616
44519SOL    HW133581   8.659   7.438   1.540
44519SOL    HW233582   8.642   7.283   1.586
44520SOL     OW33583   7.765   5.837   1.801
44520SOL    HW133584   7.836   5.908   1.807
44520SOL    HW233585   7.677   5.876   1.829
44521SOL     OW33586   8.914   7.003   0.953
44521SOL    HW133587   8.855   7.009   1.033
44521SOL    HW233588   8.899   6.915   0.907
44522SOL     OW33589   9.115   7.300   0.572
44522SOL    HW133590   9.074   7.277   0.484
44522SOL    HW233591   9.097   7.226   0.637
44523SOL     OW33592   8.046   6.315   0.270
44523SOL    HW133593   8.070   6.384   0.202
44523SOL    HW233594   7.968   6.348   0.324
44524SOL     OW33595   8.729   5.931   0.944
44524SOL    HW133596   8.643   5.881   0.931
44524SOL    HW233597   8.791   5.877   1.000
44525SOL     OW33598   9.024   7.248   0.307
44525SOL    HW133599   9.113   7.294   0.310
44525SOL    HW233600   9.003   7.224   0.212
44526SOL     OW33601   8.255   6.191   1.465
44526SOL    HW133602   8.208   6.188   1.554
44526SOL    HW233603   8.204   6.136   1.399
44527SOL     OW33604   8.842   6.055   1.674
44527SOL    HW133605   8.822   6.098   1.762
44527SOL    HW233606   8.920   5.993   1.683
44528SOL     OW33607   8.421   6.476   1.572
44528SOL    HW133608   8.467   6.392   1.543
44528SOL    HW233609   8.365   6.510   1.497
44529SOL     OW33610   8.439   5.996   1.242
44529SOL    HW133611   8.362   6.030   1.296
44529SOL    HW233612   8.405   5.945   1.163
44530SOL     OW33613   8.489   6.287   0.429
44530SOL    HW133614   8.515   6.283   0.525
44530SOL    HW233615   8.404   6.236   0.415
44531SOL     OW33616   7.524   6.397   0.789
44531SOL    HW133617   7.623   6.385   0.798
44531SOL    HW233618   7.500   6.492   0.810
44532SOL     OW33619   7.578   7.407   1.571
44532SOL    HW133620   7.568   7.392   1.670
44532SOL    HW233621   7.492   7.443   1.535
44533SOL     OW33622   8.313   5.934   0.195
44533SOL    HW133623   8.372   5.997   0.146
44533SOL    HW233624   8.332   5.840   0.166
44534SOL     OW33625   9.167   6.171   1.831
44534SOL    HW133626   9.141   6.260   1.795
44534SOL    HW233627   9.165   6.103   1.758
44535SOL     OW33628   8.810   6.730   0.545
44535SOL    HW133629   8.893   6.701   0.497
44535SOL    HW233630   8.761   6.797   0.489
44536SOL     OW33631   7.998   5.782   0.885
44536SOL    HW133632   7.993   5.777   0.985
44536SOL    HW233633   8.000   5.878   0.856
44537SOL     OW33634   8.456   7.042   0.477
44537SOL    HW133635   8.410   7.114   0.425
44537SOL    HW233636   8.452   7.062   0.575
44538SOL     OW33637   7.799   7.387   0.853
44538SOL    HW133638   7.849   7.301   0.859
44538SOL    HW233639   7.864   7.464   0.850
44539SOL     OW33640   9.243   6.652   0.873
44539SOL    HW133641   9.181   6.637   0.797
44539SOL    HW233642   9.191   6.663   0.958
44540SOL     OW33643   8.675   7.136   1.506
44540SOL    HW133644   8.681   7.059   1.570
44540SOL    HW233645   8.623   7.110   1.426
44541SOL     OW33646   7.769   6.529   0.242
44541SOL    HW133647   7.851   6.568   0.200
44541SOL    HW233648   7.742   6.447   0.193
44542SOL     OW33649   8.906   6.321   0.728
44542SOL    HW133650   8.901   6.256   0.803
44542SOL    HW233651   8.986   6.380   0.741
44543SOL     OW33652   7.909   6.852   1.727
44543SOL    HW133653   7.859   6.853   1.641
44543SOL    HW233654   7.846   6.834   1.803
44544SOL     OW33655   8.559   7.362   0.237
44544SOL    HW133656   8.499   7.300   0.287
44544SOL    HW233657   8.590   7.318   0.152
44545SOL     OW33658   7.650   5.871   1.498
44545SOL    HW133659   7.570   5.931   1.485
44545SOL    HW233660   7.640   5.822   1.584
44546SOL     OW33661   9.080   6.963   0.081
44546SOL    HW133662   9.048   7.057   0.071
44546SOL    HW233663   9.004   6.900   0.069
44547SOL     OW33664   7.912   7.329   0.323
44547SOL    HW133665   7.945   7.368   0.409
44547SOL    HW233666   7.988   7.322   0.258
44548SOL     OW33667   8.848   5.693   0.426
44548SOL    HW133668   8.824   5.656   0.336
44548SOL    HW233669   8.947   5.709   0.430
44549SOL     OW33670   7.697   7.371   1.241
44549SOL    HW133671   7.754   7.306   1.291
44549SOL    HW233672   7.681   7.338   1.148
44550SOL     OW33673   8.388   7.284   0.904
44550SOL    HW133674   8.468   7.227   0.925
44550SOL    HW233675   8.339   7.244   0.827
44551SOL     OW33676   7.830   6.286   0.480
44551SOL    HW133677   7.875   6.196   0.477
44551SOL    HW233678   7.736   6.275   0.513
44552SOL     OW33679   8.995   5.808   1.729
44552SOL    HW133680   8.990   5.845   1.821
44552SOL    HW233681   8.923   5.739   1.717
44553SOL     OW33682   8.062   5.708   0.117
44553SOL    HW133683   8.160   5.686   0.124
44553SOL    HW233684   8.031   5.691   0.024
44554SOL     OW33685   8.229   5.850   1.749
44554SOL    HW133686   8.296   5.789   1.792
44554SOL    HW233687   8.156   5.869   1.814
44555SOL     OW33688   8.336   7.100   1.195
44555SOL    HW133689   8.313   7.075   1.101
44555SOL    HW233690   8.397   7.031   1.234
44556SOL     OW33691   8.799   6.176   1.433
44556SOL    HW133692   8.827   6.133   1.518
44556SOL    HW233693   8.824   6.272   1.434
44557SOL     OW33694   8.251   6.988   0.924
44557SOL    HW133695   8.341   7.002   0.882
44557SOL    HW233696   8.180   6.990   0.853
44558SOL     OW33697   8.370   6.089   0.899
44558SOL    HW133698   8.345   6.080   0.803
44558SOL    HW233699   8.418   6.007   0.930
44559SOL     OW33700   7.987   5.650   0.512
44559SOL    HW133701   7.906   5.651   0.570
44559SOL    HW233702   7.990   5.733   0.457
44560SOL     OW33703   8.882   6.774   0.041
44560SOL    HW133704   8.914   6.698   0.098
44560SOL    HW233705   8.790   6.801   0.071
44561SOL     OW33706   7.745   5.621   0.171
44561SOL    HW133707   7.794   5.705   0.150
44561SOL    HW233708   7.807   5.556   0.216
44562SOL     OW33709   8.383   5.822   0.480
44562SOL    HW133710   8.335   5.863   0.402
44562SOL    HW233711   8.482   5.820   0.461
44563SOL     OW33712   8.524   6.269   1.464
44563SOL    HW133713   8.444   6.208   1.467
44563SOL    HW233714   8.605   6.216   1.440
44564SOL     OW33715   8.675   7.156   0.793
44564SOL    HW133716   8.696   7.230   0.728
44564SOL    HW233717   8.743   7.156   0.866
44565SOL     OW33718   7.907   6.738   0.741
44565SOL    HW133719   7.836   6.711   0.806
44565SOL    HW233720   7.881   6.710   0.648
44566SOL     OW33721   8.719   7.383   0.591
44566SOL    HW133722   8.763   7.447   0.527
44566SOL    HW233723   8.669   7.435   0.661
44567SOL     OW33724   8.480   6.135   0.016
44567SOL    HW133725   8.439   6.217  -0.023
44567SOL    HW233726   8.544   6.161   0.089
44568SOL     OW33727   7.526   6.142   1.386
44568SOL    HW133728   7.618   6.141   1.345
44568SOL    HW233729   7.520   6.216   1.453
44569SOL     OW33730   8.009   5.808   1.147
44569SOL    HW133731   8.047   5.724   1.184
44569SOL    HW233732   7.921   5.827   1.191
44570SOL     OW33733   8.314   6.040   0.642
44570SOL    HW133734   8.282   6.112   0.580
44570SOL    HW233735   8.338   5.959   0.589
44571SOL     OW33736   8.465   5.625   0.753
44571SOL    HW133737   8.393   5.630   0.684
44571SOL    HW233738   8.441   5.556   0.822
44572SOL     OW33739   8.877   6.759   0.867
44572SOL    HW133740   8.822   6.675   0.860
44572SOL    HW233741   8.903   6.788   0.775
44573SOL     OW33742   8.914   6.176   0.992
44573SOL    HW133743   8.884   6.081   0.999
44573SOL    HW233744   8.987   6.192   1.058
44574SOL     OW33745   9.305   6.419   0.377
44574SOL    HW133746   9.347   6.355   0.441
44574SOL    HW233747   9.267   6.368   0.299
44575SOL     OW33748   7.936   6.971   0.174
44575SOL    HW133749   7.849   6.956   0.221
44575SOL    HW233750   7.919   6.997   0.079
44576SOL     OW33751   9.112   6.866   0.657
44576SOL    HW133752   9.211   6.874   0.671
44576SOL    HW233753   9.067   6.950   0.688
44577SOL     OW33754   8.838   6.161   0.078
44577SOL    HW133755   8.784   6.140   0.159
44577SOL    HW233756   8.929   6.120   0.087
44578SOL     OW33757   7.975   5.842   0.328
44578SOL    HW133758   8.002   5.783   0.253
44578SOL    HW233759   7.975   5.937   0.297
44579SOL     OW33760   9.202   6.809   1.588
44579SOL    HW133761   9.293   6.770   1.575
44579SOL    HW233762   9.210   6.905   1.612
44580SOL     OW33763   8.512   6.933   1.340
44580SOL    HW133764   8.432   6.910   1.395
44580SOL    HW233765   8.595   6.907   1.389
44581SOL     OW33766   9.040   7.215   1.625
44581SOL    HW133767   9.067   7.249   1.535
44581SOL    HW233768   9.119   7.177   1.671
44582SOL     OW33769   8.559   6.781   1.100
44582SOL    HW133770   8.519   6.825   1.181
44582SOL    HW233771   8.518   6.818   1.017
44583SOL     OW33772   9.086   6.685   1.079
44583SOL    HW133773   9.091   6.766   1.138
44583SOL    HW233774   9.000   6.687   1.028
44584SOL     OW33775   8.363   5.675   1.402
44584SOL    HW133776   8.388   5.655   1.307
44584SOL    HW233777   8.435   5.731   1.444
44585SOL     OW33778   8.428   6.702   1.719
44585SOL    HW133779   8.329   6.708   1.729
44585SOL    HW233780   8.451   6.622   1.663
44586SOL     OW33781   8.153   6.636   0.368
44586SOL    HW133782   8.139   6.643   0.467
44586SOL    HW233783   8.237   6.585   0.350
44587SOL     OW33784   7.858   6.399   1.251
44587SOL    HW133785   7.944   6.411   1.301
44587SOL    HW233786   7.816   6.312   1.278
44588SOL     OW33787   8.722   5.972   1.262
44588SOL    HW133788   8.743   6.046   1.326
44588SOL    HW233789   8.633   5.989   1.219
44589SOL     OW33790   7.512   7.150   1.331
44589SOL    HW133791   7.466   7.232   1.297
44589SOL    HW233792   7.610   7.169   1.340
44590SOL     OW33793   7.815   6.686   0.501
44590SOL    HW133794   7.808   6.769   0.445
44590SOL    HW233795   7.819   6.606   0.441
44591SOL     OW33796   8.014   6.123   0.865
44591SOL    HW133797   8.026   6.189   0.791
44591SOL    HW233798   8.060   6.157   0.948
44592SOL     OW33799   8.700   6.934   0.388
44592SOL    HW133800   8.750   7.011   0.428
44592SOL    HW233801   8.605   6.936   0.420
44593SOL     OW33802   8.720   7.031   1.142
44593SOL    HW133803   8.767   7.044   1.229
44593SOL    HW233804   8.654   6.957   1.151
44594SOL     OW33805   9.030   6.225   0.472
44594SOL    HW133806   8.999   6.286   0.545
44594SOL    HW233807   9.080   6.277   0.403
44595SOL     OW33808   7.802   7.096   1.329
44595SOL    HW133809   7.781   7.052   1.242
44595SOL    HW233810   7.899   7.122   1.332
44596SOL     OW33811   7.850   6.337   1.598
44596SOL    HW133812   7.918   6.392   1.551
44596SOL    HW233813   7.890   6.249   1.625
44597SOL     OW33814   9.035   6.365   1.670
44597SOL    HW133815   8.943   6.403   1.665
44597SOL    HW233816   9.095   6.412   1.605
44598SOL     OW33817   8.461   5.691   1.770
44598SOL    HW133818   8.467   5.776   1.718
44598SOL    HW233819   8.493   5.615   1.713
44599SOL     OW33820   7.952   5.636   1.740
44599SOL    HW133821   7.910   5.579   1.670
44599SOL    HW233822   7.886   5.705   1.772
44600SOL     OW33823   8.021   6.456   1.029
44600SOL    HW133824   8.065   6.545   1.020
44600SOL    HW233825   7.958   6.456   1.106
44601SOL     OW33826   8.808   6.448   1.045
44601SOL    HW133827   8.733   6.448   0.979
44601SOL    HW233828   8.845   6.356   1.054
44602SOL     OW33829   8.657   6.111   0.275
44602SOL    HW133830   8.670   6.027   0.329
44602SOL    HW233831   8.628   6.185   0.335
44603SOL     OW33832   7.755   5.799   1.231
44603SOL    HW133833   7.732   5.836   1.321
44603SOL    HW233834   7.725   5.704   1.225
44604SOL     OW33835   7.485   6.896   1.282
44604SOL    HW133836   7.538   6.847   1.350
44604SOL    HW233837   7.507   6.994   1.287
44605SOL     OW33838   8.180   6.220   1.064
44605SOL    HW133839   8.239   6.194   0.988
44605SOL    HW233840   8.152   6.316   1.053
44606SOL     OW33841   9.176   6.521   1.854
44606SOL    HW133842   9.130   6.514   1.765
44606SOL    HW233843   9.114   6.565   1.920
44607SOL     OW33844   7.755   5.649   0.618
44607SOL    HW133845   7.744   5.743   0.651
44607SOL    HW233846   7.750   5.586   0.695
44608SOL     OW33847   9.070   5.953   0.374
44608SOL    HW133848   9.072   5.877   0.438
44608SOL    HW233849   9.022   6.030   0.414
44609SOL     OW33850   8.471   6.352   0.966
44609SOL    HW133851   8.486   6.373   1.062
44609SOL    HW233852   8.441   6.257   0.957
44610SOL     OW33853   8.428   7.159   1.700
44610SOL    HW133854   8.408   7.203   1.612
44610SOL    HW233855   8.467   7.068   1.684
44611SOL     OW33856   9.307   7.104   1.605
44611SOL    HW133857   9.321   7.131   1.510
44611SOL    HW233858   9.390   7.126   1.658
44612SOL     OW33859   7.798   6.484   1.804
44612SOL    HW133860   7.874   6.528   1.852
44612SOL    HW233861   7.833   6.437   1.722
44613SOL     OW33862   8.988   5.860   0.125
44613SOL    HW133863   8.927   5.785   0.148
44613SOL    HW233864   9.010   5.912   0.208
44614SOL     OW33865   8.751   6.424   0.042
44614SOL    HW133866   8.785   6.331   0.057
44614SOL    HW233867   8.769   6.451  -0.053
44615SOL     OW33868   8.516   6.919   0.849
44615SOL    HW133869   8.523   6.835   0.794
44615SOL    HW233870   8.578   6.988   0.813
44616SOL     OW33871   7.767   6.396   0.949
44616SOL    HW133872   7.860   6.432   0.954
44616SOL    HW233873   7.761   6.311   1.001
44617SOL     OW33874   7.787   6.095   1.006
44617SOL    HW133875   7.735   6.012   0.989
44617SOL    HW233876   7.864   6.100   0.942
44618SOL     OW33877   8.586   5.966   1.678
44618SOL    HW133878   8.541   6.029   1.742
44618SOL    HW233879   8.679   5.997   1.661
44619SOL     OW33880   8.608   5.793   1.477
44619SOL    HW133881   8.608   5.857   1.554
44619SOL    HW233882   8.636   5.841   1.394
44620SOL     OW33883   7.456   6.912   0.200
44620SOL    HW133884   7.363   6.933   0.169
44620SOL    HW233885   7.466   6.813   0.213
44621SOL     OW33886   7.536   7.387   0.927
44621SOL    HW133887   7.494   7.301   0.900
44621SOL    HW233888   7.630   7.390   0.893
44622SOL     OW33889   7.952   7.154   0.910
44622SOL    HW133890   8.018   7.228   0.919
44622SOL    HW233891   7.996   7.075   0.868
44623SOL     OW33892   8.450   6.382   1.238
44623SOL    HW133893   8.491   6.350   1.324
44623SOL    HW233894   8.354   6.355   1.235
44624SOL     OW33895   7.488   6.130   1.114
44624SOL    HW133896   7.573   6.097   1.073
44624SOL    HW233897   7.501   6.145   1.212
44625SOL     OW33898   7.637   6.106   1.722
44625SOL    HW133899   7.696   6.066   1.652
44625SOL    HW233900   7.579   6.177   1.681
44626SOL     OW33901   8.817   6.536   1.660
44626SOL    HW133902   8.856   6.625   1.680
44626SOL    HW233903   8.827   6.516   1.563
44627SOL     OW33904   8.263   6.158   0.325
44627SOL    HW133905   8.270   6.069   0.279
44627SOL    HW233906   8.169   6.192   0.317
44628SOL     OW33907   9.105   6.190   1.206
44628SOL    HW133908   9.067   6.121   1.268
44628SOL    HW233909   9.187   6.154   1.162
44629SOL     OW33910   7.700   7.150   1.744
44629SOL    HW133911   7.670   7.207   1.820
44629SOL    HW233912   7.693   7.053   1.770
44630SOL     OW33913   8.119   6.050   1.269
44630SOL    HW133914   8.085   5.961   1.239
44630SOL    HW233915   8.145   6.104   1.189
44631SOL     OW33916   8.378   7.264   1.465
44631SOL    HW133917   8.354   7.246   1.370
44631SOL    HW233918   8.408   7.358   1.475
44632SOL     OW33919   7.921   6.086   0.191
44632SOL    HW133920   7.982   6.166   0.195
44632SOL    HW233921   7.826   6.117   0.198
44633SOL     OW33922   7.607   6.723   1.466
44633SOL    HW133923   7.629   6.662   1.542
44633SOL    HW233924   7.617   6.674   1.380
44634SOL     OW33925   8.795   6.645   1.234
44634SOL    HW133926   8.819   6.582   1.160
44634SOL    HW233927   8.705   6.685   1.216
44635SOL     OW33928   8.750   6.441   0.309
44635SOL    HW133929   8.664   6.410   0.351
44635SOL    HW233930   8.746   6.427   0.210
44636SOL     OW33931   9.207   7.333   1.154
44636SOL    HW133932   9.268   7.363   1.081
44636SOL    HW233933   9.169   7.244   1.132
44637SOL     OW33934   8.700   7.317   1.128
44637SOL    HW133935   8.784   7.322   1.074
44637SOL    HW233936   8.677   7.221   1.146
44638SOL     OW33937   7.531   6.844   1.022
44638SOL    HW133938   7.526   6.843   1.122
44638SOL    HW233939   7.448   6.803   0.984
44639SOL     OW33940   8.136   7.248   1.716
44639SOL    HW133941   8.080   7.329   1.725
44639SOL    HW233942   8.188   7.252   1.630
44640SOL     OW33943   8.351   5.672   0.133
44640SOL    HW133944   8.402   5.673   0.047
44640SOL    HW233945   8.407   5.630   0.204
44641SOL     OW33946   9.174   5.721   0.523
44641SOL    HW133947   9.247   5.704   0.456
44641SOL    HW233948   9.143   5.634   0.561
44642SOL     OW33949   8.836   7.159   0.477
44642SOL    HW133950   8.903   7.171   0.403
44642SOL    HW233951   8.796   7.248   0.500
44643SOL     OW33952   7.578   7.380   1.851
44643SOL    HW133953   7.537   7.306   1.904
44643SOL    HW233954   7.642   7.431   1.909
44644SOL     OW33955   8.728   6.513   0.672
44644SOL    HW133956   8.788   6.432   0.674
44644SOL    HW233957   8.768   6.582   0.612
44645SOL     OW33958   8.278   6.859   1.422
44645SOL    HW133959   8.273   6.892   1.517
44645SOL    HW233960   8.192   6.878   1.376
44646SOL     OW33961   8.120   7.202   0.154
44646SOL    HW133962   8.129   7.212   0.055
44646SOL    HW233963   8.080   7.113   0.175
44647SOL     OW33964   9.098   7.306   1.394
44647SOL    HW133965   9.151   7.316   1.310
44647SOL    HW233966   9.071   7.396   1.428
44648SOL     OW33967   9.289   5.761   0.963
44648SOL    HW133968   9.328   5.676   0.927
44648SOL    HW233969   9.191   5.763   0.944
44649SOL     OW33970   7.711   5.912   0.720
44649SOL    HW133971   7.632   5.963   0.686
44649SOL    HW233972   7.702   5.897   0.818
44650SOL     OW33973   8.642   7.198   0.031
44650SOL    HW133974   8.648   7.105   0.068
44650SOL    HW233975   8.583   7.198  -0.049
44651SOL     OW33976   8.270   6.588   1.372
44651SOL    HW133977   8.310   6.587   1.280
44651SOL    HW233978   8.280   6.680   1.412
44652SOL     OW33979   8.364   6.496   0.291
44652SOL    HW133980   8.427   6.534   0.223
44652SOL    HW233981   8.404   6.413   0.330
44653SOL     OW33982   8.952   7.193   0.044
44653SOL    HW133983   8.860   7.230   0.051
44653SOL    HW233984   8.990   7.213  -0.046
44654SOL     OW33985   7.820   6.874   1.490
44654SOL    HW133986   7.807   6.967   1.456
44654SOL    HW233987   7.736   6.822   1.477
44655SOL     OW33988   9.062   6.878   1.289
44655SOL    HW133989   9.122   6.881   1.369
44655SOL    HW233990   8.987   6.942   1.302
44656SOL     OW33991   8.487   6.684   0.696
44656SOL    HW133992   8.417   6.637   0.750
44656SOL    HW233993   8.546   6.616   0.653
44657SOL     OW33994   8.462   5.822   0.971
44657SOL    HW133995   8.454   5.786   0.878
44657SOL    HW233996   8.460   5.746   1.036
44658SOL     OW33997   8.038   7.073   0.491
44658SOL    HW133998   8.080   7.015   0.421
44658SOL    HW233999   7.994   7.152   0.447
44659SOL     OW34000   9.157   5.971   1.381
44659SOL    HW134001   9.230   6.040   1.385
44659SOL    HW234002   9.185   5.896   1.322
44660SOL     OW34003   7.703   6.934   0.290
44660SOL    HW134004   7.607   6.935   0.263
44660SOL    HW234005   7.715   6.987   0.374
44661SOL     OW34006   7.553   6.599   1.726
44661SOL    HW134007   7.476   6.566   1.780
44661SOL    HW234008   7.638   6.569   1.768
44662SOL     OW34009   8.120   5.789   1.489
44662SOL    HW134010   8.210   5.773   1.449
44662SOL    HW234011   8.128   5.794   1.588
44663SOL     OW34012   8.888   6.442   1.398
44663SOL    HW134013   8.831   6.494   1.335
44663SOL    HW234014   8.984   6.454   1.374
44664SOL     OW34015   7.520   5.752   0.318
44664SOL    HW134016   7.503   5.835   0.264
44664SOL    HW234017   7.610   5.715   0.296
44665SOL     OW34018   8.631   6.921   0.119
44665SOL    HW134019   8.532   6.910   0.121
44665SOL    HW234020   8.665   6.936   0.212
44666SOL     OW34021   8.061   6.428   1.431
44666SOL    HW134022   8.117   6.509   1.414
44666SOL    HW234023   8.120   6.348   1.434
44667SOL     OW34024   8.941   7.353   0.959
44667SOL    HW134025   8.974   7.417   0.890
44667SOL    HW234026   9.007   7.347   1.034
44668SOL     OW34027   8.164   6.151   1.708
44668SOL    HW134028   8.183   6.216   1.782
44668SOL    HW234029   8.224   6.071   1.717
44669SOL     OW34030   8.898   6.806   1.633
44669SOL    HW134031   8.889   6.796   1.732
44669SOL    HW234032   8.994   6.799   1.607
44670SOL     OW34033   7.838   7.327   1.560
44670SOL    HW134034   7.747   7.368   1.558
44670SOL    HW234035   7.831   7.233   1.592
44671SOL     OW34036   9.122   6.469   1.254
44671SOL    HW134037   9.095   6.380   1.217
44671SOL    HW234038   9.123   6.537   1.181
44672SOL     OW34039   8.673   5.911   0.449
44672SOL    HW134040   8.738   5.837   0.438
44672SOL    HW234041   8.693   5.961   0.533
44673SOL     OW34042   8.042   6.331   0.652
44673SOL    HW134043   8.092   6.416   0.633
44673SOL    HW234044   7.954   6.333   0.604
44674SOL     OW34045   9.225   5.928   1.642
44674SOL    HW134046   9.208   5.959   1.548
44674SOL    HW234047   9.141   5.891   1.680
44675SOL     OW34048   9.178   6.520   1.517
44675SOL    HW134049   9.216   6.611   1.532
44675SOL    HW234050   9.170   6.503   1.418
44676SOL     OW34051   8.307   6.960   0.016
44676SOL    HW134052   8.261   6.975   0.104
44676SOL    HW234053   8.351   7.045  -0.014
44677SOL     OW34054   8.109   7.376   0.953
44677SOL    HW134055   8.063   7.464   0.940
44677SOL    HW234056   8.208   7.388   0.946
44678SOL     OW34057   8.307   6.542   0.861
44678SOL    HW134058   8.361   6.473   0.909
44678SOL    HW234059   8.275   6.611   0.927
44679SOL     OW34060   8.531   6.570   0.087
44679SOL    HW134061   8.508   6.623   0.005
44679SOL    HW234062   8.612   6.514   0.068
44680SOL     OW34063   9.309   7.155   0.851
44680SOL    HW134064   9.238   7.143   0.781
44680SOL    HW234065   9.310   7.076   0.911
44681SOL     OW34066   7.669   6.900   1.844
44681SOL    HW134067   7.604   6.827   1.823
44681SOL    HW234068   7.673   6.914   1.942
44682SOL     OW34069   7.527   6.826   0.653
44682SOL    HW134070   7.526   6.779   0.741
44682SOL    HW234071   7.609   6.798   0.602
44683SOL     OW34072   8.120   6.977   1.624
44683SOL    HW134073   8.042   6.927   1.662
44683SOL    HW234074   8.117   7.072   1.655
44684SOL     OW34075   9.272   5.778   1.227
44684SOL    HW134076   9.268   5.688   1.271
44684SOL    HW234077   9.275   5.767   1.128
44685SOL     OW34078   7.876   6.010   0.520
44685SOL    HW134079   7.906   5.938   0.458
44685SOL    HW234080   7.837   5.970   0.603
44686SOL     OW34081   9.153   7.073   1.104
44686SOL    HW134082   9.060   7.048   1.077
44686SOL    HW234083   9.179   7.023   1.186
44687SOL     OW34084   7.765   6.133   1.280
44687SOL    HW134085   7.803   6.074   1.352
44687SOL    HW234086   7.805   6.107   1.192
44688SOL     OW34087   8.260   7.172   0.687
44688SOL    HW134088   8.292   7.182   0.593
44688SOL    HW234089   8.181   7.110   0.689
44689SOL     OW34090   8.872   5.800   1.112
44689SOL    HW134091   8.924   5.735   1.167
44689SOL    HW234092   8.823   5.863   1.173
44690SOL     OW34093   8.449   5.620   1.154
44690SOL    HW134094   8.386   5.548   1.123
44690SOL    HW234095   8.542   5.584   1.154
44691SOL     OW34096   8.218   6.916   0.301
44691SOL    HW134097   8.172   6.829   0.318
44691SOL    HW234098   8.309   6.913   0.342
44692SOL     OW34099   8.066   7.153   1.284
44692SOL    HW134100   8.061   7.235   1.341
44692SOL    HW234101   8.155   7.150   1.239
44693SOL     OW34102   8.800   5.638   0.168
44693SOL    HW134103   8.835   5.597   0.084
44693SOL    HW234104   8.710   5.600   0.188
44694SOL     OW34105   8.748   6.039   0.691
44694SOL    HW134106   8.689   6.119   0.695
44694SOL    HW234107   8.763   6.004   0.784
44695SOL     OW34108   9.041   5.807   0.882
44695SOL    HW134109   8.957   5.806   0.936
44695SOL    HW234110   9.043   5.890   0.826
44696SOL     OW34111   7.487   6.663   0.300
44696SOL    HW134112   7.586   6.652   0.291
44696SOL    HW234113   7.447   6.577   0.332
44697SOL     OW34114   8.323   7.232   0.337
44697SOL    HW134115   8.246   7.197   0.283
44697SOL    HW234116   8.291   7.303   0.399
44698SOL     OW34117   7.678   6.214   1.975
44698SOL    HW134118   7.585   6.212   2.012
44698SOL    HW234119   7.679   6.175   1.883
44699SOL     OW34120   7.673   5.861   2.858
44699SOL    HW134121   7.708   5.844   2.950
44699SOL    HW234122   7.585   5.816   2.846
44700SOL     OW34123   7.467   5.954   2.509
44700SOL    HW134124   7.385   5.997   2.548
44700SOL    HW234125   7.439   5.881   2.446
44701SOL     OW34126   8.017   6.861   3.027
44701SOL    HW134127   7.924   6.854   2.990
44701SOL    HW234128   8.028   6.950   3.071
44702SOL     OW34129   9.003   7.097   2.565
44702SOL    HW134130   8.946   7.081   2.646
44702SOL    HW234131   8.944   7.107   2.485
44703SOL     OW34132   8.583   6.289   2.579
44703SOL    HW134133   8.640   6.367   2.554
44703SOL    HW234134   8.523   6.315   2.655
44704SOL     OW34135   9.203   6.193   2.093
44704SOL    HW134136   9.191   6.180   1.994
44704SOL    HW234137   9.173   6.112   2.142
44705SOL     OW34138   8.216   6.730   2.885
44705SOL    HW134139   8.138   6.747   2.945
44705SOL    HW234140   8.250   6.817   2.849
44706SOL     OW34141   8.298   6.384   3.685
44706SOL    HW134142   8.294   6.460   3.750
44706SOL    HW234143   8.320   6.420   3.594
44707SOL     OW34144   8.133   6.598   2.527
44707SOL    HW134145   8.202   6.582   2.597
44707SOL    HW234146   8.060   6.655   2.565
44708SOL     OW34147   8.134   6.747   3.665
44708SOL    HW134148   8.194   6.826   3.679
44708SOL    HW234149   8.048   6.778   3.624
44709SOL     OW34150   7.783   7.021   2.923
44709SOL    HW134151   7.705   6.990   2.870
44709SOL    HW234152   7.841   7.079   2.866
44710SOL     OW34153   8.908   7.091   3.201
44710SOL    HW134154   8.932   7.185   3.227
44710SOL    HW234155   8.892   7.037   3.283
44711SOL     OW34156   7.886   5.978   3.361
44711SOL    HW134157   7.968   5.922   3.370
44711SOL    HW234158   7.805   5.920   3.365
44712SOL     OW34159   9.051   6.033   2.599
44712SOL    HW134160   8.977   6.079   2.549
44712SOL    HW234161   9.102   6.101   2.652
44713SOL     OW34162   7.679   7.299   2.345
44713SOL    HW134163   7.713   7.376   2.399
44713SOL    HW234164   7.723   7.299   2.255
44714SOL     OW34165   8.575   6.927   3.552
44714SOL    HW134166   8.622   6.927   3.640
44714SOL    HW234167   8.527   6.840   3.541
44715SOL     OW34168   7.678   7.020   2.400
44715SOL    HW134169   7.652   7.116   2.400
44715SOL    HW234170   7.607   6.966   2.445
44716SOL     OW34171   7.688   6.677   2.748
44716SOL    HW134172   7.702   6.593   2.800
44716SOL    HW234173   7.633   6.741   2.803
44717SOL     OW34174   8.068   7.372   3.301
44717SOL    HW134175   7.976   7.355   3.336
44717SOL    HW234176   8.096   7.464   3.327
44718SOL     OW34177   8.054   6.550   1.985
44718SOL    HW134178   8.061   6.634   1.931
44718SOL    HW234179   8.100   6.563   2.073
44719SOL     OW34180   9.042   5.700   3.342
44719SOL    HW134181   9.024   5.767   3.270
44719SOL    HW234182   9.039   5.746   3.431
44720SOL     OW34183   7.570   6.229   2.425
44720SOL    HW134184   7.525   6.141   2.442
44720SOL    HW234185   7.569   6.283   2.509
44721SOL     OW34186   9.290   7.353   2.221
44721SOL    HW134187   9.344   7.324   2.301
44721SOL    HW234188   9.320   7.443   2.192
44722SOL     OW34189   7.475   7.182   1.979
44722SOL    HW134190   7.456   7.086   2.000
44722SOL    HW234191   7.442   7.240   2.054
44723SOL     OW34192   9.137   6.508   2.474
44723SOL    HW134193   9.232   6.479   2.482
44723SOL    HW234194   9.129   6.573   2.399
44724SOL     OW34195   9.089   6.694   2.294
44724SOL    HW134196   9.175   6.696   2.242
44724SOL    HW234197   9.103   6.741   2.382
44725SOL     OW34198   7.561   6.323   3.459
44725SOL    HW134199   7.649   6.310   3.504
44725SOL    HW234200   7.548   6.420   3.437
44726SOL     OW34201   8.061   6.951   2.588
44726SOL    HW134202   8.012   6.864   2.597
44726SOL    HW234203   8.038   6.994   2.501
44727SOL     OW34204   8.741   6.814   3.285
44727SOL    HW134205   8.778   6.741   3.227
44727SOL    HW234206   8.793   6.819   3.370
44728SOL     OW34207   8.257   5.590   2.364
44728SOL    HW134208   8.297   5.681   2.355
44728SOL    HW234209   8.157   5.598   2.370
44729SOL     OW34210   7.645   6.562   3.126
44729SOL    HW134211   7.734   6.517   3.112
44729SOL    HW234212   7.572   6.497   3.107
44730SOL     OW34213   8.973   6.585   2.052
44730SOL    HW134214   8.910   6.509   2.065
44730SOL    HW234215   9.021   6.603   2.138
44731SOL     OW34216   8.635   7.378   3.478
44731SOL    HW134217   8.659   7.438   3.402
44731SOL    HW234218   8.642   7.283   3.448
44732SOL     OW34219   7.765   5.837   3.663
44732SOL    HW134220   7.836   5.908   3.669
44732SOL    HW234221   7.677   5.876   3.691
44733SOL     OW34222   8.914   7.003   2.815
44733SOL    HW134223   8.855   7.009   2.895
44733SOL    HW234224   8.899   6.915   2.769
44734SOL     OW34225   9.115   7.300   2.434
44734SOL    HW134226   9.074   7.277   2.346
44734SOL    HW234227   9.097   7.226   2.499
44735SOL     OW34228   8.046   6.315   2.132
44735SOL    HW134229   8.070   6.384   2.064
44735SOL    HW234230   7.968   6.348   2.186
44736SOL     OW34231   8.729   5.931   2.806
44736SOL    HW134232   8.643   5.881   2.793
44736SOL    HW234233   8.791   5.877   2.862
44737SOL     OW34234   9.024   7.248   2.169
44737SOL    HW134235   9.113   7.294   2.172
44737SOL    HW234236   9.003   7.224   2.074
44738SOL     OW34237   8.255   6.191   3.327
44738SOL    HW134238   8.208   6.188   3.416
44738SOL    HW234239   8.204   6.136   3.261
44739SOL     OW34240   8.842   6.055   3.536
44739SOL    HW134241   8.822   6.098   3.624
44739SOL    HW234242   8.920   5.993   3.545
44740SOL     OW34243   8.421   6.476   3.434
44740SOL    HW134244   8.467   6.392   3.405
44740SOL    HW234245   8.365   6.510   3.359
44741SOL     OW34246   8.439   5.996   3.104
44741SOL    HW134247   8.362   6.030   3.158
44741SOL    HW234248   8.405   5.945   3.025
44742SOL     OW34249   8.489   6.287   2.291
44742SOL    HW134250   8.515   6.283   2.387
44742SOL    HW234251   8.404   6.236   2.277
44743SOL     OW34252   7.524   6.397   2.651
44743SOL    HW134253   7.623   6.385   2.660
44743SOL    HW234254   7.500   6.492   2.672
44744SOL     OW34255   7.578   7.407   3.433
44744SOL    HW134256   7.568   7.392   3.532
44744SOL    HW234257   7.492   7.443   3.397
44745SOL     OW34258   8.313   5.934   2.057
44745SOL    HW134259   8.372   5.997   2.008
44745SOL    HW234260   8.332   5.840   2.028
44746SOL     OW34261   9.167   6.171   3.693
44746SOL    HW134262   9.141   6.260   3.657
44746SOL    HW234263   9.165   6.103   3.620
44747SOL     OW34264   8.810   6.730   2.407
44747SOL    HW134265   8.893   6.701   2.359
44747SOL    HW234266   8.761   6.797   2.351
44748SOL     OW34267   7.998   5.782   2.747
44748SOL    HW134268   7.993   5.777   2.847
44748SOL    HW234269   8.000   5.878   2.718
44749SOL     OW34270   8.456   7.042   2.339
44749SOL    HW134271   8.410   7.114   2.287
44749SOL    HW234272   8.452   7.062   2.437
44750SOL     OW34273   7.799   7.387   2.715
44750SOL    HW134274   7.849   7.301   2.721
44750SOL    HW234275   7.864   7.464   2.712
44751SOL     OW34276   9.243   6.652   2.735
44751SOL    HW134277   9.181   6.637   2.659
44751SOL    HW234278   9.191   6.663   2.820
44752SOL     OW34279   8.675   7.136   3.368
44752SOL    HW134280   8.681   7.059   3.432
44752SOL    HW234281   8.623   7.110   3.288
44753SOL     OW34282   7.769   6.529   2.104
44753SOL    HW134283   7.851   6.568   2.062
44753SOL    HW234284   7.742   6.447   2.055
44754SOL     OW34285   8.906   6.321   2.590
44754SOL    HW134286   8.901   6.256   2.665
44754SOL    HW234287   8.986   6.380   2.603
44755SOL     OW34288   7.909   6.852   3.589
44755SOL    HW134289   7.859   6.853   3.503
44755SOL    HW234290   7.846   6.834   3.665
44756SOL     OW34291   8.559   7.362   2.099
44756SOL    HW134292   8.499   7.300   2.149
44756SOL    HW234293   8.590   7.318   2.014
44757SOL     OW34294   7.650   5.871   3.360
44757SOL    HW134295   7.570   5.931   3.347
44757SOL    HW234296   7.640   5.822   3.446
44758SOL     OW34297   9.080   6.963   1.943
44758SOL    HW134298   9.048   7.057   1.933
44758SOL    HW234299   9.004   6.900   1.931
44759SOL     OW34300   7.912   7.329   2.185
44759SOL    HW134301   7.945   7.368   2.271
44759SOL    HW234302   7.988   7.322   2.120
44760SOL     OW34303   8.848   5.693   2.288
44760SOL    HW134304   8.824   5.656   2.198
44760SOL    HW234305   8.947   5.709   2.292
44761SOL     OW34306   7.697   7.371   3.103
44761SOL    HW134307   7.754   7.306   3.153
44761SOL    HW234308   7.681   7.338   3.010
44762SOL     OW34309   8.388   7.284   2.766
44762SOL    HW134310   8.468   7.227   2.787
44762SOL    HW234311   8.339   7.244   2.689
44763SOL     OW34312   7.830   6.286   2.342
44763SOL    HW134313   7.875   6.196   2.339
44763SOL    HW234314   7.736   6.275   2.375
44764SOL     OW34315   8.995   5.808   3.591
44764SOL    HW134316   8.990   5.845   3.683
44764SOL    HW234317   8.923   5.739   3.579
44765SOL     OW34318   8.062   5.708   1.979
44765SOL    HW134319   8.160   5.686   1.986
44765SOL    HW234320   8.031   5.691   1.886
44766SOL     OW34321   8.229   5.850   3.611
44766SOL    HW134322   8.296   5.789   3.654
44766SOL    HW234323   8.156   5.869   3.676
44767SOL     OW34324   8.336   7.100   3.057
44767SOL    HW134325   8.313   7.075   2.963
44767SOL    HW234326   8.397   7.031   3.096
44768SOL     OW34327   8.799   6.176   3.295
44768SOL    HW134328   8.827   6.133   3.380
44768SOL    HW234329   8.824   6.272   3.296
44769SOL     OW34330   8.251   6.988   2.786
44769SOL    HW134331   8.341   7.002   2.744
44769SOL    HW234332   8.180   6.990   2.715
44770SOL     OW34333   8.370   6.089   2.761
44770SOL    HW134334   8.345   6.080   2.665
44770SOL    HW234335   8.418   6.007   2.792
44771SOL     OW34336   7.987   5.650   2.374
44771SOL    HW134337   7.906   5.651   2.432
44771SOL    HW234338   7.990   5.733   2.319
44772SOL     OW34339   8.882   6.774   1.903
44772SOL    HW134340   8.914   6.698   1.960
44772SOL    HW234341   8.790   6.801   1.933
44773SOL     OW34342   7.745   5.621   2.033
44773SOL    HW134343   7.794   5.705   2.012
44773SOL    HW234344   7.807   5.556   2.078
44774SOL     OW34345   8.383   5.822   2.342
44774SOL    HW134346   8.335   5.863   2.264
44774SOL    HW234347   8.482   5.820   2.323
44775SOL     OW34348   8.524   6.269   3.326
44775SOL    HW134349   8.444   6.208   3.329
44775SOL    HW234350   8.605   6.216   3.302
44776SOL     OW34351   8.675   7.156   2.655
44776SOL    HW134352   8.696   7.230   2.590
44776SOL    HW234353   8.743   7.156   2.728
44777SOL     OW34354   7.907   6.738   2.603
44777SOL    HW134355   7.836   6.711   2.668
44777SOL    HW234356   7.881   6.710   2.510
44778SOL     OW34357   8.719   7.383   2.453
44778SOL    HW134358   8.763   7.447   2.389
44778SOL    HW234359   8.669   7.435   2.523
44779SOL     OW34360   8.480   6.135   1.878
44779SOL    HW134361   8.439   6.217   1.839
44779SOL    HW234362   8.544   6.161   1.951
44780SOL     OW34363   7.526   6.142   3.248
44780SOL    HW134364   7.618   6.141   3.207
44780SOL    HW234365   7.520   6.216   3.315
44781SOL     OW34366   8.009   5.808   3.009
44781SOL    HW134367   8.047   5.724   3.046
44781SOL    HW234368   7.921   5.827   3.053
44782SOL     OW34369   8.314   6.040   2.504
44782SOL    HW134370   8.282   6.112   2.442
44782SOL    HW234371   8.338   5.959   2.451
44783SOL     OW34372   8.465   5.625   2.615
44783SOL    HW134373   8.393   5.630   2.546
44783SOL    HW234374   8.441   5.556   2.684
44784SOL     OW34375   8.877   6.759   2.729
44784SOL    HW134376   8.822   6.675   2.722
44784SOL    HW234377   8.903   6.788   2.637
44785SOL     OW34378   8.914   6.176   2.854
44785SOL    HW134379   8.884   6.081   2.861
44785SOL    HW234380   8.987   6.192   2.920
44786SOL     OW34381   9.305   6.419   2.239
44786SOL    HW134382   9.347   6.355   2.303
44786SOL    HW234383   9.267   6.368   2.161
44787SOL     OW34384   7.936   6.971   2.036
44787SOL    HW134385   7.849   6.956   2.083
44787SOL    HW234386   7.919   6.997   1.941
44788SOL     OW34387   9.112   6.866   2.519
44788SOL    HW134388   9.211   6.874   2.533
44788SOL    HW234389   9.067   6.950   2.550
44789SOL     OW34390   8.838   6.161   1.940
44789SOL    HW134391   8.784   6.140   2.021
44789SOL    HW234392   8.929   6.120   1.949
44790SOL     OW34393   7.975   5.842   2.190
44790SOL    HW134394   8.002   5.783   2.115
44790SOL    HW234395   7.975   5.937   2.159
44791SOL     OW34396   9.202   6.809   3.450
44791SOL    HW134397   9.293   6.770   3.437
44791SOL    HW234398   9.210   6.905   3.474
44792SOL     OW34399   8.512   6.933   3.202
44792SOL    HW134400   8.432   6.910   3.257
44792SOL    HW234401   8.595   6.907   3.251
44793SOL     OW34402   9.040   7.215   3.487
44793SOL    HW134403   9.067   7.249   3.397
44793SOL    HW234404   9.119   7.177   3.533
44794SOL     OW34405   8.559   6.781   2.962
44794SOL    HW134406   8.519   6.825   3.043
44794SOL    HW234407   8.518   6.818   2.879
44795SOL     OW34408   9.086   6.685   2.941
44795SOL    HW134409   9.091   6.766   3.000
44795SOL    HW234410   9.000   6.687   2.890
44796SOL     OW34411   8.363   5.675   3.264
44796SOL    HW134412   8.388   5.655   3.169
44796SOL    HW234413   8.435   5.731   3.306
44797SOL     OW34414   8.428   6.702   3.581
44797SOL    HW134415   8.329   6.708   3.591
44797SOL    HW234416   8.451   6.622   3.525
44798SOL     OW34417   8.153   6.636   2.230
44798SOL    HW134418   8.139   6.643   2.329
44798SOL    HW234419   8.237   6.585   2.212
44799SOL     OW34420   7.858   6.399   3.113
44799SOL    HW134421   7.944   6.411   3.163
44799SOL    HW234422   7.816   6.312   3.140
44800SOL     OW34423   8.722   5.972   3.124
44800SOL    HW134424   8.743   6.046   3.188
44800SOL    HW234425   8.633   5.989   3.081
44801SOL     OW34426   7.512   7.150   3.193
44801SOL    HW134427   7.466   7.232   3.159
44801SOL    HW234428   7.610   7.169   3.202
44802SOL     OW34429   7.815   6.686   2.363
44802SOL    HW134430   7.808   6.769   2.307
44802SOL    HW234431   7.819   6.606   2.303
44803SOL     OW34432   8.014   6.123   2.727
44803SOL    HW134433   8.026   6.189   2.653
44803SOL    HW234434   8.060   6.157   2.810
44804SOL     OW34435   8.700   6.934   2.250
44804SOL    HW134436   8.750   7.011   2.290
44804SOL    HW234437   8.605   6.936   2.282
44805SOL     OW34438   8.720   7.031   3.004
44805SOL    HW134439   8.767   7.044   3.091
44805SOL    HW234440   8.654   6.957   3.013
44806SOL     OW34441   9.030   6.225   2.334
44806SOL    HW134442   8.999   6.286   2.407
44806SOL    HW234443   9.080   6.277   2.265
44807SOL     OW34444   7.802   7.096   3.191
44807SOL    HW134445   7.781   7.052   3.104
44807SOL    HW234446   7.899   7.122   3.194
44808SOL     OW34447   7.850   6.337   3.460
44808SOL    HW134448   7.918   6.392   3.413
44808SOL    HW234449   7.890   6.249   3.487
44809SOL     OW34450   9.035   6.365   3.532
44809SOL    HW134451   8.943   6.403   3.527
44809SOL    HW234452   9.095   6.412   3.467
44810SOL     OW34453   8.461   5.691   3.632
44810SOL    HW134454   8.467   5.776   3.580
44810SOL    HW234455   8.493   5.615   3.575
44811SOL     OW34456   7.952   5.636   3.602
44811SOL    HW134457   7.910   5.579   3.532
44811SOL    HW234458   7.886   5.705   3.634
44812SOL     OW34459   8.021   6.456   2.891
44812SOL    HW134460   8.065   6.545   2.882
44812SOL    HW234461   7.958   6.456   2.968
44813SOL     OW34462   8.808   6.448   2.907
44813SOL    HW134463   8.733   6.448   2.841
44813SOL    HW234464   8.845   6.356   2.916
44814SOL     OW34465   8.657   6.111   2.137
44814SOL    HW134466   8.670   6.027   2.191
44814SOL    HW234467   8.628   6.185   2.197
44815SOL     OW34468   7.755   5.799   3.093
44815SOL    HW134469   7.732   5.836   3.183
44815SOL    HW234470   7.725   5.704   3.087
44816SOL     OW34471   7.485   6.896   3.144
44816SOL    HW134472   7.538   6.847   3.212
44816SOL    HW234473   7.507   6.994   3.149
44817SOL     OW34474   8.180   6.220   2.926
44817SOL    HW134475   8.239   6.194   2.850
44817SOL    HW234476   8.152   6.316   2.915
44818SOL     OW34477   9.176   6.521   3.716
44818SOL    HW134478   9.130   6.514   3.627
44818SOL    HW234479   9.114   6.565   3.782
44819SOL     OW34480   7.755   5.649   2.480
44819SOL    HW134481   7.744   5.743   2.513
44819SOL    HW234482   7.750   5.586   2.557
44820SOL     OW34483   9.070   5.953   2.236
44820SOL    HW134484   9.072   5.877   2.300
44820SOL    HW234485   9.022   6.030   2.276
44821SOL     OW34486   8.471   6.352   2.828
44821SOL    HW134487   8.486   6.373   2.924
44821SOL    HW234488   8.441   6.257   2.819
44822SOL     OW34489   8.428   7.159   3.562
44822SOL    HW134490   8.408   7.203   3.474
44822SOL    HW234491   8.467   7.068   3.546
44823SOL     OW34492   9.307   7.104   3.467
44823SOL    HW134493   9.321   7.131   3.372
44823SOL    HW234494   9.390   7.126   3.520
44824SOL     OW34495   7.798   6.484   3.666
44824SOL    HW134496   7.874   6.528   3.714
44824SOL    HW234497   7.833   6.437   3.584
44825SOL     OW34498   8.988   5.860   1.987
44825SOL    HW134499   8.927   5.785   2.010
44825SOL    HW234500   9.010   5.912   2.070
44826SOL     OW34501   8.751   6.424   1.904
44826SOL    HW134502   8.785   6.331   1.919
44826SOL    HW234503   8.769   6.451   1.809
44827SOL     OW34504   8.516   6.919   2.711
44827SOL    HW134505   8.523   6.835   2.656
44827SOL    HW234506   8.578   6.988   2.675
44828SOL     OW34507   7.767   6.396   2.811
44828SOL    HW134508   7.860   6.432   2.816
44828SOL    HW234509   7.761   6.311   2.863
44829SOL     OW34510   7.787   6.095   2.868
44829SOL    HW134511   7.735   6.012   2.851
44829SOL    HW234512   7.864   6.100   2.804
44830SOL     OW34513   8.586   5.966   3.540
44830SOL    HW134514   8.541   6.029   3.604
44830SOL    HW234515   8.679   5.997   3.523
44831SOL     OW34516   8.608   5.793   3.339
44831SOL    HW134517   8.608   5.857   3.416
44831SOL    HW234518   8.636   5.841   3.256
44832SOL     OW34519   7.456   6.912   2.062
44832SOL    HW134520   7.363   6.933   2.031
44832SOL    HW234521   7.466   6.813   2.075
44833SOL     OW34522   7.536   7.387   2.789
44833SOL    HW134523   7.494   7.301   2.762
44833SOL    HW234524   7.630   7.390   2.755
44834SOL     OW34525   7.952   7.154   2.772
44834SOL    HW134526   8.018   7.228   2.781
44834SOL    HW234527   7.996   7.075   2.730
44835SOL     OW34528   8.450   6.382   3.100
44835SOL    HW134529   8.491   6.350   3.186
44835SOL    HW234530   8.354   6.355   3.097
44836SOL     OW34531   7.488   6.130   2.976
44836SOL    HW134532   7.573   6.097   2.935
44836SOL    HW234533   7.501   6.145   3.074
44837SOL     OW34534   7.637   6.106   3.584
44837SOL    HW134535   7.696   6.066   3.514
44837SOL    HW234536   7.579   6.177   3.543
44838SOL     OW34537   8.817   6.536   3.522
44838SOL    HW134538   8.856   6.625   3.542
44838SOL    HW234539   8.827   6.516   3.425
44839SOL     OW34540   8.263   6.158   2.187
44839SOL    HW134541   8.270   6.069   2.141
44839SOL    HW234542   8.169   6.192   2.179
44840SOL     OW34543   9.105   6.190   3.068
44840SOL    HW134544   9.067   6.121   3.130
44840SOL    HW234545   9.187   6.154   3.024
44841SOL     OW34546   7.700   7.150   3.606
44841SOL    HW134547   7.670   7.207   3.682
44841SOL    HW234548   7.693   7.053   3.632
44842SOL     OW34549   8.119   6.050   3.131
44842SOL    HW134550   8.085   5.961   3.101
44842SOL    HW234551   8.145   6.104   3.051
44843SOL     OW34552   8.378   7.264   3.327
44843SOL    HW134553   8.354   7.246   3.232
44843SOL    HW234554   8.408   7.358   3.337
44844SOL     OW34555   7.921   6.086   2.053
44844SOL    HW134556   7.982   6.166   2.057
44844SOL    HW234557   7.826   6.117   2.060
44845SOL     OW34558   7.607   6.723   3.328
44845SOL    HW134559   7.629   6.662   3.404
44845SOL    HW234560   7.617   6.674   3.242
44846SOL     OW34561   8.795   6.645   3.096
44846SOL    HW134562   8.819   6.582   3.022
44846SOL    HW234563   8.705   6.685   3.078
44847SOL     OW34564   8.750   6.441   2.171
44847SOL    HW134565   8.664   6.410   2.213
44847SOL    HW234566   8.746   6.427   2.072
44848SOL     OW34567   9.207   7.333   3.016
44848SOL    HW134568   9.268   7.363   2.943
44848SOL    HW234569   9.169   7.244   2.994
44849SOL     OW34570   8.700   7.317   2.990
44849SOL    HW134571   8.784   7.322   2.936
44849SOL    HW234572   8.677   7.221   3.008
44850SOL     OW34573   7.531   6.844   2.884
44850SOL    HW134574   7.526   6.843   2.984
44850SOL    HW234575   7.448   6.803   2.846
44851SOL     OW34576   8.136   7.248   3.578
44851SOL    HW134577   8.080   7.329   3.587
44851SOL    HW234578   8.188   7.252   3.492
44852SOL     OW34579   9.174   5.721   2.385
44852SOL    HW134580   9.247   5.704   2.318
44852SOL    HW234581   9.143   5.634   2.423
44853SOL     OW34582   8.836   7.159   2.339
44853SOL    HW134583   8.903   7.171   2.265
44853SOL    HW234584   8.796   7.248   2.362
44854SOL     OW34585   7.578   7.380   3.713
44854SOL    HW134586   7.537   7.306   3.766
44854SOL    HW234587   7.642   7.431   3.771
44855SOL     OW34588   8.728   6.513   2.534
44855SOL    HW134589   8.788   6.432   2.536
44855SOL    HW234590   8.768   6.582   2.474
44856SOL     OW34591   8.278   6.859   3.284
44856SOL    HW134592   8.273   6.892   3.379
44856SOL    HW234593   8.192   6.878   3.238
44857SOL     OW34594   8.120   7.202   2.016
44857SOL    HW134595   8.129   7.212   1.917
44857SOL    HW234596   8.080   7.113   2.037
44858SOL     OW34597   9.098   7.306   3.256
44858SOL    HW134598   9.151   7.316   3.172
44858SOL    HW234599   9.071   7.396   3.290
44859SOL     OW34600   9.289   5.761   2.825
44859SOL    HW134601   9.328   5.676   2.789
44859SOL    HW234602   9.191   5.763   2.806
44860SOL     OW34603   7.711   5.912   2.582
44860SOL    HW134604   7.632   5.963   2.548
44860SOL    HW234605   7.702   5.897   2.680
44861SOL     OW34606   8.642   7.198   1.893
44861SOL    HW134607   8.648   7.105   1.930
44861SOL    HW234608   8.583   7.198   1.813
44862SOL     OW34609   8.270   6.588   3.234
44862SOL    HW134610   8.310   6.587   3.142
44862SOL    HW234611   8.280   6.680   3.274
44863SOL     OW34612   8.364   6.496   2.153
44863SOL    HW134613   8.427   6.534   2.085
44863SOL    HW234614   8.404   6.413   2.192
44864SOL     OW34615   8.952   7.193   1.906
44864SOL    HW134616   8.860   7.230   1.913
44864SOL    HW234617   8.990   7.213   1.816
44865SOL     OW34618   7.820   6.874   3.352
44865SOL    HW134619   7.807   6.967   3.318
44865SOL    HW234620   7.736   6.822   3.339
44866SOL     OW34621   9.062   6.878   3.151
44866SOL    HW134622   9.122   6.881   3.231
44866SOL    HW234623   8.987   6.942   3.164
44867SOL     OW34624   8.487   6.684   2.558
44867SOL    HW134625   8.417   6.637   2.612
44867SOL    HW234626   8.546   6.616   2.515
44868SOL     OW34627   8.462   5.822   2.833
44868SOL    HW134628   8.454   5.786   2.740
44868SOL    HW234629   8.460   5.746   2.898
44869SOL     OW34630   8.038   7.073   2.353
44869SOL    HW134631   8.080   7.015   2.283
44869SOL    HW234632   7.994   7.152   2.309
44870SOL     OW34633   9.157   5.971   3.243
44870SOL    HW134634   9.230   6.040   3.247
44870SOL    HW234635   9.185   5.896   3.184
44871SOL     OW34636   7.703   6.934   2.152
44871SOL    HW134637   7.607   6.935   2.125
44871SOL    HW234638   7.715   6.987   2.236
44872SOL     OW34639   7.553   6.599   3.588
44872SOL    HW134640   7.476   6.566   3.642
44872SOL    HW234641   7.638   6.569   3.630
44873SOL     OW34642   8.120   5.789   3.351
44873SOL    HW134643   8.210   5.773   3.311
44873SOL    HW234644   8.128   5.794   3.450
44874SOL     OW34645   7.523   5.931   1.895
44874SOL    HW134646   7.431   5.903   1.866
44874SOL    HW234647   7.554   6.008   1.839
44875SOL     OW34648   8.888   6.442   3.260
44875SOL    HW134649   8.831   6.494   3.197
44875SOL    HW234650   8.984   6.454   3.236
44876SOL     OW34651   7.520   5.752   2.180
44876SOL    HW134652   7.503   5.835   2.126
44876SOL    HW234653   7.610   5.715   2.158
44877SOL     OW34654   8.631   6.921   1.981
44877SOL    HW134655   8.532   6.910   1.983
44877SOL    HW234656   8.665   6.936   2.074
44878SOL     OW34657   8.061   6.428   3.293
44878SOL    HW134658   8.117   6.509   3.276
44878SOL    HW234659   8.120   6.348   3.296
44879SOL     OW34660   8.941   7.353   2.821
44879SOL    HW134661   8.974   7.417   2.752
44879SOL    HW234662   9.007   7.347   2.896
44880SOL     OW34663   8.164   6.151   3.570
44880SOL    HW134664   8.183   6.216   3.644
44880SOL    HW234665   8.224   6.071   3.579
44881SOL     OW34666   8.898   6.806   3.495
44881SOL    HW134667   8.889   6.796   3.594
44881SOL    HW234668   8.994   6.799   3.469
44882SOL     OW34669   7.838   7.327   3.422
44882SOL    HW134670   7.747   7.368   3.420
44882SOL    HW234671   7.831   7.233   3.454
44883SOL     OW34672   9.122   6.469   3.116
44883SOL    HW134673   9.095   6.380   3.079
44883SOL    HW234674   9.123   6.537   3.043
44884SOL     OW34675   8.673   5.911   2.311
44884SOL    HW134676   8.738   5.837   2.300
44884SOL    HW234677   8.693   5.961   2.395
44885SOL     OW34678   8.042   6.331   2.514
44885SOL    HW134679   8.092   6.416   2.495
44885SOL    HW234680   7.954   6.333   2.466
44886SOL     OW34681   9.225   5.928   3.504
44886SOL    HW134682   9.208   5.959   3.410
44886SOL    HW234683   9.141   5.891   3.542
44887SOL     OW34684   9.178   6.520   3.379
44887SOL    HW134685   9.216   6.611   3.394
44887SOL    HW234686   9.170   6.503   3.280
44888SOL     OW34687   8.307   6.960   1.878
44888SOL    HW134688   8.261   6.975   1.966
44888SOL    HW234689   8.351   7.045   1.848
44889SOL     OW34690   8.109   7.376   2.815
44889SOL    HW134691   8.063   7.464   2.802
44889SOL    HW234692   8.208   7.388   2.808
44890SOL     OW34693   8.307   6.542   2.723
44890SOL    HW134694   8.361   6.473   2.771
44890SOL    HW234695   8.275   6.611   2.789
44891SOL     OW34696   8.531   6.570   1.949
44891SOL    HW134697   8.508   6.623   1.867
44891SOL    HW234698   8.612   6.514   1.930
44892SOL     OW34699   9.309   7.155   2.713
44892SOL    HW134700   9.238   7.143   2.643
44892SOL    HW234701   9.310   7.076   2.773
44893SOL     OW34702   7.669   6.900   3.706
44893SOL    HW134703   7.604   6.827   3.685
44893SOL    HW234704   7.673   6.914   3.804
44894SOL     OW34705   7.527   6.826   2.515
44894SOL    HW134706   7.526   6.779   2.603
44894SOL    HW234707   7.609   6.798   2.464
44895SOL     OW34708   8.120   6.977   3.486
44895SOL    HW134709   8.042   6.927   3.524
44895SOL    HW234710   8.117   7.072   3.517
44896SOL     OW34711   9.272   5.778   3.089
44896SOL    HW134712   9.268   5.688   3.133
44896SOL    HW234713   9.275   5.767   2.990
44897SOL     OW34714   7.876   6.010   2.382
44897SOL    HW134715   7.906   5.938   2.320
44897SOL    HW234716   7.837   5.970   2.465
44898SOL     OW34717   9.153   7.073   2.966
44898SOL    HW134718   9.060   7.048   2.939
44898SOL    HW234719   9.179   7.023   3.048
44899SOL     OW34720   7.765   6.133   3.142
44899SOL    HW134721   7.803   6.074   3.214
44899SOL    HW234722   7.805   6.107   3.054
44900SOL     OW34723   8.260   7.172   2.549
44900SOL    HW134724   8.292   7.182   2.455
44900SOL    HW234725   8.181   7.110   2.551
44901SOL     OW34726   8.872   5.800   2.974
44901SOL    HW134727   8.924   5.735   3.029
44901SOL    HW234728   8.823   5.863   3.035
44902SOL     OW34729   8.449   5.620   3.016
44902SOL    HW134730   8.386   5.548   2.985
44902SOL    HW234731   8.542   5.584   3.016
44903SOL     OW34732   8.218   6.916   2.163
44903SOL    HW134733   8.172   6.829   2.180
44903SOL    HW234734   8.309   6.913   2.204
44904SOL     OW34735   8.066   7.153   3.146
44904SOL    HW134736   8.061   7.235   3.203
44904SOL    HW234737   8.155   7.150   3.101
44905SOL     OW34738   8.800   5.638   2.030
44905SOL    HW134739   8.835   5.597   1.946
44905SOL    HW234740   8.710   5.600   2.050
44906SOL     OW34741   8.748   6.039   2.553
44906SOL    HW134742   8.689   6.119   2.557
44906SOL    HW234743   8.763   6.004   2.646
44907SOL     OW34744   9.041   5.807   2.744
44907SOL    HW134745   8.957   5.806   2.798
44907SOL    HW234746   9.043   5.890   2.688
44908SOL     OW34747   7.487   6.663   2.162
44908SOL    HW134748   7.586   6.652   2.153
44908SOL    HW234749   7.447   6.577   2.194
44909SOL     OW34750   8.323   7.232   2.199
44909SOL    HW134751   8.246   7.197   2.145
44909SOL    HW234752   8.291   7.303   2.261
44910SOL     OW34753   7.678   6.214   3.837
44910SOL    HW134754   7.585   6.212   3.874
44910SOL    HW234755   7.679   6.175   3.745
44911SOL     OW34756   7.673   5.861   4.720
44911SOL    HW134757   7.708   5.844   4.812
44911SOL    HW234758   7.585   5.816   4.708
44912SOL     OW34759   7.467   5.954   4.371
44912SOL    HW134760   7.385   5.997   4.410
44912SOL    HW234761   7.439   5.881   4.308
44913SOL     OW34762   8.017   6.861   4.889
44913SOL    HW134763   7.924   6.854   4.852
44913SOL    HW234764   8.028   6.950   4.933
44914SOL     OW34765   9.003   7.097   4.427
44914SOL    HW134766   8.946   7.081   4.508
44914SOL    HW234767   8.944   7.107   4.347
44915SOL     OW34768   8.583   6.289   4.441
44915SOL    HW134769   8.640   6.367   4.416
44915SOL    HW234770   8.523   6.315   4.517
44916SOL     OW34771   9.203   6.193   3.955
44916SOL    HW134772   9.191   6.180   3.856
44916SOL    HW234773   9.173   6.112   4.004
44917SOL     OW34774   8.216   6.730   4.747
44917SOL    HW134775   8.138   6.747   4.807
44917SOL    HW234776   8.250   6.817   4.711
44918SOL     OW34777   8.298   6.384   5.547
44918SOL    HW134778   8.294   6.460   5.612
44918SOL    HW234779   8.320   6.420   5.456
44919SOL     OW34780   8.133   6.598   4.389
44919SOL    HW134781   8.202   6.582   4.459
44919SOL    HW234782   8.060   6.655   4.427
44920SOL     OW34783   8.134   6.747   5.527
44920SOL    HW134784   8.194   6.826   5.541
44920SOL    HW234785   8.048   6.778   5.486
44921SOL     OW34786   7.783   7.021   4.785
44921SOL    HW134787   7.705   6.990   4.732
44921SOL    HW234788   7.841   7.079   4.728
44922SOL     OW34789   8.908   7.091   5.063
44922SOL    HW134790   8.932   7.185   5.089
44922SOL    HW234791   8.892   7.037   5.145
44923SOL     OW34792   7.886   5.978   5.223
44923SOL    HW134793   7.968   5.922   5.232
44923SOL    HW234794   7.805   5.920   5.227
44924SOL     OW34795   9.051   6.033   4.461
44924SOL    HW134796   8.977   6.079   4.411
44924SOL    HW234797   9.102   6.101   4.514
44925SOL     OW34798   7.679   7.299   4.207
44925SOL    HW134799   7.713   7.376   4.261
44925SOL    HW234800   7.723   7.299   4.117
44926SOL     OW34801   8.575   6.927   5.414
44926SOL    HW134802   8.622   6.927   5.502
44926SOL    HW234803   8.527   6.840   5.403
44927SOL     OW34804   7.678   7.020   4.262
44927SOL    HW134805   7.652   7.116   4.262
44927SOL    HW234806   7.607   6.966   4.307
44928SOL     OW34807   7.688   6.677   4.610
44928SOL    HW134808   7.702   6.593   4.662
44928SOL    HW234809   7.633   6.741   4.665
44929SOL     OW34810   8.068   7.372   5.163
44929SOL    HW134811   7.976   7.355   5.198
44929SOL    HW234812   8.096   7.464   5.189
44930SOL     OW34813   8.054   6.550   3.847
44930SOL    HW134814   8.061   6.634   3.793
44930SOL    HW234815   8.100   6.563   3.935
44931SOL     OW34816   9.042   5.700   5.204
44931SOL    HW134817   9.024   5.767   5.132
44931SOL    HW234818   9.039   5.746   5.293
44932SOL     OW34819   7.570   6.229   4.287
44932SOL    HW134820   7.525   6.141   4.304
44932SOL    HW234821   7.569   6.283   4.371
44933SOL     OW34822   9.290   7.353   4.083
44933SOL    HW134823   9.344   7.324   4.163
44933SOL    HW234824   9.320   7.443   4.054
44934SOL     OW34825   7.475   7.182   3.841
44934SOL    HW134826   7.456   7.086   3.862
44934SOL    HW234827   7.442   7.240   3.916
44935SOL     OW34828   9.137   6.508   4.336
44935SOL    HW134829   9.232   6.479   4.344
44935SOL    HW234830   9.129   6.573   4.261
44936SOL     OW34831   9.089   6.694   4.156
44936SOL    HW134832   9.175   6.696   4.104
44936SOL    HW234833   9.103   6.741   4.244
44937SOL     OW34834   7.561   6.323   5.321
44937SOL    HW134835   7.649   6.310   5.366
44937SOL    HW234836   7.548   6.420   5.299
44938SOL     OW34837   8.061   6.951   4.450
44938SOL    HW134838   8.012   6.864   4.459
44938SOL    HW234839   8.038   6.994   4.363
44939SOL     OW34840   8.741   6.814   5.147
44939SOL    HW134841   8.778   6.741   5.089
44939SOL    HW234842   8.793   6.819   5.232
44940SOL     OW34843   8.257   5.590   4.226
44940SOL    HW134844   8.297   5.681   4.217
44940SOL    HW234845   8.157   5.598   4.232
44941SOL     OW34846   7.645   6.562   4.988
44941SOL    HW134847   7.734   6.517   4.974
44941SOL    HW234848   7.572   6.497   4.969
44942SOL     OW34849   8.973   6.585   3.914
44942SOL    HW134850   8.910   6.509   3.927
44942SOL    HW234851   9.021   6.603   4.000
44943SOL     OW34852   8.635   7.378   5.340
44943SOL    HW134853   8.659   7.438   5.264
44943SOL    HW234854   8.642   7.283   5.310
44944SOL     OW34855   7.765   5.837   5.525
44944SOL    HW134856   7.836   5.908   5.531
44944SOL    HW234857   7.677   5.876   5.553
44945SOL     OW34858   8.914   7.003   4.677
44945SOL    HW134859   8.855   7.009   4.757
44945SOL    HW234860   8.899   6.915   4.631
44946SOL     OW34861   9.115   7.300   4.296
44946SOL    HW134862   9.074   7.277   4.208
44946SOL    HW234863   9.097   7.226   4.361
44947SOL     OW34864   8.046   6.315   3.994
44947SOL    HW134865   8.070   6.384   3.926
44947SOL    HW234866   7.968   6.348   4.048
44948SOL     OW34867   8.729   5.931   4.668
44948SOL    HW134868   8.643   5.881   4.655
44948SOL    HW234869   8.791   5.877   4.724
44949SOL     OW34870   9.024   7.248   4.031
44949SOL    HW134871   9.113   7.294   4.034
44949SOL    HW234872   9.003   7.224   3.936
44950SOL     OW34873   8.255   6.191   5.189
44950SOL    HW134874   8.208   6.188   5.278
44950SOL    HW234875   8.204   6.136   5.123
44951SOL     OW34876   8.842   6.055   5.398
44951SOL    HW134877   8.822   6.098   5.486
44951SOL    HW234878   8.920   5.993   5.407
44952SOL     OW34879   8.421   6.476   5.296
44952SOL    HW134880   8.467   6.392   5.267
44952SOL    HW234881   8.365   6.510   5.221
44953SOL     OW34882   8.439   5.996   4.966
44953SOL    HW134883   8.362   6.030   5.020
44953SOL    HW234884   8.405   5.945   4.887
44954SOL     OW34885   8.489   6.287   4.153
44954SOL    HW134886   8.515   6.283   4.249
44954SOL    HW234887   8.404   6.236   4.139
44955SOL     OW34888   7.524   6.397   4.513
44955SOL    HW134889   7.623   6.385   4.522
44955SOL    HW234890   7.500   6.492   4.534
44956SOL     OW34891   7.578   7.407   5.295
44956SOL    HW134892   7.568   7.392   5.394
44956SOL    HW234893   7.492   7.443   5.259
44957SOL     OW34894   8.313   5.934   3.919
44957SOL    HW134895   8.372   5.997   3.870
44957SOL    HW234896   8.332   5.840   3.890
44958SOL     OW34897   9.167   6.171   5.555
44958SOL    HW134898   9.141   6.260   5.519
44958SOL    HW234899   9.165   6.103   5.482
44959SOL     OW34900   8.810   6.730   4.269
44959SOL    HW134901   8.893   6.701   4.221
44959SOL    HW234902   8.761   6.797   4.213
44960SOL     OW34903   7.998   5.782   4.609
44960SOL    HW134904   7.993   5.777   4.709
44960SOL    HW234905   8.000   5.878   4.580
44961SOL     OW34906   8.456   7.042   4.201
44961SOL    HW134907   8.410   7.114   4.149
44961SOL    HW234908   8.452   7.062   4.299
44962SOL     OW34909   7.799   7.387   4.577
44962SOL    HW134910   7.849   7.301   4.583
44962SOL    HW234911   7.864   7.464   4.574
44963SOL     OW34912   9.243   6.652   4.597
44963SOL    HW134913   9.181   6.637   4.521
44963SOL    HW234914   9.191   6.663   4.682
44964SOL     OW34915   8.675   7.136   5.230
44964SOL    HW134916   8.681   7.059   5.294
44964SOL    HW234917   8.623   7.110   5.150
44965SOL     OW34918   7.769   6.529   3.966
44965SOL    HW134919   7.851   6.568   3.924
44965SOL    HW234920   7.742   6.447   3.917
44966SOL     OW34921   8.906   6.321   4.452
44966SOL    HW134922   8.901   6.256   4.527
44966SOL    HW234923   8.986   6.380   4.465
44967SOL     OW34924   7.909   6.852   5.451
44967SOL    HW134925   7.859   6.853   5.365
44967SOL    HW234926   7.846   6.834   5.527
44968SOL     OW34927   8.559   7.362   3.961
44968SOL    HW134928   8.499   7.300   4.011
44968SOL    HW234929   8.590   7.318   3.876
44969SOL     OW34930   7.650   5.871   5.222
44969SOL    HW134931   7.570   5.931   5.209
44969SOL    HW234932   7.640   5.822   5.308
44970SOL     OW34933   9.080   6.963   3.805
44970SOL    HW134934   9.048   7.057   3.795
44970SOL    HW234935   9.004   6.900   3.793
44971SOL     OW34936   7.912   7.329   4.047
44971SOL    HW134937   7.945   7.368   4.133
44971SOL    HW234938   7.988   7.322   3.982
44972SOL     OW34939   8.848   5.693   4.150
44972SOL    HW134940   8.824   5.656   4.060
44972SOL    HW234941   8.947   5.709   4.154
44973SOL     OW34942   7.697   7.371   4.965
44973SOL    HW134943   7.754   7.306   5.015
44973SOL    HW234944   7.681   7.338   4.872
44974SOL     OW34945   8.388   7.284   4.628
44974SOL    HW134946   8.468   7.227   4.649
44974SOL    HW234947   8.339   7.244   4.551
44975SOL     OW34948   7.830   6.286   4.204
44975SOL    HW134949   7.875   6.196   4.201
44975SOL    HW234950   7.736   6.275   4.237
44976SOL     OW34951   8.995   5.808   5.453
44976SOL    HW134952   8.990   5.845   5.545
44976SOL    HW234953   8.923   5.739   5.441
44977SOL     OW34954   8.062   5.708   3.841
44977SOL    HW134955   8.160   5.686   3.848
44977SOL    HW234956   8.031   5.691   3.748
44978SOL     OW34957   8.229   5.850   5.473
44978SOL    HW134958   8.296   5.789   5.516
44978SOL    HW234959   8.156   5.869   5.538
44979SOL     OW34960   8.336   7.100   4.919
44979SOL    HW134961   8.313   7.075   4.825
44979SOL    HW234962   8.397   7.031   4.958
44980SOL     OW34963   8.799   6.176   5.157
44980SOL    HW134964   8.827   6.133   5.242
44980SOL    HW234965   8.824   6.272   5.158
44981SOL     OW34966   8.251   6.988   4.648
44981SOL    HW134967   8.341   7.002   4.606
44981SOL    HW234968   8.180   6.990   4.577
44982SOL     OW34969   8.370   6.089   4.623
44982SOL    HW134970   8.345   6.080   4.527
44982SOL    HW234971   8.418   6.007   4.654
44983SOL     OW34972   7.987   5.650   4.236
44983SOL    HW134973   7.906   5.651   4.294
44983SOL    HW234974   7.990   5.733   4.181
44984SOL     OW34975   8.882   6.774   3.765
44984SOL    HW134976   8.914   6.698   3.822
44984SOL    HW234977   8.790   6.801   3.795
44985SOL     OW34978   7.745   5.621   3.895
44985SOL    HW134979   7.794   5.705   3.874
44985SOL    HW234980   7.807   5.556   3.940
44986SOL     OW34981   8.383   5.822   4.204
44986SOL    HW134982   8.335   5.863   4.126
44986SOL    HW234983   8.482   5.820   4.185
44987SOL     OW34984   8.524   6.269   5.188
44987SOL    HW134985   8.444   6.208   5.191
44987SOL    HW234986   8.605   6.216   5.164
44988SOL     OW34987   8.675   7.156   4.517
44988SOL    HW134988   8.696   7.230   4.452
44988SOL    HW234989   8.743   7.156   4.590
44989SOL     OW34990   7.907   6.738   4.465
44989SOL    HW134991   7.836   6.711   4.530
44989SOL    HW234992   7.881   6.710   4.372
44990SOL     OW34993   8.719   7.383   4.315
44990SOL    HW134994   8.763   7.447   4.251
44990SOL    HW234995   8.669   7.435   4.385
44991SOL     OW34996   8.480   6.135   3.740
44991SOL    HW134997   8.439   6.217   3.701
44991SOL    HW234998   8.544   6.161   3.813
44992SOL     OW34999   7.526   6.142   5.110
44992SOL    HW135000   7.618   6.141   5.069
44992SOL    HW235001   7.520   6.216   5.177
44993SOL     OW35002   8.009   5.808   4.871
44993SOL    HW135003   8.047   5.724   4.908
44993SOL    HW235004   7.921   5.827   4.915
44994SOL     OW35005   8.314   6.040   4.366
44994SOL    HW135006   8.282   6.112   4.304
44994SOL    HW235007   8.338   5.959   4.313
44995SOL     OW35008   8.465   5.625   4.477
44995SOL    HW135009   8.393   5.630   4.408
44995SOL    HW235010   8.441   5.556   4.546
44996SOL     OW35011   8.877   6.759   4.591
44996SOL    HW135012   8.822   6.675   4.584
44996SOL    HW235013   8.903   6.788   4.499
44997SOL     OW35014   8.914   6.176   4.716
44997SOL    HW135015   8.884   6.081   4.723
44997SOL    HW235016   8.987   6.192   4.782
44998SOL     OW35017   9.305   6.419   4.101
44998SOL    HW135018   9.347   6.355   4.165
44998SOL    HW235019   9.267   6.368   4.023
44999SOL     OW35020   7.936   6.971   3.898
44999SOL    HW135021   7.849   6.956   3.945
44999SOL    HW235022   7.919   6.997   3.803
45000SOL     OW35023   9.112   6.866   4.381
45000SOL    HW135024   9.211   6.874   4.395
45000SOL    HW235025   9.067   6.950   4.412
45001SOL     OW35026   8.838   6.161   3.802
45001SOL    HW135027   8.784   6.140   3.883
45001SOL    HW235028   8.929   6.120   3.811
45002SOL     OW35029   7.975   5.842   4.052
45002SOL    HW135030   8.002   5.783   3.977
45002SOL    HW235031   7.975   5.937   4.021
45003SOL     OW35032   9.202   6.809   5.312
45003SOL    HW135033   9.293   6.770   5.299
45003SOL    HW235034   9.210   6.905   5.336
45004SOL     OW35035   8.512   6.933   5.064
45004SOL    HW135036   8.432   6.910   5.119
45004SOL    HW235037   8.595   6.907   5.113
45005SOL     OW35038   9.040   7.215   5.349
45005SOL    HW135039   9.067   7.249   5.259
45005SOL    HW235040   9.119   7.177   5.395
45006SOL     OW35041   8.559   6.781   4.824
45006SOL    HW135042   8.519   6.825   4.905
45006SOL    HW235043   8.518   6.818   4.741
45007SOL     OW35044   9.086   6.685   4.803
45007SOL    HW135045   9.091   6.766   4.862
45007SOL    HW235046   9.000   6.687   4.752
45008SOL     OW35047   8.363   5.675   5.126
45008SOL    HW135048   8.388   5.655   5.031
45008SOL    HW235049   8.435   5.731   5.168
45009SOL     OW35050   8.428   6.702   5.443
45009SOL    HW135051   8.329   6.708   5.453
45009SOL    HW235052   8.451   6.622   5.387
45010SOL     OW35053   8.153   6.636   4.092
45010SOL    HW135054   8.139   6.643   4.191
45010SOL    HW235055   8.237   6.585   4.074
45011SOL     OW35056   7.858   6.399   4.975
45011SOL    HW135057   7.944   6.411   5.025
45011SOL    HW235058   7.816   6.312   5.002
45012SOL     OW35059   8.722   5.972   4.986
45012SOL    HW135060   8.743   6.046   5.050
45012SOL    HW235061   8.633   5.989   4.943
45013SOL     OW35062   7.512   7.150   5.055
45013SOL    HW135063   7.466   7.232   5.021
45013SOL    HW235064   7.610   7.169   5.064
45014SOL     OW35065   7.815   6.686   4.225
45014SOL    HW135066   7.808   6.769   4.169
45014SOL    HW235067   7.819   6.606   4.165
45015SOL     OW35068   8.014   6.123   4.589
45015SOL    HW135069   8.026   6.189   4.515
45015SOL    HW235070   8.060   6.157   4.672
45016SOL     OW35071   8.700   6.934   4.112
45016SOL    HW135072   8.750   7.011   4.152
45016SOL    HW235073   8.605   6.936   4.144
45017SOL     OW35074   8.720   7.031   4.866
45017SOL    HW135075   8.767   7.044   4.953
45017SOL    HW235076   8.654   6.957   4.875
45018SOL     OW35077   9.030   6.225   4.196
45018SOL    HW135078   8.999   6.286   4.269
45018SOL    HW235079   9.080   6.277   4.127
45019SOL     OW35080   7.802   7.096   5.053
45019SOL    HW135081   7.781   7.052   4.966
45019SOL    HW235082   7.899   7.122   5.056
45020SOL     OW35083   7.850   6.337   5.322
45020SOL    HW135084   7.918   6.392   5.275
45020SOL    HW235085   7.890   6.249   5.349
45021SOL     OW35086   9.035   6.365   5.394
45021SOL    HW135087   8.943   6.403   5.389
45021SOL    HW235088   9.095   6.412   5.329
45022SOL     OW35089   8.461   5.691   5.494
45022SOL    HW135090   8.467   5.776   5.442
45022SOL    HW235091   8.493   5.615   5.437
45023SOL     OW35092   7.952   5.636   5.464
45023SOL    HW135093   7.910   5.579   5.394
45023SOL    HW235094   7.886   5.705   5.496
45024SOL     OW35095   8.021   6.456   4.753
45024SOL    HW135096   8.065   6.545   4.744
45024SOL    HW235097   7.958   6.456   4.830
45025SOL     OW35098   8.808   6.448   4.769
45025SOL    HW135099   8.733   6.448   4.703
45025SOL    HW235100   8.845   6.356   4.778
45026SOL     OW35101   8.657   6.111   3.999
45026SOL    HW135102   8.670   6.027   4.053
45026SOL    HW235103   8.628   6.185   4.059
45027SOL     OW35104   7.755   5.799   4.955
45027SOL    HW135105   7.732   5.836   5.045
45027SOL    HW235106   7.725   5.704   4.949
45028SOL     OW35107   7.485   6.896   5.006
45028SOL    HW135108   7.538   6.847   5.074
45028SOL    HW235109   7.507   6.994   5.011
45029SOL     OW35110   8.180   6.220   4.788
45029SOL    HW135111   8.239   6.194   4.712
45029SOL    HW235112   8.152   6.316   4.777
45030SOL     OW35113   9.176   6.521   5.578
45030SOL    HW135114   9.130   6.514   5.489
45030SOL    HW235115   9.114   6.565   5.644
45031SOL     OW35116   7.755   5.649   4.342
45031SOL    HW135117   7.744   5.743   4.375
45031SOL    HW235118   7.750   5.586   4.419
45032SOL     OW35119   9.070   5.953   4.098
45032SOL    HW135120   9.072   5.877   4.162
45032SOL    HW235121   9.022   6.030   4.138
45033SOL     OW35122   8.471   6.352   4.690
45033SOL    HW135123   8.486   6.373   4.786
45033SOL    HW235124   8.441   6.257   4.681
45034SOL     OW35125   8.428   7.159   5.424
45034SOL    HW135126   8.408   7.203   5.336
45034SOL    HW235127   8.467   7.068   5.408
45035SOL     OW35128   9.307   7.104   5.329
45035SOL    HW135129   9.321   7.131   5.234
45035SOL    HW235130   9.390   7.126   5.382
45036SOL     OW35131   7.798   6.484   5.528
45036SOL    HW135132   7.874   6.528   5.576
45036SOL    HW235133   7.833   6.437   5.446
45037SOL     OW35134   8.988   5.860   3.849
45037SOL    HW135135   8.927   5.785   3.872
45037SOL    HW235136   9.010   5.912   3.932
45038SOL     OW35137   8.751   6.424   3.766
45038SOL    HW135138   8.785   6.331   3.781
45038SOL    HW235139   8.769   6.451   3.671
45039SOL     OW35140   8.516   6.919   4.573
45039SOL    HW135141   8.523   6.835   4.518
45039SOL    HW235142   8.578   6.988   4.537
45040SOL     OW35143   7.767   6.396   4.673
45040SOL    HW135144   7.860   6.432   4.678
45040SOL    HW235145   7.761   6.311   4.725
45041SOL     OW35146   7.787   6.095   4.730
45041SOL    HW135147   7.735   6.012   4.713
45041SOL    HW235148   7.864   6.100   4.666
45042SOL     OW35149   8.586   5.966   5.402
45042SOL    HW135150   8.541   6.029   5.466
45042SOL    HW235151   8.679   5.997   5.385
45043SOL     OW35152   8.608   5.793   5.201
45043SOL    HW135153   8.608   5.857   5.278
45043SOL    HW235154   8.636   5.841   5.118
45044SOL     OW35155   7.456   6.912   3.924
45044SOL    HW135156   7.363   6.933   3.893
45044SOL    HW235157   7.466   6.813   3.937
45045SOL     OW35158   7.536   7.387   4.651
45045SOL    HW135159   7.494   7.301   4.624
45045SOL    HW235160   7.630   7.390   4.617
45046SOL     OW35161   7.952   7.154   4.634
45046SOL    HW135162   8.018   7.228   4.643
45046SOL    HW235163   7.996   7.075   4.592
45047SOL     OW35164   8.450   6.382   4.962
45047SOL    HW135165   8.491   6.350   5.048
45047SOL    HW235166   8.354   6.355   4.959
45048SOL     OW35167   7.488   6.130   4.838
45048SOL    HW135168   7.573   6.097   4.797
45048SOL    HW235169   7.501   6.145   4.936
45049SOL     OW35170   7.637   6.106   5.446
45049SOL    HW135171   7.696   6.066   5.376
45049SOL    HW235172   7.579   6.177   5.405
45050SOL     OW35173   8.817   6.536   5.384
45050SOL    HW135174   8.856   6.625   5.404
45050SOL    HW235175   8.827   6.516   5.287
45051SOL     OW35176   8.263   6.158   4.049
45051SOL    HW135177   8.270   6.069   4.003
45051SOL    HW235178   8.169   6.192   4.041
45052SOL     OW35179   9.105   6.190   4.930
45052SOL    HW135180   9.067   6.121   4.992
45052SOL    HW235181   9.187   6.154   4.886
45053SOL     OW35182   7.700   7.150   5.468
45053SOL    HW135183   7.670   7.207   5.544
45053SOL    HW235184   7.693   7.053   5.494
45054SOL     OW35185   8.119   6.050   4.993
45054SOL    HW135186   8.085   5.961   4.963
45054SOL    HW235187   8.145   6.104   4.913
45055SOL     OW35188   8.378   7.264   5.189
45055SOL    HW135189   8.354   7.246   5.094
45055SOL    HW235190   8.408   7.358   5.199
45056SOL     OW35191   7.921   6.086   3.915
45056SOL    HW135192   7.982   6.166   3.919
45056SOL    HW235193   7.826   6.117   3.922
45057SOL     OW35194   7.607   6.723   5.190
45057SOL    HW135195   7.629   6.662   5.266
45057SOL    HW235196   7.617   6.674   5.104
45058SOL     OW35197   8.795   6.645   4.958
45058SOL    HW135198   8.819   6.582   4.884
45058SOL    HW235199   8.705   6.685   4.940
45059SOL     OW35200   8.750   6.441   4.033
45059SOL    HW135201   8.664   6.410   4.075
45059SOL    HW235202   8.746   6.427   3.934
45060SOL     OW35203   9.207   7.333   4.878
45060SOL    HW135204   9.268   7.363   4.805
45060SOL    HW235205   9.169   7.244   4.856
45061SOL     OW35206   8.700   7.317   4.852
45061SOL    HW135207   8.784   7.322   4.798
45061SOL    HW235208   8.677   7.221   4.870
45062SOL     OW35209   7.531   6.844   4.746
45062SOL    HW135210   7.526   6.843   4.846
45062SOL    HW235211   7.448   6.803   4.708
45063SOL     OW35212   8.136   7.248   5.440
45063SOL    HW135213   8.080   7.329   5.449
45063SOL    HW235214   8.188   7.252   5.354
45064SOL     OW35215   9.174   5.721   4.247
45064SOL    HW135216   9.247   5.704   4.180
45064SOL    HW235217   9.143   5.634   4.285
45065SOL     OW35218   8.836   7.159   4.201
45065SOL    HW135219   8.903   7.171   4.127
45065SOL    HW235220   8.796   7.248   4.224
45066SOL     OW35221   7.578   7.380   5.575
45066SOL    HW135222   7.537   7.306   5.628
45066SOL    HW235223   7.642   7.431   5.633
45067SOL     OW35224   8.728   6.513   4.396
45067SOL    HW135225   8.788   6.432   4.398
45067SOL    HW235226   8.768   6.582   4.336
45068SOL     OW35227   8.278   6.859   5.146
45068SOL    HW135228   8.273   6.892   5.241
45068SOL    HW235229   8.192   6.878   5.100
45069SOL     OW35230   8.120   7.202   3.878
45069SOL    HW135231   8.129   7.212   3.779
45069SOL    HW235232   8.080   7.113   3.899
45070SOL     OW35233   9.098   7.306   5.118
45070SOL    HW135234   9.151   7.316   5.034
45070SOL    HW235235   9.071   7.396   5.152
45071SOL     OW35236   9.289   5.761   4.687
45071SOL    HW135237   9.328   5.676   4.651
45071SOL    HW235238   9.191   5.763   4.668
45072SOL     OW35239   7.711   5.912   4.444
45072SOL    HW135240   7.632   5.963   4.410
45072SOL    HW235241   7.702   5.897   4.542
45073SOL     OW35242   8.642   7.198   3.755
45073SOL    HW135243   8.648   7.105   3.792
45073SOL    HW235244   8.583   7.198   3.675
45074SOL     OW35245   8.270   6.588   5.096
45074SOL    HW135246   8.310   6.587   5.004
45074SOL    HW235247   8.280   6.680   5.136
45075SOL     OW35248   8.364   6.496   4.015
45075SOL    HW135249   8.427   6.534   3.947
45075SOL    HW235250   8.404   6.413   4.054
45076SOL     OW35251   8.952   7.193   3.768
45076SOL    HW135252   8.860   7.230   3.775
45076SOL    HW235253   8.990   7.213   3.678
45077SOL     OW35254   7.820   6.874   5.214
45077SOL    HW135255   7.807   6.967   5.180
45077SOL    HW235256   7.736   6.822   5.201
45078SOL     OW35257   9.062   6.878   5.013
45078SOL    HW135258   9.122   6.881   5.093
45078SOL    HW235259   8.987   6.942   5.026
45079SOL     OW35260   8.487   6.684   4.420
45079SOL    HW135261   8.417   6.637   4.474
45079SOL    HW235262   8.546   6.616   4.377
45080SOL     OW35263   8.462   5.822   4.695
45080SOL    HW135264   8.454   5.786   4.602
45080SOL    HW235265   8.460   5.746   4.760
45081SOL     OW35266   8.038   7.073   4.215
45081SOL    HW135267   8.080   7.015   4.145
45081SOL    HW235268   7.994   7.152   4.171
45082SOL     OW35269   9.157   5.971   5.105
45082SOL    HW135270   9.230   6.040   5.109
45082SOL    HW235271   9.185   5.896   5.046
45083SOL     OW35272   7.703   6.934   4.014
45083SOL    HW135273   7.607   6.935   3.987
45083SOL    HW235274   7.715   6.987   4.098
45084SOL     OW35275   7.553   6.599   5.450
45084SOL    HW135276   7.476   6.566   5.504
45084SOL    HW235277   7.638   6.569   5.492
45085SOL     OW35278   8.120   5.789   5.213
45085SOL    HW135279   8.210   5.773   5.173
45085SOL    HW235280   8.128   5.794   5.312
45086SOL     OW35281   7.523   5.931   3.757
45086SOL    HW135282   7.431   5.903   3.728
45086SOL    HW235283   7.554   6.008   3.701
45087SOL     OW35284   8.888   6.442   5.122
45087SOL    HW135285   8.831   6.494   5.059
45087SOL    HW235286   8.984   6.454   5.098
45088SOL     OW35287   7.520   5.752   4.042
45088SOL    HW135288   7.503   5.835   3.988
45088SOL    HW235289   7.610   5.715   4.020
45089SOL     OW35290   8.631   6.921   3.843
45089SOL    HW135291   8.532   6.910   3.845
45089SOL    HW235292   8.665   6.936   3.936
45090SOL     OW35293   8.061   6.428   5.155
45090SOL    HW135294   8.117   6.509   5.138
45090SOL    HW235295   8.120   6.348   5.158
45091SOL     OW35296   8.941   7.353   4.683
45091SOL    HW135297   8.974   7.417   4.614
45091SOL    HW235298   9.007   7.347   4.758
45092SOL     OW35299   8.164   6.151   5.432
45092SOL    HW135300   8.183   6.216   5.506
45092SOL    HW235301   8.224   6.071   5.441
45093SOL     OW35302   8.898   6.806   5.357
45093SOL    HW135303   8.889   6.796   5.456
45093SOL    HW235304   8.994   6.799   5.331
45094SOL     OW35305   7.838   7.327   5.284
45094SOL    HW135306   7.747   7.368   5.282
45094SOL    HW235307   7.831   7.233   5.316
45095SOL     OW35308   9.122   6.469   4.978
45095SOL    HW135309   9.095   6.380   4.941
45095SOL    HW235310   9.123   6.537   4.905
45096SOL     OW35311   8.673   5.911   4.173
45096SOL    HW135312   8.738   5.837   4.162
45096SOL    HW235313   8.693   5.961   4.257
45097SOL     OW35314   8.042   6.331   4.376
45097SOL    HW135315   8.092   6.416   4.357
45097SOL    HW235316   7.954   6.333   4.328
45098SOL     OW35317   9.225   5.928   5.366
45098SOL    HW135318   9.208   5.959   5.272
45098SOL    HW235319   9.141   5.891   5.404
45099SOL     OW35320   9.178   6.520   5.241
45099SOL    HW135321   9.216   6.611   5.256
45099SOL    HW235322   9.170   6.503   5.142
45100SOL     OW35323   8.307   6.960   3.740
45100SOL    HW135324   8.261   6.975   3.828
45100SOL    HW235325   8.351   7.045   3.710
45101SOL     OW35326   8.109   7.376   4.677
45101SOL    HW135327   8.063   7.464   4.664
45101SOL    HW235328   8.208   7.388   4.670
45102SOL     OW35329   8.307   6.542   4.585
45102SOL    HW135330   8.361   6.473   4.633
45102SOL    HW235331   8.275   6.611   4.651
45103SOL     OW35332   8.531   6.570   3.811
45103SOL    HW135333   8.508   6.623   3.729
45103SOL    HW235334   8.612   6.514   3.792
45104SOL     OW35335   9.309   7.155   4.575
45104SOL    HW135336   9.238   7.143   4.505
45104SOL    HW235337   9.310   7.076   4.635
45105SOL     OW35338   7.669   6.900   5.568
45105SOL    HW135339   7.604   6.827   5.547
45105SOL    HW235340   7.673   6.914   5.666
45106SOL     OW35341   7.527   6.826   4.377
45106SOL    HW135342   7.526   6.779   4.465
45106SOL    HW235343   7.609   6.798   4.326
45107SOL     OW35344   8.120   6.977   5.348
45107SOL    HW135345   8.042   6.927   5.386
45107SOL    HW235346   8.117   7.072   5.379
45108SOL     OW35347   9.272   5.778   4.951
45108SOL    HW135348   9.268   5.688   4.995
45108SOL    HW235349   9.275   5.767   4.852
45109SOL     OW35350   7.876   6.010   4.244
45109SOL    HW135351   7.906   5.938   4.182
45109SOL    HW235352   7.837   5.970   4.327
45110SOL     OW35353   9.153   7.073   4.828
45110SOL    HW135354   9.060   7.048   4.801
45110SOL    HW235355   9.179   7.023   4.910
45111SOL     OW35356   7.765   6.133   5.004
45111SOL    HW135357   7.803   6.074   5.076
45111SOL    HW235358   7.805   6.107   4.916
45112SOL     OW35359   8.260   7.172   4.411
45112SOL    HW135360   8.292   7.182   4.317
45112SOL    HW235361   8.181   7.110   4.413
45113SOL     OW35362   8.872   5.800   4.836
45113SOL    HW135363   8.924   5.735   4.891
45113SOL    HW235364   8.823   5.863   4.897
45114SOL     OW35365   8.449   5.620   4.878
45114SOL    HW135366   8.386   5.548   4.847
45114SOL    HW235367   8.542   5.584   4.878
45115SOL     OW35368   8.218   6.916   4.025
45115SOL    HW135369   8.172   6.829   4.042
45115SOL    HW235370   8.309   6.913   4.066
45116SOL     OW35371   8.066   7.153   5.008
45116SOL    HW135372   8.061   7.235   5.065
45116SOL    HW235373   8.155   7.150   4.963
45117SOL     OW35374   8.800   5.638   3.892
45117SOL    HW135375   8.835   5.597   3.808
45117SOL    HW235376   8.710   5.600   3.912
45118SOL     OW35377   8.748   6.039   4.415
45118SOL    HW135378   8.689   6.119   4.419
45118SOL    HW235379   8.763   6.004   4.508
45119SOL     OW35380   9.041   5.807   4.606
45119SOL    HW135381   8.957   5.806   4.660
45119SOL    HW235382   9.043   5.890   4.550
45120SOL     OW35383   7.487   6.663   4.024
45120SOL    HW135384   7.586   6.652   4.015
45120SOL    HW235385   7.447   6.577   4.056
45121SOL     OW35386   8.323   7.232   4.061
45121SOL    HW135387   8.246   7.197   4.007
45121SOL    HW235388   8.291   7.303   4.123
45122SOL     OW35389   7.678   6.214   5.699
45122SOL    HW135390   7.585   6.212   5.736
45122SOL    HW235391   7.679   6.175   5.607
45123SOL     OW35392   7.673   5.861   6.582
45123SOL    HW135393   7.708   5.844   6.674
45123SOL    HW235394   7.585   5.816   6.570
45124SOL     OW35395   7.467   5.954   6.233
45124SOL    HW135396   7.385   5.997   6.272
45124SOL    HW235397   7.439   5.881   6.170
45125SOL     OW35398   8.017   6.861   6.751
45125SOL    HW135399   7.924   6.854   6.714
45125SOL    HW235400   8.028   6.950   6.795
45126SOL     OW35401   9.003   7.097   6.289
45126SOL    HW135402   8.946   7.081   6.370
45126SOL    HW235403   8.944   7.107   6.209
45127SOL     OW35404   8.583   6.289   6.303
45127SOL    HW135405   8.640   6.367   6.278
45127SOL    HW235406   8.523   6.315   6.379
45128SOL     OW35407   9.203   6.193   5.817
45128SOL    HW135408   9.191   6.180   5.718
45128SOL    HW235409   9.173   6.112   5.866
45129SOL     OW35410   8.216   6.730   6.609
45129SOL    HW135411   8.138   6.747   6.669
45129SOL    HW235412   8.250   6.817   6.573
45130SOL     OW35413   8.298   6.384   7.409
45130SOL    HW135414   8.294   6.460   7.474
45130SOL    HW235415   8.320   6.420   7.318
45131SOL     OW35416   8.133   6.598   6.251
45131SOL    HW135417   8.202   6.582   6.321
45131SOL    HW235418   8.060   6.655   6.289
45132SOL     OW35419   8.134   6.747   7.389
45132SOL    HW135420   8.194   6.826   7.403
45132SOL    HW235421   8.048   6.778   7.348
45133SOL     OW35422   7.783   7.021   6.647
45133SOL    HW135423   7.705   6.990   6.594
45133SOL    HW235424   7.841   7.079   6.590
45134SOL     OW35425   8.908   7.091   6.925
45134SOL    HW135426   8.932   7.185   6.951
45134SOL    HW235427   8.892   7.037   7.007
45135SOL     OW35428   7.886   5.978   7.085
45135SOL    HW135429   7.968   5.922   7.094
45135SOL    HW235430   7.805   5.920   7.089
45136SOL     OW35431   9.051   6.033   6.323
45136SOL    HW135432   8.977   6.079   6.273
45136SOL    HW235433   9.102   6.101   6.376
45137SOL     OW35434   7.679   7.299   6.069
45137SOL    HW135435   7.713   7.376   6.123
45137SOL    HW235436   7.723   7.299   5.979
45138SOL     OW35437   8.575   6.927   7.276
45138SOL    HW135438   8.622   6.927   7.364
45138SOL    HW235439   8.527   6.840   7.265
45139SOL     OW35440   7.678   7.020   6.124
45139SOL    HW135441   7.652   7.116   6.124
45139SOL    HW235442   7.607   6.966   6.169
45140SOL     OW35443   7.688   6.677   6.472
45140SOL    HW135444   7.702   6.593   6.524
45140SOL    HW235445   7.633   6.741   6.527
45141SOL     OW35446   8.068   7.372   7.025
45141SOL    HW135447   7.976   7.355   7.060
45141SOL    HW235448   8.096   7.464   7.051
45142SOL     OW35449   8.054   6.550   5.709
45142SOL    HW135450   8.061   6.634   5.655
45142SOL    HW235451   8.100   6.563   5.797
45143SOL     OW35452   9.042   5.700   7.066
45143SOL    HW135453   9.024   5.767   6.994
45143SOL    HW235454   9.039   5.746   7.155
45144SOL     OW35455   7.570   6.229   6.149
45144SOL    HW135456   7.525   6.141   6.166
45144SOL    HW235457   7.569   6.283   6.233
45145SOL     OW35458   9.290   7.353   5.945
45145SOL    HW135459   9.344   7.324   6.025
45145SOL    HW235460   9.320   7.443   5.916
45146SOL     OW35461   7.475   7.182   5.703
45146SOL    HW135462   7.456   7.086   5.724
45146SOL    HW235463   7.442   7.240   5.778
45147SOL     OW35464   9.137   6.508   6.198
45147SOL    HW135465   9.232   6.479   6.206
45147SOL    HW235466   9.129   6.573   6.123
45148SOL     OW35467   9.089   6.694   6.018
45148SOL    HW135468   9.175   6.696   5.966
45148SOL    HW235469   9.103   6.741   6.106
45149SOL     OW35470   7.561   6.323   7.183
45149SOL    HW135471   7.649   6.310   7.228
45149SOL    HW235472   7.548   6.420   7.161
45150SOL     OW35473   8.061   6.951   6.312
45150SOL    HW135474   8.012   6.864   6.321
45150SOL    HW235475   8.038   6.994   6.225
45151SOL     OW35476   8.741   6.814   7.009
45151SOL    HW135477   8.778   6.741   6.951
45151SOL    HW235478   8.793   6.819   7.094
45152SOL     OW35479   8.257   5.590   6.088
45152SOL    HW135480   8.297   5.681   6.079
45152SOL    HW235481   8.157   5.598   6.094
45153SOL     OW35482   7.645   6.562   6.850
45153SOL    HW135483   7.734   6.517   6.836
45153SOL    HW235484   7.572   6.497   6.831
45154SOL     OW35485   8.973   6.585   5.776
45154SOL    HW135486   8.910   6.509   5.789
45154SOL    HW235487   9.021   6.603   5.862
45155SOL     OW35488   8.635   7.378   7.202
45155SOL    HW135489   8.659   7.438   7.126
45155SOL    HW235490   8.642   7.283   7.172
45156SOL     OW35491   7.765   5.837   7.387
45156SOL    HW135492   7.836   5.908   7.393
45156SOL    HW235493   7.677   5.876   7.415
45157SOL     OW35494   8.914   7.003   6.539
45157SOL    HW135495   8.855   7.009   6.619
45157SOL    HW235496   8.899   6.915   6.493
45158SOL     OW35497   9.115   7.300   6.158
45158SOL    HW135498   9.074   7.277   6.070
45158SOL    HW235499   9.097   7.226   6.223
45159SOL     OW35500   8.046   6.315   5.856
45159SOL    HW135501   8.070   6.384   5.788
45159SOL    HW235502   7.968   6.348   5.910
45160SOL     OW35503   8.729   5.931   6.530
45160SOL    HW135504   8.643   5.881   6.517
45160SOL    HW235505   8.791   5.877   6.586
45161SOL     OW35506   9.024   7.248   5.893
45161SOL    HW135507   9.113   7.294   5.896
45161SOL    HW235508   9.003   7.224   5.798
45162SOL     OW35509   8.255   6.191   7.051
45162SOL    HW135510   8.208   6.188   7.140
45162SOL    HW235511   8.204   6.136   6.985
45163SOL     OW35512   8.842   6.055   7.260
45163SOL    HW135513   8.822   6.098   7.348
45163SOL    HW235514   8.920   5.993   7.269
45164SOL     OW35515   8.421   6.476   7.158
45164SOL    HW135516   8.467   6.392   7.129
45164SOL    HW235517   8.365   6.510   7.083
45165SOL     OW35518   8.439   5.996   6.828
45165SOL    HW135519   8.362   6.030   6.882
45165SOL    HW235520   8.405   5.945   6.749
45166SOL     OW35521   8.489   6.287   6.015
45166SOL    HW135522   8.515   6.283   6.111
45166SOL    HW235523   8.404   6.236   6.001
45167SOL     OW35524   7.524   6.397   6.375
45167SOL    HW135525   7.623   6.385   6.384
45167SOL    HW235526   7.500   6.492   6.396
45168SOL     OW35527   7.578   7.407   7.157
45168SOL    HW135528   7.568   7.392   7.256
45168SOL    HW235529   7.492   7.443   7.121
45169SOL     OW35530   8.313   5.934   5.781
45169SOL    HW135531   8.372   5.997   5.732
45169SOL    HW235532   8.332   5.840   5.752
45170SOL     OW35533   9.167   6.171   7.417
45170SOL    HW135534   9.141   6.260   7.381
45170SOL    HW235535   9.165   6.103   7.344
45171SOL     OW35536   8.810   6.730   6.131
45171SOL    HW135537   8.893   6.701   6.083
45171SOL    HW235538   8.761   6.797   6.075
45172SOL     OW35539   7.998   5.782   6.471
45172SOL    HW135540   7.993   5.777   6.571
45172SOL    HW235541   8.000   5.878   6.442
45173SOL     OW35542   8.456   7.042   6.063
45173SOL    HW135543   8.410   7.114   6.011
45173SOL    HW235544   8.452   7.062   6.161
45174SOL     OW35545   7.799   7.387   6.439
45174SOL    HW135546   7.849   7.301   6.445
45174SOL    HW235547   7.864   7.464   6.436
45175SOL     OW35548   9.243   6.652   6.459
45175SOL    HW135549   9.181   6.637   6.383
45175SOL    HW235550   9.191   6.663   6.544
45176SOL     OW35551   8.675   7.136   7.092
45176SOL    HW135552   8.681   7.059   7.156
45176SOL    HW235553   8.623   7.110   7.012
45177SOL     OW35554   7.769   6.529   5.828
45177SOL    HW135555   7.851   6.568   5.786
45177SOL    HW235556   7.742   6.447   5.779
45178SOL     OW35557   8.906   6.321   6.314
45178SOL    HW135558   8.901   6.256   6.389
45178SOL    HW235559   8.986   6.380   6.327
45179SOL     OW35560   7.909   6.852   7.313
45179SOL    HW135561   7.859   6.853   7.227
45179SOL    HW235562   7.846   6.834   7.389
45180SOL     OW35563   8.559   7.362   5.823
45180SOL    HW135564   8.499   7.300   5.873
45180SOL    HW235565   8.590   7.318   5.738
45181SOL     OW35566   7.650   5.871   7.084
45181SOL    HW135567   7.570   5.931   7.071
45181SOL    HW235568   7.640   5.822   7.170
45182SOL     OW35569   9.080   6.963   5.667
45182SOL    HW135570   9.048   7.057   5.657
45182SOL    HW235571   9.004   6.900   5.655
45183SOL     OW35572   7.912   7.329   5.909
45183SOL    HW135573   7.945   7.368   5.995
45183SOL    HW235574   7.988   7.322   5.844
45184SOL     OW35575   8.848   5.693   6.012
45184SOL    HW135576   8.824   5.656   5.922
45184SOL    HW235577   8.947   5.709   6.016
45185SOL     OW35578   7.697   7.371   6.827
45185SOL    HW135579   7.754   7.306   6.877
45185SOL    HW235580   7.681   7.338   6.734
45186SOL     OW35581   8.388   7.284   6.490
45186SOL    HW135582   8.468   7.227   6.511
45186SOL    HW235583   8.339   7.244   6.413
45187SOL     OW35584   7.830   6.286   6.066
45187SOL    HW135585   7.875   6.196   6.063
45187SOL    HW235586   7.736   6.275   6.099
45188SOL     OW35587   8.995   5.808   7.315
45188SOL    HW135588   8.990   5.845   7.407
45188SOL    HW235589   8.923   5.739   7.303
45189SOL     OW35590   8.062   5.708   5.703
45189SOL    HW135591   8.160   5.686   5.710
45189SOL    HW235592   8.031   5.691   5.610
45190SOL     OW35593   8.229   5.850   7.335
45190SOL    HW135594   8.296   5.789   7.378
45190SOL    HW235595   8.156   5.869   7.400
45191SOL     OW35596   8.336   7.100   6.781
45191SOL    HW135597   8.313   7.075   6.687
45191SOL    HW235598   8.397   7.031   6.820
45192SOL     OW35599   8.799   6.176   7.019
45192SOL    HW135600   8.827   6.133   7.104
45192SOL    HW235601   8.824   6.272   7.020
45193SOL     OW35602   8.251   6.988   6.510
45193SOL    HW135603   8.341   7.002   6.468
45193SOL    HW235604   8.180   6.990   6.439
45194SOL     OW35605   8.370   6.089   6.485
45194SOL    HW135606   8.345   6.080   6.389
45194SOL    HW235607   8.418   6.007   6.516
45195SOL     OW35608   7.987   5.650   6.098
45195SOL    HW135609   7.906   5.651   6.156
45195SOL    HW235610   7.990   5.733   6.043
45196SOL     OW35611   8.882   6.774   5.627
45196SOL    HW135612   8.914   6.698   5.684
45196SOL    HW235613   8.790   6.801   5.657
45197SOL     OW35614   7.745   5.621   5.757
45197SOL    HW135615   7.794   5.705   5.736
45197SOL    HW235616   7.807   5.556   5.802
45198SOL     OW35617   8.383   5.822   6.066
45198SOL    HW135618   8.335   5.863   5.988
45198SOL    HW235619   8.482   5.820   6.047
45199SOL     OW35620   8.524   6.269   7.050
45199SOL    HW135621   8.444   6.208   7.053
45199SOL    HW235622   8.605   6.216   7.026
45200SOL     OW35623   8.675   7.156   6.379
45200SOL    HW135624   8.696   7.230   6.314
45200SOL    HW235625   8.743   7.156   6.452
45201SOL     OW35626   7.907   6.738   6.327
45201SOL    HW135627   7.836   6.711   6.392
45201SOL    HW235628   7.881   6.710   6.234
45202SOL     OW35629   8.719   7.383   6.177
45202SOL    HW135630   8.763   7.447   6.113
45202SOL    HW235631   8.669   7.435   6.247
45203SOL     OW35632   8.480   6.135   5.602
45203SOL    HW135633   8.439   6.217   5.563
45203SOL    HW235634   8.544   6.161   5.675
45204SOL     OW35635   7.526   6.142   6.972
45204SOL    HW135636   7.618   6.141   6.931
45204SOL    HW235637   7.520   6.216   7.039
45205SOL     OW35638   8.009   5.808   6.733
45205SOL    HW135639   8.047   5.724   6.770
45205SOL    HW235640   7.921   5.827   6.777
45206SOL     OW35641   8.314   6.040   6.228
45206SOL    HW135642   8.282   6.112   6.166
45206SOL    HW235643   8.338   5.959   6.175
45207SOL     OW35644   8.465   5.625   6.339
45207SOL    HW135645   8.393   5.630   6.270
45207SOL    HW235646   8.441   5.556   6.408
45208SOL     OW35647   8.877   6.759   6.453
45208SOL    HW135648   8.822   6.675   6.446
45208SOL    HW235649   8.903   6.788   6.361
45209SOL     OW35650   8.914   6.176   6.578
45209SOL    HW135651   8.884   6.081   6.585
45209SOL    HW235652   8.987   6.192   6.644
45210SOL     OW35653   9.305   6.419   5.963
45210SOL    HW135654   9.347   6.355   6.027
45210SOL    HW235655   9.267   6.368   5.885
45211SOL     OW35656   7.936   6.971   5.760
45211SOL    HW135657   7.849   6.956   5.807
45211SOL    HW235658   7.919   6.997   5.665
45212SOL     OW35659   9.112   6.866   6.243
45212SOL    HW135660   9.211   6.874   6.257
45212SOL    HW235661   9.067   6.950   6.274
45213SOL     OW35662   8.838   6.161   5.664
45213SOL    HW135663   8.784   6.140   5.745
45213SOL    HW235664   8.929   6.120   5.673
45214SOL     OW35665   7.975   5.842   5.914
45214SOL    HW135666   8.002   5.783   5.839
45214SOL    HW235667   7.975   5.937   5.883
45215SOL     OW35668   9.202   6.809   7.174
45215SOL    HW135669   9.293   6.770   7.161
45215SOL    HW235670   9.210   6.905   7.198
45216SOL     OW35671   8.512   6.933   6.926
45216SOL    HW135672   8.432   6.910   6.981
45216SOL    HW235673   8.595   6.907   6.975
45217SOL     OW35674   9.040   7.215   7.211
45217SOL    HW135675   9.067   7.249   7.121
45217SOL    HW235676   9.119   7.177   7.257
45218SOL     OW35677   8.559   6.781   6.686
45218SOL    HW135678   8.519   6.825   6.767
45218SOL    HW235679   8.518   6.818   6.603
45219SOL     OW35680   9.086   6.685   6.665
45219SOL    HW135681   9.091   6.766   6.724
45219SOL    HW235682   9.000   6.687   6.614
45220SOL     OW35683   8.363   5.675   6.988
45220SOL    HW135684   8.388   5.655   6.893
45220SOL    HW235685   8.435   5.731   7.030
45221SOL     OW35686   8.428   6.702   7.305
45221SOL    HW135687   8.329   6.708   7.315
45221SOL    HW235688   8.451   6.622   7.249
45222SOL     OW35689   8.153   6.636   5.954
45222SOL    HW135690   8.139   6.643   6.053
45222SOL    HW235691   8.237   6.585   5.936
45223SOL     OW35692   7.858   6.399   6.837
45223SOL    HW135693   7.944   6.411   6.887
45223SOL    HW235694   7.816   6.312   6.864
45224SOL     OW35695   8.722   5.972   6.848
45224SOL    HW135696   8.743   6.046   6.912
45224SOL    HW235697   8.633   5.989   6.805
45225SOL     OW35698   7.512   7.150   6.917
45225SOL    HW135699   7.466   7.232   6.883
45225SOL    HW235700   7.610   7.169   6.926
45226SOL     OW35701   7.815   6.686   6.087
45226SOL    HW135702   7.808   6.769   6.031
45226SOL    HW235703   7.819   6.606   6.027
45227SOL     OW35704   8.014   6.123   6.451
45227SOL    HW135705   8.026   6.189   6.377
45227SOL    HW235706   8.060   6.157   6.534
45228SOL     OW35707   8.700   6.934   5.974
45228SOL    HW135708   8.750   7.011   6.014
45228SOL    HW235709   8.605   6.936   6.006
45229SOL     OW35710   8.720   7.031   6.728
45229SOL    HW135711   8.767   7.044   6.815
45229SOL    HW235712   8.654   6.957   6.737
45230SOL     OW35713   9.030   6.225   6.058
45230SOL    HW135714   8.999   6.286   6.131
45230SOL    HW235715   9.080   6.277   5.989
45231SOL     OW35716   7.802   7.096   6.915
45231SOL    HW135717   7.781   7.052   6.828
45231SOL    HW235718   7.899   7.122   6.918
45232SOL     OW35719   7.850   6.337   7.184
45232SOL    HW135720   7.918   6.392   7.137
45232SOL    HW235721   7.890   6.249   7.211
45233SOL     OW35722   9.035   6.365   7.256
45233SOL    HW135723   8.943   6.403   7.251
45233SOL    HW235724   9.095   6.412   7.191
45234SOL     OW35725   8.461   5.691   7.356
45234SOL    HW135726   8.467   5.776   7.304
45234SOL    HW235727   8.493   5.615   7.299
45235SOL     OW35728   7.952   5.636   7.326
45235SOL    HW135729   7.910   5.579   7.256
45235SOL    HW235730   7.886   5.705   7.358
45236SOL     OW35731   8.021   6.456   6.615
45236SOL    HW135732   8.065   6.545   6.606
45236SOL    HW235733   7.958   6.456   6.692
45237SOL     OW35734   8.808   6.448   6.631
45237SOL    HW135735   8.733   6.448   6.565
45237SOL    HW235736   8.845   6.356   6.640
45238SOL     OW35737   8.657   6.111   5.861
45238SOL    HW135738   8.670   6.027   5.915
45238SOL    HW235739   8.628   6.185   5.921
45239SOL     OW35740   7.755   5.799   6.817
45239SOL    HW135741   7.732   5.836   6.907
45239SOL    HW235742   7.725   5.704   6.811
45240SOL     OW35743   7.485   6.896   6.868
45240SOL    HW135744   7.538   6.847   6.936
45240SOL    HW235745   7.507   6.994   6.873
45241SOL     OW35746   8.180   6.220   6.650
45241SOL    HW135747   8.239   6.194   6.574
45241SOL    HW235748   8.152   6.316   6.639
45242SOL     OW35749   9.176   6.521   7.440
45242SOL    HW135750   9.130   6.514   7.351
45242SOL    HW235751   9.114   6.565   7.506
45243SOL     OW35752   7.755   5.649   6.204
45243SOL    HW135753   7.744   5.743   6.237
45243SOL    HW235754   7.750   5.586   6.281
45244SOL     OW35755   9.070   5.953   5.960
45244SOL    HW135756   9.072   5.877   6.024
45244SOL    HW235757   9.022   6.030   6.000
45245SOL     OW35758   8.471   6.352   6.552
45245SOL    HW135759   8.486   6.373   6.648
45245SOL    HW235760   8.441   6.257   6.543
45246SOL     OW35761   8.428   7.159   7.286
45246SOL    HW135762   8.408   7.203   7.198
45246SOL    HW235763   8.467   7.068   7.270
45247SOL     OW35764   9.307   7.104   7.191
45247SOL    HW135765   9.321   7.131   7.096
45247SOL    HW235766   9.390   7.126   7.244
45248SOL     OW35767   7.798   6.484   7.390
45248SOL    HW135768   7.874   6.528   7.438
45248SOL    HW235769   7.833   6.437   7.308
45249SOL     OW35770   8.988   5.860   5.711
45249SOL    HW135771   8.927   5.785   5.734
45249SOL    HW235772   9.010   5.912   5.794
45250SOL     OW35773   8.751   6.424   5.628
45250SOL    HW135774   8.785   6.331   5.643
45250SOL    HW235775   8.769   6.451   5.533
45251SOL     OW35776   8.516   6.919   6.435
45251SOL    HW135777   8.523   6.835   6.380
45251SOL    HW235778   8.578   6.988   6.399
45252SOL     OW35779   7.767   6.396   6.535
45252SOL    HW135780   7.860   6.432   6.540
45252SOL    HW235781   7.761   6.311   6.587
45253SOL     OW35782   7.787   6.095   6.592
45253SOL    HW135783   7.735   6.012   6.575
45253SOL    HW235784   7.864   6.100   6.528
45254SOL     OW35785   8.586   5.966   7.264
45254SOL    HW135786   8.541   6.029   7.328
45254SOL    HW235787   8.679   5.997   7.247
45255SOL     OW35788   8.608   5.793   7.063
45255SOL    HW135789   8.608   5.857   7.140
45255SOL    HW235790   8.636   5.841   6.980
45256SOL     OW35791   7.456   6.912   5.786
45256SOL    HW135792   7.363   6.933   5.755
45256SOL    HW235793   7.466   6.813   5.799
45257SOL     OW35794   7.536   7.387   6.513
45257SOL    HW135795   7.494   7.301   6.486
45257SOL    HW235796   7.630   7.390   6.479
45258SOL     OW35797   7.952   7.154   6.496
45258SOL    HW135798   8.018   7.228   6.505
45258SOL    HW235799   7.996   7.075   6.454
45259SOL     OW35800   8.450   6.382   6.824
45259SOL    HW135801   8.491   6.350   6.910
45259SOL    HW235802   8.354   6.355   6.821
45260SOL     OW35803   7.488   6.130   6.700
45260SOL    HW135804   7.573   6.097   6.659
45260SOL    HW235805   7.501   6.145   6.798
45261SOL     OW35806   7.637   6.106   7.308
45261SOL    HW135807   7.696   6.066   7.238
45261SOL    HW235808   7.579   6.177   7.267
45262SOL     OW35809   8.817   6.536   7.246
45262SOL    HW135810   8.856   6.625   7.266
45262SOL    HW235811   8.827   6.516   7.149
45263SOL     OW35812   8.263   6.158   5.911
45263SOL    HW135813   8.270   6.069   5.865
45263SOL    HW235814   8.169   6.192   5.903
45264SOL     OW35815   9.105   6.190   6.792
45264SOL    HW135816   9.067   6.121   6.854
45264SOL    HW235817   9.187   6.154   6.748
45265SOL     OW35818   7.700   7.150   7.330
45265SOL    HW135819   7.670   7.207   7.406
45265SOL    HW235820   7.693   7.053   7.356
45266SOL     OW35821   8.119   6.050   6.855
45266SOL    HW135822   8.085   5.961   6.825
45266SOL    HW235823   8.145   6.104   6.775
45267SOL     OW35824   8.378   7.264   7.051
45267SOL    HW135825   8.354   7.246   6.956
45267SOL    HW235826   8.408   7.358   7.061
45268SOL     OW35827   7.921   6.086   5.777
45268SOL    HW135828   7.982   6.166   5.781
45268SOL    HW235829   7.826   6.117   5.784
45269SOL     OW35830   7.607   6.723   7.052
45269SOL    HW135831   7.629   6.662   7.128
45269SOL    HW235832   7.617   6.674   6.966
45270SOL     OW35833   8.795   6.645   6.820
45270SOL    HW135834   8.819   6.582   6.746
45270SOL    HW235835   8.705   6.685   6.802
45271SOL     OW35836   8.750   6.441   5.895
45271SOL    HW135837   8.664   6.410   5.937
45271SOL    HW235838   8.746   6.427   5.796
45272SOL     OW35839   9.207   7.333   6.740
45272SOL    HW135840   9.268   7.363   6.667
45272SOL    HW235841   9.169   7.244   6.718
45273SOL     OW35842   8.700   7.317   6.714
45273SOL    HW135843   8.784   7.322   6.660
45273SOL    HW235844   8.677   7.221   6.732
45274SOL     OW35845   7.531   6.844   6.608
45274SOL    HW135846   7.526   6.843   6.708
45274SOL    HW235847   7.448   6.803   6.570
45275SOL     OW35848   8.136   7.248   7.302
45275SOL    HW135849   8.080   7.329   7.311
45275SOL    HW235850   8.188   7.252   7.216
45276SOL     OW35851   9.174   5.721   6.109
45276SOL    HW135852   9.247   5.704   6.042
45276SOL    HW235853   9.143   5.634   6.147
45277SOL     OW35854   8.836   7.159   6.063
45277SOL    HW135855   8.903   7.171   5.989
45277SOL    HW235856   8.796   7.248   6.086
45278SOL     OW35857   7.578   7.380   7.437
45278SOL    HW135858   7.537   7.306   7.490
45278SOL    HW235859   7.642   7.431   7.495
45279SOL     OW35860   8.728   6.513   6.258
45279SOL    HW135861   8.788   6.432   6.260
45279SOL    HW235862   8.768   6.582   6.198
45280SOL     OW35863   8.278   6.859   7.008
45280SOL    HW135864   8.273   6.892   7.103
45280SOL    HW235865   8.192   6.878   6.962
45281SOL     OW35866   8.120   7.202   5.740
45281SOL    HW135867   8.129   7.212   5.641
45281SOL    HW235868   8.080   7.113   5.761
45282SOL     OW35869   9.098   7.306   6.980
45282SOL    HW135870   9.151   7.316   6.896
45282SOL    HW235871   9.071   7.396   7.014
45283SOL     OW35872   9.289   5.761   6.549
45283SOL    HW135873   9.328   5.676   6.513
45283SOL    HW235874   9.191   5.763   6.530
45284SOL     OW35875   7.711   5.912   6.306
45284SOL    HW135876   7.632   5.963   6.272
45284SOL    HW235877   7.702   5.897   6.404
45285SOL     OW35878   8.642   7.198   5.617
45285SOL    HW135879   8.648   7.105   5.654
45285SOL    HW235880   8.583   7.198   5.537
45286SOL     OW35881   8.270   6.588   6.958
45286SOL    HW135882   8.310   6.587   6.866
45286SOL    HW235883   8.280   6.680   6.998
45287SOL     OW35884   8.364   6.496   5.877
45287SOL    HW135885   8.427   6.534   5.809
45287SOL    HW235886   8.404   6.413   5.916
45288SOL     OW35887   8.952   7.193   5.630
45288SOL    HW135888   8.860   7.230   5.637
45288SOL    HW235889   8.990   7.213   5.540
45289SOL     OW35890   7.820   6.874   7.076
45289SOL    HW135891   7.807   6.967   7.042
45289SOL    HW235892   7.736   6.822   7.063
45290SOL     OW35893   9.062   6.878   6.875
45290SOL    HW135894   9.122   6.881   6.955
45290SOL    HW235895   8.987   6.942   6.888
45291SOL     OW35896   8.487   6.684   6.282
45291SOL    HW135897   8.417   6.637   6.336
45291SOL    HW235898   8.546   6.616   6.239
45292SOL     OW35899   8.462   5.822   6.557
45292SOL    HW135900   8.454   5.786   6.464
45292SOL    HW235901   8.460   5.746   6.622
45293SOL     OW35902   8.038   7.073   6.077
45293SOL    HW135903   8.080   7.015   6.007
45293SOL    HW235904   7.994   7.152   6.033
45294SOL     OW35905   9.157   5.971   6.967
45294SOL    HW135906   9.230   6.040   6.971
45294SOL    HW235907   9.185   5.896   6.908
45295SOL     OW35908   7.703   6.934   5.876
45295SOL    HW135909   7.607   6.935   5.849
45295SOL    HW235910   7.715   6.987   5.960
45296SOL     OW35911   7.553   6.599   7.312
45296SOL    HW135912   7.476   6.566   7.366
45296SOL    HW235913   7.638   6.569   7.354
45297SOL     OW35914   8.120   5.789   7.075
45297SOL    HW135915   8.210   5.773   7.035
45297SOL    HW235916   8.128   5.794   7.174
45298SOL     OW35917   7.523   5.931   5.619
45298SOL    HW135918   7.431   5.903   5.590
45298SOL    HW235919   7.554   6.008   5.563
45299SOL     OW35920   8.888   6.442   6.984
45299SOL    HW135921   8.831   6.494   6.921
45299SOL    HW235922   8.984   6.454   6.960
45300SOL     OW35923   7.520   5.752   5.904
45300SOL    HW135924   7.503   5.835   5.850
45300SOL    HW235925   7.610   5.715   5.882
45301SOL     OW35926   8.631   6.921   5.705
45301SOL    HW135927   8.532   6.910   5.707
45301SOL    HW235928   8.665   6.936   5.798
45302SOL     OW35929   8.061   6.428   7.017
45302SOL    HW135930   8.117   6.509   7.000
45302SOL    HW235931   8.120   6.348   7.020
45303SOL     OW35932   8.941   7.353   6.545
45303SOL    HW135933   8.974   7.417   6.476
45303SOL    HW235934   9.007   7.347   6.620
45304SOL     OW35935   8.164   6.151   7.294
45304SOL    HW135936   8.183   6.216   7.368
45304SOL    HW235937   8.224   6.071   7.303
45305SOL     OW35938   8.898   6.806   7.219
45305SOL    HW135939   8.889   6.796   7.318
45305SOL    HW235940   8.994   6.799   7.193
45306SOL     OW35941   7.838   7.327   7.146
45306SOL    HW135942   7.747   7.368   7.144
45306SOL    HW235943   7.831   7.233   7.178
45307SOL     OW35944   9.122   6.469   6.840
45307SOL    HW135945   9.095   6.380   6.803
45307SOL    HW235946   9.123   6.537   6.767
45308SOL     OW35947   8.673   5.911   6.035
45308SOL    HW135948   8.738   5.837   6.024
45308SOL    HW235949   8.693   5.961   6.119
45309SOL     OW35950   8.042   6.331   6.238
45309SOL    HW135951   8.092   6.416   6.219
45309SOL    HW235952   7.954   6.333   6.190
45310SOL     OW35953   9.225   5.928   7.228
45310SOL    HW135954   9.208   5.959   7.134
45310SOL    HW235955   9.141   5.891   7.266
45311SOL     OW35956   9.178   6.520   7.103
45311SOL    HW135957   9.216   6.611   7.118
45311SOL    HW235958   9.170   6.503   7.004
45312SOL     OW35959   8.307   6.960   5.602
45312SOL    HW135960   8.261   6.975   5.690
45312SOL    HW235961   8.351   7.045   5.572
45313SOL     OW35962   8.109   7.376   6.539
45313SOL    HW135963   8.063   7.464   6.526
45313SOL    HW235964   8.208   7.388   6.532
45314SOL     OW35965   8.307   6.542   6.447
45314SOL    HW135966   8.361   6.473   6.495
45314SOL    HW235967   8.275   6.611   6.513
45315SOL     OW35968   8.531   6.570   5.673
45315SOL    HW135969   8.508   6.623   5.591
45315SOL    HW235970   8.612   6.514   5.654
45316SOL     OW35971   9.309   7.155   6.437
45316SOL    HW135972   9.238   7.143   6.367
45316SOL    HW235973   9.310   7.076   6.497
45317SOL     OW35974   7.669   6.900   7.430
45317SOL    HW135975   7.604   6.827   7.409
45317SOL    HW235976   7.673   6.914   7.528
45318SOL     OW35977   7.527   6.826   6.239
45318SOL    HW135978   7.526   6.779   6.327
45318SOL    HW235979   7.609   6.798   6.188
45319SOL     OW35980   8.120   6.977   7.210
45319SOL    HW135981   8.042   6.927   7.248
45319SOL    HW235982   8.117   7.072   7.241
45320SOL     OW35983   9.272   5.778   6.813
45320SOL    HW135984   9.268   5.688   6.857
45320SOL    HW235985   9.275   5.767   6.714
45321SOL     OW35986   7.876   6.010   6.106
45321SOL    HW135987   7.906   5.938   6.044
45321SOL    HW235988   7.837   5.970   6.189
45322SOL     OW35989   9.153   7.073   6.690
45322SOL    HW135990   9.060   7.048   6.663
45322SOL    HW235991   9.179   7.023   6.772
45323SOL     OW35992   7.765   6.133   6.866
45323SOL    HW135993   7.803   6.074   6.938
45323SOL    HW235994   7.805   6.107   6.778
45324SOL     OW35995   8.260   7.172   6.273
45324SOL    HW135996   8.292   7.182   6.179
45324SOL    HW235997   8.181   7.110   6.275
45325SOL     OW35998   8.872   5.800   6.698
45325SOL    HW135999   8.924   5.735   6.753
45325SOL    HW236000   8.823   5.863   6.759
45326SOL     OW36001   8.449   5.620   6.740
45326SOL    HW136002   8.386   5.548   6.709
45326SOL    HW236003   8.542   5.584   6.740
45327SOL     OW36004   8.218   6.916   5.887
45327SOL    HW136005   8.172   6.829   5.904
45327SOL    HW236006   8.309   6.913   5.928
45328SOL     OW36007   8.066   7.153   6.870
45328SOL    HW136008   8.061   7.235   6.927
45328SOL    HW236009   8.155   7.150   6.825
45329SOL     OW36010   8.800   5.638   5.754
45329SOL    HW136011   8.835   5.597   5.670
45329SOL    HW236012   8.710   5.600   5.774
45330SOL     OW36013   8.748   6.039   6.277
45330SOL    HW136014   8.689   6.119   6.281
45330SOL    HW236015   8.763   6.004   6.370
45331SOL     OW36016   9.041   5.807   6.468
45331SOL    HW136017   8.957   5.806   6.522
45331SOL    HW236018   9.043   5.890   6.412
45332SOL     OW36019   7.487   6.663   5.886
45332SOL    HW136020   7.586   6.652   5.877
45332SOL    HW236021   7.447   6.577   5.918
45333SOL     OW36022   8.323   7.232   5.923
45333SOL    HW136023   8.246   7.197   5.869
45333SOL    HW236024   8.291   7.303   5.985
45334SOL     OW36025   7.678   6.214   7.561
45334SOL    HW136026   7.585   6.212   7.598
45334SOL    HW236027   7.679   6.175   7.469
45335SOL     OW36028   7.673   5.861   8.444
45335SOL    HW136029   7.708   5.844   8.536
45335SOL    HW236030   7.585   5.816   8.432
45336SOL     OW36031   7.467   5.954   8.095
45336SOL    HW136032   7.385   5.997   8.134
45336SOL    HW236033   7.439   5.881   8.032
45337SOL     OW36034   8.017   6.861   8.613
45337SOL    HW136035   7.924   6.854   8.576
45337SOL    HW236036   8.028   6.950   8.657
45338SOL     OW36037   9.003   7.097   8.151
45338SOL    HW136038   8.946   7.081   8.232
45338SOL    HW236039   8.944   7.107   8.071
45339SOL     OW36040   8.583   6.289   8.165
45339SOL    HW136041   8.640   6.367   8.140
45339SOL    HW236042   8.523   6.315   8.241
45340SOL     OW36043   9.203   6.193   7.679
45340SOL    HW136044   9.191   6.180   7.580
45340SOL    HW236045   9.173   6.112   7.728
45341SOL     OW36046   8.216   6.730   8.471
45341SOL    HW136047   8.138   6.747   8.531
45341SOL    HW236048   8.250   6.817   8.435
45342SOL     OW36049   8.298   6.384   9.271
45342SOL    HW136050   8.294   6.460   9.336
45342SOL    HW236051   8.320   6.420   9.180
45343SOL     OW36052   8.133   6.598   8.113
45343SOL    HW136053   8.202   6.582   8.183
45343SOL    HW236054   8.060   6.655   8.151
45344SOL     OW36055   8.134   6.747   9.251
45344SOL    HW136056   8.194   6.826   9.265
45344SOL    HW236057   8.048   6.778   9.210
45345SOL     OW36058   7.783   7.021   8.509
45345SOL    HW136059   7.705   6.990   8.456
45345SOL    HW236060   7.841   7.079   8.452
45346SOL     OW36061   8.908   7.091   8.787
45346SOL    HW136062   8.932   7.185   8.813
45346SOL    HW236063   8.892   7.037   8.869
45347SOL     OW36064   7.886   5.978   8.947
45347SOL    HW136065   7.968   5.922   8.956
45347SOL    HW236066   7.805   5.920   8.951
45348SOL     OW36067   9.051   6.033   8.185
45348SOL    HW136068   8.977   6.079   8.135
45348SOL    HW236069   9.102   6.101   8.238
45349SOL     OW36070   7.679   7.299   7.931
45349SOL    HW136071   7.713   7.376   7.985
45349SOL    HW236072   7.723   7.299   7.841
45350SOL     OW36073   8.575   6.927   9.138
45350SOL    HW136074   8.622   6.927   9.226
45350SOL    HW236075   8.527   6.840   9.127
45351SOL     OW36076   7.678   7.020   7.986
45351SOL    HW136077   7.652   7.116   7.986
45351SOL    HW236078   7.607   6.966   8.031
45352SOL     OW36079   7.688   6.677   8.334
45352SOL    HW136080   7.702   6.593   8.386
45352SOL    HW236081   7.633   6.741   8.389
45353SOL     OW36082   8.068   7.372   8.887
45353SOL    HW136083   7.976   7.355   8.922
45353SOL    HW236084   8.096   7.464   8.913
45354SOL     OW36085   8.054   6.550   7.571
45354SOL    HW136086   8.061   6.634   7.517
45354SOL    HW236087   8.100   6.563   7.659
45355SOL     OW36088   9.042   5.700   8.928
45355SOL    HW136089   9.024   5.767   8.856
45355SOL    HW236090   9.039   5.746   9.017
45356SOL     OW36091   7.570   6.229   8.011
45356SOL    HW136092   7.525   6.141   8.028
45356SOL    HW236093   7.569   6.283   8.095
45357SOL     OW36094   9.290   7.353   7.807
45357SOL    HW136095   9.344   7.324   7.887
45357SOL    HW236096   9.320   7.443   7.778
45358SOL     OW36097   7.475   7.182   7.565
45358SOL    HW136098   7.456   7.086   7.586
45358SOL    HW236099   7.442   7.240   7.640
45359SOL     OW36100   9.137   6.508   8.060
45359SOL    HW136101   9.232   6.479   8.068
45359SOL    HW236102   9.129   6.573   7.985
45360SOL     OW36103   9.089   6.694   7.880
45360SOL    HW136104   9.175   6.696   7.828
45360SOL    HW236105   9.103   6.741   7.968
45361SOL     OW36106   7.561   6.323   9.045
45361SOL    HW136107   7.649   6.310   9.090
45361SOL    HW236108   7.548   6.420   9.023
45362SOL     OW36109   8.061   6.951   8.174
45362SOL    HW136110   8.012   6.864   8.183
45362SOL    HW236111   8.038   6.994   8.087
45363SOL     OW36112   8.741   6.814   8.871
45363SOL    HW136113   8.778   6.741   8.813
45363SOL    HW236114   8.793   6.819   8.956
45364SOL     OW36115   8.257   5.590   7.950
45364SOL    HW136116   8.297   5.681   7.941
45364SOL    HW236117   8.157   5.598   7.956
45365SOL     OW36118   7.645   6.562   8.712
45365SOL    HW136119   7.734   6.517   8.698
45365SOL    HW236120   7.572   6.497   8.693
45366SOL     OW36121   8.973   6.585   7.638
45366SOL    HW136122   8.910   6.509   7.651
45366SOL    HW236123   9.021   6.603   7.724
45367SOL     OW36124   8.635   7.378   9.064
45367SOL    HW136125   8.659   7.438   8.988
45367SOL    HW236126   8.642   7.283   9.034
45368SOL     OW36127   7.765   5.837   9.249
45368SOL    HW136128   7.836   5.908   9.255
45368SOL    HW236129   7.677   5.876   9.277
45369SOL     OW36130   8.914   7.003   8.401
45369SOL    HW136131   8.855   7.009   8.481
45369SOL    HW236132   8.899   6.915   8.355
45370SOL     OW36133   9.115   7.300   8.020
45370SOL    HW136134   9.074   7.277   7.932
45370SOL    HW236135   9.097   7.226   8.085
45371SOL     OW36136   8.046   6.315   7.718
45371SOL    HW136137   8.070   6.384   7.650
45371SOL    HW236138   7.968   6.348   7.772
45372SOL     OW36139   8.729   5.931   8.392
45372SOL    HW136140   8.643   5.881   8.379
45372SOL    HW236141   8.791   5.877   8.448
45373SOL     OW36142   9.024   7.248   7.755
45373SOL    HW136143   9.113   7.294   7.758
45373SOL    HW236144   9.003   7.224   7.660
45374SOL     OW36145   8.255   6.191   8.913
45374SOL    HW136146   8.208   6.188   9.002
45374SOL    HW236147   8.204   6.136   8.847
45375SOL     OW36148   8.842   6.055   9.122
45375SOL    HW136149   8.822   6.098   9.210
45375SOL    HW236150   8.920   5.993   9.131
45376SOL     OW36151   8.421   6.476   9.020
45376SOL    HW136152   8.467   6.392   8.991
45376SOL    HW236153   8.365   6.510   8.945
45377SOL     OW36154   8.439   5.996   8.690
45377SOL    HW136155   8.362   6.030   8.744
45377SOL    HW236156   8.405   5.945   8.611
45378SOL     OW36157   8.489   6.287   7.877
45378SOL    HW136158   8.515   6.283   7.973
45378SOL    HW236159   8.404   6.236   7.863
45379SOL     OW36160   7.524   6.397   8.237
45379SOL    HW136161   7.623   6.385   8.246
45379SOL    HW236162   7.500   6.492   8.258
45380SOL     OW36163   7.578   7.407   9.019
45380SOL    HW136164   7.568   7.392   9.118
45380SOL    HW236165   7.492   7.443   8.983
45381SOL     OW36166   8.313   5.934   7.643
45381SOL    HW136167   8.372   5.997   7.594
45381SOL    HW236168   8.332   5.840   7.614
45382SOL     OW36169   9.167   6.171   9.279
45382SOL    HW136170   9.141   6.260   9.243
45382SOL    HW236171   9.165   6.103   9.206
45383SOL     OW36172   8.810   6.730   7.993
45383SOL    HW136173   8.893   6.701   7.945
45383SOL    HW236174   8.761   6.797   7.937
45384SOL     OW36175   7.998   5.782   8.333
45384SOL    HW136176   7.993   5.777   8.433
45384SOL    HW236177   8.000   5.878   8.304
45385SOL     OW36178   8.456   7.042   7.925
45385SOL    HW136179   8.410   7.114   7.873
45385SOL    HW236180   8.452   7.062   8.023
45386SOL     OW36181   7.799   7.387   8.301
45386SOL    HW136182   7.849   7.301   8.307
45386SOL    HW236183   7.864   7.464   8.298
45387SOL     OW36184   9.243   6.652   8.321
45387SOL    HW136185   9.181   6.637   8.245
45387SOL    HW236186   9.191   6.663   8.406
45388SOL     OW36187   8.675   7.136   8.954
45388SOL    HW136188   8.681   7.059   9.018
45388SOL    HW236189   8.623   7.110   8.874
45389SOL     OW36190   7.769   6.529   7.690
45389SOL    HW136191   7.851   6.568   7.648
45389SOL    HW236192   7.742   6.447   7.641
45390SOL     OW36193   8.906   6.321   8.176
45390SOL    HW136194   8.901   6.256   8.251
45390SOL    HW236195   8.986   6.380   8.189
45391SOL     OW36196   7.909   6.852   9.175
45391SOL    HW136197   7.859   6.853   9.089
45391SOL    HW236198   7.846   6.834   9.251
45392SOL     OW36199   8.559   7.362   7.685
45392SOL    HW136200   8.499   7.300   7.735
45392SOL    HW236201   8.590   7.318   7.600
45393SOL     OW36202   7.650   5.871   8.946
45393SOL    HW136203   7.570   5.931   8.933
45393SOL    HW236204   7.640   5.822   9.032
45394SOL     OW36205   9.080   6.963   7.529
45394SOL    HW136206   9.048   7.057   7.519
45394SOL    HW236207   9.004   6.900   7.517
45395SOL     OW36208   7.912   7.329   7.771
45395SOL    HW136209   7.945   7.368   7.857
45395SOL    HW236210   7.988   7.322   7.706
45396SOL     OW36211   8.848   5.693   7.874
45396SOL    HW136212   8.824   5.656   7.784
45396SOL    HW236213   8.947   5.709   7.878
45397SOL     OW36214   7.697   7.371   8.689
45397SOL    HW136215   7.754   7.306   8.739
45397SOL    HW236216   7.681   7.338   8.596
45398SOL     OW36217   8.388   7.284   8.352
45398SOL    HW136218   8.468   7.227   8.373
45398SOL    HW236219   8.339   7.244   8.275
45399SOL     OW36220   7.830   6.286   7.928
45399SOL    HW136221   7.875   6.196   7.925
45399SOL    HW236222   7.736   6.275   7.961
45400SOL     OW36223   8.995   5.808   9.177
45400SOL    HW136224   8.990   5.845   9.269
45400SOL    HW236225   8.923   5.739   9.165
45401SOL     OW36226   8.062   5.708   7.565
45401SOL    HW136227   8.160   5.686   7.572
45401SOL    HW236228   8.031   5.691   7.472
45402SOL     OW36229   8.229   5.850   9.197
45402SOL    HW136230   8.296   5.789   9.240
45402SOL    HW236231   8.156   5.869   9.262
45403SOL     OW36232   8.336   7.100   8.643
45403SOL    HW136233   8.313   7.075   8.549
45403SOL    HW236234   8.397   7.031   8.682
45404SOL     OW36235   8.799   6.176   8.881
45404SOL    HW136236   8.827   6.133   8.966
45404SOL    HW236237   8.824   6.272   8.882
45405SOL     OW36238   8.251   6.988   8.372
45405SOL    HW136239   8.341   7.002   8.330
45405SOL    HW236240   8.180   6.990   8.301
45406SOL     OW36241   8.370   6.089   8.347
45406SOL    HW136242   8.345   6.080   8.251
45406SOL    HW236243   8.418   6.007   8.378
45407SOL     OW36244   7.987   5.650   7.960
45407SOL    HW136245   7.906   5.651   8.018
45407SOL    HW236246   7.990   5.733   7.905
45408SOL     OW36247   8.882   6.774   7.489
45408SOL    HW136248   8.914   6.698   7.546
45408SOL    HW236249   8.790   6.801   7.519
45409SOL     OW36250   7.745   5.621   7.619
45409SOL    HW136251   7.794   5.705   7.598
45409SOL    HW236252   7.807   5.556   7.664
45410SOL     OW36253   8.383   5.822   7.928
45410SOL    HW136254   8.335   5.863   7.850
45410SOL    HW236255   8.482   5.820   7.909
45411SOL     OW36256   8.524   6.269   8.912
45411SOL    HW136257   8.444   6.208   8.915
45411SOL    HW236258   8.605   6.216   8.888
45412SOL     OW36259   8.675   7.156   8.241
45412SOL    HW136260   8.696   7.230   8.176
45412SOL    HW236261   8.743   7.156   8.314
45413SOL     OW36262   7.907   6.738   8.189
45413SOL    HW136263   7.836   6.711   8.254
45413SOL    HW236264   7.881   6.710   8.096
45414SOL     OW36265   8.719   7.383   8.039
45414SOL    HW136266   8.763   7.447   7.975
45414SOL    HW236267   8.669   7.435   8.109
45415SOL     OW36268   8.480   6.135   7.464
45415SOL    HW136269   8.439   6.217   7.425
45415SOL    HW236270   8.544   6.161   7.537
45416SOL     OW36271   7.526   6.142   8.834
45416SOL    HW136272   7.618   6.141   8.793
45416SOL    HW236273   7.520   6.216   8.901
45417SOL     OW36274   8.009   5.808   8.595
45417SOL    HW136275   8.047   5.724   8.632
45417SOL    HW236276   7.921   5.827   8.639
45418SOL     OW36277   8.314   6.040   8.090
45418SOL    HW136278   8.282   6.112   8.028
45418SOL    HW236279   8.338   5.959   8.037
45419SOL     OW36280   8.465   5.625   8.201
45419SOL    HW136281   8.393   5.630   8.132
45419SOL    HW236282   8.441   5.556   8.270
45420SOL     OW36283   8.877   6.759   8.315
45420SOL    HW136284   8.822   6.675   8.308
45420SOL    HW236285   8.903   6.788   8.223
45421SOL     OW36286   8.914   6.176   8.440
45421SOL    HW136287   8.884   6.081   8.447
45421SOL    HW236288   8.987   6.192   8.506
45422SOL     OW36289   9.305   6.419   7.825
45422SOL    HW136290   9.347   6.355   7.889
45422SOL    HW236291   9.267   6.368   7.747
45423SOL     OW36292   7.936   6.971   7.622
45423SOL    HW136293   7.849   6.956   7.669
45423SOL    HW236294   7.919   6.997   7.527
45424SOL     OW36295   9.112   6.866   8.105
45424SOL    HW136296   9.211   6.874   8.119
45424SOL    HW236297   9.067   6.950   8.136
45425SOL     OW36298   8.838   6.161   7.526
45425SOL    HW136299   8.784   6.140   7.607
45425SOL    HW236300   8.929   6.120   7.535
45426SOL     OW36301   7.975   5.842   7.776
45426SOL    HW136302   8.002   5.783   7.701
45426SOL    HW236303   7.975   5.937   7.745
45427SOL     OW36304   9.202   6.809   9.036
45427SOL    HW136305   9.293   6.770   9.023
45427SOL    HW236306   9.210   6.905   9.060
45428SOL     OW36307   8.512   6.933   8.788
45428SOL    HW136308   8.432   6.910   8.843
45428SOL    HW236309   8.595   6.907   8.837
45429SOL     OW36310   9.040   7.215   9.073
45429SOL    HW136311   9.067   7.249   8.983
45429SOL    HW236312   9.119   7.177   9.119
45430SOL     OW36313   8.559   6.781   8.548
45430SOL    HW136314   8.519   6.825   8.629
45430SOL    HW236315   8.518   6.818   8.465
45431SOL     OW36316   9.086   6.685   8.527
45431SOL    HW136317   9.091   6.766   8.586
45431SOL    HW236318   9.000   6.687   8.476
45432SOL     OW36319   8.363   5.675   8.850
45432SOL    HW136320   8.388   5.655   8.755
45432SOL    HW236321   8.435   5.731   8.892
45433SOL     OW36322   8.428   6.702   9.167
45433SOL    HW136323   8.329   6.708   9.177
45433SOL    HW236324   8.451   6.622   9.111
45434SOL     OW36325   8.153   6.636   7.816
45434SOL    HW136326   8.139   6.643   7.915
45434SOL    HW236327   8.237   6.585   7.798
45435SOL     OW36328   7.858   6.399   8.699
45435SOL    HW136329   7.944   6.411   8.749
45435SOL    HW236330   7.816   6.312   8.726
45436SOL     OW36331   8.722   5.972   8.710
45436SOL    HW136332   8.743   6.046   8.774
45436SOL    HW236333   8.633   5.989   8.667
45437SOL     OW36334   7.512   7.150   8.779
45437SOL    HW136335   7.466   7.232   8.745
45437SOL    HW236336   7.610   7.169   8.788
45438SOL     OW36337   7.815   6.686   7.949
45438SOL    HW136338   7.808   6.769   7.893
45438SOL    HW236339   7.819   6.606   7.889
45439SOL     OW36340   8.014   6.123   8.313
45439SOL    HW136341   8.026   6.189   8.239
45439SOL    HW236342   8.060   6.157   8.396
45440SOL     OW36343   8.700   6.934   7.836
45440SOL    HW136344   8.750   7.011   7.876
45440SOL    HW236345   8.605   6.936   7.868
45441SOL     OW36346   8.720   7.031   8.590
45441SOL    HW136347   8.767   7.044   8.677
45441SOL    HW236348   8.654   6.957   8.599
45442SOL     OW36349   9.030   6.225   7.920
45442SOL    HW136350   8.999   6.286   7.993
45442SOL    HW236351   9.080   6.277   7.851
45443SOL     OW36352   7.802   7.096   8.777
45443SOL    HW136353   7.781   7.052   8.690
45443SOL    HW236354   7.899   7.122   8.780
45444SOL     OW36355   7.850   6.337   9.046
45444SOL    HW136356   7.918   6.392   8.999
45444SOL    HW236357   7.890   6.249   9.073
45445SOL     OW36358   9.035   6.365   9.118
45445SOL    HW136359   8.943   6.403   9.113
45445SOL    HW236360   9.095   6.412   9.053
45446SOL     OW36361   8.461   5.691   9.218
45446SOL    HW136362   8.467   5.776   9.166
45446SOL    HW236363   8.493   5.615   9.161
45447SOL     OW36364   7.952   5.636   9.188
45447SOL    HW136365   7.910   5.579   9.118
45447SOL    HW236366   7.886   5.705   9.220
45448SOL     OW36367   8.021   6.456   8.477
45448SOL    HW136368   8.065   6.545   8.468
45448SOL    HW236369   7.958   6.456   8.554
45449SOL     OW36370   8.808   6.448   8.493
45449SOL    HW136371   8.733   6.448   8.427
45449SOL    HW236372   8.845   6.356   8.502
45450SOL     OW36373   8.657   6.111   7.723
45450SOL    HW136374   8.670   6.027   7.777
45450SOL    HW236375   8.628   6.185   7.783
45451SOL     OW36376   7.755   5.799   8.679
45451SOL    HW136377   7.732   5.836   8.769
45451SOL    HW236378   7.725   5.704   8.673
45452SOL     OW36379   7.485   6.896   8.730
45452SOL    HW136380   7.538   6.847   8.798
45452SOL    HW236381   7.507   6.994   8.735
45453SOL     OW36382   8.180   6.220   8.512
45453SOL    HW136383   8.239   6.194   8.436
45453SOL    HW236384   8.152   6.316   8.501
45454SOL     OW36385   9.176   6.521   9.302
45454SOL    HW136386   9.130   6.514   9.213
45454SOL    HW236387   9.114   6.565   9.368
45455SOL     OW36388   7.755   5.649   8.066
45455SOL    HW136389   7.744   5.743   8.099
45455SOL    HW236390   7.750   5.586   8.143
45456SOL     OW36391   9.070   5.953   7.822
45456SOL    HW136392   9.072   5.877   7.886
45456SOL    HW236393   9.022   6.030   7.862
45457SOL     OW36394   8.471   6.352   8.414
45457SOL    HW136395   8.486   6.373   8.510
45457SOL    HW236396   8.441   6.257   8.405
45458SOL     OW36397   8.428   7.159   9.148
45458SOL    HW136398   8.408   7.203   9.060
45458SOL    HW236399   8.467   7.068   9.132
45459SOL     OW36400   9.307   7.104   9.053
45459SOL    HW136401   9.321   7.131   8.958
45459SOL    HW236402   9.390   7.126   9.106
45460SOL     OW36403   7.798   6.484   9.252
45460SOL    HW136404   7.874   6.528   9.300
45460SOL    HW236405   7.833   6.437   9.170
45461SOL     OW36406   8.988   5.860   7.573
45461SOL    HW136407   8.927   5.785   7.596
45461SOL    HW236408   9.010   5.912   7.656
45462SOL     OW36409   8.751   6.424   7.490
45462SOL    HW136410   8.785   6.331   7.505
45462SOL    HW236411   8.769   6.451   7.395
45463SOL     OW36412   8.516   6.919   8.297
45463SOL    HW136413   8.523   6.835   8.242
45463SOL    HW236414   8.578   6.988   8.261
45464SOL     OW36415   7.767   6.396   8.397
45464SOL    HW136416   7.860   6.432   8.402
45464SOL    HW236417   7.761   6.311   8.449
45465SOL     OW36418   7.787   6.095   8.454
45465SOL    HW136419   7.735   6.012   8.437
45465SOL    HW236420   7.864   6.100   8.390
45466SOL     OW36421   8.586   5.966   9.126
45466SOL    HW136422   8.541   6.029   9.190
45466SOL    HW236423   8.679   5.997   9.109
45467SOL     OW36424   8.608   5.793   8.925
45467SOL    HW136425   8.608   5.857   9.002
45467SOL    HW236426   8.636   5.841   8.842
45468SOL     OW36427   7.456   6.912   7.648
45468SOL    HW136428   7.363   6.933   7.617
45468SOL    HW236429   7.466   6.813   7.661
45469SOL     OW36430   7.536   7.387   8.375
45469SOL    HW136431   7.494   7.301   8.348
45469SOL    HW236432   7.630   7.390   8.341
45470SOL     OW36433   7.952   7.154   8.358
45470SOL    HW136434   8.018   7.228   8.367
45470SOL    HW236435   7.996   7.075   8.316
45471SOL     OW36436   8.450   6.382   8.686
45471SOL    HW136437   8.491   6.350   8.772
45471SOL    HW236438   8.354   6.355   8.683
45472SOL     OW36439   7.488   6.130   8.562
45472SOL    HW136440   7.573   6.097   8.521
45472SOL    HW236441   7.501   6.145   8.660
45473SOL     OW36442   7.637   6.106   9.170
45473SOL    HW136443   7.696   6.066   9.100
45473SOL    HW236444   7.579   6.177   9.129
45474SOL     OW36445   8.817   6.536   9.108
45474SOL    HW136446   8.856   6.625   9.128
45474SOL    HW236447   8.827   6.516   9.011
45475SOL     OW36448   8.263   6.158   7.773
45475SOL    HW136449   8.270   6.069   7.727
45475SOL    HW236450   8.169   6.192   7.765
45476SOL     OW36451   9.105   6.190   8.654
45476SOL    HW136452   9.067   6.121   8.716
45476SOL    HW236453   9.187   6.154   8.610
45477SOL     OW36454   7.700   7.150   9.192
45477SOL    HW136455   7.670   7.207   9.268
45477SOL    HW236456   7.693   7.053   9.218
45478SOL     OW36457   8.119   6.050   8.717
45478SOL    HW136458   8.085   5.961   8.687
45478SOL    HW236459   8.145   6.104   8.637
45479SOL     OW36460   8.378   7.264   8.913
45479SOL    HW136461   8.354   7.246   8.818
45479SOL    HW236462   8.408   7.358   8.923
45480SOL     OW36463   7.921   6.086   7.639
45480SOL    HW136464   7.982   6.166   7.643
45480SOL    HW236465   7.826   6.117   7.646
45481SOL     OW36466   7.607   6.723   8.914
45481SOL    HW136467   7.629   6.662   8.990
45481SOL    HW236468   7.617   6.674   8.828
45482SOL     OW36469   8.795   6.645   8.682
45482SOL    HW136470   8.819   6.582   8.608
45482SOL    HW236471   8.705   6.685   8.664
45483SOL     OW36472   8.750   6.441   7.757
45483SOL    HW136473   8.664   6.410   7.799
45483SOL    HW236474   8.746   6.427   7.658
45484SOL     OW36475   9.207   7.333   8.602
45484SOL    HW136476   9.268   7.363   8.529
45484SOL    HW236477   9.169   7.244   8.580
45485SOL     OW36478   8.700   7.317   8.576
45485SOL    HW136479   8.784   7.322   8.522
45485SOL    HW236480   8.677   7.221   8.594
45486SOL     OW36481   7.531   6.844   8.470
45486SOL    HW136482   7.526   6.843   8.570
45486SOL    HW236483   7.448   6.803   8.432
45487SOL     OW36484   8.136   7.248   9.164
45487SOL    HW136485   8.080   7.329   9.173
45487SOL    HW236486   8.188   7.252   9.078
45488SOL     OW36487   9.174   5.721   7.971
45488SOL    HW136488   9.247   5.704   7.904
45488SOL    HW236489   9.143   5.634   8.009
45489SOL     OW36490   8.836   7.159   7.925
45489SOL    HW136491   8.903   7.171   7.851
45489SOL    HW236492   8.796   7.248   7.948
45490SOL     OW36493   7.578   7.380   9.299
45490SOL    HW136494   7.537   7.306   9.352
45490SOL    HW236495   7.642   7.431   9.357
45491SOL     OW36496   8.728   6.513   8.120
45491SOL    HW136497   8.788   6.432   8.122
45491SOL    HW236498   8.768   6.582   8.060
45492SOL     OW36499   8.278   6.859   8.870
45492SOL    HW136500   8.273   6.892   8.965
45492SOL    HW236501   8.192   6.878   8.824
45493SOL     OW36502   8.120   7.202   7.602
45493SOL    HW136503   8.129   7.212   7.503
45493SOL    HW236504   8.080   7.113   7.623
45494SOL     OW36505   9.098   7.306   8.842
45494SOL    HW136506   9.151   7.316   8.758
45494SOL    HW236507   9.071   7.396   8.876
45495SOL     OW36508   9.289   5.761   8.411
45495SOL    HW136509   9.328   5.676   8.375
45495SOL    HW236510   9.191   5.763   8.392
45496SOL     OW36511   7.711   5.912   8.168
45496SOL    HW136512   7.632   5.963   8.134
45496SOL    HW236513   7.702   5.897   8.266
45497SOL     OW36514   8.642   7.198   7.479
45497SOL    HW136515   8.648   7.105   7.516
45497SOL    HW236516   8.583   7.198   7.399
45498SOL     OW36517   8.270   6.588   8.820
45498SOL    HW136518   8.310   6.587   8.728
45498SOL    HW236519   8.280   6.680   8.860
45499SOL     OW36520   8.364   6.496   7.739
45499SOL    HW136521   8.427   6.534   7.671
45499SOL    HW236522   8.404   6.413   7.778
45500SOL     OW36523   8.952   7.193   7.492
45500SOL    HW136524   8.860   7.230   7.499
45500SOL    HW236525   8.990   7.213   7.402
45501SOL     OW36526   7.820   6.874   8.938
45501SOL    HW136527   7.807   6.967   8.904
45501SOL    HW236528   7.736   6.822   8.925
45502SOL     OW36529   9.062   6.878   8.737
45502SOL    HW136530   9.122   6.881   8.817
45502SOL    HW236531   8.987   6.942   8.750
45503SOL     OW36532   8.487   6.684   8.144
45503SOL    HW136533   8.417   6.637   8.198
45503SOL    HW236534   8.546   6.616   8.101
45504SOL     OW36535   8.462   5.822   8.419
45504SOL    HW136536   8.454   5.786   8.326
45504SOL    HW236537   8.460   5.746   8.484
45505SOL     OW36538   8.038   7.073   7.939
45505SOL    HW136539   8.080   7.015   7.869
45505SOL    HW236540   7.994   7.152   7.895
45506SOL     OW36541   9.157   5.971   8.829
45506SOL    HW136542   9.230   6.040   8.833
45506SOL    HW236543   9.185   5.896   8.770
45507SOL     OW36544   7.703   6.934   7.738
45507SOL    HW136545   7.607   6.935   7.711
45507SOL    HW236546   7.715   6.987   7.822
45508SOL     OW36547   7.553   6.599   9.174
45508SOL    HW136548   7.476   6.566   9.228
45508SOL    HW236549   7.638   6.569   9.216
45509SOL     OW36550   8.120   5.789   8.937
45509SOL    HW136551   8.210   5.773   8.897
45509SOL    HW236552   8.128   5.794   9.036
45510SOL     OW36553   7.523   5.931   7.481
45510SOL    HW136554   7.431   5.903   7.452
45510SOL    HW236555   7.554   6.008   7.425
45511SOL     OW36556   8.888   6.442   8.846
45511SOL    HW136557   8.831   6.494   8.783
45511SOL    HW236558   8.984   6.454   8.822
45512SOL     OW36559   7.520   5.752   7.766
45512SOL    HW136560   7.503   5.835   7.712
45512SOL    HW236561   7.610   5.715   7.744
45513SOL     OW36562   8.631   6.921   7.567
45513SOL    HW136563   8.532   6.910   7.569
45513SOL    HW236564   8.665   6.936   7.660
45514SOL     OW36565   8.061   6.428   8.879
45514SOL    HW136566   8.117   6.509   8.862
45514SOL    HW236567   8.120   6.348   8.882
45515SOL     OW36568   8.941   7.353   8.407
45515SOL    HW136569   8.974   7.417   8.338
45515SOL    HW236570   9.007   7.347   8.482
45516SOL     OW36571   8.164   6.151   9.156
45516SOL    HW136572   8.183   6.216   9.230
45516SOL    HW236573   8.224   6.071   9.165
45517SOL     OW36574   8.898   6.806   9.081
45517SOL    HW136575   8.889   6.796   9.180
45517SOL    HW236576   8.994   6.799   9.055
45518SOL     OW36577   7.838   7.327   9.008
45518SOL    HW136578   7.747   7.368   9.006
45518SOL    HW236579   7.831   7.233   9.040
45519SOL     OW36580   9.122   6.469   8.702
45519SOL    HW136581   9.095   6.380   8.665
45519SOL    HW236582   9.123   6.537   8.629
45520SOL     OW36583   8.673   5.911   7.897
45520SOL    HW136584   8.738   5.837   7.886
45520SOL    HW236585   8.693   5.961   7.981
45521SOL     OW36586   8.042   6.331   8.100
45521SOL    HW136587   8.092   6.416   8.081
45521SOL    HW236588   7.954   6.333   8.052
45522SOL     OW36589   9.225   5.928   9.090
45522SOL    HW136590   9.208   5.959   8.996
45522SOL    HW236591   9.141   5.891   9.128
45523SOL     OW36592   9.178   6.520   8.965
45523SOL    HW136593   9.216   6.611   8.980
45523SOL    HW236594   9.170   6.503   8.866
45524SOL     OW36595   8.307   6.960   7.464
45524SOL    HW136596   8.261   6.975   7.552
45524SOL    HW236597   8.351   7.045   7.434
45525SOL     OW36598   8.109   7.376   8.401
45525SOL    HW136599   8.063   7.464   8.388
45525SOL    HW236600   8.208   7.388   8.394
45526SOL     OW36601   8.307   6.542   8.309
45526SOL    HW136602   8.361   6.473   8.357
45526SOL    HW236603   8.275   6.611   8.375
45527SOL     OW36604   8.531   6.570   7.535
45527SOL    HW136605   8.508   6.623   7.453
45527SOL    HW236606   8.612   6.514   7.516
45528SOL     OW36607   9.309   7.155   8.299
45528SOL    HW136608   9.238   7.143   8.229
45528SOL    HW236609   9.310   7.076   8.359
45529SOL     OW36610   7.669   6.900   9.292
45529SOL    HW136611   7.604   6.827   9.271
45529SOL    HW236612   7.673   6.914   9.390
45530SOL     OW36613   7.527   6.826   8.101
45530SOL    HW136614   7.526   6.779   8.189
45530SOL    HW236615   7.609   6.798   8.050
45531SOL     OW36616   8.120   6.977   9.072
45531SOL    HW136617   8.042   6.927   9.110
45531SOL    HW236618   8.117   7.072   9.103
45532SOL     OW36619   9.272   5.778   8.675
45532SOL    HW136620   9.268   5.688   8.719
45532SOL    HW236621   9.275   5.767   8.576
45533SOL     OW36622   7.876   6.010   7.968
45533SOL    HW136623   7.906   5.938   7.906
45533SOL    HW236624   7.837   5.970   8.051
45534SOL     OW36625   9.153   7.073   8.552
45534SOL    HW136626   9.060   7.048   8.525
45534SOL    HW236627   9.179   7.023   8.634
45535SOL     OW36628   7.765   6.133   8.728
45535SOL    HW136629   7.803   6.074   8.800
45535SOL    HW236630   7.805   6.107   8.640
45536SOL     OW36631   8.260   7.172   8.135
45536SOL    HW136632   8.292   7.182   8.041
45536SOL    HW236633   8.181   7.110   8.137
45537SOL     OW36634   8.872   5.800   8.560
45537SOL    HW136635   8.924   5.735   8.615
45537SOL    HW236636   8.823   5.863   8.621
45538SOL     OW36637   8.449   5.620   8.602
45538SOL    HW136638   8.386   5.548   8.571
45538SOL    HW236639   8.542   5.584   8.602
45539SOL     OW36640   8.218   6.916   7.749
45539SOL    HW136641   8.172   6.829   7.766
45539SOL    HW236642   8.309   6.913   7.790
45540SOL     OW36643   8.066   7.153   8.732
45540SOL    HW136644   8.061   7.235   8.789
45540SOL    HW236645   8.155   7.150   8.687
45541SOL     OW36646   8.800   5.638   7.616
45541SOL    HW136647   8.835   5.597   7.532
45541SOL    HW236648   8.710   5.600   7.636
45542SOL     OW36649   8.748   6.039   8.139
45542SOL    HW136650   8.689   6.119   8.143
45542SOL    HW236651   8.763   6.004   8.232
45543SOL     OW36652   9.041   5.807   8.330
45543SOL    HW136653   8.957   5.806   8.384
45543SOL    HW236654   9.043   5.890   8.274
45544SOL     OW36655   7.487   6.663   7.748
45544SOL    HW136656   7.586   6.652   7.739
45544SOL    HW236657   7.447   6.577   7.780
45545SOL     OW36658   8.323   7.232   7.785
45545SOL    HW136659   8.246   7.197   7.731
45545SOL    HW236660   8.291   7.303   7.847
45546SOL     OW36661   7.678   6.214   9.423
45546SOL    HW136662   7.585   6.212   9.460
45546SOL    HW236663   7.679   6.175   9.331
45547SOL     OW36664   7.673   5.861  10.306
45547SOL    HW136665   7.708   5.844  10.398
45547SOL    HW236666   7.585   5.816  10.294
45548SOL     OW36667   7.467   5.954   9.957
45548SOL    HW136668   7.385   5.997   9.996
45548SOL    HW236669   7.439   5.881   9.894
45549SOL     OW36670   8.017   6.861  10.475
45549SOL    HW136671   7.924   6.854  10.438
45549SOL    HW236672   8.028   6.950  10.519
45550SOL     OW36673   9.003   7.097  10.013
45550SOL    HW136674   8.946   7.081  10.094
45550SOL    HW236675   8.944   7.107   9.933
45551SOL     OW36676   8.583   6.289  10.027
45551SOL    HW136677   8.640   6.367  10.002
45551SOL    HW236678   8.523   6.315  10.103
45552SOL     OW36679   9.203   6.193   9.541
45552SOL    HW136680   9.191   6.180   9.442
45552SOL    HW236681   9.173   6.112   9.590
45553SOL     OW36682   8.216   6.730  10.333
45553SOL    HW136683   8.138   6.747  10.393
45553SOL    HW236684   8.250   6.817  10.297
45554SOL     OW36685   8.298   6.384  11.133
45554SOL    HW136686   8.294   6.460  11.198
45554SOL    HW236687   8.320   6.420  11.042
45555SOL     OW36688   8.133   6.598   9.975
45555SOL    HW136689   8.202   6.582  10.045
45555SOL    HW236690   8.060   6.655  10.013
45556SOL     OW36691   8.134   6.747  11.113
45556SOL    HW136692   8.194   6.826  11.127
45556SOL    HW236693   8.048   6.778  11.072
45557SOL     OW36694   7.783   7.021  10.371
45557SOL    HW136695   7.705   6.990  10.318
45557SOL    HW236696   7.841   7.079  10.314
45558SOL     OW36697   8.908   7.091  10.649
45558SOL    HW136698   8.932   7.185  10.675
45558SOL    HW236699   8.892   7.037  10.731
45559SOL     OW36700   7.886   5.978  10.809
45559SOL    HW136701   7.968   5.922  10.818
45559SOL    HW236702   7.805   5.920  10.813
45560SOL     OW36703   9.051   6.033  10.047
45560SOL    HW136704   8.977   6.079   9.997
45560SOL    HW236705   9.102   6.101  10.100
45561SOL     OW36706   7.679   7.299   9.793
45561SOL    HW136707   7.713   7.376   9.847
45561SOL    HW236708   7.723   7.299   9.703
45562SOL     OW36709   8.575   6.927  11.000
45562SOL    HW136710   8.622   6.927  11.088
45562SOL    HW236711   8.527   6.840  10.989
45563SOL     OW36712   7.678   7.020   9.848
45563SOL    HW136713   7.652   7.116   9.848
45563SOL    HW236714   7.607   6.966   9.893
45564SOL     OW36715   7.688   6.677  10.196
45564SOL    HW136716   7.702   6.593  10.248
45564SOL    HW236717   7.633   6.741  10.251
45565SOL     OW36718   8.068   7.372  10.749
45565SOL    HW136719   7.976   7.355  10.784
45565SOL    HW236720   8.096   7.464  10.775
45566SOL     OW36721   8.054   6.550   9.433
45566SOL    HW136722   8.061   6.634   9.379
45566SOL    HW236723   8.100   6.563   9.521
45567SOL     OW36724   9.042   5.700  10.790
45567SOL    HW136725   9.024   5.767  10.718
45567SOL    HW236726   9.039   5.746  10.879
45568SOL     OW36727   7.570   6.229   9.873
45568SOL    HW136728   7.525   6.141   9.890
45568SOL    HW236729   7.569   6.283   9.957
45569SOL     OW36730   9.290   7.353   9.669
45569SOL    HW136731   9.344   7.324   9.749
45569SOL    HW236732   9.320   7.443   9.640
45570SOL     OW36733   7.475   7.182   9.427
45570SOL    HW136734   7.456   7.086   9.448
45570SOL    HW236735   7.442   7.240   9.502
45571SOL     OW36736   9.137   6.508   9.922
45571SOL    HW136737   9.232   6.479   9.930
45571SOL    HW236738   9.129   6.573   9.847
45572SOL     OW36739   9.089   6.694   9.742
45572SOL    HW136740   9.175   6.696   9.690
45572SOL    HW236741   9.103   6.741   9.830
45573SOL     OW36742   7.561   6.323  10.907
45573SOL    HW136743   7.649   6.310  10.952
45573SOL    HW236744   7.548   6.420  10.885
45574SOL     OW36745   8.061   6.951  10.036
45574SOL    HW136746   8.012   6.864  10.045
45574SOL    HW236747   8.038   6.994   9.949
45575SOL     OW36748   8.741   6.814  10.733
45575SOL    HW136749   8.778   6.741  10.675
45575SOL    HW236750   8.793   6.819  10.818
45576SOL     OW36751   8.257   5.590   9.812
45576SOL    HW136752   8.297   5.681   9.803
45576SOL    HW236753   8.157   5.598   9.818
45577SOL     OW36754   7.645   6.562  10.574
45577SOL    HW136755   7.734   6.517  10.560
45577SOL    HW236756   7.572   6.497  10.555
45578SOL     OW36757   8.973   6.585   9.500
45578SOL    HW136758   8.910   6.509   9.513
45578SOL    HW236759   9.021   6.603   9.586
45579SOL     OW36760   8.635   7.378  10.926
45579SOL    HW136761   8.659   7.438  10.850
45579SOL    HW236762   8.642   7.283  10.896
45580SOL     OW36763   7.765   5.837  11.111
45580SOL    HW136764   7.836   5.908  11.117
45580SOL    HW236765   7.677   5.876  11.139
45581SOL     OW36766   8.914   7.003  10.263
45581SOL    HW136767   8.855   7.009  10.343
45581SOL    HW236768   8.899   6.915  10.217
45582SOL     OW36769   9.115   7.300   9.882
45582SOL    HW136770   9.074   7.277   9.794
45582SOL    HW236771   9.097   7.226   9.947
45583SOL     OW36772   8.046   6.315   9.580
45583SOL    HW136773   8.070   6.384   9.512
45583SOL    HW236774   7.968   6.348   9.634
45584SOL     OW36775   8.729   5.931  10.254
45584SOL    HW136776   8.643   5.881  10.241
45584SOL    HW236777   8.791   5.877  10.310
45585SOL     OW36778   9.024   7.248   9.617
45585SOL    HW136779   9.113   7.294   9.620
45585SOL    HW236780   9.003   7.224   9.522
45586SOL     OW36781   8.255   6.191  10.775
45586SOL    HW136782   8.208   6.188  10.864
45586SOL    HW236783   8.204   6.136  10.709
45587SOL     OW36784   8.842   6.055  10.984
45587SOL    HW136785   8.822   6.098  11.072
45587SOL    HW236786   8.920   5.993  10.993
45588SOL     OW36787   8.421   6.476  10.882
45588SOL    HW136788   8.467   6.392  10.853
45588SOL    HW236789   8.365   6.510  10.807
45589SOL     OW36790   8.439   5.996  10.552
45589SOL    HW136791   8.362   6.030  10.606
45589SOL    HW236792   8.405   5.945  10.473
45590SOL     OW36793   8.489   6.287   9.739
45590SOL    HW136794   8.515   6.283   9.835
45590SOL    HW236795   8.404   6.236   9.725
45591SOL     OW36796   7.524   6.397  10.099
45591SOL    HW136797   7.623   6.385  10.108
45591SOL    HW236798   7.500   6.492  10.120
45592SOL     OW36799   7.578   7.407  10.881
45592SOL    HW136800   7.568   7.392  10.980
45592SOL    HW236801   7.492   7.443  10.845
45593SOL     OW36802   8.313   5.934   9.505
45593SOL    HW136803   8.372   5.997   9.456
45593SOL    HW236804   8.332   5.840   9.476
45594SOL     OW36805   9.167   6.171  11.141
45594SOL    HW136806   9.141   6.260  11.105
45594SOL    HW236807   9.165   6.103  11.068
45595SOL     OW36808   8.810   6.730   9.855
45595SOL    HW136809   8.893   6.701   9.807
45595SOL    HW236810   8.761   6.797   9.799
45596SOL     OW36811   7.998   5.782  10.195
45596SOL    HW136812   7.993   5.777  10.295
45596SOL    HW236813   8.000   5.878  10.166
45597SOL     OW36814   8.456   7.042   9.787
45597SOL    HW136815   8.410   7.114   9.735
45597SOL    HW236816   8.452   7.062   9.885
45598SOL     OW36817   7.799   7.387  10.163
45598SOL    HW136818   7.849   7.301  10.169
45598SOL    HW236819   7.864   7.464  10.160
45599SOL     OW36820   9.243   6.652  10.183
45599SOL    HW136821   9.181   6.637  10.107
45599SOL    HW236822   9.191   6.663  10.268
45600SOL     OW36823   8.675   7.136  10.816
45600SOL    HW136824   8.681   7.059  10.880
45600SOL    HW236825   8.623   7.110  10.736
45601SOL     OW36826   7.769   6.529   9.552
45601SOL    HW136827   7.851   6.568   9.510
45601SOL    HW236828   7.742   6.447   9.503
45602SOL     OW36829   8.906   6.321  10.038
45602SOL    HW136830   8.901   6.256  10.113
45602SOL    HW236831   8.986   6.380  10.051
45603SOL     OW36832   7.909   6.852  11.037
45603SOL    HW136833   7.859   6.853  10.951
45603SOL    HW236834   7.846   6.834  11.113
45604SOL     OW36835   8.559   7.362   9.547
45604SOL    HW136836   8.499   7.300   9.597
45604SOL    HW236837   8.590   7.318   9.462
45605SOL     OW36838   7.650   5.871  10.808
45605SOL    HW136839   7.570   5.931  10.795
45605SOL    HW236840   7.640   5.822  10.894
45606SOL     OW36841   9.080   6.963   9.391
45606SOL    HW136842   9.048   7.057   9.381
45606SOL    HW236843   9.004   6.900   9.379
45607SOL     OW36844   7.912   7.329   9.633
45607SOL    HW136845   7.945   7.368   9.719
45607SOL    HW236846   7.988   7.322   9.568
45608SOL     OW36847   8.848   5.693   9.736
45608SOL    HW136848   8.824   5.656   9.646
45608SOL    HW236849   8.947   5.709   9.740
45609SOL     OW36850   7.697   7.371  10.551
45609SOL    HW136851   7.754   7.306  10.601
45609SOL    HW236852   7.681   7.338  10.458
45610SOL     OW36853   8.388   7.284  10.214
45610SOL    HW136854   8.468   7.227  10.235
45610SOL    HW236855   8.339   7.244  10.137
45611SOL     OW36856   7.830   6.286   9.790
45611SOL    HW136857   7.875   6.196   9.787
45611SOL    HW236858   7.736   6.275   9.823
45612SOL     OW36859   8.995   5.808  11.039
45612SOL    HW136860   8.990   5.845  11.131
45612SOL    HW236861   8.923   5.739  11.027
45613SOL     OW36862   8.062   5.708   9.427
45613SOL    HW136863   8.160   5.686   9.434
45613SOL    HW236864   8.031   5.691   9.334
45614SOL     OW36865   8.229   5.850  11.059
45614SOL    HW136866   8.296   5.789  11.102
45614SOL    HW236867   8.156   5.869  11.124
45615SOL     OW36868   8.336   7.100  10.505
45615SOL    HW136869   8.313   7.075  10.411
45615SOL    HW236870   8.397   7.031  10.544
45616SOL     OW36871   8.799   6.176  10.743
45616SOL    HW136872   8.827   6.133  10.828
45616SOL    HW236873   8.824   6.272  10.744
45617SOL     OW36874   8.251   6.988  10.234
45617SOL    HW136875   8.341   7.002  10.192
45617SOL    HW236876   8.180   6.990  10.163
45618SOL     OW36877   8.370   6.089  10.209
45618SOL    HW136878   8.345   6.080  10.113
45618SOL    HW236879   8.418   6.007  10.240
45619SOL     OW36880   7.987   5.650   9.822
45619SOL    HW136881   7.906   5.651   9.880
45619SOL    HW236882   7.990   5.733   9.767
45620SOL     OW36883   8.882   6.774   9.351
45620SOL    HW136884   8.914   6.698   9.408
45620SOL    HW236885   8.790   6.801   9.381
45621SOL     OW36886   7.745   5.621   9.481
45621SOL    HW136887   7.794   5.705   9.460
45621SOL    HW236888   7.807   5.556   9.526
45622SOL     OW36889   8.383   5.822   9.790
45622SOL    HW136890   8.335   5.863   9.712
45622SOL    HW236891   8.482   5.820   9.771
45623SOL     OW36892   8.524   6.269  10.774
45623SOL    HW136893   8.444   6.208  10.777
45623SOL    HW236894   8.605   6.216  10.750
45624SOL     OW36895   8.675   7.156  10.103
45624SOL    HW136896   8.696   7.230  10.038
45624SOL    HW236897   8.743   7.156  10.176
45625SOL     OW36898   7.907   6.738  10.051
45625SOL    HW136899   7.836   6.711  10.116
45625SOL    HW236900   7.881   6.710   9.958
45626SOL     OW36901   8.719   7.383   9.901
45626SOL    HW136902   8.763   7.447   9.837
45626SOL    HW236903   8.669   7.435   9.971
45627SOL     OW36904   8.480   6.135   9.326
45627SOL    HW136905   8.439   6.217   9.287
45627SOL    HW236906   8.544   6.161   9.399
45628SOL     OW36907   7.526   6.142  10.696
45628SOL    HW136908   7.618   6.141  10.655
45628SOL    HW236909   7.520   6.216  10.763
45629SOL     OW36910   8.009   5.808  10.457
45629SOL    HW136911   8.047   5.724  10.494
45629SOL    HW236912   7.921   5.827  10.501
45630SOL     OW36913   8.314   6.040   9.952
45630SOL    HW136914   8.282   6.112   9.890
45630SOL    HW236915   8.338   5.959   9.899
45631SOL     OW36916   8.465   5.625  10.063
45631SOL    HW136917   8.393   5.630   9.994
45631SOL    HW236918   8.441   5.556  10.132
45632SOL     OW36919   8.877   6.759  10.177
45632SOL    HW136920   8.822   6.675  10.170
45632SOL    HW236921   8.903   6.788  10.085
45633SOL     OW36922   8.914   6.176  10.302
45633SOL    HW136923   8.884   6.081  10.309
45633SOL    HW236924   8.987   6.192  10.368
45634SOL     OW36925   9.305   6.419   9.687
45634SOL    HW136926   9.347   6.355   9.751
45634SOL    HW236927   9.267   6.368   9.609
45635SOL     OW36928   7.936   6.971   9.484
45635SOL    HW136929   7.849   6.956   9.531
45635SOL    HW236930   7.919   6.997   9.389
45636SOL     OW36931   9.112   6.866   9.967
45636SOL    HW136932   9.211   6.874   9.981
45636SOL    HW236933   9.067   6.950   9.998
45637SOL     OW36934   8.838   6.161   9.388
45637SOL    HW136935   8.784   6.140   9.469
45637SOL    HW236936   8.929   6.120   9.397
45638SOL     OW36937   7.975   5.842   9.638
45638SOL    HW136938   8.002   5.783   9.563
45638SOL    HW236939   7.975   5.937   9.607
45639SOL     OW36940   9.202   6.809  10.898
45639SOL    HW136941   9.293   6.770  10.885
45639SOL    HW236942   9.210   6.905  10.922
45640SOL     OW36943   8.512   6.933  10.650
45640SOL    HW136944   8.432   6.910  10.705
45640SOL    HW236945   8.595   6.907  10.699
45641SOL     OW36946   9.040   7.215  10.935
45641SOL    HW136947   9.067   7.249  10.845
45641SOL    HW236948   9.119   7.177  10.981
45642SOL     OW36949   8.559   6.781  10.410
45642SOL    HW136950   8.519   6.825  10.491
45642SOL    HW236951   8.518   6.818  10.327
45643SOL     OW36952   9.086   6.685  10.389
45643SOL    HW136953   9.091   6.766  10.448
45643SOL    HW236954   9.000   6.687  10.338
45644SOL     OW36955   8.363   5.675  10.712
45644SOL    HW136956   8.388   5.655  10.617
45644SOL    HW236957   8.435   5.731  10.754
45645SOL     OW36958   8.428   6.702  11.029
45645SOL    HW136959   8.329   6.708  11.039
45645SOL    HW236960   8.451   6.622  10.973
45646SOL     OW36961   8.153   6.636   9.678
45646SOL    HW136962   8.139   6.643   9.777
45646SOL    HW236963   8.237   6.585   9.660
45647SOL     OW36964   7.858   6.399  10.561
45647SOL    HW136965   7.944   6.411  10.611
45647SOL    HW236966   7.816   6.312  10.588
45648SOL     OW36967   8.722   5.972  10.572
45648SOL    HW136968   8.743   6.046  10.636
45648SOL    HW236969   8.633   5.989  10.529
45649SOL     OW36970   7.512   7.150  10.641
45649SOL    HW136971   7.466   7.232  10.607
45649SOL    HW236972   7.610   7.169  10.650
45650SOL     OW36973   7.815   6.686   9.811
45650SOL    HW136974   7.808   6.769   9.755
45650SOL    HW236975   7.819   6.606   9.751
45651SOL     OW36976   8.014   6.123  10.175
45651SOL    HW136977   8.026   6.189  10.101
45651SOL    HW236978   8.060   6.157  10.258
45652SOL     OW36979   8.700   6.934   9.698
45652SOL    HW136980   8.750   7.011   9.738
45652SOL    HW236981   8.605   6.936   9.730
45653SOL     OW36982   8.720   7.031  10.452
45653SOL    HW136983   8.767   7.044  10.539
45653SOL    HW236984   8.654   6.957  10.461
45654SOL     OW36985   9.030   6.225   9.782
45654SOL    HW136986   8.999   6.286   9.855
45654SOL    HW236987   9.080   6.277   9.713
45655SOL     OW36988   7.802   7.096  10.639
45655SOL    HW136989   7.781   7.052  10.552
45655SOL    HW236990   7.899   7.122  10.642
45656SOL     OW36991   7.850   6.337  10.908
45656SOL    HW136992   7.918   6.392  10.861
45656SOL    HW236993   7.890   6.249  10.935
45657SOL     OW36994   9.035   6.365  10.980
45657SOL    HW136995   8.943   6.403  10.975
45657SOL    HW236996   9.095   6.412  10.915
45658SOL     OW36997   8.461   5.691  11.080
45658SOL    HW136998   8.467   5.776  11.028
45658SOL    HW236999   8.493   5.615  11.023
45659SOL     OW37000   7.952   5.636  11.050
45659SOL    HW137001   7.910   5.579  10.980
45659SOL    HW237002   7.886   5.705  11.082
45660SOL     OW37003   8.021   6.456  10.339
45660SOL    HW137004   8.065   6.545  10.330
45660SOL    HW237005   7.958   6.456  10.416
45661SOL     OW37006   8.808   6.448  10.355
45661SOL    HW137007   8.733   6.448  10.289
45661SOL    HW237008   8.845   6.356  10.364
45662SOL     OW37009   8.657   6.111   9.585
45662SOL    HW137010   8.670   6.027   9.639
45662SOL    HW237011   8.628   6.185   9.645
45663SOL     OW37012   7.755   5.799  10.541
45663SOL    HW137013   7.732   5.836  10.631
45663SOL    HW237014   7.725   5.704  10.535
45664SOL     OW37015   7.485   6.896  10.592
45664SOL    HW137016   7.538   6.847  10.660
45664SOL    HW237017   7.507   6.994  10.597
45665SOL     OW37018   8.180   6.220  10.374
45665SOL    HW137019   8.239   6.194  10.298
45665SOL    HW237020   8.152   6.316  10.363
45666SOL     OW37021   9.176   6.521  11.164
45666SOL    HW137022   9.130   6.514  11.075
45666SOL    HW237023   9.114   6.565  11.230
45667SOL     OW37024   7.755   5.649   9.928
45667SOL    HW137025   7.744   5.743   9.961
45667SOL    HW237026   7.750   5.586  10.005
45668SOL     OW37027   9.070   5.953   9.684
45668SOL    HW137028   9.072   5.877   9.748
45668SOL    HW237029   9.022   6.030   9.724
45669SOL     OW37030   8.471   6.352  10.276
45669SOL    HW137031   8.486   6.373  10.372
45669SOL    HW237032   8.441   6.257  10.267
45670SOL     OW37033   8.428   7.159  11.010
45670SOL    HW137034   8.408   7.203  10.922
45670SOL    HW237035   8.467   7.068  10.994
45671SOL     OW37036   9.307   7.104  10.915
45671SOL    HW137037   9.321   7.131  10.820
45671SOL    HW237038   9.390   7.126  10.968
45672SOL     OW37039   7.798   6.484  11.114
45672SOL    HW137040   7.874   6.528  11.162
45672SOL    HW237041   7.833   6.437  11.032
45673SOL     OW37042   8.988   5.860   9.435
45673SOL    HW137043   8.927   5.785   9.458
45673SOL    HW237044   9.010   5.912   9.518
45674SOL     OW37045   8.751   6.424   9.352
45674SOL    HW137046   8.785   6.331   9.367
45674SOL    HW237047   8.769   6.451   9.257
45675SOL     OW37048   8.516   6.919  10.159
45675SOL    HW137049   8.523   6.835  10.104
45675SOL    HW237050   8.578   6.988  10.123
45676SOL     OW37051   7.767   6.396  10.259
45676SOL    HW137052   7.860   6.432  10.264
45676SOL    HW237053   7.761   6.311  10.311
45677SOL     OW37054   7.787   6.095  10.316
45677SOL    HW137055   7.735   6.012  10.299
45677SOL    HW237056   7.864   6.100  10.252
45678SOL     OW37057   8.586   5.966  10.988
45678SOL    HW137058   8.541   6.029  11.052
45678SOL    HW237059   8.679   5.997  10.971
45679SOL     OW37060   8.608   5.793  10.787
45679SOL    HW137061   8.608   5.857  10.864
45679SOL    HW237062   8.636   5.841  10.704
45680SOL     OW37063   7.456   6.912   9.510
45680SOL    HW137064   7.363   6.933   9.479
45680SOL    HW237065   7.466   6.813   9.523
45681SOL     OW37066   7.536   7.387  10.237
45681SOL    HW137067   7.494   7.301  10.210
45681SOL    HW237068   7.630   7.390  10.203
45682SOL     OW37069   7.952   7.154  10.220
45682SOL    HW137070   8.018   7.228  10.229
45682SOL    HW237071   7.996   7.075  10.178
45683SOL     OW37072   8.450   6.382  10.548
45683SOL    HW137073   8.491   6.350  10.634
45683SOL    HW237074   8.354   6.355  10.545
45684SOL     OW37075   7.488   6.130  10.424
45684SOL    HW137076   7.573   6.097  10.383
45684SOL    HW237077   7.501   6.145  10.522
45685SOL     OW37078   7.637   6.106  11.032
45685SOL    HW137079   7.696   6.066  10.962
45685SOL    HW237080   7.579   6.177  10.991
45686SOL     OW37081   8.817   6.536  10.970
45686SOL    HW137082   8.856   6.625  10.990
45686SOL    HW237083   8.827   6.516  10.873
45687SOL     OW37084   8.263   6.158   9.635
45687SOL    HW137085   8.270   6.069   9.589
45687SOL    HW237086   8.169   6.192   9.627
45688SOL     OW37087   9.105   6.190  10.516
45688SOL    HW137088   9.067   6.121  10.578
45688SOL    HW237089   9.187   6.154  10.472
45689SOL     OW37090   7.700   7.150  11.054
45689SOL    HW137091   7.670   7.207  11.130
45689SOL    HW237092   7.693   7.053  11.080
45690SOL     OW37093   8.119   6.050  10.579
45690SOL    HW137094   8.085   5.961  10.549
45690SOL    HW237095   8.145   6.104  10.499
45691SOL     OW37096   8.378   7.264  10.775
45691SOL    HW137097   8.354   7.246  10.680
45691SOL    HW237098   8.408   7.358  10.785
45692SOL     OW37099   7.921   6.086   9.501
45692SOL    HW137100   7.982   6.166   9.505
45692SOL    HW237101   7.826   6.117   9.508
45693SOL     OW37102   7.607   6.723  10.776
45693SOL    HW137103   7.629   6.662  10.852
45693SOL    HW237104   7.617   6.674  10.690
45694SOL     OW37105   8.795   6.645  10.544
45694SOL    HW137106   8.819   6.582  10.470
45694SOL    HW237107   8.705   6.685  10.526
45695SOL     OW37108   8.750   6.441   9.619
45695SOL    HW137109   8.664   6.410   9.661
45695SOL    HW237110   8.746   6.427   9.520
45696SOL     OW37111   9.207   7.333  10.464
45696SOL    HW137112   9.268   7.363  10.391
45696SOL    HW237113   9.169   7.244  10.442
45697SOL     OW37114   8.700   7.317  10.438
45697SOL    HW137115   8.784   7.322  10.384
45697SOL    HW237116   8.677   7.221  10.456
45698SOL     OW37117   7.531   6.844  10.332
45698SOL    HW137118   7.526   6.843  10.432
45698SOL    HW237119   7.448   6.803  10.294
45699SOL     OW37120   8.136   7.248  11.026
45699SOL    HW137121   8.080   7.329  11.035
45699SOL    HW237122   8.188   7.252  10.940
45700SOL     OW37123   9.174   5.721   9.833
45700SOL    HW137124   9.247   5.704   9.766
45700SOL    HW237125   9.143   5.634   9.871
45701SOL     OW37126   8.836   7.159   9.787
45701SOL    HW137127   8.903   7.171   9.713
45701SOL    HW237128   8.796   7.248   9.810
45702SOL     OW37129   7.578   7.380  11.161
45702SOL    HW137130   7.537   7.306  11.214
45702SOL    HW237131   7.642   7.431  11.219
45703SOL     OW37132   8.728   6.513   9.982
45703SOL    HW137133   8.788   6.432   9.984
45703SOL    HW237134   8.768   6.582   9.922
45704SOL     OW37135   8.278   6.859  10.732
45704SOL    HW137136   8.273   6.892  10.827
45704SOL    HW237137   8.192   6.878  10.686
45705SOL     OW37138   8.120   7.202   9.464
45705SOL    HW137139   8.129   7.212   9.365
45705SOL    HW237140   8.080   7.113   9.485
45706SOL     OW37141   9.098   7.306  10.704
45706SOL    HW137142   9.151   7.316  10.620
45706SOL    HW237143   9.071   7.396  10.738
45707SOL     OW37144   9.289   5.761  10.273
45707SOL    HW137145   9.328   5.676  10.237
45707SOL    HW237146   9.191   5.763  10.254
45708SOL     OW37147   7.711   5.912  10.030
45708SOL    HW137148   7.632   5.963   9.996
45708SOL    HW237149   7.702   5.897  10.128
45709SOL     OW37150   8.642   7.198   9.341
45709SOL    HW137151   8.648   7.105   9.378
45709SOL    HW237152   8.583   7.198   9.261
45710SOL     OW37153   8.270   6.588  10.682
45710SOL    HW137154   8.310   6.587  10.590
45710SOL    HW237155   8.280   6.680  10.722
45711SOL     OW37156   8.364   6.496   9.601
45711SOL    HW137157   8.427   6.534   9.533
45711SOL    HW237158   8.404   6.413   9.640
45712SOL     OW37159   8.952   7.193   9.354
45712SOL    HW137160   8.860   7.230   9.361
45712SOL    HW237161   8.990   7.213   9.264
45713SOL     OW37162   7.820   6.874  10.800
45713SOL    HW137163   7.807   6.967  10.766
45713SOL    HW237164   7.736   6.822  10.787
45714SOL     OW37165   9.062   6.878  10.599
45714SOL    HW137166   9.122   6.881  10.679
45714SOL    HW237167   8.987   6.942  10.612
45715SOL     OW37168   8.487   6.684  10.006
45715SOL    HW137169   8.417   6.637  10.060
45715SOL    HW237170   8.546   6.616   9.963
45716SOL     OW37171   8.462   5.822  10.281
45716SOL    HW137172   8.454   5.786  10.188
45716SOL    HW237173   8.460   5.746  10.346
45717SOL     OW37174   8.038   7.073   9.801
45717SOL    HW137175   8.080   7.015   9.731
45717SOL    HW237176   7.994   7.152   9.757
45718SOL     OW37177   9.157   5.971  10.691
45718SOL    HW137178   9.230   6.040  10.695
45718SOL    HW237179   9.185   5.896  10.632
45719SOL     OW37180   7.703   6.934   9.600
45719SOL    HW137181   7.607   6.935   9.573
45719SOL    HW237182   7.715   6.987   9.684
45720SOL     OW37183   7.553   6.599  11.036
45720SOL    HW137184   7.476   6.566  11.090
45720SOL    HW237185   7.638   6.569  11.078
45721SOL     OW37186   8.120   5.789  10.799
45721SOL    HW137187   8.210   5.773  10.759
45721SOL    HW237188   8.128   5.794  10.898
45722SOL     OW37189   7.523   5.931   9.343
45722SOL    HW137190   7.431   5.903   9.314
45722SOL    HW237191   7.554   6.008   9.287
45723SOL     OW37192   8.888   6.442  10.708
45723SOL    HW137193   8.831   6.494  10.645
45723SOL    HW237194   8.984   6.454  10.684
45724SOL     OW37195   7.520   5.752   9.628
45724SOL    HW137196   7.503   5.835   9.574
45724SOL    HW237197   7.610   5.715   9.606
45725SOL     OW37198   8.631   6.921   9.429
45725SOL    HW137199   8.532   6.910   9.431
45725SOL    HW237200   8.665   6.936   9.522
45726SOL     OW37201   8.061   6.428  10.741
45726SOL    HW137202   8.117   6.509  10.724
45726SOL    HW237203   8.120   6.348  10.744
45727SOL     OW37204   8.941   7.353  10.269
45727SOL    HW137205   8.974   7.417  10.200
45727SOL    HW237206   9.007   7.347  10.344
45728SOL     OW37207   8.164   6.151  11.018
45728SOL    HW137208   8.183   6.216  11.092
45728SOL    HW237209   8.224   6.071  11.027
45729SOL     OW37210   8.898   6.806  10.943
45729SOL    HW137211   8.889   6.796  11.042
45729SOL    HW237212   8.994   6.799  10.917
45730SOL     OW37213   7.838   7.327  10.870
45730SOL    HW137214   7.747   7.368  10.868
45730SOL    HW237215   7.831   7.233  10.902
45731SOL     OW37216   9.122   6.469  10.564
45731SOL    HW137217   9.095   6.380  10.527
45731SOL    HW237218   9.123   6.537  10.491
45732SOL     OW37219   8.673   5.911   9.759
45732SOL    HW137220   8.738   5.837   9.748
45732SOL    HW237221   8.693   5.961   9.843
45733SOL     OW37222   8.042   6.331   9.962
45733SOL    HW137223   8.092   6.416   9.943
45733SOL    HW237224   7.954   6.333   9.914
45734SOL     OW37225   9.225   5.928  10.952
45734SOL    HW137226   9.208   5.959  10.858
45734SOL    HW237227   9.141   5.891  10.990
45735SOL     OW37228   9.178   6.520  10.827
45735SOL    HW137229   9.216   6.611  10.842
45735SOL    HW237230   9.170   6.503  10.728
45736SOL     OW37231   8.307   6.960   9.326
45736SOL    HW137232   8.261   6.975   9.414
45736SOL    HW237233   8.351   7.045   9.296
45737SOL     OW37234   8.109   7.376  10.263
45737SOL    HW137235   8.063   7.464  10.250
45737SOL    HW237236   8.208   7.388  10.256
45738SOL     OW37237   8.307   6.542  10.171
45738SOL    HW137238   8.361   6.473  10.219
45738SOL    HW237239   8.275   6.611  10.237
45739SOL     OW37240   8.531   6.570   9.397
45739SOL    HW137241   8.508   6.623   9.315
45739SOL    HW237242   8.612   6.514   9.378
45740SOL     OW37243   9.309   7.155  10.161
45740SOL    HW137244   9.238   7.143  10.091
45740SOL    HW237245   9.310   7.076  10.221
45741SOL     OW37246   7.669   6.900  11.154
45741SOL    HW137247   7.604   6.827  11.133
45741SOL    HW237248   7.673   6.914  11.252
45742SOL     OW37249   7.527   6.826   9.963
45742SOL    HW137250   7.526   6.779  10.051
45742SOL    HW237251   7.609   6.798   9.912
45743SOL     OW37252   8.120   6.977  10.934
45743SOL    HW137253   8.042   6.927  10.972
45743SOL    HW237254   8.117   7.072  10.965
45744SOL     OW37255   9.272   5.778  10.537
45744SOL    HW137256   9.268   5.688  10.581
45744SOL    HW237257   9.275   5.767  10.438
45745SOL     OW37258   7.876   6.010   9.830
45745SOL    HW137259   7.906   5.938   9.768
45745SOL    HW237260   7.837   5.970   9.913
45746SOL     OW37261   9.153   7.073  10.414
45746SOL    HW137262   9.060   7.048  10.387
45746SOL    HW237263   9.179   7.023  10.496
45747SOL     OW37264   7.765   6.133  10.590
45747SOL    HW137265   7.803   6.074  10.662
45747SOL    HW237266   7.805   6.107  10.502
45748SOL     OW37267   8.260   7.172   9.997
45748SOL    HW137268   8.292   7.182   9.903
45748SOL    HW237269   8.181   7.110   9.999
45749SOL     OW37270   8.872   5.800  10.422
45749SOL    HW137271   8.924   5.735  10.477
45749SOL    HW237272   8.823   5.863  10.483
45750SOL     OW37273   8.449   5.620  10.464
45750SOL    HW137274   8.386   5.548  10.433
45750SOL    HW237275   8.542   5.584  10.464
45751SOL     OW37276   8.218   6.916   9.611
45751SOL    HW137277   8.172   6.829   9.628
45751SOL    HW237278   8.309   6.913   9.652
45752SOL     OW37279   8.066   7.153  10.594
45752SOL    HW137280   8.061   7.235  10.651
45752SOL    HW237281   8.155   7.150  10.549
45753SOL     OW37282   8.800   5.638   9.478
45753SOL    HW137283   8.835   5.597   9.394
45753SOL    HW237284   8.710   5.600   9.498
45754SOL     OW37285   8.748   6.039  10.001
45754SOL    HW137286   8.689   6.119  10.005
45754SOL    HW237287   8.763   6.004  10.094
45755SOL     OW37288   9.041   5.807  10.192
45755SOL    HW137289   8.957   5.806  10.246
45755SOL    HW237290   9.043   5.890  10.136
45756SOL     OW37291   7.487   6.663   9.610
45756SOL    HW137292   7.586   6.652   9.601
45756SOL    HW237293   7.447   6.577   9.642
45757SOL     OW37294   8.323   7.232   9.647
45757SOL    HW137295   8.246   7.197   9.593
45757SOL    HW237296   8.291   7.303   9.709
45758SOL     OW37297   7.678   6.214  11.285
45758SOL    HW137298   7.585   6.212  11.322
45758SOL    HW237299   7.679   6.175  11.193
45759SOL     OW37300   7.673   5.861  12.168
45759SOL    HW137301   7.708   5.844  12.260
45759SOL    HW237302   7.585   5.816  12.156
45760SOL     OW37303   7.467   5.954  11.819
45760SOL    HW137304   7.385   5.997  11.858
45760SOL    HW237305   7.439   5.881  11.756
45761SOL     OW37306   8.017   6.861  12.337
45761SOL    HW137307   7.924   6.854  12.300
45761SOL    HW237308   8.028   6.950  12.381
45762SOL     OW37309   9.003   7.097  11.875
45762SOL    HW137310   8.946   7.081  11.956
45762SOL    HW237311   8.944   7.107  11.795
45763SOL     OW37312   8.583   6.289  11.889
45763SOL    HW137313   8.640   6.367  11.864
45763SOL    HW237314   8.523   6.315  11.965
45764SOL     OW37315   9.203   6.193  11.403
45764SOL    HW137316   9.191   6.180  11.304
45764SOL    HW237317   9.173   6.112  11.452
45765SOL     OW37318   8.216   6.730  12.195
45765SOL    HW137319   8.138   6.747  12.255
45765SOL    HW237320   8.250   6.817  12.159
45766SOL     OW37321   8.133   6.598  11.837
45766SOL    HW137322   8.202   6.582  11.907
45766SOL    HW237323   8.060   6.655  11.875
45767SOL     OW37324   7.783   7.021  12.233
45767SOL    HW137325   7.705   6.990  12.180
45767SOL    HW237326   7.841   7.079  12.176
45768SOL     OW37327   8.908   7.091  12.511
45768SOL    HW137328   8.932   7.185  12.537
45768SOL    HW237329   8.892   7.037  12.593
45769SOL     OW37330   7.886   5.978  12.671
45769SOL    HW137331   7.968   5.922  12.680
45769SOL    HW237332   7.805   5.920  12.675
45770SOL     OW37333   9.051   6.033  11.909
45770SOL    HW137334   8.977   6.079  11.859
45770SOL    HW237335   9.102   6.101  11.962
45771SOL     OW37336   7.679   7.299  11.655
45771SOL    HW137337   7.713   7.376  11.709
45771SOL    HW237338   7.723   7.299  11.565
45772SOL     OW37339   7.678   7.020  11.710
45772SOL    HW137340   7.652   7.116  11.710
45772SOL    HW237341   7.607   6.966  11.755
45773SOL     OW37342   7.688   6.677  12.058
45773SOL    HW137343   7.702   6.593  12.110
45773SOL    HW237344   7.633   6.741  12.113
45774SOL     OW37345   8.068   7.372  12.611
45774SOL    HW137346   7.976   7.355  12.646
45774SOL    HW237347   8.096   7.464  12.637
45775SOL     OW37348   8.054   6.550  11.295
45775SOL    HW137349   8.061   6.634  11.241
45775SOL    HW237350   8.100   6.563  11.383
45776SOL     OW37351   9.042   5.700  12.652
45776SOL    HW137352   9.024   5.767  12.580
45776SOL    HW237353   9.039   5.746  12.741
45777SOL     OW37354   7.570   6.229  11.735
45777SOL    HW137355   7.525   6.141  11.752
45777SOL    HW237356   7.569   6.283  11.819
45778SOL     OW37357   9.290   7.353  11.531
45778SOL    HW137358   9.344   7.324  11.611
45778SOL    HW237359   9.320   7.443  11.502
45779SOL     OW37360   7.475   7.182  11.289
45779SOL    HW137361   7.456   7.086  11.310
45779SOL    HW237362   7.442   7.240  11.364
45780SOL     OW37363   9.137   6.508  11.784
45780SOL    HW137364   9.232   6.479  11.792
45780SOL    HW237365   9.129   6.573  11.709
45781SOL     OW37366   9.089   6.694  11.604
45781SOL    HW137367   9.175   6.696  11.552
45781SOL    HW237368   9.103   6.741  11.692
45782SOL     OW37369   7.561   6.323  12.769
45782SOL    HW137370   7.649   6.310  12.814
45782SOL    HW237371   7.548   6.420  12.747
45783SOL     OW37372   8.061   6.951  11.898
45783SOL    HW137373   8.012   6.864  11.907
45783SOL    HW237374   8.038   6.994  11.811
45784SOL     OW37375   8.741   6.814  12.595
45784SOL    HW137376   8.778   6.741  12.537
45784SOL    HW237377   8.793   6.819  12.680
45785SOL     OW37378   8.257   5.590  11.674
45785SOL    HW137379   8.297   5.681  11.665
45785SOL    HW237380   8.157   5.598  11.680
45786SOL     OW37381   7.645   6.562  12.436
45786SOL    HW137382   7.734   6.517  12.422
45786SOL    HW237383   7.572   6.497  12.417
45787SOL     OW37384   8.973   6.585  11.362
45787SOL    HW137385   8.910   6.509  11.375
45787SOL    HW237386   9.021   6.603  11.448
45788SOL     OW37387   8.914   7.003  12.125
45788SOL    HW137388   8.855   7.009  12.205
45788SOL    HW237389   8.899   6.915  12.079
45789SOL     OW37390   9.115   7.300  11.744
45789SOL    HW137391   9.074   7.277  11.656
45789SOL    HW237392   9.097   7.226  11.809
45790SOL     OW37393   8.046   6.315  11.442
45790SOL    HW137394   8.070   6.384  11.374
45790SOL    HW237395   7.968   6.348  11.496
45791SOL     OW37396   8.729   5.931  12.116
45791SOL    HW137397   8.643   5.881  12.103
45791SOL    HW237398   8.791   5.877  12.172
45792SOL     OW37399   9.024   7.248  11.479
45792SOL    HW137400   9.113   7.294  11.482
45792SOL    HW237401   9.003   7.224  11.384
45793SOL     OW37402   8.255   6.191  12.637
45793SOL    HW137403   8.208   6.188  12.726
45793SOL    HW237404   8.204   6.136  12.571
45794SOL     OW37405   8.421   6.476  12.744
45794SOL    HW137406   8.467   6.392  12.715
45794SOL    HW237407   8.365   6.510  12.669
45795SOL     OW37408   8.439   5.996  12.414
45795SOL    HW137409   8.362   6.030  12.468
45795SOL    HW237410   8.405   5.945  12.335
45796SOL     OW37411   8.489   6.287  11.601
45796SOL    HW137412   8.515   6.283  11.697
45796SOL    HW237413   8.404   6.236  11.587
45797SOL     OW37414   7.524   6.397  11.961
45797SOL    HW137415   7.623   6.385  11.970
45797SOL    HW237416   7.500   6.492  11.982
45798SOL     OW37417   7.578   7.407  12.743
45798SOL    HW137418   7.568   7.392  12.842
45798SOL    HW237419   7.492   7.443  12.707
45799SOL     OW37420   8.313   5.934  11.367
45799SOL    HW137421   8.372   5.997  11.318
45799SOL    HW237422   8.332   5.840  11.338
45800SOL     OW37423   8.810   6.730  11.717
45800SOL    HW137424   8.893   6.701  11.669
45800SOL    HW237425   8.761   6.797  11.661
45801SOL     OW37426   7.998   5.782  12.057
45801SOL    HW137427   7.993   5.777  12.157
45801SOL    HW237428   8.000   5.878  12.028
45802SOL     OW37429   8.456   7.042  11.649
45802SOL    HW137430   8.410   7.114  11.597
45802SOL    HW237431   8.452   7.062  11.747
45803SOL     OW37432   7.799   7.387  12.025
45803SOL    HW137433   7.849   7.301  12.031
45803SOL    HW237434   7.864   7.464  12.022
45804SOL     OW37435   9.243   6.652  12.045
45804SOL    HW137436   9.181   6.637  11.969
45804SOL    HW237437   9.191   6.663  12.130
45805SOL     OW37438   8.675   7.136  12.678
45805SOL    HW137439   8.681   7.059  12.742
45805SOL    HW237440   8.623   7.110  12.598
45806SOL     OW37441   7.769   6.529  11.414
45806SOL    HW137442   7.851   6.568  11.372
45806SOL    HW237443   7.742   6.447  11.365
45807SOL     OW37444   8.906   6.321  11.900
45807SOL    HW137445   8.901   6.256  11.975
45807SOL    HW237446   8.986   6.380  11.913
45808SOL     OW37447   8.559   7.362  11.409
45808SOL    HW137448   8.499   7.300  11.459
45808SOL    HW237449   8.590   7.318  11.324
45809SOL     OW37450   7.650   5.871  12.670
45809SOL    HW137451   7.570   5.931  12.657
45809SOL    HW237452   7.640   5.822  12.756
45810SOL     OW37453   9.080   6.963  11.253
45810SOL    HW137454   9.048   7.057  11.243
45810SOL    HW237455   9.004   6.900  11.241
45811SOL     OW37456   7.912   7.329  11.495
45811SOL    HW137457   7.945   7.368  11.581
45811SOL    HW237458   7.988   7.322  11.430
45812SOL     OW37459   8.848   5.693  11.598
45812SOL    HW137460   8.824   5.656  11.508
45812SOL    HW237461   8.947   5.709  11.602
45813SOL     OW37462   7.697   7.371  12.413
45813SOL    HW137463   7.754   7.306  12.463
45813SOL    HW237464   7.681   7.338  12.320
45814SOL     OW37465   8.388   7.284  12.076
45814SOL    HW137466   8.468   7.227  12.097
45814SOL    HW237467   8.339   7.244  11.999
45815SOL     OW37468   7.830   6.286  11.652
45815SOL    HW137469   7.875   6.196  11.649
45815SOL    HW237470   7.736   6.275  11.685
45816SOL     OW37471   8.062   5.708  11.289
45816SOL    HW137472   8.160   5.686  11.296
45816SOL    HW237473   8.031   5.691  11.196
45817SOL     OW37474   8.336   7.100  12.367
45817SOL    HW137475   8.313   7.075  12.273
45817SOL    HW237476   8.397   7.031  12.406
45818SOL     OW37477   8.799   6.176  12.605
45818SOL    HW137478   8.827   6.133  12.690
45818SOL    HW237479   8.824   6.272  12.606
45819SOL     OW37480   8.251   6.988  12.096
45819SOL    HW137481   8.341   7.002  12.054
45819SOL    HW237482   8.180   6.990  12.025
45820SOL     OW37483   8.370   6.089  12.071
45820SOL    HW137484   8.345   6.080  11.975
45820SOL    HW237485   8.418   6.007  12.102
45821SOL     OW37486   7.987   5.650  11.684
45821SOL    HW137487   7.906   5.651  11.742
45821SOL    HW237488   7.990   5.733  11.629
45822SOL     OW37489   8.882   6.774  11.213
45822SOL    HW137490   8.914   6.698  11.270
45822SOL    HW237491   8.790   6.801  11.243
45823SOL     OW37492   7.745   5.621  11.343
45823SOL    HW137493   7.794   5.705  11.322
45823SOL    HW237494   7.807   5.556  11.388
45824SOL     OW37495   8.383   5.822  11.652
45824SOL    HW137496   8.335   5.863  11.574
45824SOL    HW237497   8.482   5.820  11.633
45825SOL     OW37498   8.524   6.269  12.636
45825SOL    HW137499   8.444   6.208  12.639
45825SOL    HW237500   8.605   6.216  12.612
45826SOL     OW37501   8.675   7.156  11.965
45826SOL    HW137502   8.696   7.230  11.900
45826SOL    HW237503   8.743   7.156  12.038
45827SOL     OW37504   7.907   6.738  11.913
45827SOL    HW137505   7.836   6.711  11.978
45827SOL    HW237506   7.881   6.710  11.820
45828SOL     OW37507   8.719   7.383  11.763
45828SOL    HW137508   8.763   7.447  11.699
45828SOL    HW237509   8.669   7.435  11.833
45829SOL     OW37510   8.480   6.135  11.188
45829SOL    HW137511   8.439   6.217  11.149
45829SOL    HW237512   8.544   6.161  11.261
45830SOL     OW37513   7.526   6.142  12.558
45830SOL    HW137514   7.618   6.141  12.517
45830SOL    HW237515   7.520   6.216  12.625
45831SOL     OW37516   8.009   5.808  12.319
45831SOL    HW137517   8.047   5.724  12.356
45831SOL    HW237518   7.921   5.827  12.363
45832SOL     OW37519   8.314   6.040  11.814
45832SOL    HW137520   8.282   6.112  11.752
45832SOL    HW237521   8.338   5.959  11.761
45833SOL     OW37522   8.465   5.625  11.925
45833SOL    HW137523   8.393   5.630  11.856
45833SOL    HW237524   8.441   5.556  11.994
45834SOL     OW37525   8.877   6.759  12.039
45834SOL    HW137526   8.822   6.675  12.032
45834SOL    HW237527   8.903   6.788  11.947
45835SOL     OW37528   8.914   6.176  12.164
45835SOL    HW137529   8.884   6.081  12.171
45835SOL    HW237530   8.987   6.192  12.230
45836SOL     OW37531   9.305   6.419  11.549
45836SOL    HW137532   9.347   6.355  11.613
45836SOL    HW237533   9.267   6.368  11.471
45837SOL     OW37534   7.936   6.971  11.346
45837SOL    HW137535   7.849   6.956  11.393
45837SOL    HW237536   7.919   6.997  11.251
45838SOL     OW37537   9.112   6.866  11.829
45838SOL    HW137538   9.211   6.874  11.843
45838SOL    HW237539   9.067   6.950  11.860
45839SOL     OW37540   8.838   6.161  11.250
45839SOL    HW137541   8.784   6.140  11.331
45839SOL    HW237542   8.929   6.120  11.259
45840SOL     OW37543   7.975   5.842  11.500
45840SOL    HW137544   8.002   5.783  11.425
45840SOL    HW237545   7.975   5.937  11.469
45841SOL     OW37546   9.202   6.809  12.760
45841SOL    HW137547   9.293   6.770  12.747
45841SOL    HW237548   9.210   6.905  12.784
45842SOL     OW37549   8.512   6.933  12.512
45842SOL    HW137550   8.432   6.910  12.567
45842SOL    HW237551   8.595   6.907  12.561
45843SOL     OW37552   8.559   6.781  12.272
45843SOL    HW137553   8.519   6.825  12.353
45843SOL    HW237554   8.518   6.818  12.189
45844SOL     OW37555   9.086   6.685  12.251
45844SOL    HW137556   9.091   6.766  12.310
45844SOL    HW237557   9.000   6.687  12.200
45845SOL     OW37558   8.363   5.675  12.574
45845SOL    HW137559   8.388   5.655  12.479
45845SOL    HW237560   8.435   5.731  12.616
45846SOL     OW37561   8.153   6.636  11.540
45846SOL    HW137562   8.139   6.643  11.639
45846SOL    HW237563   8.237   6.585  11.522
45847SOL     OW37564   7.858   6.399  12.423
45847SOL    HW137565   7.944   6.411  12.473
45847SOL    HW237566   7.816   6.312  12.450
45848SOL     OW37567   8.722   5.972  12.434
45848SOL    HW137568   8.743   6.046  12.498
45848SOL    HW237569   8.633   5.989  12.391
45849SOL     OW37570   7.512   7.150  12.503
45849SOL    HW137571   7.466   7.232  12.469
45849SOL    HW237572   7.610   7.169  12.512
45850SOL     OW37573   7.815   6.686  11.673
45850SOL    HW137574   7.808   6.769  11.617
45850SOL    HW237575   7.819   6.606  11.613
45851SOL     OW37576   8.014   6.123  12.037
45851SOL    HW137577   8.026   6.189  11.963
45851SOL    HW237578   8.060   6.157  12.120
45852SOL     OW37579   8.700   6.934  11.560
45852SOL    HW137580   8.750   7.011  11.600
45852SOL    HW237581   8.605   6.936  11.592
45853SOL     OW37582   8.720   7.031  12.314
45853SOL    HW137583   8.767   7.044  12.401
45853SOL    HW237584   8.654   6.957  12.323
45854SOL     OW37585   9.030   6.225  11.644
45854SOL    HW137586   8.999   6.286  11.717
45854SOL    HW237587   9.080   6.277  11.575
45855SOL     OW37588   7.802   7.096  12.501
45855SOL    HW137589   7.781   7.052  12.414
45855SOL    HW237590   7.899   7.122  12.504
45856SOL     OW37591   7.850   6.337  12.770
45856SOL    HW137592   7.918   6.392  12.723
45856SOL    HW237593   7.890   6.249  12.797
45857SOL     OW37594   9.035   6.365  12.842
45857SOL    HW137595   8.943   6.403  12.837
45857SOL    HW237596   9.095   6.412  12.777
45858SOL     OW37597   8.021   6.456  12.201
45858SOL    HW137598   8.065   6.545  12.192
45858SOL    HW237599   7.958   6.456  12.278
45859SOL     OW37600   8.808   6.448  12.217
45859SOL    HW137601   8.733   6.448  12.151
45859SOL    HW237602   8.845   6.356  12.226
45860SOL     OW37603   8.657   6.111  11.447
45860SOL    HW137604   8.670   6.027  11.501
45860SOL    HW237605   8.628   6.185  11.507
45861SOL     OW37606   7.755   5.799  12.403
45861SOL    HW137607   7.732   5.836  12.493
45861SOL    HW237608   7.725   5.704  12.397
45862SOL     OW37609   7.485   6.896  12.454
45862SOL    HW137610   7.538   6.847  12.522
45862SOL    HW237611   7.507   6.994  12.459
45863SOL     OW37612   8.180   6.220  12.236
45863SOL    HW137613   8.239   6.194  12.160
45863SOL    HW237614   8.152   6.316  12.225
45864SOL     OW37615   7.755   5.649  11.790
45864SOL    HW137616   7.744   5.743  11.823
45864SOL    HW237617   7.750   5.586  11.867
45865SOL     OW37618   9.070   5.953  11.546
45865SOL    HW137619   9.072   5.877  11.610
45865SOL    HW237620   9.022   6.030  11.586
45866SOL     OW37621   8.471   6.352  12.138
45866SOL    HW137622   8.486   6.373  12.234
45866SOL    HW237623   8.441   6.257  12.129
45867SOL     OW37624   8.988   5.860  11.297
45867SOL    HW137625   8.927   5.785  11.320
45867SOL    HW237626   9.010   5.912  11.380
45868SOL     OW37627   8.751   6.424  11.214
45868SOL    HW137628   8.785   6.331  11.229
45868SOL    HW237629   8.769   6.451  11.119
45869SOL     OW37630   8.516   6.919  12.021
45869SOL    HW137631   8.523   6.835  11.966
45869SOL    HW237632   8.578   6.988  11.985
45870SOL     OW37633   7.767   6.396  12.121
45870SOL    HW137634   7.860   6.432  12.126
45870SOL    HW237635   7.761   6.311  12.173
45871SOL     OW37636   7.787   6.095  12.178
45871SOL    HW137637   7.735   6.012  12.161
45871SOL    HW237638   7.864   6.100  12.114
45872SOL     OW37639   8.608   5.793  12.649
45872SOL    HW137640   8.608   5.857  12.726
45872SOL    HW237641   8.636   5.841  12.566
45873SOL     OW37642   7.456   6.912  11.372
45873SOL    HW137643   7.363   6.933  11.341
45873SOL    HW237644   7.466   6.813  11.385
45874SOL     OW37645   7.536   7.387  12.099
45874SOL    HW137646   7.494   7.301  12.072
45874SOL    HW237647   7.630   7.390  12.065
45875SOL     OW37648   7.952   7.154  12.082
45875SOL    HW137649   8.018   7.228  12.091
45875SOL    HW237650   7.996   7.075  12.040
45876SOL     OW37651   8.450   6.382  12.410
45876SOL    HW137652   8.491   6.350  12.496
45876SOL    HW237653   8.354   6.355  12.407
45877SOL     OW37654   7.488   6.130  12.286
45877SOL    HW137655   7.573   6.097  12.245
45877SOL    HW237656   7.501   6.145  12.384
45878SOL     OW37657   8.263   6.158  11.497
45878SOL    HW137658   8.270   6.069  11.451
45878SOL    HW237659   8.169   6.192  11.489
45879SOL     OW37660   9.105   6.190  12.378
45879SOL    HW137661   9.067   6.121  12.440
45879SOL    HW237662   9.187   6.154  12.334
45880SOL     OW37663   7.700   7.150  12.916
45880SOL    HW137664   7.670   7.207  12.992
45880SOL    HW237665   7.693   7.053  12.942
45881SOL     OW37666   8.119   6.050  12.441
45881SOL    HW137667   8.085   5.961  12.411
45881SOL    HW237668   8.145   6.104  12.361
45882SOL     OW37669   8.378   7.264  12.637
45882SOL    HW137670   8.354   7.246  12.542
45882SOL    HW237671   8.408   7.358  12.647
45883SOL     OW37672   7.921   6.086  11.363
45883SOL    HW137673   7.982   6.166  11.367
45883SOL    HW237674   7.826   6.117  11.370
45884SOL     OW37675   7.607   6.723  12.638
45884SOL    HW137676   7.629   6.662  12.714
45884SOL    HW237677   7.617   6.674  12.552
45885SOL     OW37678   8.795   6.645  12.406
45885SOL    HW137679   8.819   6.582  12.332
45885SOL    HW237680   8.705   6.685  12.388
45886SOL     OW37681   8.750   6.441  11.481
45886SOL    HW137682   8.664   6.410  11.523
45886SOL    HW237683   8.746   6.427  11.382
45887SOL     OW37684   9.207   7.333  12.326
45887SOL    HW137685   9.268   7.363  12.253
45887SOL    HW237686   9.169   7.244  12.304
45888SOL     OW37687   8.700   7.317  12.300
45888SOL    HW137688   8.784   7.322  12.246
45888SOL    HW237689   8.677   7.221  12.318
45889SOL     OW37690   7.531   6.844  12.194
45889SOL    HW137691   7.526   6.843  12.294
45889SOL    HW237692   7.448   6.803  12.156
45890SOL     OW37693   9.174   5.721  11.695
45890SOL    HW137694   9.247   5.704  11.628
45890SOL    HW237695   9.143   5.634  11.733
45891SOL     OW37696   8.836   7.159  11.649
45891SOL    HW137697   8.903   7.171  11.575
45891SOL    HW237698   8.796   7.248  11.672
45892SOL     OW37699   8.728   6.513  11.844
45892SOL    HW137700   8.788   6.432  11.846
45892SOL    HW237701   8.768   6.582  11.784
45893SOL     OW37702   8.278   6.859  12.594
45893SOL    HW137703   8.273   6.892  12.689
45893SOL    HW237704   8.192   6.878  12.548
45894SOL     OW37705   8.120   7.202  11.326
45894SOL    HW137706   8.129   7.212  11.227
45894SOL    HW237707   8.080   7.113  11.347
45895SOL     OW37708   9.098   7.306  12.566
45895SOL    HW137709   9.151   7.316  12.482
45895SOL    HW237710   9.071   7.396  12.600
45896SOL     OW37711   9.289   5.761  12.135
45896SOL    HW137712   9.328   5.676  12.099
45896SOL    HW237713   9.191   5.763  12.116
45897SOL     OW37714   7.711   5.912  11.892
45897SOL    HW137715   7.632   5.963  11.858
45897SOL    HW237716   7.702   5.897  11.990
45898SOL     OW37717   8.642   7.198  11.203
45898SOL    HW137718   8.648   7.105  11.240
45898SOL    HW237719   8.583   7.198  11.123
45899SOL     OW37720   8.270   6.588  12.544
45899SOL    HW137721   8.310   6.587  12.452
45899SOL    HW237722   8.280   6.680  12.584
45900SOL     OW37723   8.364   6.496  11.463
45900SOL    HW137724   8.427   6.534  11.395
45900SOL    HW237725   8.404   6.413  11.502
45901SOL     OW37726   8.952   7.193  11.216
45901SOL    HW137727   8.860   7.230  11.223
45901SOL    HW237728   8.990   7.213  11.126
45902SOL     OW37729   7.820   6.874  12.662
45902SOL    HW137730   7.807   6.967  12.628
45902SOL    HW237731   7.736   6.822  12.649
45903SOL     OW37732   9.062   6.878  12.461
45903SOL    HW137733   9.122   6.881  12.541
45903SOL    HW237734   8.987   6.942  12.474
45904SOL     OW37735   8.487   6.684  11.868
45904SOL    HW137736   8.417   6.637  11.922
45904SOL    HW237737   8.546   6.616  11.825
45905SOL     OW37738   8.462   5.822  12.143
45905SOL    HW137739   8.454   5.786  12.050
45905SOL    HW237740   8.460   5.746  12.208
45906SOL     OW37741   8.038   7.073  11.663
45906SOL    HW137742   8.080   7.015  11.593
45906SOL    HW237743   7.994   7.152  11.619
45907SOL     OW37744   9.157   5.971  12.553
45907SOL    HW137745   9.230   6.040  12.557
45907SOL    HW237746   9.185   5.896  12.494
45908SOL     OW37747   7.703   6.934  11.462
45908SOL    HW137748   7.607   6.935  11.435
45908SOL    HW237749   7.715   6.987  11.546
45909SOL     OW37750   7.553   6.599  12.898
45909SOL    HW137751   7.476   6.566  12.952
45909SOL    HW237752   7.638   6.569  12.940
45910SOL     OW37753   8.120   5.789  12.661
45910SOL    HW137754   8.210   5.773  12.621
45910SOL    HW237755   8.128   5.794  12.760
45911SOL     OW37756   7.523   5.931  11.205
45911SOL    HW137757   7.431   5.903  11.176
45911SOL    HW237758   7.554   6.008  11.149
45912SOL     OW37759   8.888   6.442  12.570
45912SOL    HW137760   8.831   6.494  12.507
45912SOL    HW237761   8.984   6.454  12.546
45913SOL     OW37762   7.520   5.752  11.490
45913SOL    HW137763   7.503   5.835  11.436
45913SOL    HW237764   7.610   5.715  11.468
45914SOL     OW37765   8.631   6.921  11.291
45914SOL    HW137766   8.532   6.910  11.293
45914SOL    HW237767   8.665   6.936  11.384
45915SOL     OW37768   8.061   6.428  12.603
45915SOL    HW137769   8.117   6.509  12.586
45915SOL    HW237770   8.120   6.348  12.606
45916SOL     OW37771   8.941   7.353  12.131
45916SOL    HW137772   8.974   7.417  12.062
45916SOL    HW237773   9.007   7.347  12.206
45917SOL     OW37774   8.164   6.151  12.880
45917SOL    HW137775   8.183   6.216  12.954
45917SOL    HW237776   8.224   6.071  12.889
45918SOL     OW37777   7.838   7.327  12.732
45918SOL    HW137778   7.747   7.368  12.730
45918SOL    HW237779   7.831   7.233  12.764
45919SOL     OW37780   9.122   6.469  12.426
45919SOL    HW137781   9.095   6.380  12.389
45919SOL    HW237782   9.123   6.537  12.353
45920SOL     OW37783   8.673   5.911  11.621
45920SOL    HW137784   8.738   5.837  11.610
45920SOL    HW237785   8.693   5.961  11.705
45921SOL     OW37786   8.042   6.331  11.824
45921SOL    HW137787   8.092   6.416  11.805
45921SOL    HW237788   7.954   6.333  11.776
45922SOL     OW37789   9.225   5.928  12.814
45922SOL    HW137790   9.208   5.959  12.720
45922SOL    HW237791   9.141   5.891  12.852
45923SOL     OW37792   9.178   6.520  12.689
45923SOL    HW137793   9.216   6.611  12.704
45923SOL    HW237794   9.170   6.503  12.590
45924SOL     OW37795   8.307   6.960  11.188
45924SOL    HW137796   8.261   6.975  11.276
45924SOL    HW237797   8.351   7.045  11.158
45925SOL     OW37798   8.109   7.376  12.125
45925SOL    HW137799   8.063   7.464  12.112
45925SOL    HW237800   8.208   7.388  12.118
45926SOL     OW37801   8.307   6.542  12.033
45926SOL    HW137802   8.361   6.473  12.081
45926SOL    HW237803   8.275   6.611  12.099
45927SOL     OW37804   8.531   6.570  11.259
45927SOL    HW137805   8.508   6.623  11.177
45927SOL    HW237806   8.612   6.514  11.240
45928SOL     OW37807   9.309   7.155  12.023
45928SOL    HW137808   9.238   7.143  11.953
45928SOL    HW237809   9.310   7.076  12.083
45929SOL     OW37810   7.527   6.826  11.825
45929SOL    HW137811   7.526   6.779  11.913
45929SOL    HW237812   7.609   6.798  11.774
45930SOL     OW37813   8.120   6.977  12.796
45930SOL    HW137814   8.042   6.927  12.834
45930SOL    HW237815   8.117   7.072  12.827
45931SOL     OW37816   9.272   5.778  12.399
45931SOL    HW137817   9.268   5.688  12.443
45931SOL    HW237818   9.275   5.767  12.300
45932SOL     OW37819   7.876   6.010  11.692
45932SOL    HW137820   7.906   5.938  11.630
45932SOL    HW237821   7.837   5.970  11.775
45933SOL     OW37822   9.153   7.073  12.276
45933SOL    HW137823   9.060   7.048  12.249
45933SOL    HW237824   9.179   7.023  12.358
45934SOL     OW37825   7.765   6.133  12.452
45934SOL    HW137826   7.803   6.074  12.524
45934SOL    HW237827   7.805   6.107  12.364
45935SOL     OW37828   8.260   7.172  11.859
45935SOL    HW137829   8.292   7.182  11.765
45935SOL    HW237830   8.181   7.110  11.861
45936SOL     OW37831   8.872   5.800  12.284
45936SOL    HW137832   8.924   5.735  12.339
45936SOL    HW237833   8.823   5.863  12.345
45937SOL     OW37834   8.449   5.620  12.326
45937SOL    HW137835   8.386   5.548  12.295
45937SOL    HW237836   8.542   5.584  12.326
45938SOL     OW37837   8.218   6.916  11.473
45938SOL    HW137838   8.172   6.829  11.490
45938SOL    HW237839   8.309   6.913  11.514
45939SOL     OW37840   8.066   7.153  12.456
45939SOL    HW137841   8.061   7.235  12.513
45939SOL    HW237842   8.155   7.150  12.411
45940SOL     OW37843   8.800   5.638  11.340
45940SOL    HW137844   8.835   5.597  11.256
45940SOL    HW237845   8.710   5.600  11.360
45941SOL     OW37846   8.748   6.039  11.863
45941SOL    HW137847   8.689   6.119  11.867
45941SOL    HW237848   8.763   6.004  11.956
45942SOL     OW37849   9.041   5.807  12.054
45942SOL    HW137850   8.957   5.806  12.108
45942SOL    HW237851   9.043   5.890  11.998
45943SOL     OW37852   7.487   6.663  11.472
45943SOL    HW137853   7.586   6.652  11.463
45943SOL    HW237854   7.447   6.577  11.504
45944SOL     OW37855   8.323   7.232  11.509
45944SOL    HW137856   8.246   7.197  11.455
45944SOL    HW237857   8.291   7.303  11.571
45945SOL     OW37858   7.678   8.076   0.113
45945SOL    HW137859   7.585   8.074   0.150
45945SOL    HW237860   7.679   8.037   0.021
45946SOL     OW37861   7.673   7.723   0.996
45946SOL    HW137862   7.708   7.706   1.088
45946SOL    HW237863   7.585   7.678   0.984
45947SOL     OW37864   7.467   7.816   0.647
45947SOL    HW137865   7.385   7.859   0.686
45947SOL    HW237866   7.439   7.743   0.584
45948SOL     OW37867   8.017   8.723   1.165
45948SOL    HW137868   7.924   8.716   1.128
45948SOL    HW237869   8.028   8.812   1.209
45949SOL     OW37870   9.003   8.959   0.703
45949SOL    HW137871   8.946   8.943   0.784
45949SOL    HW237872   8.944   8.969   0.623
45950SOL     OW37873   8.583   8.151   0.717
45950SOL    HW137874   8.640   8.229   0.692
45950SOL    HW237875   8.523   8.177   0.793
45951SOL     OW37876   9.203   8.055   0.231
45951SOL    HW137877   9.191   8.042   0.132
45951SOL    HW237878   9.173   7.974   0.280
45952SOL     OW37879   8.216   8.592   1.023
45952SOL    HW137880   8.138   8.609   1.083
45952SOL    HW237881   8.250   8.679   0.987
45953SOL     OW37882   8.298   8.246   1.823
45953SOL    HW137883   8.294   8.322   1.888
45953SOL    HW237884   8.320   8.282   1.732
45954SOL     OW37885   8.133   8.460   0.665
45954SOL    HW137886   8.202   8.444   0.735
45954SOL    HW237887   8.060   8.517   0.703
45955SOL     OW37888   8.134   8.609   1.803
45955SOL    HW137889   8.194   8.688   1.817
45955SOL    HW237890   8.048   8.640   1.762
45956SOL     OW37891   7.783   8.883   1.061
45956SOL    HW137892   7.705   8.852   1.008
45956SOL    HW237893   7.841   8.941   1.004
45957SOL     OW37894   8.908   8.953   1.339
45957SOL    HW137895   8.932   9.047   1.365
45957SOL    HW237896   8.892   8.899   1.421
45958SOL     OW37897   7.886   7.840   1.499
45958SOL    HW137898   7.968   7.784   1.508
45958SOL    HW237899   7.805   7.782   1.503
45959SOL     OW37900   9.051   7.895   0.737
45959SOL    HW137901   8.977   7.941   0.687
45959SOL    HW237902   9.102   7.963   0.790
45960SOL     OW37903   7.679   9.161   0.483
45960SOL    HW137904   7.713   9.238   0.537
45960SOL    HW237905   7.723   9.161   0.393
45961SOL     OW37906   8.575   8.789   1.690
45961SOL    HW137907   8.622   8.789   1.778
45961SOL    HW237908   8.527   8.702   1.679
45962SOL     OW37909   7.678   8.882   0.538
45962SOL    HW137910   7.652   8.978   0.538
45962SOL    HW237911   7.607   8.828   0.583
45963SOL     OW37912   7.688   8.539   0.886
45963SOL    HW137913   7.702   8.455   0.938
45963SOL    HW237914   7.633   8.603   0.941
45964SOL     OW37915   8.068   9.234   1.439
45964SOL    HW137916   7.976   9.217   1.474
45964SOL    HW237917   8.096   9.326   1.465
45965SOL     OW37918   8.054   8.412   0.123
45965SOL    HW137919   8.061   8.496   0.069
45965SOL    HW237920   8.100   8.425   0.211
45966SOL     OW37921   9.042   7.562   1.480
45966SOL    HW137922   9.024   7.629   1.408
45966SOL    HW237923   9.039   7.608   1.569
45967SOL     OW37924   7.570   8.091   0.563
45967SOL    HW137925   7.525   8.003   0.580
45967SOL    HW237926   7.569   8.145   0.647
45968SOL     OW37927   9.290   9.215   0.359
45968SOL    HW137928   9.344   9.186   0.439
45968SOL    HW237929   9.320   9.305   0.330
45969SOL     OW37930   7.475   9.044   0.117
45969SOL    HW137931   7.456   8.948   0.138
45969SOL    HW237932   7.442   9.102   0.192
45970SOL     OW37933   9.137   8.370   0.612
45970SOL    HW137934   9.232   8.341   0.620
45970SOL    HW237935   9.129   8.435   0.537
45971SOL     OW37936   9.089   8.556   0.432
45971SOL    HW137937   9.175   8.558   0.380
45971SOL    HW237938   9.103   8.603   0.520
45972SOL     OW37939   7.561   8.185   1.597
45972SOL    HW137940   7.649   8.172   1.642
45972SOL    HW237941   7.548   8.282   1.575
45973SOL     OW37942   8.061   8.813   0.726
45973SOL    HW137943   8.012   8.726   0.735
45973SOL    HW237944   8.038   8.856   0.639
45974SOL     OW37945   8.741   8.676   1.423
45974SOL    HW137946   8.778   8.603   1.365
45974SOL    HW237947   8.793   8.681   1.508
45975SOL     OW37948   8.257   7.452   0.502
45975SOL    HW137949   8.297   7.543   0.493
45975SOL    HW237950   8.157   7.460   0.508
45976SOL     OW37951   7.645   8.424   1.264
45976SOL    HW137952   7.734   8.379   1.250
45976SOL    HW237953   7.572   8.359   1.245
45977SOL     OW37954   8.973   8.447   0.190
45977SOL    HW137955   8.910   8.371   0.203
45977SOL    HW237956   9.021   8.465   0.276
45978SOL     OW37957   8.635   9.240   1.616
45978SOL    HW137958   8.659   9.300   1.540
45978SOL    HW237959   8.642   9.145   1.586
45979SOL     OW37960   7.765   7.699   1.801
45979SOL    HW137961   7.836   7.770   1.807
45979SOL    HW237962   7.677   7.738   1.829
45980SOL     OW37963   8.914   8.865   0.953
45980SOL    HW137964   8.855   8.871   1.033
45980SOL    HW237965   8.899   8.777   0.907
45981SOL     OW37966   9.115   9.162   0.572
45981SOL    HW137967   9.074   9.139   0.484
45981SOL    HW237968   9.097   9.088   0.637
45982SOL     OW37969   8.046   8.177   0.270
45982SOL    HW137970   8.070   8.246   0.202
45982SOL    HW237971   7.968   8.210   0.324
45983SOL     OW37972   8.729   7.793   0.944
45983SOL    HW137973   8.643   7.743   0.931
45983SOL    HW237974   8.791   7.739   1.000
45984SOL     OW37975   9.024   9.110   0.307
45984SOL    HW137976   9.113   9.156   0.310
45984SOL    HW237977   9.003   9.086   0.212
45985SOL     OW37978   8.255   8.053   1.465
45985SOL    HW137979   8.208   8.050   1.554
45985SOL    HW237980   8.204   7.998   1.399
45986SOL     OW37981   8.842   7.917   1.674
45986SOL    HW137982   8.822   7.960   1.762
45986SOL    HW237983   8.920   7.855   1.683
45987SOL     OW37984   8.421   8.338   1.572
45987SOL    HW137985   8.467   8.254   1.543
45987SOL    HW237986   8.365   8.372   1.497
45988SOL     OW37987   8.439   7.858   1.242
45988SOL    HW137988   8.362   7.892   1.296
45988SOL    HW237989   8.405   7.807   1.163
45989SOL     OW37990   8.489   8.149   0.429
45989SOL    HW137991   8.515   8.145   0.525
45989SOL    HW237992   8.404   8.098   0.415
45990SOL     OW37993   7.524   8.259   0.789
45990SOL    HW137994   7.623   8.247   0.798
45990SOL    HW237995   7.500   8.354   0.810
45991SOL     OW37996   7.578   9.269   1.571
45991SOL    HW137997   7.568   9.254   1.670
45991SOL    HW237998   7.492   9.305   1.535
45992SOL     OW37999   8.313   7.796   0.195
45992SOL    HW138000   8.372   7.859   0.146
45992SOL    HW238001   8.332   7.702   0.166
45993SOL     OW38002   9.167   8.033   1.831
45993SOL    HW138003   9.141   8.122   1.795
45993SOL    HW238004   9.165   7.965   1.758
45994SOL     OW38005   8.810   8.592   0.545
45994SOL    HW138006   8.893   8.563   0.497
45994SOL    HW238007   8.761   8.659   0.489
45995SOL     OW38008   7.998   7.644   0.885
45995SOL    HW138009   7.993   7.639   0.985
45995SOL    HW238010   8.000   7.740   0.856
45996SOL     OW38011   8.456   8.904   0.477
45996SOL    HW138012   8.410   8.976   0.425
45996SOL    HW238013   8.452   8.924   0.575
45997SOL     OW38014   7.799   9.249   0.853
45997SOL    HW138015   7.849   9.163   0.859
45997SOL    HW238016   7.864   9.326   0.850
45998SOL     OW38017   9.243   8.514   0.873
45998SOL    HW138018   9.181   8.499   0.797
45998SOL    HW238019   9.191   8.525   0.958
45999SOL     OW38020   8.675   8.998   1.506
45999SOL    HW138021   8.681   8.921   1.570
45999SOL    HW238022   8.623   8.972   1.426
46000SOL     OW38023   7.769   8.391   0.242
46000SOL    HW138024   7.851   8.430   0.200
46000SOL    HW238025   7.742   8.309   0.193
46001SOL     OW38026   8.906   8.183   0.728
46001SOL    HW138027   8.901   8.118   0.803
46001SOL    HW238028   8.986   8.242   0.741
46002SOL     OW38029   7.909   8.714   1.727
46002SOL    HW138030   7.859   8.715   1.641
46002SOL    HW238031   7.846   8.696   1.803
46003SOL     OW38032   8.559   9.224   0.237
46003SOL    HW138033   8.499   9.162   0.287
46003SOL    HW238034   8.590   9.180   0.152
46004SOL     OW38035   7.650   7.733   1.498
46004SOL    HW138036   7.570   7.793   1.485
46004SOL    HW238037   7.640   7.684   1.584
46005SOL     OW38038   9.080   8.825   0.081
46005SOL    HW138039   9.048   8.919   0.071
46005SOL    HW238040   9.004   8.762   0.069
46006SOL     OW38041   7.912   9.191   0.323
46006SOL    HW138042   7.945   9.230   0.409
46006SOL    HW238043   7.988   9.184   0.258
46007SOL     OW38044   8.848   7.555   0.426
46007SOL    HW138045   8.824   7.518   0.336
46007SOL    HW238046   8.947   7.571   0.430
46008SOL     OW38047   7.697   9.233   1.241
46008SOL    HW138048   7.754   9.168   1.291
46008SOL    HW238049   7.681   9.200   1.148
46009SOL     OW38050   8.388   9.146   0.904
46009SOL    HW138051   8.468   9.089   0.925
46009SOL    HW238052   8.339   9.106   0.827
46010SOL     OW38053   7.830   8.148   0.480
46010SOL    HW138054   7.875   8.058   0.477
46010SOL    HW238055   7.736   8.137   0.513
46011SOL     OW38056   8.995   7.670   1.729
46011SOL    HW138057   8.990   7.707   1.821
46011SOL    HW238058   8.923   7.601   1.717
46012SOL     OW38059   8.062   7.570   0.117
46012SOL    HW138060   8.160   7.548   0.124
46012SOL    HW238061   8.031   7.553   0.024
46013SOL     OW38062   8.229   7.712   1.749
46013SOL    HW138063   8.296   7.651   1.792
46013SOL    HW238064   8.156   7.731   1.814
46014SOL     OW38065   8.336   8.962   1.195
46014SOL    HW138066   8.313   8.937   1.101
46014SOL    HW238067   8.397   8.893   1.234
46015SOL     OW38068   8.799   8.038   1.433
46015SOL    HW138069   8.827   7.995   1.518
46015SOL    HW238070   8.824   8.134   1.434
46016SOL     OW38071   8.251   8.850   0.924
46016SOL    HW138072   8.341   8.864   0.882
46016SOL    HW238073   8.180   8.852   0.853
46017SOL     OW38074   8.370   7.951   0.899
46017SOL    HW138075   8.345   7.942   0.803
46017SOL    HW238076   8.418   7.869   0.930
46018SOL     OW38077   7.987   7.512   0.512
46018SOL    HW138078   7.906   7.513   0.570
46018SOL    HW238079   7.990   7.595   0.457
46019SOL     OW38080   8.882   8.636   0.041
46019SOL    HW138081   8.914   8.560   0.098
46019SOL    HW238082   8.790   8.663   0.071
46020SOL     OW38083   7.745   7.483   0.171
46020SOL    HW138084   7.794   7.567   0.150
46020SOL    HW238085   7.807   7.418   0.216
46021SOL     OW38086   8.383   7.684   0.480
46021SOL    HW138087   8.335   7.725   0.402
46021SOL    HW238088   8.482   7.682   0.461
46022SOL     OW38089   8.524   8.131   1.464
46022SOL    HW138090   8.444   8.070   1.467
46022SOL    HW238091   8.605   8.078   1.440
46023SOL     OW38092   8.675   9.018   0.793
46023SOL    HW138093   8.696   9.092   0.728
46023SOL    HW238094   8.743   9.018   0.866
46024SOL     OW38095   7.907   8.600   0.741
46024SOL    HW138096   7.836   8.573   0.806
46024SOL    HW238097   7.881   8.572   0.648
46025SOL     OW38098   8.719   9.245   0.591
46025SOL    HW138099   8.763   9.309   0.527
46025SOL    HW238100   8.669   9.297   0.661
46026SOL     OW38101   8.480   7.997   0.016
46026SOL    HW138102   8.439   8.079  -0.023
46026SOL    HW238103   8.544   8.023   0.089
46027SOL     OW38104   7.526   8.004   1.386
46027SOL    HW138105   7.618   8.003   1.345
46027SOL    HW238106   7.520   8.078   1.453
46028SOL     OW38107   8.009   7.670   1.147
46028SOL    HW138108   8.047   7.586   1.184
46028SOL    HW238109   7.921   7.689   1.191
46029SOL     OW38110   8.314   7.902   0.642
46029SOL    HW138111   8.282   7.974   0.580
46029SOL    HW238112   8.338   7.821   0.589
46030SOL     OW38113   8.465   7.487   0.753
46030SOL    HW138114   8.393   7.492   0.684
46030SOL    HW238115   8.441   7.418   0.822
46031SOL     OW38116   8.877   8.621   0.867
46031SOL    HW138117   8.822   8.537   0.860
46031SOL    HW238118   8.903   8.650   0.775
46032SOL     OW38119   8.914   8.038   0.992
46032SOL    HW138120   8.884   7.943   0.999
46032SOL    HW238121   8.987   8.054   1.058
46033SOL     OW38122   9.305   8.281   0.377
46033SOL    HW138123   9.347   8.217   0.441
46033SOL    HW238124   9.267   8.230   0.299
46034SOL     OW38125   7.936   8.833   0.174
46034SOL    HW138126   7.849   8.818   0.221
46034SOL    HW238127   7.919   8.859   0.079
46035SOL     OW38128   9.112   8.728   0.657
46035SOL    HW138129   9.211   8.736   0.671
46035SOL    HW238130   9.067   8.812   0.688
46036SOL     OW38131   8.838   8.023   0.078
46036SOL    HW138132   8.784   8.002   0.159
46036SOL    HW238133   8.929   7.982   0.087
46037SOL     OW38134   7.975   7.704   0.328
46037SOL    HW138135   8.002   7.645   0.253
46037SOL    HW238136   7.975   7.799   0.297
46038SOL     OW38137   9.202   8.671   1.588
46038SOL    HW138138   9.293   8.632   1.575
46038SOL    HW238139   9.210   8.767   1.612
46039SOL     OW38140   8.512   8.795   1.340
46039SOL    HW138141   8.432   8.772   1.395
46039SOL    HW238142   8.595   8.769   1.389
46040SOL     OW38143   9.040   9.077   1.625
46040SOL    HW138144   9.067   9.111   1.535
46040SOL    HW238145   9.119   9.039   1.671
46041SOL     OW38146   8.559   8.643   1.100
46041SOL    HW138147   8.519   8.687   1.181
46041SOL    HW238148   8.518   8.680   1.017
46042SOL     OW38149   9.086   8.547   1.079
46042SOL    HW138150   9.091   8.628   1.138
46042SOL    HW238151   9.000   8.549   1.028
46043SOL     OW38152   8.363   7.537   1.402
46043SOL    HW138153   8.388   7.517   1.307
46043SOL    HW238154   8.435   7.593   1.444
46044SOL     OW38155   8.428   8.564   1.719
46044SOL    HW138156   8.329   8.570   1.729
46044SOL    HW238157   8.451   8.484   1.663
46045SOL     OW38158   8.153   8.498   0.368
46045SOL    HW138159   8.139   8.505   0.467
46045SOL    HW238160   8.237   8.447   0.350
46046SOL     OW38161   7.858   8.261   1.251
46046SOL    HW138162   7.944   8.273   1.301
46046SOL    HW238163   7.816   8.174   1.278
46047SOL     OW38164   8.722   7.834   1.262
46047SOL    HW138165   8.743   7.908   1.326
46047SOL    HW238166   8.633   7.851   1.219
46048SOL     OW38167   7.512   9.012   1.331
46048SOL    HW138168   7.466   9.094   1.297
46048SOL    HW238169   7.610   9.031   1.340
46049SOL     OW38170   7.815   8.548   0.501
46049SOL    HW138171   7.808   8.631   0.445
46049SOL    HW238172   7.819   8.468   0.441
46050SOL     OW38173   8.014   7.985   0.865
46050SOL    HW138174   8.026   8.051   0.791
46050SOL    HW238175   8.060   8.019   0.948
46051SOL     OW38176   8.700   8.796   0.388
46051SOL    HW138177   8.750   8.873   0.428
46051SOL    HW238178   8.605   8.798   0.420
46052SOL     OW38179   8.720   8.893   1.142
46052SOL    HW138180   8.767   8.906   1.229
46052SOL    HW238181   8.654   8.819   1.151
46053SOL     OW38182   9.030   8.087   0.472
46053SOL    HW138183   8.999   8.148   0.545
46053SOL    HW238184   9.080   8.139   0.403
46054SOL     OW38185   7.802   8.958   1.329
46054SOL    HW138186   7.781   8.914   1.242
46054SOL    HW238187   7.899   8.984   1.332
46055SOL     OW38188   7.850   8.199   1.598
46055SOL    HW138189   7.918   8.254   1.551
46055SOL    HW238190   7.890   8.111   1.625
46056SOL     OW38191   9.035   8.227   1.670
46056SOL    HW138192   8.943   8.265   1.665
46056SOL    HW238193   9.095   8.274   1.605
46057SOL     OW38194   8.461   7.553   1.770
46057SOL    HW138195   8.467   7.638   1.718
46057SOL    HW238196   8.493   7.477   1.713
46058SOL     OW38197   7.952   7.498   1.740
46058SOL    HW138198   7.910   7.441   1.670
46058SOL    HW238199   7.886   7.567   1.772
46059SOL     OW38200   8.021   8.318   1.029
46059SOL    HW138201   8.065   8.407   1.020
46059SOL    HW238202   7.958   8.318   1.106
46060SOL     OW38203   8.808   8.310   1.045
46060SOL    HW138204   8.733   8.310   0.979
46060SOL    HW238205   8.845   8.218   1.054
46061SOL     OW38206   8.657   7.973   0.275
46061SOL    HW138207   8.670   7.889   0.329
46061SOL    HW238208   8.628   8.047   0.335
46062SOL     OW38209   7.755   7.661   1.231
46062SOL    HW138210   7.732   7.698   1.321
46062SOL    HW238211   7.725   7.566   1.225
46063SOL     OW38212   7.485   8.758   1.282
46063SOL    HW138213   7.538   8.709   1.350
46063SOL    HW238214   7.507   8.856   1.287
46064SOL     OW38215   8.180   8.082   1.064
46064SOL    HW138216   8.239   8.056   0.988
46064SOL    HW238217   8.152   8.178   1.053
46065SOL     OW38218   9.176   8.383   1.854
46065SOL    HW138219   9.130   8.376   1.765
46065SOL    HW238220   9.114   8.427   1.920
46066SOL     OW38221   7.755   7.511   0.618
46066SOL    HW138222   7.744   7.605   0.651
46066SOL    HW238223   7.750   7.448   0.695
46067SOL     OW38224   9.070   7.815   0.374
46067SOL    HW138225   9.072   7.739   0.438
46067SOL    HW238226   9.022   7.892   0.414
46068SOL     OW38227   8.471   8.214   0.966
46068SOL    HW138228   8.486   8.235   1.062
46068SOL    HW238229   8.441   8.119   0.957
46069SOL     OW38230   8.428   9.021   1.700
46069SOL    HW138231   8.408   9.065   1.612
46069SOL    HW238232   8.467   8.930   1.684
46070SOL     OW38233   9.307   8.966   1.605
46070SOL    HW138234   9.321   8.993   1.510
46070SOL    HW238235   9.390   8.988   1.658
46071SOL     OW38236   7.798   8.346   1.804
46071SOL    HW138237   7.874   8.390   1.852
46071SOL    HW238238   7.833   8.299   1.722
46072SOL     OW38239   8.988   7.722   0.125
46072SOL    HW138240   8.927   7.647   0.148
46072SOL    HW238241   9.010   7.774   0.208
46073SOL     OW38242   8.751   8.286   0.042
46073SOL    HW138243   8.785   8.193   0.057
46073SOL    HW238244   8.769   8.313  -0.053
46074SOL     OW38245   8.516   8.781   0.849
46074SOL    HW138246   8.523   8.697   0.794
46074SOL    HW238247   8.578   8.850   0.813
46075SOL     OW38248   7.767   8.258   0.949
46075SOL    HW138249   7.860   8.294   0.954
46075SOL    HW238250   7.761   8.173   1.001
46076SOL     OW38251   7.787   7.957   1.006
46076SOL    HW138252   7.735   7.874   0.989
46076SOL    HW238253   7.864   7.962   0.942
46077SOL     OW38254   8.586   7.828   1.678
46077SOL    HW138255   8.541   7.891   1.742
46077SOL    HW238256   8.679   7.859   1.661
46078SOL     OW38257   8.608   7.655   1.477
46078SOL    HW138258   8.608   7.719   1.554
46078SOL    HW238259   8.636   7.703   1.394
46079SOL     OW38260   7.456   8.774   0.200
46079SOL    HW138261   7.363   8.795   0.169
46079SOL    HW238262   7.466   8.675   0.213
46080SOL     OW38263   7.536   9.249   0.927
46080SOL    HW138264   7.494   9.163   0.900
46080SOL    HW238265   7.630   9.252   0.893
46081SOL     OW38266   7.952   9.016   0.910
46081SOL    HW138267   8.018   9.090   0.919
46081SOL    HW238268   7.996   8.937   0.868
46082SOL     OW38269   8.450   8.244   1.238
46082SOL    HW138270   8.491   8.212   1.324
46082SOL    HW238271   8.354   8.217   1.235
46083SOL     OW38272   7.488   7.992   1.114
46083SOL    HW138273   7.573   7.959   1.073
46083SOL    HW238274   7.501   8.007   1.212
46084SOL     OW38275   7.637   7.968   1.722
46084SOL    HW138276   7.696   7.928   1.652
46084SOL    HW238277   7.579   8.039   1.681
46085SOL     OW38278   8.817   8.398   1.660
46085SOL    HW138279   8.856   8.487   1.680
46085SOL    HW238280   8.827   8.378   1.563
46086SOL     OW38281   8.263   8.020   0.325
46086SOL    HW138282   8.270   7.931   0.279
46086SOL    HW238283   8.169   8.054   0.317
46087SOL     OW38284   9.105   8.052   1.206
46087SOL    HW138285   9.067   7.983   1.268
46087SOL    HW238286   9.187   8.016   1.162
46088SOL     OW38287   7.700   9.012   1.744
46088SOL    HW138288   7.670   9.069   1.820
46088SOL    HW238289   7.693   8.915   1.770
46089SOL     OW38290   8.119   7.912   1.269
46089SOL    HW138291   8.085   7.823   1.239
46089SOL    HW238292   8.145   7.966   1.189
46090SOL     OW38293   8.378   9.126   1.465
46090SOL    HW138294   8.354   9.108   1.370
46090SOL    HW238295   8.408   9.220   1.475
46091SOL     OW38296   7.921   7.948   0.191
46091SOL    HW138297   7.982   8.028   0.195
46091SOL    HW238298   7.826   7.979   0.198
46092SOL     OW38299   7.607   8.585   1.466
46092SOL    HW138300   7.629   8.524   1.542
46092SOL    HW238301   7.617   8.536   1.380
46093SOL     OW38302   8.795   8.507   1.234
46093SOL    HW138303   8.819   8.444   1.160
46093SOL    HW238304   8.705   8.547   1.216
46094SOL     OW38305   8.750   8.303   0.309
46094SOL    HW138306   8.664   8.272   0.351
46094SOL    HW238307   8.746   8.289   0.210
46095SOL     OW38308   9.207   9.195   1.154
46095SOL    HW138309   9.268   9.225   1.081
46095SOL    HW238310   9.169   9.106   1.132
46096SOL     OW38311   8.700   9.179   1.128
46096SOL    HW138312   8.784   9.184   1.074
46096SOL    HW238313   8.677   9.083   1.146
46097SOL     OW38314   7.531   8.706   1.022
46097SOL    HW138315   7.526   8.705   1.122
46097SOL    HW238316   7.448   8.665   0.984
46098SOL     OW38317   8.136   9.110   1.716
46098SOL    HW138318   8.080   9.191   1.725
46098SOL    HW238319   8.188   9.114   1.630
46099SOL     OW38320   8.351   7.534   0.133
46099SOL    HW138321   8.402   7.535   0.047
46099SOL    HW238322   8.407   7.492   0.204
46100SOL     OW38323   9.174   7.583   0.523
46100SOL    HW138324   9.247   7.566   0.456
46100SOL    HW238325   9.143   7.496   0.561
46101SOL     OW38326   8.836   9.021   0.477
46101SOL    HW138327   8.903   9.033   0.403
46101SOL    HW238328   8.796   9.110   0.500
46102SOL     OW38329   7.578   9.242   1.851
46102SOL    HW138330   7.537   9.168   1.904
46102SOL    HW238331   7.642   9.293   1.909
46103SOL     OW38332   8.728   8.375   0.672
46103SOL    HW138333   8.788   8.294   0.674
46103SOL    HW238334   8.768   8.444   0.612
46104SOL     OW38335   8.278   8.721   1.422
46104SOL    HW138336   8.273   8.754   1.517
46104SOL    HW238337   8.192   8.740   1.376
46105SOL     OW38338   8.120   9.064   0.154
46105SOL    HW138339   8.129   9.074   0.055
46105SOL    HW238340   8.080   8.975   0.175
46106SOL     OW38341   9.098   9.168   1.394
46106SOL    HW138342   9.151   9.178   1.310
46106SOL    HW238343   9.071   9.258   1.428
46107SOL     OW38344   9.289   7.623   0.963
46107SOL    HW138345   9.328   7.538   0.927
46107SOL    HW238346   9.191   7.625   0.944
46108SOL     OW38347   7.711   7.774   0.720
46108SOL    HW138348   7.632   7.825   0.686
46108SOL    HW238349   7.702   7.759   0.818
46109SOL     OW38350   8.642   9.060   0.031
46109SOL    HW138351   8.648   8.967   0.068
46109SOL    HW238352   8.583   9.060  -0.049
46110SOL     OW38353   8.270   8.450   1.372
46110SOL    HW138354   8.310   8.449   1.280
46110SOL    HW238355   8.280   8.542   1.412
46111SOL     OW38356   8.364   8.358   0.291
46111SOL    HW138357   8.427   8.396   0.223
46111SOL    HW238358   8.404   8.275   0.330
46112SOL     OW38359   8.952   9.055   0.044
46112SOL    HW138360   8.860   9.092   0.051
46112SOL    HW238361   8.990   9.075  -0.046
46113SOL     OW38362   7.820   8.736   1.490
46113SOL    HW138363   7.807   8.829   1.456
46113SOL    HW238364   7.736   8.684   1.477
46114SOL     OW38365   9.062   8.740   1.289
46114SOL    HW138366   9.122   8.743   1.369
46114SOL    HW238367   8.987   8.804   1.302
46115SOL     OW38368   8.487   8.546   0.696
46115SOL    HW138369   8.417   8.499   0.750
46115SOL    HW238370   8.546   8.478   0.653
46116SOL     OW38371   8.462   7.684   0.971
46116SOL    HW138372   8.454   7.648   0.878
46116SOL    HW238373   8.460   7.608   1.036
46117SOL     OW38374   8.038   8.935   0.491
46117SOL    HW138375   8.080   8.877   0.421
46117SOL    HW238376   7.994   9.014   0.447
46118SOL     OW38377   9.157   7.833   1.381
46118SOL    HW138378   9.230   7.902   1.385
46118SOL    HW238379   9.185   7.758   1.322
46119SOL     OW38380   7.703   8.796   0.290
46119SOL    HW138381   7.607   8.797   0.263
46119SOL    HW238382   7.715   8.849   0.374
46120SOL     OW38383   7.553   8.461   1.726
46120SOL    HW138384   7.476   8.428   1.780
46120SOL    HW238385   7.638   8.431   1.768
46121SOL     OW38386   8.120   7.651   1.489
46121SOL    HW138387   8.210   7.635   1.449
46121SOL    HW238388   8.128   7.656   1.588
46122SOL     OW38389   8.888   8.304   1.398
46122SOL    HW138390   8.831   8.356   1.335
46122SOL    HW238391   8.984   8.316   1.374
46123SOL     OW38392   7.520   7.614   0.318
46123SOL    HW138393   7.503   7.697   0.264
46123SOL    HW238394   7.610   7.577   0.296
46124SOL     OW38395   8.631   8.783   0.119
46124SOL    HW138396   8.532   8.772   0.121
46124SOL    HW238397   8.665   8.798   0.212
46125SOL     OW38398   8.061   8.290   1.431
46125SOL    HW138399   8.117   8.371   1.414
46125SOL    HW238400   8.120   8.210   1.434
46126SOL     OW38401   8.941   9.215   0.959
46126SOL    HW138402   8.974   9.279   0.890
46126SOL    HW238403   9.007   9.209   1.034
46127SOL     OW38404   8.164   8.013   1.708
46127SOL    HW138405   8.183   8.078   1.782
46127SOL    HW238406   8.224   7.933   1.717
46128SOL     OW38407   8.898   8.668   1.633
46128SOL    HW138408   8.889   8.658   1.732
46128SOL    HW238409   8.994   8.661   1.607
46129SOL     OW38410   7.838   9.189   1.560
46129SOL    HW138411   7.747   9.230   1.558
46129SOL    HW238412   7.831   9.095   1.592
46130SOL     OW38413   9.122   8.331   1.254
46130SOL    HW138414   9.095   8.242   1.217
46130SOL    HW238415   9.123   8.399   1.181
46131SOL     OW38416   8.673   7.773   0.449
46131SOL    HW138417   8.738   7.699   0.438
46131SOL    HW238418   8.693   7.823   0.533
46132SOL     OW38419   8.042   8.193   0.652
46132SOL    HW138420   8.092   8.278   0.633
46132SOL    HW238421   7.954   8.195   0.604
46133SOL     OW38422   9.225   7.790   1.642
46133SOL    HW138423   9.208   7.821   1.548
46133SOL    HW238424   9.141   7.753   1.680
46134SOL     OW38425   9.178   8.382   1.517
46134SOL    HW138426   9.216   8.473   1.532
46134SOL    HW238427   9.170   8.365   1.418
46135SOL     OW38428   8.307   8.822   0.016
46135SOL    HW138429   8.261   8.837   0.104
46135SOL    HW238430   8.351   8.907  -0.014
46136SOL     OW38431   8.109   9.238   0.953
46136SOL    HW138432   8.063   9.326   0.940
46136SOL    HW238433   8.208   9.250   0.946
46137SOL     OW38434   8.307   8.404   0.861
46137SOL    HW138435   8.361   8.335   0.909
46137SOL    HW238436   8.275   8.473   0.927
46138SOL     OW38437   8.531   8.432   0.087
46138SOL    HW138438   8.508   8.485   0.005
46138SOL    HW238439   8.612   8.376   0.068
46139SOL     OW38440   9.309   9.017   0.851
46139SOL    HW138441   9.238   9.005   0.781
46139SOL    HW238442   9.310   8.938   0.911
46140SOL     OW38443   7.669   8.762   1.844
46140SOL    HW138444   7.604   8.689   1.823
46140SOL    HW238445   7.673   8.776   1.942
46141SOL     OW38446   7.527   8.688   0.653
46141SOL    HW138447   7.526   8.641   0.741
46141SOL    HW238448   7.609   8.660   0.602
46142SOL     OW38449   8.120   8.839   1.624
46142SOL    HW138450   8.042   8.789   1.662
46142SOL    HW238451   8.117   8.934   1.655
46143SOL     OW38452   9.272   7.640   1.227
46143SOL    HW138453   9.268   7.550   1.271
46143SOL    HW238454   9.275   7.629   1.128
46144SOL     OW38455   7.876   7.872   0.520
46144SOL    HW138456   7.906   7.800   0.458
46144SOL    HW238457   7.837   7.832   0.603
46145SOL     OW38458   9.153   8.935   1.104
46145SOL    HW138459   9.060   8.910   1.077
46145SOL    HW238460   9.179   8.885   1.186
46146SOL     OW38461   7.765   7.995   1.280
46146SOL    HW138462   7.803   7.936   1.352
46146SOL    HW238463   7.805   7.969   1.192
46147SOL     OW38464   8.260   9.034   0.687
46147SOL    HW138465   8.292   9.044   0.593
46147SOL    HW238466   8.181   8.972   0.689
46148SOL     OW38467   8.872   7.662   1.112
46148SOL    HW138468   8.924   7.597   1.167
46148SOL    HW238469   8.823   7.725   1.173
46149SOL     OW38470   8.449   7.482   1.154
46149SOL    HW138471   8.386   7.410   1.123
46149SOL    HW238472   8.542   7.446   1.154
46150SOL     OW38473   8.218   8.778   0.301
46150SOL    HW138474   8.172   8.691   0.318
46150SOL    HW238475   8.309   8.775   0.342
46151SOL     OW38476   8.066   9.015   1.284
46151SOL    HW138477   8.061   9.097   1.341
46151SOL    HW238478   8.155   9.012   1.239
46152SOL     OW38479   8.800   7.500   0.168
46152SOL    HW138480   8.835   7.459   0.084
46152SOL    HW238481   8.710   7.462   0.188
46153SOL     OW38482   8.748   7.901   0.691
46153SOL    HW138483   8.689   7.981   0.695
46153SOL    HW238484   8.763   7.866   0.784
46154SOL     OW38485   9.041   7.669   0.882
46154SOL    HW138486   8.957   7.668   0.936
46154SOL    HW238487   9.043   7.752   0.826
46155SOL     OW38488   7.487   8.525   0.300
46155SOL    HW138489   7.586   8.514   0.291
46155SOL    HW238490   7.447   8.439   0.332
46156SOL     OW38491   8.323   9.094   0.337
46156SOL    HW138492   8.246   9.059   0.283
46156SOL    HW238493   8.291   9.165   0.399
46157SOL     OW38494   7.678   8.076   1.975
46157SOL    HW138495   7.585   8.074   2.012
46157SOL    HW238496   7.679   8.037   1.883
46158SOL     OW38497   7.673   7.723   2.858
46158SOL    HW138498   7.708   7.706   2.950
46158SOL    HW238499   7.585   7.678   2.846
46159SOL     OW38500   7.467   7.816   2.509
46159SOL    HW138501   7.385   7.859   2.548
46159SOL    HW238502   7.439   7.743   2.446
46160SOL     OW38503   8.017   8.723   3.027
46160SOL    HW138504   7.924   8.716   2.990
46160SOL    HW238505   8.028   8.812   3.071
46161SOL     OW38506   9.003   8.959   2.565
46161SOL    HW138507   8.946   8.943   2.646
46161SOL    HW238508   8.944   8.969   2.485
46162SOL     OW38509   8.583   8.151   2.579
46162SOL    HW138510   8.640   8.229   2.554
46162SOL    HW238511   8.523   8.177   2.655
46163SOL     OW38512   9.203   8.055   2.093
46163SOL    HW138513   9.191   8.042   1.994
46163SOL    HW238514   9.173   7.974   2.142
46164SOL     OW38515   8.216   8.592   2.885
46164SOL    HW138516   8.138   8.609   2.945
46164SOL    HW238517   8.250   8.679   2.849
46165SOL     OW38518   8.298   8.246   3.685
46165SOL    HW138519   8.294   8.322   3.750
46165SOL    HW238520   8.320   8.282   3.594
46166SOL     OW38521   8.133   8.460   2.527
46166SOL    HW138522   8.202   8.444   2.597
46166SOL    HW238523   8.060   8.517   2.565
46167SOL     OW38524   8.134   8.609   3.665
46167SOL    HW138525   8.194   8.688   3.679
46167SOL    HW238526   8.048   8.640   3.624
46168SOL     OW38527   7.783   8.883   2.923
46168SOL    HW138528   7.705   8.852   2.870
46168SOL    HW238529   7.841   8.941   2.866
46169SOL     OW38530   8.908   8.953   3.201
46169SOL    HW138531   8.932   9.047   3.227
46169SOL    HW238532   8.892   8.899   3.283
46170SOL     OW38533   7.886   7.840   3.361
46170SOL    HW138534   7.968   7.784   3.370
46170SOL    HW238535   7.805   7.782   3.365
46171SOL     OW38536   9.051   7.895   2.599
46171SOL    HW138537   8.977   7.941   2.549
46171SOL    HW238538   9.102   7.963   2.652
46172SOL     OW38539   7.679   9.161   2.345
46172SOL    HW138540   7.713   9.238   2.399
46172SOL    HW238541   7.723   9.161   2.255
46173SOL     OW38542   8.575   8.789   3.552
46173SOL    HW138543   8.622   8.789   3.640
46173SOL    HW238544   8.527   8.702   3.541
46174SOL     OW38545   7.678   8.882   2.400
46174SOL    HW138546   7.652   8.978   2.400
46174SOL    HW238547   7.607   8.828   2.445
46175SOL     OW38548   7.688   8.539   2.748
46175SOL    HW138549   7.702   8.455   2.800
46175SOL    HW238550   7.633   8.603   2.803
46176SOL     OW38551   8.068   9.234   3.301
46176SOL    HW138552   7.976   9.217   3.336
46176SOL    HW238553   8.096   9.326   3.327
46177SOL     OW38554   8.054   8.412   1.985
46177SOL    HW138555   8.061   8.496   1.931
46177SOL    HW238556   8.100   8.425   2.073
46178SOL     OW38557   9.042   7.562   3.342
46178SOL    HW138558   9.024   7.629   3.270
46178SOL    HW238559   9.039   7.608   3.431
46179SOL     OW38560   7.570   8.091   2.425
46179SOL    HW138561   7.525   8.003   2.442
46179SOL    HW238562   7.569   8.145   2.509
46180SOL     OW38563   9.290   9.215   2.221
46180SOL    HW138564   9.344   9.186   2.301
46180SOL    HW238565   9.320   9.305   2.192
46181SOL     OW38566   7.475   9.044   1.979
46181SOL    HW138567   7.456   8.948   2.000
46181SOL    HW238568   7.442   9.102   2.054
46182SOL     OW38569   9.137   8.370   2.474
46182SOL    HW138570   9.232   8.341   2.482
46182SOL    HW238571   9.129   8.435   2.399
46183SOL     OW38572   9.089   8.556   2.294
46183SOL    HW138573   9.175   8.558   2.242
46183SOL    HW238574   9.103   8.603   2.382
46184SOL     OW38575   7.561   8.185   3.459
46184SOL    HW138576   7.649   8.172   3.504
46184SOL    HW238577   7.548   8.282   3.437
46185SOL     OW38578   8.061   8.813   2.588
46185SOL    HW138579   8.012   8.726   2.597
46185SOL    HW238580   8.038   8.856   2.501
46186SOL     OW38581   8.741   8.676   3.285
46186SOL    HW138582   8.778   8.603   3.227
46186SOL    HW238583   8.793   8.681   3.370
46187SOL     OW38584   8.257   7.452   2.364
46187SOL    HW138585   8.297   7.543   2.355
46187SOL    HW238586   8.157   7.460   2.370
46188SOL     OW38587   7.645   8.424   3.126
46188SOL    HW138588   7.734   8.379   3.112
46188SOL    HW238589   7.572   8.359   3.107
46189SOL     OW38590   8.973   8.447   2.052
46189SOL    HW138591   8.910   8.371   2.065
46189SOL    HW238592   9.021   8.465   2.138
46190SOL     OW38593   8.635   9.240   3.478
46190SOL    HW138594   8.659   9.300   3.402
46190SOL    HW238595   8.642   9.145   3.448
46191SOL     OW38596   7.765   7.699   3.663
46191SOL    HW138597   7.836   7.770   3.669
46191SOL    HW238598   7.677   7.738   3.691
46192SOL     OW38599   8.914   8.865   2.815
46192SOL    HW138600   8.855   8.871   2.895
46192SOL    HW238601   8.899   8.777   2.769
46193SOL     OW38602   9.115   9.162   2.434
46193SOL    HW138603   9.074   9.139   2.346
46193SOL    HW238604   9.097   9.088   2.499
46194SOL     OW38605   8.046   8.177   2.132
46194SOL    HW138606   8.070   8.246   2.064
46194SOL    HW238607   7.968   8.210   2.186
46195SOL     OW38608   8.729   7.793   2.806
46195SOL    HW138609   8.643   7.743   2.793
46195SOL    HW238610   8.791   7.739   2.862
46196SOL     OW38611   9.024   9.110   2.169
46196SOL    HW138612   9.113   9.156   2.172
46196SOL    HW238613   9.003   9.086   2.074
46197SOL     OW38614   8.255   8.053   3.327
46197SOL    HW138615   8.208   8.050   3.416
46197SOL    HW238616   8.204   7.998   3.261
46198SOL     OW38617   8.842   7.917   3.536
46198SOL    HW138618   8.822   7.960   3.624
46198SOL    HW238619   8.920   7.855   3.545
46199SOL     OW38620   8.421   8.338   3.434
46199SOL    HW138621   8.467   8.254   3.405
46199SOL    HW238622   8.365   8.372   3.359
46200SOL     OW38623   8.439   7.858   3.104
46200SOL    HW138624   8.362   7.892   3.158
46200SOL    HW238625   8.405   7.807   3.025
46201SOL     OW38626   8.489   8.149   2.291
46201SOL    HW138627   8.515   8.145   2.387
46201SOL    HW238628   8.404   8.098   2.277
46202SOL     OW38629   7.524   8.259   2.651
46202SOL    HW138630   7.623   8.247   2.660
46202SOL    HW238631   7.500   8.354   2.672
46203SOL     OW38632   7.578   9.269   3.433
46203SOL    HW138633   7.568   9.254   3.532
46203SOL    HW238634   7.492   9.305   3.397
46204SOL     OW38635   8.313   7.796   2.057
46204SOL    HW138636   8.372   7.859   2.008
46204SOL    HW238637   8.332   7.702   2.028
46205SOL     OW38638   9.167   8.033   3.693
46205SOL    HW138639   9.141   8.122   3.657
46205SOL    HW238640   9.165   7.965   3.620
46206SOL     OW38641   8.810   8.592   2.407
46206SOL    HW138642   8.893   8.563   2.359
46206SOL    HW238643   8.761   8.659   2.351
46207SOL     OW38644   7.998   7.644   2.747
46207SOL    HW138645   7.993   7.639   2.847
46207SOL    HW238646   8.000   7.740   2.718
46208SOL     OW38647   8.456   8.904   2.339
46208SOL    HW138648   8.410   8.976   2.287
46208SOL    HW238649   8.452   8.924   2.437
46209SOL     OW38650   7.799   9.249   2.715
46209SOL    HW138651   7.849   9.163   2.721
46209SOL    HW238652   7.864   9.326   2.712
46210SOL     OW38653   9.243   8.514   2.735
46210SOL    HW138654   9.181   8.499   2.659
46210SOL    HW238655   9.191   8.525   2.820
46211SOL     OW38656   8.675   8.998   3.368
46211SOL    HW138657   8.681   8.921   3.432
46211SOL    HW238658   8.623   8.972   3.288
46212SOL     OW38659   7.769   8.391   2.104
46212SOL    HW138660   7.851   8.430   2.062
46212SOL    HW238661   7.742   8.309   2.055
46213SOL     OW38662   8.906   8.183   2.590
46213SOL    HW138663   8.901   8.118   2.665
46213SOL    HW238664   8.986   8.242   2.603
46214SOL     OW38665   7.909   8.714   3.589
46214SOL    HW138666   7.859   8.715   3.503
46214SOL    HW238667   7.846   8.696   3.665
46215SOL     OW38668   8.559   9.224   2.099
46215SOL    HW138669   8.499   9.162   2.149
46215SOL    HW238670   8.590   9.180   2.014
46216SOL     OW38671   7.650   7.733   3.360
46216SOL    HW138672   7.570   7.793   3.347
46216SOL    HW238673   7.640   7.684   3.446
46217SOL     OW38674   9.080   8.825   1.943
46217SOL    HW138675   9.048   8.919   1.933
46217SOL    HW238676   9.004   8.762   1.931
46218SOL     OW38677   7.912   9.191   2.185
46218SOL    HW138678   7.945   9.230   2.271
46218SOL    HW238679   7.988   9.184   2.120
46219SOL     OW38680   8.848   7.555   2.288
46219SOL    HW138681   8.824   7.518   2.198
46219SOL    HW238682   8.947   7.571   2.292
46220SOL     OW38683   7.697   9.233   3.103
46220SOL    HW138684   7.754   9.168   3.153
46220SOL    HW238685   7.681   9.200   3.010
46221SOL     OW38686   8.388   9.146   2.766
46221SOL    HW138687   8.468   9.089   2.787
46221SOL    HW238688   8.339   9.106   2.689
46222SOL     OW38689   7.830   8.148   2.342
46222SOL    HW138690   7.875   8.058   2.339
46222SOL    HW238691   7.736   8.137   2.375
46223SOL     OW38692   8.995   7.670   3.591
46223SOL    HW138693   8.990   7.707   3.683
46223SOL    HW238694   8.923   7.601   3.579
46224SOL     OW38695   8.062   7.570   1.979
46224SOL    HW138696   8.160   7.548   1.986
46224SOL    HW238697   8.031   7.553   1.886
46225SOL     OW38698   8.229   7.712   3.611
46225SOL    HW138699   8.296   7.651   3.654
46225SOL    HW238700   8.156   7.731   3.676
46226SOL     OW38701   8.336   8.962   3.057
46226SOL    HW138702   8.313   8.937   2.963
46226SOL    HW238703   8.397   8.893   3.096
46227SOL     OW38704   8.799   8.038   3.295
46227SOL    HW138705   8.827   7.995   3.380
46227SOL    HW238706   8.824   8.134   3.296
46228SOL     OW38707   8.251   8.850   2.786
46228SOL    HW138708   8.341   8.864   2.744
46228SOL    HW238709   8.180   8.852   2.715
46229SOL     OW38710   8.370   7.951   2.761
46229SOL    HW138711   8.345   7.942   2.665
46229SOL    HW238712   8.418   7.869   2.792
46230SOL     OW38713   7.987   7.512   2.374
46230SOL    HW138714   7.906   7.513   2.432
46230SOL    HW238715   7.990   7.595   2.319
46231SOL     OW38716   8.882   8.636   1.903
46231SOL    HW138717   8.914   8.560   1.960
46231SOL    HW238718   8.790   8.663   1.933
46232SOL     OW38719   7.745   7.483   2.033
46232SOL    HW138720   7.794   7.567   2.012
46232SOL    HW238721   7.807   7.418   2.078
46233SOL     OW38722   8.383   7.684   2.342
46233SOL    HW138723   8.335   7.725   2.264
46233SOL    HW238724   8.482   7.682   2.323
46234SOL     OW38725   8.524   8.131   3.326
46234SOL    HW138726   8.444   8.070   3.329
46234SOL    HW238727   8.605   8.078   3.302
46235SOL     OW38728   8.675   9.018   2.655
46235SOL    HW138729   8.696   9.092   2.590
46235SOL    HW238730   8.743   9.018   2.728
46236SOL     OW38731   7.907   8.600   2.603
46236SOL    HW138732   7.836   8.573   2.668
46236SOL    HW238733   7.881   8.572   2.510
46237SOL     OW38734   8.719   9.245   2.453
46237SOL    HW138735   8.763   9.309   2.389
46237SOL    HW238736   8.669   9.297   2.523
46238SOL     OW38737   8.480   7.997   1.878
46238SOL    HW138738   8.439   8.079   1.839
46238SOL    HW238739   8.544   8.023   1.951
46239SOL     OW38740   7.526   8.004   3.248
46239SOL    HW138741   7.618   8.003   3.207
46239SOL    HW238742   7.520   8.078   3.315
46240SOL     OW38743   8.009   7.670   3.009
46240SOL    HW138744   8.047   7.586   3.046
46240SOL    HW238745   7.921   7.689   3.053
46241SOL     OW38746   8.314   7.902   2.504
46241SOL    HW138747   8.282   7.974   2.442
46241SOL    HW238748   8.338   7.821   2.451
46242SOL     OW38749   8.465   7.487   2.615
46242SOL    HW138750   8.393   7.492   2.546
46242SOL    HW238751   8.441   7.418   2.684
46243SOL     OW38752   8.877   8.621   2.729
46243SOL    HW138753   8.822   8.537   2.722
46243SOL    HW238754   8.903   8.650   2.637
46244SOL     OW38755   8.914   8.038   2.854
46244SOL    HW138756   8.884   7.943   2.861
46244SOL    HW238757   8.987   8.054   2.920
46245SOL     OW38758   9.305   8.281   2.239
46245SOL    HW138759   9.347   8.217   2.303
46245SOL    HW238760   9.267   8.230   2.161
46246SOL     OW38761   7.936   8.833   2.036
46246SOL    HW138762   7.849   8.818   2.083
46246SOL    HW238763   7.919   8.859   1.941
46247SOL     OW38764   9.112   8.728   2.519
46247SOL    HW138765   9.211   8.736   2.533
46247SOL    HW238766   9.067   8.812   2.550
46248SOL     OW38767   8.838   8.023   1.940
46248SOL    HW138768   8.784   8.002   2.021
46248SOL    HW238769   8.929   7.982   1.949
46249SOL     OW38770   7.975   7.704   2.190
46249SOL    HW138771   8.002   7.645   2.115
46249SOL    HW238772   7.975   7.799   2.159
46250SOL     OW38773   9.202   8.671   3.450
46250SOL    HW138774   9.293   8.632   3.437
46250SOL    HW238775   9.210   8.767   3.474
46251SOL     OW38776   8.512   8.795   3.202
46251SOL    HW138777   8.432   8.772   3.257
46251SOL    HW238778   8.595   8.769   3.251
46252SOL     OW38779   9.040   9.077   3.487
46252SOL    HW138780   9.067   9.111   3.397
46252SOL    HW238781   9.119   9.039   3.533
46253SOL     OW38782   8.559   8.643   2.962
46253SOL    HW138783   8.519   8.687   3.043
46253SOL    HW238784   8.518   8.680   2.879
46254SOL     OW38785   9.086   8.547   2.941
46254SOL    HW138786   9.091   8.628   3.000
46254SOL    HW238787   9.000   8.549   2.890
46255SOL     OW38788   8.363   7.537   3.264
46255SOL    HW138789   8.388   7.517   3.169
46255SOL    HW238790   8.435   7.593   3.306
46256SOL     OW38791   8.428   8.564   3.581
46256SOL    HW138792   8.329   8.570   3.591
46256SOL    HW238793   8.451   8.484   3.525
46257SOL     OW38794   8.153   8.498   2.230
46257SOL    HW138795   8.139   8.505   2.329
46257SOL    HW238796   8.237   8.447   2.212
46258SOL     OW38797   7.858   8.261   3.113
46258SOL    HW138798   7.944   8.273   3.163
46258SOL    HW238799   7.816   8.174   3.140
46259SOL     OW38800   8.722   7.834   3.124
46259SOL    HW138801   8.743   7.908   3.188
46259SOL    HW238802   8.633   7.851   3.081
46260SOL     OW38803   7.512   9.012   3.193
46260SOL    HW138804   7.466   9.094   3.159
46260SOL    HW238805   7.610   9.031   3.202
46261SOL     OW38806   7.815   8.548   2.363
46261SOL    HW138807   7.808   8.631   2.307
46261SOL    HW238808   7.819   8.468   2.303
46262SOL     OW38809   8.014   7.985   2.727
46262SOL    HW138810   8.026   8.051   2.653
46262SOL    HW238811   8.060   8.019   2.810
46263SOL     OW38812   8.700   8.796   2.250
46263SOL    HW138813   8.750   8.873   2.290
46263SOL    HW238814   8.605   8.798   2.282
46264SOL     OW38815   8.720   8.893   3.004
46264SOL    HW138816   8.767   8.906   3.091
46264SOL    HW238817   8.654   8.819   3.013
46265SOL     OW38818   9.030   8.087   2.334
46265SOL    HW138819   8.999   8.148   2.407
46265SOL    HW238820   9.080   8.139   2.265
46266SOL     OW38821   7.802   8.958   3.191
46266SOL    HW138822   7.781   8.914   3.104
46266SOL    HW238823   7.899   8.984   3.194
46267SOL     OW38824   7.850   8.199   3.460
46267SOL    HW138825   7.918   8.254   3.413
46267SOL    HW238826   7.890   8.111   3.487
46268SOL     OW38827   9.035   8.227   3.532
46268SOL    HW138828   8.943   8.265   3.527
46268SOL    HW238829   9.095   8.274   3.467
46269SOL     OW38830   8.461   7.553   3.632
46269SOL    HW138831   8.467   7.638   3.580
46269SOL    HW238832   8.493   7.477   3.575
46270SOL     OW38833   7.952   7.498   3.602
46270SOL    HW138834   7.910   7.441   3.532
46270SOL    HW238835   7.886   7.567   3.634
46271SOL     OW38836   8.021   8.318   2.891
46271SOL    HW138837   8.065   8.407   2.882
46271SOL    HW238838   7.958   8.318   2.968
46272SOL     OW38839   8.808   8.310   2.907
46272SOL    HW138840   8.733   8.310   2.841
46272SOL    HW238841   8.845   8.218   2.916
46273SOL     OW38842   8.657   7.973   2.137
46273SOL    HW138843   8.670   7.889   2.191
46273SOL    HW238844   8.628   8.047   2.197
46274SOL     OW38845   7.755   7.661   3.093
46274SOL    HW138846   7.732   7.698   3.183
46274SOL    HW238847   7.725   7.566   3.087
46275SOL     OW38848   7.485   8.758   3.144
46275SOL    HW138849   7.538   8.709   3.212
46275SOL    HW238850   7.507   8.856   3.149
46276SOL     OW38851   8.180   8.082   2.926
46276SOL    HW138852   8.239   8.056   2.850
46276SOL    HW238853   8.152   8.178   2.915
46277SOL     OW38854   9.176   8.383   3.716
46277SOL    HW138855   9.130   8.376   3.627
46277SOL    HW238856   9.114   8.427   3.782
46278SOL     OW38857   7.755   7.511   2.480
46278SOL    HW138858   7.744   7.605   2.513
46278SOL    HW238859   7.750   7.448   2.557
46279SOL     OW38860   9.070   7.815   2.236
46279SOL    HW138861   9.072   7.739   2.300
46279SOL    HW238862   9.022   7.892   2.276
46280SOL     OW38863   8.471   8.214   2.828
46280SOL    HW138864   8.486   8.235   2.924
46280SOL    HW238865   8.441   8.119   2.819
46281SOL     OW38866   8.428   9.021   3.562
46281SOL    HW138867   8.408   9.065   3.474
46281SOL    HW238868   8.467   8.930   3.546
46282SOL     OW38869   9.307   8.966   3.467
46282SOL    HW138870   9.321   8.993   3.372
46282SOL    HW238871   9.390   8.988   3.520
46283SOL     OW38872   7.798   8.346   3.666
46283SOL    HW138873   7.874   8.390   3.714
46283SOL    HW238874   7.833   8.299   3.584
46284SOL     OW38875   8.988   7.722   1.987
46284SOL    HW138876   8.927   7.647   2.010
46284SOL    HW238877   9.010   7.774   2.070
46285SOL     OW38878   8.751   8.286   1.904
46285SOL    HW138879   8.785   8.193   1.919
46285SOL    HW238880   8.769   8.313   1.809
46286SOL     OW38881   8.516   8.781   2.711
46286SOL    HW138882   8.523   8.697   2.656
46286SOL    HW238883   8.578   8.850   2.675
46287SOL     OW38884   7.767   8.258   2.811
46287SOL    HW138885   7.860   8.294   2.816
46287SOL    HW238886   7.761   8.173   2.863
46288SOL     OW38887   7.787   7.957   2.868
46288SOL    HW138888   7.735   7.874   2.851
46288SOL    HW238889   7.864   7.962   2.804
46289SOL     OW38890   8.586   7.828   3.540
46289SOL    HW138891   8.541   7.891   3.604
46289SOL    HW238892   8.679   7.859   3.523
46290SOL     OW38893   8.608   7.655   3.339
46290SOL    HW138894   8.608   7.719   3.416
46290SOL    HW238895   8.636   7.703   3.256
46291SOL     OW38896   7.456   8.774   2.062
46291SOL    HW138897   7.363   8.795   2.031
46291SOL    HW238898   7.466   8.675   2.075
46292SOL     OW38899   7.536   9.249   2.789
46292SOL    HW138900   7.494   9.163   2.762
46292SOL    HW238901   7.630   9.252   2.755
46293SOL     OW38902   7.952   9.016   2.772
46293SOL    HW138903   8.018   9.090   2.781
46293SOL    HW238904   7.996   8.937   2.730
46294SOL     OW38905   8.450   8.244   3.100
46294SOL    HW138906   8.491   8.212   3.186
46294SOL    HW238907   8.354   8.217   3.097
46295SOL     OW38908   7.488   7.992   2.976
46295SOL    HW138909   7.573   7.959   2.935
46295SOL    HW238910   7.501   8.007   3.074
46296SOL     OW38911   7.637   7.968   3.584
46296SOL    HW138912   7.696   7.928   3.514
46296SOL    HW238913   7.579   8.039   3.543
46297SOL     OW38914   8.817   8.398   3.522
46297SOL    HW138915   8.856   8.487   3.542
46297SOL    HW238916   8.827   8.378   3.425
46298SOL     OW38917   8.263   8.020   2.187
46298SOL    HW138918   8.270   7.931   2.141
46298SOL    HW238919   8.169   8.054   2.179
46299SOL     OW38920   9.105   8.052   3.068
46299SOL    HW138921   9.067   7.983   3.130
46299SOL    HW238922   9.187   8.016   3.024
46300SOL     OW38923   7.700   9.012   3.606
46300SOL    HW138924   7.670   9.069   3.682
46300SOL    HW238925   7.693   8.915   3.632
46301SOL     OW38926   8.119   7.912   3.131
46301SOL    HW138927   8.085   7.823   3.101
46301SOL    HW238928   8.145   7.966   3.051
46302SOL     OW38929   8.378   9.126   3.327
46302SOL    HW138930   8.354   9.108   3.232
46302SOL    HW238931   8.408   9.220   3.337
46303SOL     OW38932   7.921   7.948   2.053
46303SOL    HW138933   7.982   8.028   2.057
46303SOL    HW238934   7.826   7.979   2.060
46304SOL     OW38935   7.607   8.585   3.328
46304SOL    HW138936   7.629   8.524   3.404
46304SOL    HW238937   7.617   8.536   3.242
46305SOL     OW38938   8.795   8.507   3.096
46305SOL    HW138939   8.819   8.444   3.022
46305SOL    HW238940   8.705   8.547   3.078
46306SOL     OW38941   8.750   8.303   2.171
46306SOL    HW138942   8.664   8.272   2.213
46306SOL    HW238943   8.746   8.289   2.072
46307SOL     OW38944   9.207   9.195   3.016
46307SOL    HW138945   9.268   9.225   2.943
46307SOL    HW238946   9.169   9.106   2.994
46308SOL     OW38947   8.700   9.179   2.990
46308SOL    HW138948   8.784   9.184   2.936
46308SOL    HW238949   8.677   9.083   3.008
46309SOL     OW38950   7.531   8.706   2.884
46309SOL    HW138951   7.526   8.705   2.984
46309SOL    HW238952   7.448   8.665   2.846
46310SOL     OW38953   8.136   9.110   3.578
46310SOL    HW138954   8.080   9.191   3.587
46310SOL    HW238955   8.188   9.114   3.492
46311SOL     OW38956   9.174   7.583   2.385
46311SOL    HW138957   9.247   7.566   2.318
46311SOL    HW238958   9.143   7.496   2.423
46312SOL     OW38959   8.836   9.021   2.339
46312SOL    HW138960   8.903   9.033   2.265
46312SOL    HW238961   8.796   9.110   2.362
46313SOL     OW38962   7.578   9.242   3.713
46313SOL    HW138963   7.537   9.168   3.766
46313SOL    HW238964   7.642   9.293   3.771
46314SOL     OW38965   8.728   8.375   2.534
46314SOL    HW138966   8.788   8.294   2.536
46314SOL    HW238967   8.768   8.444   2.474
46315SOL     OW38968   8.278   8.721   3.284
46315SOL    HW138969   8.273   8.754   3.379
46315SOL    HW238970   8.192   8.740   3.238
46316SOL     OW38971   8.120   9.064   2.016
46316SOL    HW138972   8.129   9.074   1.917
46316SOL    HW238973   8.080   8.975   2.037
46317SOL     OW38974   9.098   9.168   3.256
46317SOL    HW138975   9.151   9.178   3.172
46317SOL    HW238976   9.071   9.258   3.290
46318SOL     OW38977   9.289   7.623   2.825
46318SOL    HW138978   9.328   7.538   2.789
46318SOL    HW238979   9.191   7.625   2.806
46319SOL     OW38980   7.711   7.774   2.582
46319SOL    HW138981   7.632   7.825   2.548
46319SOL    HW238982   7.702   7.759   2.680
46320SOL     OW38983   8.642   9.060   1.893
46320SOL    HW138984   8.648   8.967   1.930
46320SOL    HW238985   8.583   9.060   1.813
46321SOL     OW38986   8.270   8.450   3.234
46321SOL    HW138987   8.310   8.449   3.142
46321SOL    HW238988   8.280   8.542   3.274
46322SOL     OW38989   8.364   8.358   2.153
46322SOL    HW138990   8.427   8.396   2.085
46322SOL    HW238991   8.404   8.275   2.192
46323SOL     OW38992   8.952   9.055   1.906
46323SOL    HW138993   8.860   9.092   1.913
46323SOL    HW238994   8.990   9.075   1.816
46324SOL     OW38995   7.820   8.736   3.352
46324SOL    HW138996   7.807   8.829   3.318
46324SOL    HW238997   7.736   8.684   3.339
46325SOL     OW38998   9.062   8.740   3.151
46325SOL    HW138999   9.122   8.743   3.231
46325SOL    HW239000   8.987   8.804   3.164
46326SOL     OW39001   8.487   8.546   2.558
46326SOL    HW139002   8.417   8.499   2.612
46326SOL    HW239003   8.546   8.478   2.515
46327SOL     OW39004   8.462   7.684   2.833
46327SOL    HW139005   8.454   7.648   2.740
46327SOL    HW239006   8.460   7.608   2.898
46328SOL     OW39007   8.038   8.935   2.353
46328SOL    HW139008   8.080   8.877   2.283
46328SOL    HW239009   7.994   9.014   2.309
46329SOL     OW39010   9.157   7.833   3.243
46329SOL    HW139011   9.230   7.902   3.247
46329SOL    HW239012   9.185   7.758   3.184
46330SOL     OW39013   7.703   8.796   2.152
46330SOL    HW139014   7.607   8.797   2.125
46330SOL    HW239015   7.715   8.849   2.236
46331SOL     OW39016   7.553   8.461   3.588
46331SOL    HW139017   7.476   8.428   3.642
46331SOL    HW239018   7.638   8.431   3.630
46332SOL     OW39019   8.120   7.651   3.351
46332SOL    HW139020   8.210   7.635   3.311
46332SOL    HW239021   8.128   7.656   3.450
46333SOL     OW39022   7.523   7.793   1.895
46333SOL    HW139023   7.431   7.765   1.866
46333SOL    HW239024   7.554   7.870   1.839
46334SOL     OW39025   8.888   8.304   3.260
46334SOL    HW139026   8.831   8.356   3.197
46334SOL    HW239027   8.984   8.316   3.236
46335SOL     OW39028   7.520   7.614   2.180
46335SOL    HW139029   7.503   7.697   2.126
46335SOL    HW239030   7.610   7.577   2.158
46336SOL     OW39031   8.631   8.783   1.981
46336SOL    HW139032   8.532   8.772   1.983
46336SOL    HW239033   8.665   8.798   2.074
46337SOL     OW39034   8.061   8.290   3.293
46337SOL    HW139035   8.117   8.371   3.276
46337SOL    HW239036   8.120   8.210   3.296
46338SOL     OW39037   8.941   9.215   2.821
46338SOL    HW139038   8.974   9.279   2.752
46338SOL    HW239039   9.007   9.209   2.896
46339SOL     OW39040   8.164   8.013   3.570
46339SOL    HW139041   8.183   8.078   3.644
46339SOL    HW239042   8.224   7.933   3.579
46340SOL     OW39043   8.898   8.668   3.495
46340SOL    HW139044   8.889   8.658   3.594
46340SOL    HW239045   8.994   8.661   3.469
46341SOL     OW39046   7.838   9.189   3.422
46341SOL    HW139047   7.747   9.230   3.420
46341SOL    HW239048   7.831   9.095   3.454
46342SOL     OW39049   9.122   8.331   3.116
46342SOL    HW139050   9.095   8.242   3.079
46342SOL    HW239051   9.123   8.399   3.043
46343SOL     OW39052   8.673   7.773   2.311
46343SOL    HW139053   8.738   7.699   2.300
46343SOL    HW239054   8.693   7.823   2.395
46344SOL     OW39055   8.042   8.193   2.514
46344SOL    HW139056   8.092   8.278   2.495
46344SOL    HW239057   7.954   8.195   2.466
46345SOL     OW39058   9.225   7.790   3.504
46345SOL    HW139059   9.208   7.821   3.410
46345SOL    HW239060   9.141   7.753   3.542
46346SOL     OW39061   9.178   8.382   3.379
46346SOL    HW139062   9.216   8.473   3.394
46346SOL    HW239063   9.170   8.365   3.280
46347SOL     OW39064   8.307   8.822   1.878
46347SOL    HW139065   8.261   8.837   1.966
46347SOL    HW239066   8.351   8.907   1.848
46348SOL     OW39067   8.109   9.238   2.815
46348SOL    HW139068   8.063   9.326   2.802
46348SOL    HW239069   8.208   9.250   2.808
46349SOL     OW39070   8.307   8.404   2.723
46349SOL    HW139071   8.361   8.335   2.771
46349SOL    HW239072   8.275   8.473   2.789
46350SOL     OW39073   8.531   8.432   1.949
46350SOL    HW139074   8.508   8.485   1.867
46350SOL    HW239075   8.612   8.376   1.930
46351SOL     OW39076   9.309   9.017   2.713
46351SOL    HW139077   9.238   9.005   2.643
46351SOL    HW239078   9.310   8.938   2.773
46352SOL     OW39079   7.669   8.762   3.706
46352SOL    HW139080   7.604   8.689   3.685
46352SOL    HW239081   7.673   8.776   3.804
46353SOL     OW39082   7.527   8.688   2.515
46353SOL    HW139083   7.526   8.641   2.603
46353SOL    HW239084   7.609   8.660   2.464
46354SOL     OW39085   8.120   8.839   3.486
46354SOL    HW139086   8.042   8.789   3.524
46354SOL    HW239087   8.117   8.934   3.517
46355SOL     OW39088   9.272   7.640   3.089
46355SOL    HW139089   9.268   7.550   3.133
46355SOL    HW239090   9.275   7.629   2.990
46356SOL     OW39091   7.876   7.872   2.382
46356SOL    HW139092   7.906   7.800   2.320
46356SOL    HW239093   7.837   7.832   2.465
46357SOL     OW39094   9.153   8.935   2.966
46357SOL    HW139095   9.060   8.910   2.939
46357SOL    HW239096   9.179   8.885   3.048
46358SOL     OW39097   7.765   7.995   3.142
46358SOL    HW139098   7.803   7.936   3.214
46358SOL    HW239099   7.805   7.969   3.054
46359SOL     OW39100   8.260   9.034   2.549
46359SOL    HW139101   8.292   9.044   2.455
46359SOL    HW239102   8.181   8.972   2.551
46360SOL     OW39103   8.872   7.662   2.974
46360SOL    HW139104   8.924   7.597   3.029
46360SOL    HW239105   8.823   7.725   3.035
46361SOL     OW39106   8.449   7.482   3.016
46361SOL    HW139107   8.386   7.410   2.985
46361SOL    HW239108   8.542   7.446   3.016
46362SOL     OW39109   8.218   8.778   2.163
46362SOL    HW139110   8.172   8.691   2.180
46362SOL    HW239111   8.309   8.775   2.204
46363SOL     OW39112   8.066   9.015   3.146
46363SOL    HW139113   8.061   9.097   3.203
46363SOL    HW239114   8.155   9.012   3.101
46364SOL     OW39115   8.800   7.500   2.030
46364SOL    HW139116   8.835   7.459   1.946
46364SOL    HW239117   8.710   7.462   2.050
46365SOL     OW39118   8.748   7.901   2.553
46365SOL    HW139119   8.689   7.981   2.557
46365SOL    HW239120   8.763   7.866   2.646
46366SOL     OW39121   9.041   7.669   2.744
46366SOL    HW139122   8.957   7.668   2.798
46366SOL    HW239123   9.043   7.752   2.688
46367SOL     OW39124   7.487   8.525   2.162
46367SOL    HW139125   7.586   8.514   2.153
46367SOL    HW239126   7.447   8.439   2.194
46368SOL     OW39127   8.323   9.094   2.199
46368SOL    HW139128   8.246   9.059   2.145
46368SOL    HW239129   8.291   9.165   2.261
46369SOL     OW39130   7.678   8.076   3.837
46369SOL    HW139131   7.585   8.074   3.874
46369SOL    HW239132   7.679   8.037   3.745
46370SOL     OW39133   7.673   7.723   4.720
46370SOL    HW139134   7.708   7.706   4.812
46370SOL    HW239135   7.585   7.678   4.708
46371SOL     OW39136   7.467   7.816   4.371
46371SOL    HW139137   7.385   7.859   4.410
46371SOL    HW239138   7.439   7.743   4.308
46372SOL     OW39139   8.017   8.723   4.889
46372SOL    HW139140   7.924   8.716   4.852
46372SOL    HW239141   8.028   8.812   4.933
46373SOL     OW39142   9.003   8.959   4.427
46373SOL    HW139143   8.946   8.943   4.508
46373SOL    HW239144   8.944   8.969   4.347
46374SOL     OW39145   8.583   8.151   4.441
46374SOL    HW139146   8.640   8.229   4.416
46374SOL    HW239147   8.523   8.177   4.517
46375SOL     OW39148   9.203   8.055   3.955
46375SOL    HW139149   9.191   8.042   3.856
46375SOL    HW239150   9.173   7.974   4.004
46376SOL     OW39151   8.216   8.592   4.747
46376SOL    HW139152   8.138   8.609   4.807
46376SOL    HW239153   8.250   8.679   4.711
46377SOL     OW39154   8.298   8.246   5.547
46377SOL    HW139155   8.294   8.322   5.612
46377SOL    HW239156   8.320   8.282   5.456
46378SOL     OW39157   8.133   8.460   4.389
46378SOL    HW139158   8.202   8.444   4.459
46378SOL    HW239159   8.060   8.517   4.427
46379SOL     OW39160   8.134   8.609   5.527
46379SOL    HW139161   8.194   8.688   5.541
46379SOL    HW239162   8.048   8.640   5.486
46380SOL     OW39163   7.783   8.883   4.785
46380SOL    HW139164   7.705   8.852   4.732
46380SOL    HW239165   7.841   8.941   4.728
46381SOL     OW39166   8.908   8.953   5.063
46381SOL    HW139167   8.932   9.047   5.089
46381SOL    HW239168   8.892   8.899   5.145
46382SOL     OW39169   7.886   7.840   5.223
46382SOL    HW139170   7.968   7.784   5.232
46382SOL    HW239171   7.805   7.782   5.227
46383SOL     OW39172   9.051   7.895   4.461
46383SOL    HW139173   8.977   7.941   4.411
46383SOL    HW239174   9.102   7.963   4.514
46384SOL     OW39175   7.679   9.161   4.207
46384SOL    HW139176   7.713   9.238   4.261
46384SOL    HW239177   7.723   9.161   4.117
46385SOL     OW39178   8.575   8.789   5.414
46385SOL    HW139179   8.622   8.789   5.502
46385SOL    HW239180   8.527   8.702   5.403
46386SOL     OW39181   7.678   8.882   4.262
46386SOL    HW139182   7.652   8.978   4.262
46386SOL    HW239183   7.607   8.828   4.307
46387SOL     OW39184   7.688   8.539   4.610
46387SOL    HW139185   7.702   8.455   4.662
46387SOL    HW239186   7.633   8.603   4.665
46388SOL     OW39187   8.068   9.234   5.163
46388SOL    HW139188   7.976   9.217   5.198
46388SOL    HW239189   8.096   9.326   5.189
46389SOL     OW39190   8.054   8.412   3.847
46389SOL    HW139191   8.061   8.496   3.793
46389SOL    HW239192   8.100   8.425   3.935
46390SOL     OW39193   9.042   7.562   5.204
46390SOL    HW139194   9.024   7.629   5.132
46390SOL    HW239195   9.039   7.608   5.293
46391SOL     OW39196   7.570   8.091   4.287
46391SOL    HW139197   7.525   8.003   4.304
46391SOL    HW239198   7.569   8.145   4.371
46392SOL     OW39199   9.290   9.215   4.083
46392SOL    HW139200   9.344   9.186   4.163
46392SOL    HW239201   9.320   9.305   4.054
46393SOL     OW39202   7.475   9.044   3.841
46393SOL    HW139203   7.456   8.948   3.862
46393SOL    HW239204   7.442   9.102   3.916
46394SOL     OW39205   9.137   8.370   4.336
46394SOL    HW139206   9.232   8.341   4.344
46394SOL    HW239207   9.129   8.435   4.261
46395SOL     OW39208   9.089   8.556   4.156
46395SOL    HW139209   9.175   8.558   4.104
46395SOL    HW239210   9.103   8.603   4.244
46396SOL     OW39211   7.561   8.185   5.321
46396SOL    HW139212   7.649   8.172   5.366
46396SOL    HW239213   7.548   8.282   5.299
46397SOL     OW39214   8.061   8.813   4.450
46397SOL    HW139215   8.012   8.726   4.459
46397SOL    HW239216   8.038   8.856   4.363
46398SOL     OW39217   8.741   8.676   5.147
46398SOL    HW139218   8.778   8.603   5.089
46398SOL    HW239219   8.793   8.681   5.232
46399SOL     OW39220   8.257   7.452   4.226
46399SOL    HW139221   8.297   7.543   4.217
46399SOL    HW239222   8.157   7.460   4.232
46400SOL     OW39223   7.645   8.424   4.988
46400SOL    HW139224   7.734   8.379   4.974
46400SOL    HW239225   7.572   8.359   4.969
46401SOL     OW39226   8.973   8.447   3.914
46401SOL    HW139227   8.910   8.371   3.927
46401SOL    HW239228   9.021   8.465   4.000
46402SOL     OW39229   8.635   9.240   5.340
46402SOL    HW139230   8.659   9.300   5.264
46402SOL    HW239231   8.642   9.145   5.310
46403SOL     OW39232   7.765   7.699   5.525
46403SOL    HW139233   7.836   7.770   5.531
46403SOL    HW239234   7.677   7.738   5.553
46404SOL     OW39235   8.914   8.865   4.677
46404SOL    HW139236   8.855   8.871   4.757
46404SOL    HW239237   8.899   8.777   4.631
46405SOL     OW39238   9.115   9.162   4.296
46405SOL    HW139239   9.074   9.139   4.208
46405SOL    HW239240   9.097   9.088   4.361
46406SOL     OW39241   8.046   8.177   3.994
46406SOL    HW139242   8.070   8.246   3.926
46406SOL    HW239243   7.968   8.210   4.048
46407SOL     OW39244   8.729   7.793   4.668
46407SOL    HW139245   8.643   7.743   4.655
46407SOL    HW239246   8.791   7.739   4.724
46408SOL     OW39247   9.024   9.110   4.031
46408SOL    HW139248   9.113   9.156   4.034
46408SOL    HW239249   9.003   9.086   3.936
46409SOL     OW39250   8.255   8.053   5.189
46409SOL    HW139251   8.208   8.050   5.278
46409SOL    HW239252   8.204   7.998   5.123
46410SOL     OW39253   8.842   7.917   5.398
46410SOL    HW139254   8.822   7.960   5.486
46410SOL    HW239255   8.920   7.855   5.407
46411SOL     OW39256   8.421   8.338   5.296
46411SOL    HW139257   8.467   8.254   5.267
46411SOL    HW239258   8.365   8.372   5.221
46412SOL     OW39259   8.439   7.858   4.966
46412SOL    HW139260   8.362   7.892   5.020
46412SOL    HW239261   8.405   7.807   4.887
46413SOL     OW39262   8.489   8.149   4.153
46413SOL    HW139263   8.515   8.145   4.249
46413SOL    HW239264   8.404   8.098   4.139
46414SOL     OW39265   7.524   8.259   4.513
46414SOL    HW139266   7.623   8.247   4.522
46414SOL    HW239267   7.500   8.354   4.534
46415SOL     OW39268   7.578   9.269   5.295
46415SOL    HW139269   7.568   9.254   5.394
46415SOL    HW239270   7.492   9.305   5.259
46416SOL     OW39271   8.313   7.796   3.919
46416SOL    HW139272   8.372   7.859   3.870
46416SOL    HW239273   8.332   7.702   3.890
46417SOL     OW39274   9.167   8.033   5.555
46417SOL    HW139275   9.141   8.122   5.519
46417SOL    HW239276   9.165   7.965   5.482
46418SOL     OW39277   8.810   8.592   4.269
46418SOL    HW139278   8.893   8.563   4.221
46418SOL    HW239279   8.761   8.659   4.213
46419SOL     OW39280   7.998   7.644   4.609
46419SOL    HW139281   7.993   7.639   4.709
46419SOL    HW239282   8.000   7.740   4.580
46420SOL     OW39283   8.456   8.904   4.201
46420SOL    HW139284   8.410   8.976   4.149
46420SOL    HW239285   8.452   8.924   4.299
46421SOL     OW39286   7.799   9.249   4.577
46421SOL    HW139287   7.849   9.163   4.583
46421SOL    HW239288   7.864   9.326   4.574
46422SOL     OW39289   9.243   8.514   4.597
46422SOL    HW139290   9.181   8.499   4.521
46422SOL    HW239291   9.191   8.525   4.682
46423SOL     OW39292   8.675   8.998   5.230
46423SOL    HW139293   8.681   8.921   5.294
46423SOL    HW239294   8.623   8.972   5.150
46424SOL     OW39295   7.769   8.391   3.966
46424SOL    HW139296   7.851   8.430   3.924
46424SOL    HW239297   7.742   8.309   3.917
46425SOL     OW39298   8.906   8.183   4.452
46425SOL    HW139299   8.901   8.118   4.527
46425SOL    HW239300   8.986   8.242   4.465
46426SOL     OW39301   7.909   8.714   5.451
46426SOL    HW139302   7.859   8.715   5.365
46426SOL    HW239303   7.846   8.696   5.527
46427SOL     OW39304   8.559   9.224   3.961
46427SOL    HW139305   8.499   9.162   4.011
46427SOL    HW239306   8.590   9.180   3.876
46428SOL     OW39307   7.650   7.733   5.222
46428SOL    HW139308   7.570   7.793   5.209
46428SOL    HW239309   7.640   7.684   5.308
46429SOL     OW39310   9.080   8.825   3.805
46429SOL    HW139311   9.048   8.919   3.795
46429SOL    HW239312   9.004   8.762   3.793
46430SOL     OW39313   7.912   9.191   4.047
46430SOL    HW139314   7.945   9.230   4.133
46430SOL    HW239315   7.988   9.184   3.982
46431SOL     OW39316   8.848   7.555   4.150
46431SOL    HW139317   8.824   7.518   4.060
46431SOL    HW239318   8.947   7.571   4.154
46432SOL     OW39319   7.697   9.233   4.965
46432SOL    HW139320   7.754   9.168   5.015
46432SOL    HW239321   7.681   9.200   4.872
46433SOL     OW39322   8.388   9.146   4.628
46433SOL    HW139323   8.468   9.089   4.649
46433SOL    HW239324   8.339   9.106   4.551
46434SOL     OW39325   7.830   8.148   4.204
46434SOL    HW139326   7.875   8.058   4.201
46434SOL    HW239327   7.736   8.137   4.237
46435SOL     OW39328   8.995   7.670   5.453
46435SOL    HW139329   8.990   7.707   5.545
46435SOL    HW239330   8.923   7.601   5.441
46436SOL     OW39331   8.062   7.570   3.841
46436SOL    HW139332   8.160   7.548   3.848
46436SOL    HW239333   8.031   7.553   3.748
46437SOL     OW39334   8.229   7.712   5.473
46437SOL    HW139335   8.296   7.651   5.516
46437SOL    HW239336   8.156   7.731   5.538
46438SOL     OW39337   8.336   8.962   4.919
46438SOL    HW139338   8.313   8.937   4.825
46438SOL    HW239339   8.397   8.893   4.958
46439SOL     OW39340   8.799   8.038   5.157
46439SOL    HW139341   8.827   7.995   5.242
46439SOL    HW239342   8.824   8.134   5.158
46440SOL     OW39343   8.251   8.850   4.648
46440SOL    HW139344   8.341   8.864   4.606
46440SOL    HW239345   8.180   8.852   4.577
46441SOL     OW39346   8.370   7.951   4.623
46441SOL    HW139347   8.345   7.942   4.527
46441SOL    HW239348   8.418   7.869   4.654
46442SOL     OW39349   7.987   7.512   4.236
46442SOL    HW139350   7.906   7.513   4.294
46442SOL    HW239351   7.990   7.595   4.181
46443SOL     OW39352   8.882   8.636   3.765
46443SOL    HW139353   8.914   8.560   3.822
46443SOL    HW239354   8.790   8.663   3.795
46444SOL     OW39355   7.745   7.483   3.895
46444SOL    HW139356   7.794   7.567   3.874
46444SOL    HW239357   7.807   7.418   3.940
46445SOL     OW39358   8.383   7.684   4.204
46445SOL    HW139359   8.335   7.725   4.126
46445SOL    HW239360   8.482   7.682   4.185
46446SOL     OW39361   8.524   8.131   5.188
46446SOL    HW139362   8.444   8.070   5.191
46446SOL    HW239363   8.605   8.078   5.164
46447SOL     OW39364   8.675   9.018   4.517
46447SOL    HW139365   8.696   9.092   4.452
46447SOL    HW239366   8.743   9.018   4.590
46448SOL     OW39367   7.907   8.600   4.465
46448SOL    HW139368   7.836   8.573   4.530
46448SOL    HW239369   7.881   8.572   4.372
46449SOL     OW39370   8.719   9.245   4.315
46449SOL    HW139371   8.763   9.309   4.251
46449SOL    HW239372   8.669   9.297   4.385
46450SOL     OW39373   8.480   7.997   3.740
46450SOL    HW139374   8.439   8.079   3.701
46450SOL    HW239375   8.544   8.023   3.813
46451SOL     OW39376   7.526   8.004   5.110
46451SOL    HW139377   7.618   8.003   5.069
46451SOL    HW239378   7.520   8.078   5.177
46452SOL     OW39379   8.009   7.670   4.871
46452SOL    HW139380   8.047   7.586   4.908
46452SOL    HW239381   7.921   7.689   4.915
46453SOL     OW39382   8.314   7.902   4.366
46453SOL    HW139383   8.282   7.974   4.304
46453SOL    HW239384   8.338   7.821   4.313
46454SOL     OW39385   8.465   7.487   4.477
46454SOL    HW139386   8.393   7.492   4.408
46454SOL    HW239387   8.441   7.418   4.546
46455SOL     OW39388   8.877   8.621   4.591
46455SOL    HW139389   8.822   8.537   4.584
46455SOL    HW239390   8.903   8.650   4.499
46456SOL     OW39391   8.914   8.038   4.716
46456SOL    HW139392   8.884   7.943   4.723
46456SOL    HW239393   8.987   8.054   4.782
46457SOL     OW39394   9.305   8.281   4.101
46457SOL    HW139395   9.347   8.217   4.165
46457SOL    HW239396   9.267   8.230   4.023
46458SOL     OW39397   7.936   8.833   3.898
46458SOL    HW139398   7.849   8.818   3.945
46458SOL    HW239399   7.919   8.859   3.803
46459SOL     OW39400   9.112   8.728   4.381
46459SOL    HW139401   9.211   8.736   4.395
46459SOL    HW239402   9.067   8.812   4.412
46460SOL     OW39403   8.838   8.023   3.802
46460SOL    HW139404   8.784   8.002   3.883
46460SOL    HW239405   8.929   7.982   3.811
46461SOL     OW39406   7.975   7.704   4.052
46461SOL    HW139407   8.002   7.645   3.977
46461SOL    HW239408   7.975   7.799   4.021
46462SOL     OW39409   9.202   8.671   5.312
46462SOL    HW139410   9.293   8.632   5.299
46462SOL    HW239411   9.210   8.767   5.336
46463SOL     OW39412   8.512   8.795   5.064
46463SOL    HW139413   8.432   8.772   5.119
46463SOL    HW239414   8.595   8.769   5.113
46464SOL     OW39415   9.040   9.077   5.349
46464SOL    HW139416   9.067   9.111   5.259
46464SOL    HW239417   9.119   9.039   5.395
46465SOL     OW39418   8.559   8.643   4.824
46465SOL    HW139419   8.519   8.687   4.905
46465SOL    HW239420   8.518   8.680   4.741
46466SOL     OW39421   9.086   8.547   4.803
46466SOL    HW139422   9.091   8.628   4.862
46466SOL    HW239423   9.000   8.549   4.752
46467SOL     OW39424   8.363   7.537   5.126
46467SOL    HW139425   8.388   7.517   5.031
46467SOL    HW239426   8.435   7.593   5.168
46468SOL     OW39427   8.428   8.564   5.443
46468SOL    HW139428   8.329   8.570   5.453
46468SOL    HW239429   8.451   8.484   5.387
46469SOL     OW39430   8.153   8.498   4.092
46469SOL    HW139431   8.139   8.505   4.191
46469SOL    HW239432   8.237   8.447   4.074
46470SOL     OW39433   7.858   8.261   4.975
46470SOL    HW139434   7.944   8.273   5.025
46470SOL    HW239435   7.816   8.174   5.002
46471SOL     OW39436   8.722   7.834   4.986
46471SOL    HW139437   8.743   7.908   5.050
46471SOL    HW239438   8.633   7.851   4.943
46472SOL     OW39439   7.512   9.012   5.055
46472SOL    HW139440   7.466   9.094   5.021
46472SOL    HW239441   7.610   9.031   5.064
46473SOL     OW39442   7.815   8.548   4.225
46473SOL    HW139443   7.808   8.631   4.169
46473SOL    HW239444   7.819   8.468   4.165
46474SOL     OW39445   8.014   7.985   4.589
46474SOL    HW139446   8.026   8.051   4.515
46474SOL    HW239447   8.060   8.019   4.672
46475SOL     OW39448   8.700   8.796   4.112
46475SOL    HW139449   8.750   8.873   4.152
46475SOL    HW239450   8.605   8.798   4.144
46476SOL     OW39451   8.720   8.893   4.866
46476SOL    HW139452   8.767   8.906   4.953
46476SOL    HW239453   8.654   8.819   4.875
46477SOL     OW39454   9.030   8.087   4.196
46477SOL    HW139455   8.999   8.148   4.269
46477SOL    HW239456   9.080   8.139   4.127
46478SOL     OW39457   7.802   8.958   5.053
46478SOL    HW139458   7.781   8.914   4.966
46478SOL    HW239459   7.899   8.984   5.056
46479SOL     OW39460   7.850   8.199   5.322
46479SOL    HW139461   7.918   8.254   5.275
46479SOL    HW239462   7.890   8.111   5.349
46480SOL     OW39463   9.035   8.227   5.394
46480SOL    HW139464   8.943   8.265   5.389
46480SOL    HW239465   9.095   8.274   5.329
46481SOL     OW39466   8.461   7.553   5.494
46481SOL    HW139467   8.467   7.638   5.442
46481SOL    HW239468   8.493   7.477   5.437
46482SOL     OW39469   7.952   7.498   5.464
46482SOL    HW139470   7.910   7.441   5.394
46482SOL    HW239471   7.886   7.567   5.496
46483SOL     OW39472   8.021   8.318   4.753
46483SOL    HW139473   8.065   8.407   4.744
46483SOL    HW239474   7.958   8.318   4.830
46484SOL     OW39475   8.808   8.310   4.769
46484SOL    HW139476   8.733   8.310   4.703
46484SOL    HW239477   8.845   8.218   4.778
46485SOL     OW39478   8.657   7.973   3.999
46485SOL    HW139479   8.670   7.889   4.053
46485SOL    HW239480   8.628   8.047   4.059
46486SOL     OW39481   7.755   7.661   4.955
46486SOL    HW139482   7.732   7.698   5.045
46486SOL    HW239483   7.725   7.566   4.949
46487SOL     OW39484   7.485   8.758   5.006
46487SOL    HW139485   7.538   8.709   5.074
46487SOL    HW239486   7.507   8.856   5.011
46488SOL     OW39487   8.180   8.082   4.788
46488SOL    HW139488   8.239   8.056   4.712
46488SOL    HW239489   8.152   8.178   4.777
46489SOL     OW39490   9.176   8.383   5.578
46489SOL    HW139491   9.130   8.376   5.489
46489SOL    HW239492   9.114   8.427   5.644
46490SOL     OW39493   7.755   7.511   4.342
46490SOL    HW139494   7.744   7.605   4.375
46490SOL    HW239495   7.750   7.448   4.419
46491SOL     OW39496   9.070   7.815   4.098
46491SOL    HW139497   9.072   7.739   4.162
46491SOL    HW239498   9.022   7.892   4.138
46492SOL     OW39499   8.471   8.214   4.690
46492SOL    HW139500   8.486   8.235   4.786
46492SOL    HW239501   8.441   8.119   4.681
46493SOL     OW39502   8.428   9.021   5.424
46493SOL    HW139503   8.408   9.065   5.336
46493SOL    HW239504   8.467   8.930   5.408
46494SOL     OW39505   9.307   8.966   5.329
46494SOL    HW139506   9.321   8.993   5.234
46494SOL    HW239507   9.390   8.988   5.382
46495SOL     OW39508   7.798   8.346   5.528
46495SOL    HW139509   7.874   8.390   5.576
46495SOL    HW239510   7.833   8.299   5.446
46496SOL     OW39511   8.988   7.722   3.849
46496SOL    HW139512   8.927   7.647   3.872
46496SOL    HW239513   9.010   7.774   3.932
46497SOL     OW39514   8.751   8.286   3.766
46497SOL    HW139515   8.785   8.193   3.781
46497SOL    HW239516   8.769   8.313   3.671
46498SOL     OW39517   8.516   8.781   4.573
46498SOL    HW139518   8.523   8.697   4.518
46498SOL    HW239519   8.578   8.850   4.537
46499SOL     OW39520   7.767   8.258   4.673
46499SOL    HW139521   7.860   8.294   4.678
46499SOL    HW239522   7.761   8.173   4.725
46500SOL     OW39523   7.787   7.957   4.730
46500SOL    HW139524   7.735   7.874   4.713
46500SOL    HW239525   7.864   7.962   4.666
46501SOL     OW39526   8.586   7.828   5.402
46501SOL    HW139527   8.541   7.891   5.466
46501SOL    HW239528   8.679   7.859   5.385
46502SOL     OW39529   8.608   7.655   5.201
46502SOL    HW139530   8.608   7.719   5.278
46502SOL    HW239531   8.636   7.703   5.118
46503SOL     OW39532   7.456   8.774   3.924
46503SOL    HW139533   7.363   8.795   3.893
46503SOL    HW239534   7.466   8.675   3.937
46504SOL     OW39535   7.536   9.249   4.651
46504SOL    HW139536   7.494   9.163   4.624
46504SOL    HW239537   7.630   9.252   4.617
46505SOL     OW39538   7.952   9.016   4.634
46505SOL    HW139539   8.018   9.090   4.643
46505SOL    HW239540   7.996   8.937   4.592
46506SOL     OW39541   8.450   8.244   4.962
46506SOL    HW139542   8.491   8.212   5.048
46506SOL    HW239543   8.354   8.217   4.959
46507SOL     OW39544   7.488   7.992   4.838
46507SOL    HW139545   7.573   7.959   4.797
46507SOL    HW239546   7.501   8.007   4.936
46508SOL     OW39547   7.637   7.968   5.446
46508SOL    HW139548   7.696   7.928   5.376
46508SOL    HW239549   7.579   8.039   5.405
46509SOL     OW39550   8.817   8.398   5.384
46509SOL    HW139551   8.856   8.487   5.404
46509SOL    HW239552   8.827   8.378   5.287
46510SOL     OW39553   8.263   8.020   4.049
46510SOL    HW139554   8.270   7.931   4.003
46510SOL    HW239555   8.169   8.054   4.041
46511SOL     OW39556   9.105   8.052   4.930
46511SOL    HW139557   9.067   7.983   4.992
46511SOL    HW239558   9.187   8.016   4.886
46512SOL     OW39559   7.700   9.012   5.468
46512SOL    HW139560   7.670   9.069   5.544
46512SOL    HW239561   7.693   8.915   5.494
46513SOL     OW39562   8.119   7.912   4.993
46513SOL    HW139563   8.085   7.823   4.963
46513SOL    HW239564   8.145   7.966   4.913
46514SOL     OW39565   8.378   9.126   5.189
46514SOL    HW139566   8.354   9.108   5.094
46514SOL    HW239567   8.408   9.220   5.199
46515SOL     OW39568   7.921   7.948   3.915
46515SOL    HW139569   7.982   8.028   3.919
46515SOL    HW239570   7.826   7.979   3.922
46516SOL     OW39571   7.607   8.585   5.190
46516SOL    HW139572   7.629   8.524   5.266
46516SOL    HW239573   7.617   8.536   5.104
46517SOL     OW39574   8.795   8.507   4.958
46517SOL    HW139575   8.819   8.444   4.884
46517SOL    HW239576   8.705   8.547   4.940
46518SOL     OW39577   8.750   8.303   4.033
46518SOL    HW139578   8.664   8.272   4.075
46518SOL    HW239579   8.746   8.289   3.934
46519SOL     OW39580   9.207   9.195   4.878
46519SOL    HW139581   9.268   9.225   4.805
46519SOL    HW239582   9.169   9.106   4.856
46520SOL     OW39583   8.700   9.179   4.852
46520SOL    HW139584   8.784   9.184   4.798
46520SOL    HW239585   8.677   9.083   4.870
46521SOL     OW39586   7.531   8.706   4.746
46521SOL    HW139587   7.526   8.705   4.846
46521SOL    HW239588   7.448   8.665   4.708
46522SOL     OW39589   8.136   9.110   5.440
46522SOL    HW139590   8.080   9.191   5.449
46522SOL    HW239591   8.188   9.114   5.354
46523SOL     OW39592   9.174   7.583   4.247
46523SOL    HW139593   9.247   7.566   4.180
46523SOL    HW239594   9.143   7.496   4.285
46524SOL     OW39595   8.836   9.021   4.201
46524SOL    HW139596   8.903   9.033   4.127
46524SOL    HW239597   8.796   9.110   4.224
46525SOL     OW39598   7.578   9.242   5.575
46525SOL    HW139599   7.537   9.168   5.628
46525SOL    HW239600   7.642   9.293   5.633
46526SOL     OW39601   8.728   8.375   4.396
46526SOL    HW139602   8.788   8.294   4.398
46526SOL    HW239603   8.768   8.444   4.336
46527SOL     OW39604   8.278   8.721   5.146
46527SOL    HW139605   8.273   8.754   5.241
46527SOL    HW239606   8.192   8.740   5.100
46528SOL     OW39607   8.120   9.064   3.878
46528SOL    HW139608   8.129   9.074   3.779
46528SOL    HW239609   8.080   8.975   3.899
46529SOL     OW39610   9.098   9.168   5.118
46529SOL    HW139611   9.151   9.178   5.034
46529SOL    HW239612   9.071   9.258   5.152
46530SOL     OW39613   9.289   7.623   4.687
46530SOL    HW139614   9.328   7.538   4.651
46530SOL    HW239615   9.191   7.625   4.668
46531SOL     OW39616   7.711   7.774   4.444
46531SOL    HW139617   7.632   7.825   4.410
46531SOL    HW239618   7.702   7.759   4.542
46532SOL     OW39619   8.642   9.060   3.755
46532SOL    HW139620   8.648   8.967   3.792
46532SOL    HW239621   8.583   9.060   3.675
46533SOL     OW39622   8.270   8.450   5.096
46533SOL    HW139623   8.310   8.449   5.004
46533SOL    HW239624   8.280   8.542   5.136
46534SOL     OW39625   8.364   8.358   4.015
46534SOL    HW139626   8.427   8.396   3.947
46534SOL    HW239627   8.404   8.275   4.054
46535SOL     OW39628   8.952   9.055   3.768
46535SOL    HW139629   8.860   9.092   3.775
46535SOL    HW239630   8.990   9.075   3.678
46536SOL     OW39631   7.820   8.736   5.214
46536SOL    HW139632   7.807   8.829   5.180
46536SOL    HW239633   7.736   8.684   5.201
46537SOL     OW39634   9.062   8.740   5.013
46537SOL    HW139635   9.122   8.743   5.093
46537SOL    HW239636   8.987   8.804   5.026
46538SOL     OW39637   8.487   8.546   4.420
46538SOL    HW139638   8.417   8.499   4.474
46538SOL    HW239639   8.546   8.478   4.377
46539SOL     OW39640   8.462   7.684   4.695
46539SOL    HW139641   8.454   7.648   4.602
46539SOL    HW239642   8.460   7.608   4.760
46540SOL     OW39643   8.038   8.935   4.215
46540SOL    HW139644   8.080   8.877   4.145
46540SOL    HW239645   7.994   9.014   4.171
46541SOL     OW39646   9.157   7.833   5.105
46541SOL    HW139647   9.230   7.902   5.109
46541SOL    HW239648   9.185   7.758   5.046
46542SOL     OW39649   7.703   8.796   4.014
46542SOL    HW139650   7.607   8.797   3.987
46542SOL    HW239651   7.715   8.849   4.098
46543SOL     OW39652   7.553   8.461   5.450
46543SOL    HW139653   7.476   8.428   5.504
46543SOL    HW239654   7.638   8.431   5.492
46544SOL     OW39655   8.120   7.651   5.213
46544SOL    HW139656   8.210   7.635   5.173
46544SOL    HW239657   8.128   7.656   5.312
46545SOL     OW39658   7.523   7.793   3.757
46545SOL    HW139659   7.431   7.765   3.728
46545SOL    HW239660   7.554   7.870   3.701
46546SOL     OW39661   8.888   8.304   5.122
46546SOL    HW139662   8.831   8.356   5.059
46546SOL    HW239663   8.984   8.316   5.098
46547SOL     OW39664   7.520   7.614   4.042
46547SOL    HW139665   7.503   7.697   3.988
46547SOL    HW239666   7.610   7.577   4.020
46548SOL     OW39667   8.631   8.783   3.843
46548SOL    HW139668   8.532   8.772   3.845
46548SOL    HW239669   8.665   8.798   3.936
46549SOL     OW39670   8.061   8.290   5.155
46549SOL    HW139671   8.117   8.371   5.138
46549SOL    HW239672   8.120   8.210   5.158
46550SOL     OW39673   8.941   9.215   4.683
46550SOL    HW139674   8.974   9.279   4.614
46550SOL    HW239675   9.007   9.209   4.758
46551SOL     OW39676   8.164   8.013   5.432
46551SOL    HW139677   8.183   8.078   5.506
46551SOL    HW239678   8.224   7.933   5.441
46552SOL     OW39679   8.898   8.668   5.357
46552SOL    HW139680   8.889   8.658   5.456
46552SOL    HW239681   8.994   8.661   5.331
46553SOL     OW39682   7.838   9.189   5.284
46553SOL    HW139683   7.747   9.230   5.282
46553SOL    HW239684   7.831   9.095   5.316
46554SOL     OW39685   9.122   8.331   4.978
46554SOL    HW139686   9.095   8.242   4.941
46554SOL    HW239687   9.123   8.399   4.905
46555SOL     OW39688   8.673   7.773   4.173
46555SOL    HW139689   8.738   7.699   4.162
46555SOL    HW239690   8.693   7.823   4.257
46556SOL     OW39691   8.042   8.193   4.376
46556SOL    HW139692   8.092   8.278   4.357
46556SOL    HW239693   7.954   8.195   4.328
46557SOL     OW39694   9.225   7.790   5.366
46557SOL    HW139695   9.208   7.821   5.272
46557SOL    HW239696   9.141   7.753   5.404
46558SOL     OW39697   9.178   8.382   5.241
46558SOL    HW139698   9.216   8.473   5.256
46558SOL    HW239699   9.170   8.365   5.142
46559SOL     OW39700   8.307   8.822   3.740
46559SOL    HW139701   8.261   8.837   3.828
46559SOL    HW239702   8.351   8.907   3.710
46560SOL     OW39703   8.109   9.238   4.677
46560SOL    HW139704   8.063   9.326   4.664
46560SOL    HW239705   8.208   9.250   4.670
46561SOL     OW39706   8.307   8.404   4.585
46561SOL    HW139707   8.361   8.335   4.633
46561SOL    HW239708   8.275   8.473   4.651
46562SOL     OW39709   8.531   8.432   3.811
46562SOL    HW139710   8.508   8.485   3.729
46562SOL    HW239711   8.612   8.376   3.792
46563SOL     OW39712   9.309   9.017   4.575
46563SOL    HW139713   9.238   9.005   4.505
46563SOL    HW239714   9.310   8.938   4.635
46564SOL     OW39715   7.669   8.762   5.568
46564SOL    HW139716   7.604   8.689   5.547
46564SOL    HW239717   7.673   8.776   5.666
46565SOL     OW39718   7.527   8.688   4.377
46565SOL    HW139719   7.526   8.641   4.465
46565SOL    HW239720   7.609   8.660   4.326
46566SOL     OW39721   8.120   8.839   5.348
46566SOL    HW139722   8.042   8.789   5.386
46566SOL    HW239723   8.117   8.934   5.379
46567SOL     OW39724   9.272   7.640   4.951
46567SOL    HW139725   9.268   7.550   4.995
46567SOL    HW239726   9.275   7.629   4.852
46568SOL     OW39727   7.876   7.872   4.244
46568SOL    HW139728   7.906   7.800   4.182
46568SOL    HW239729   7.837   7.832   4.327
46569SOL     OW39730   9.153   8.935   4.828
46569SOL    HW139731   9.060   8.910   4.801
46569SOL    HW239732   9.179   8.885   4.910
46570SOL     OW39733   7.765   7.995   5.004
46570SOL    HW139734   7.803   7.936   5.076
46570SOL    HW239735   7.805   7.969   4.916
46571SOL     OW39736   8.260   9.034   4.411
46571SOL    HW139737   8.292   9.044   4.317
46571SOL    HW239738   8.181   8.972   4.413
46572SOL     OW39739   8.872   7.662   4.836
46572SOL    HW139740   8.924   7.597   4.891
46572SOL    HW239741   8.823   7.725   4.897
46573SOL     OW39742   8.449   7.482   4.878
46573SOL    HW139743   8.386   7.410   4.847
46573SOL    HW239744   8.542   7.446   4.878
46574SOL     OW39745   8.218   8.778   4.025
46574SOL    HW139746   8.172   8.691   4.042
46574SOL    HW239747   8.309   8.775   4.066
46575SOL     OW39748   8.066   9.015   5.008
46575SOL    HW139749   8.061   9.097   5.065
46575SOL    HW239750   8.155   9.012   4.963
46576SOL     OW39751   8.800   7.500   3.892
46576SOL    HW139752   8.835   7.459   3.808
46576SOL    HW239753   8.710   7.462   3.912
46577SOL     OW39754   8.748   7.901   4.415
46577SOL    HW139755   8.689   7.981   4.419
46577SOL    HW239756   8.763   7.866   4.508
46578SOL     OW39757   9.041   7.669   4.606
46578SOL    HW139758   8.957   7.668   4.660
46578SOL    HW239759   9.043   7.752   4.550
46579SOL     OW39760   7.487   8.525   4.024
46579SOL    HW139761   7.586   8.514   4.015
46579SOL    HW239762   7.447   8.439   4.056
46580SOL     OW39763   8.323   9.094   4.061
46580SOL    HW139764   8.246   9.059   4.007
46580SOL    HW239765   8.291   9.165   4.123
46581SOL     OW39766   7.678   8.076   5.699
46581SOL    HW139767   7.585   8.074   5.736
46581SOL    HW239768   7.679   8.037   5.607
46582SOL     OW39769   7.673   7.723   6.582
46582SOL    HW139770   7.708   7.706   6.674
46582SOL    HW239771   7.585   7.678   6.570
46583SOL     OW39772   7.467   7.816   6.233
46583SOL    HW139773   7.385   7.859   6.272
46583SOL    HW239774   7.439   7.743   6.170
46584SOL     OW39775   8.017   8.723   6.751
46584SOL    HW139776   7.924   8.716   6.714
46584SOL    HW239777   8.028   8.812   6.795
46585SOL     OW39778   9.003   8.959   6.289
46585SOL    HW139779   8.946   8.943   6.370
46585SOL    HW239780   8.944   8.969   6.209
46586SOL     OW39781   8.583   8.151   6.303
46586SOL    HW139782   8.640   8.229   6.278
46586SOL    HW239783   8.523   8.177   6.379
46587SOL     OW39784   9.203   8.055   5.817
46587SOL    HW139785   9.191   8.042   5.718
46587SOL    HW239786   9.173   7.974   5.866
46588SOL     OW39787   8.216   8.592   6.609
46588SOL    HW139788   8.138   8.609   6.669
46588SOL    HW239789   8.250   8.679   6.573
46589SOL     OW39790   8.298   8.246   7.409
46589SOL    HW139791   8.294   8.322   7.474
46589SOL    HW239792   8.320   8.282   7.318
46590SOL     OW39793   8.133   8.460   6.251
46590SOL    HW139794   8.202   8.444   6.321
46590SOL    HW239795   8.060   8.517   6.289
46591SOL     OW39796   8.134   8.609   7.389
46591SOL    HW139797   8.194   8.688   7.403
46591SOL    HW239798   8.048   8.640   7.348
46592SOL     OW39799   7.783   8.883   6.647
46592SOL    HW139800   7.705   8.852   6.594
46592SOL    HW239801   7.841   8.941   6.590
46593SOL     OW39802   8.908   8.953   6.925
46593SOL    HW139803   8.932   9.047   6.951
46593SOL    HW239804   8.892   8.899   7.007
46594SOL     OW39805   7.886   7.840   7.085
46594SOL    HW139806   7.968   7.784   7.094
46594SOL    HW239807   7.805   7.782   7.089
46595SOL     OW39808   9.051   7.895   6.323
46595SOL    HW139809   8.977   7.941   6.273
46595SOL    HW239810   9.102   7.963   6.376
46596SOL     OW39811   7.679   9.161   6.069
46596SOL    HW139812   7.713   9.238   6.123
46596SOL    HW239813   7.723   9.161   5.979
46597SOL     OW39814   8.575   8.789   7.276
46597SOL    HW139815   8.622   8.789   7.364
46597SOL    HW239816   8.527   8.702   7.265
46598SOL     OW39817   7.678   8.882   6.124
46598SOL    HW139818   7.652   8.978   6.124
46598SOL    HW239819   7.607   8.828   6.169
46599SOL     OW39820   7.688   8.539   6.472
46599SOL    HW139821   7.702   8.455   6.524
46599SOL    HW239822   7.633   8.603   6.527
46600SOL     OW39823   8.068   9.234   7.025
46600SOL    HW139824   7.976   9.217   7.060
46600SOL    HW239825   8.096   9.326   7.051
46601SOL     OW39826   8.054   8.412   5.709
46601SOL    HW139827   8.061   8.496   5.655
46601SOL    HW239828   8.100   8.425   5.797
46602SOL     OW39829   9.042   7.562   7.066
46602SOL    HW139830   9.024   7.629   6.994
46602SOL    HW239831   9.039   7.608   7.155
46603SOL     OW39832   7.570   8.091   6.149
46603SOL    HW139833   7.525   8.003   6.166
46603SOL    HW239834   7.569   8.145   6.233
46604SOL     OW39835   9.290   9.215   5.945
46604SOL    HW139836   9.344   9.186   6.025
46604SOL    HW239837   9.320   9.305   5.916
46605SOL     OW39838   7.475   9.044   5.703
46605SOL    HW139839   7.456   8.948   5.724
46605SOL    HW239840   7.442   9.102   5.778
46606SOL     OW39841   9.137   8.370   6.198
46606SOL    HW139842   9.232   8.341   6.206
46606SOL    HW239843   9.129   8.435   6.123
46607SOL     OW39844   9.089   8.556   6.018
46607SOL    HW139845   9.175   8.558   5.966
46607SOL    HW239846   9.103   8.603   6.106
46608SOL     OW39847   7.561   8.185   7.183
46608SOL    HW139848   7.649   8.172   7.228
46608SOL    HW239849   7.548   8.282   7.161
46609SOL     OW39850   8.061   8.813   6.312
46609SOL    HW139851   8.012   8.726   6.321
46609SOL    HW239852   8.038   8.856   6.225
46610SOL     OW39853   8.741   8.676   7.009
46610SOL    HW139854   8.778   8.603   6.951
46610SOL    HW239855   8.793   8.681   7.094
46611SOL     OW39856   8.257   7.452   6.088
46611SOL    HW139857   8.297   7.543   6.079
46611SOL    HW239858   8.157   7.460   6.094
46612SOL     OW39859   7.645   8.424   6.850
46612SOL    HW139860   7.734   8.379   6.836
46612SOL    HW239861   7.572   8.359   6.831
46613SOL     OW39862   8.973   8.447   5.776
46613SOL    HW139863   8.910   8.371   5.789
46613SOL    HW239864   9.021   8.465   5.862
46614SOL     OW39865   8.635   9.240   7.202
46614SOL    HW139866   8.659   9.300   7.126
46614SOL    HW239867   8.642   9.145   7.172
46615SOL     OW39868   7.765   7.699   7.387
46615SOL    HW139869   7.836   7.770   7.393
46615SOL    HW239870   7.677   7.738   7.415
46616SOL     OW39871   8.914   8.865   6.539
46616SOL    HW139872   8.855   8.871   6.619
46616SOL    HW239873   8.899   8.777   6.493
46617SOL     OW39874   9.115   9.162   6.158
46617SOL    HW139875   9.074   9.139   6.070
46617SOL    HW239876   9.097   9.088   6.223
46618SOL     OW39877   8.046   8.177   5.856
46618SOL    HW139878   8.070   8.246   5.788
46618SOL    HW239879   7.968   8.210   5.910
46619SOL     OW39880   8.729   7.793   6.530
46619SOL    HW139881   8.643   7.743   6.517
46619SOL    HW239882   8.791   7.739   6.586
46620SOL     OW39883   9.024   9.110   5.893
46620SOL    HW139884   9.113   9.156   5.896
46620SOL    HW239885   9.003   9.086   5.798
46621SOL     OW39886   8.255   8.053   7.051
46621SOL    HW139887   8.208   8.050   7.140
46621SOL    HW239888   8.204   7.998   6.985
46622SOL     OW39889   8.842   7.917   7.260
46622SOL    HW139890   8.822   7.960   7.348
46622SOL    HW239891   8.920   7.855   7.269
46623SOL     OW39892   8.421   8.338   7.158
46623SOL    HW139893   8.467   8.254   7.129
46623SOL    HW239894   8.365   8.372   7.083
46624SOL     OW39895   8.439   7.858   6.828
46624SOL    HW139896   8.362   7.892   6.882
46624SOL    HW239897   8.405   7.807   6.749
46625SOL     OW39898   8.489   8.149   6.015
46625SOL    HW139899   8.515   8.145   6.111
46625SOL    HW239900   8.404   8.098   6.001
46626SOL     OW39901   7.524   8.259   6.375
46626SOL    HW139902   7.623   8.247   6.384
46626SOL    HW239903   7.500   8.354   6.396
46627SOL     OW39904   7.578   9.269   7.157
46627SOL    HW139905   7.568   9.254   7.256
46627SOL    HW239906   7.492   9.305   7.121
46628SOL     OW39907   8.313   7.796   5.781
46628SOL    HW139908   8.372   7.859   5.732
46628SOL    HW239909   8.332   7.702   5.752
46629SOL     OW39910   9.167   8.033   7.417
46629SOL    HW139911   9.141   8.122   7.381
46629SOL    HW239912   9.165   7.965   7.344
46630SOL     OW39913   8.810   8.592   6.131
46630SOL    HW139914   8.893   8.563   6.083
46630SOL    HW239915   8.761   8.659   6.075
46631SOL     OW39916   7.998   7.644   6.471
46631SOL    HW139917   7.993   7.639   6.571
46631SOL    HW239918   8.000   7.740   6.442
46632SOL     OW39919   8.456   8.904   6.063
46632SOL    HW139920   8.410   8.976   6.011
46632SOL    HW239921   8.452   8.924   6.161
46633SOL     OW39922   7.799   9.249   6.439
46633SOL    HW139923   7.849   9.163   6.445
46633SOL    HW239924   7.864   9.326   6.436
46634SOL     OW39925   9.243   8.514   6.459
46634SOL    HW139926   9.181   8.499   6.383
46634SOL    HW239927   9.191   8.525   6.544
46635SOL     OW39928   8.675   8.998   7.092
46635SOL    HW139929   8.681   8.921   7.156
46635SOL    HW239930   8.623   8.972   7.012
46636SOL     OW39931   7.769   8.391   5.828
46636SOL    HW139932   7.851   8.430   5.786
46636SOL    HW239933   7.742   8.309   5.779
46637SOL     OW39934   8.906   8.183   6.314
46637SOL    HW139935   8.901   8.118   6.389
46637SOL    HW239936   8.986   8.242   6.327
46638SOL     OW39937   7.909   8.714   7.313
46638SOL    HW139938   7.859   8.715   7.227
46638SOL    HW239939   7.846   8.696   7.389
46639SOL     OW39940   8.559   9.224   5.823
46639SOL    HW139941   8.499   9.162   5.873
46639SOL    HW239942   8.590   9.180   5.738
46640SOL     OW39943   7.650   7.733   7.084
46640SOL    HW139944   7.570   7.793   7.071
46640SOL    HW239945   7.640   7.684   7.170
46641SOL     OW39946   9.080   8.825   5.667
46641SOL    HW139947   9.048   8.919   5.657
46641SOL    HW239948   9.004   8.762   5.655
46642SOL     OW39949   7.912   9.191   5.909
46642SOL    HW139950   7.945   9.230   5.995
46642SOL    HW239951   7.988   9.184   5.844
46643SOL     OW39952   8.848   7.555   6.012
46643SOL    HW139953   8.824   7.518   5.922
46643SOL    HW239954   8.947   7.571   6.016
46644SOL     OW39955   7.697   9.233   6.827
46644SOL    HW139956   7.754   9.168   6.877
46644SOL    HW239957   7.681   9.200   6.734
46645SOL     OW39958   8.388   9.146   6.490
46645SOL    HW139959   8.468   9.089   6.511
46645SOL    HW239960   8.339   9.106   6.413
46646SOL     OW39961   7.830   8.148   6.066
46646SOL    HW139962   7.875   8.058   6.063
46646SOL    HW239963   7.736   8.137   6.099
46647SOL     OW39964   8.995   7.670   7.315
46647SOL    HW139965   8.990   7.707   7.407
46647SOL    HW239966   8.923   7.601   7.303
46648SOL     OW39967   8.062   7.570   5.703
46648SOL    HW139968   8.160   7.548   5.710
46648SOL    HW239969   8.031   7.553   5.610
46649SOL     OW39970   8.229   7.712   7.335
46649SOL    HW139971   8.296   7.651   7.378
46649SOL    HW239972   8.156   7.731   7.400
46650SOL     OW39973   8.336   8.962   6.781
46650SOL    HW139974   8.313   8.937   6.687
46650SOL    HW239975   8.397   8.893   6.820
46651SOL     OW39976   8.799   8.038   7.019
46651SOL    HW139977   8.827   7.995   7.104
46651SOL    HW239978   8.824   8.134   7.020
46652SOL     OW39979   8.251   8.850   6.510
46652SOL    HW139980   8.341   8.864   6.468
46652SOL    HW239981   8.180   8.852   6.439
46653SOL     OW39982   8.370   7.951   6.485
46653SOL    HW139983   8.345   7.942   6.389
46653SOL    HW239984   8.418   7.869   6.516
46654SOL     OW39985   7.987   7.512   6.098
46654SOL    HW139986   7.906   7.513   6.156
46654SOL    HW239987   7.990   7.595   6.043
46655SOL     OW39988   8.882   8.636   5.627
46655SOL    HW139989   8.914   8.560   5.684
46655SOL    HW239990   8.790   8.663   5.657
46656SOL     OW39991   7.745   7.483   5.757
46656SOL    HW139992   7.794   7.567   5.736
46656SOL    HW239993   7.807   7.418   5.802
46657SOL     OW39994   8.383   7.684   6.066
46657SOL    HW139995   8.335   7.725   5.988
46657SOL    HW239996   8.482   7.682   6.047
46658SOL     OW39997   8.524   8.131   7.050
46658SOL    HW139998   8.444   8.070   7.053
46658SOL    HW239999   8.605   8.078   7.026
46659SOL     OW40000   8.675   9.018   6.379
46659SOL    HW140001   8.696   9.092   6.314
46659SOL    HW240002   8.743   9.018   6.452
46660SOL     OW40003   7.907   8.600   6.327
46660SOL    HW140004   7.836   8.573   6.392
46660SOL    HW240005   7.881   8.572   6.234
46661SOL     OW40006   8.719   9.245   6.177
46661SOL    HW140007   8.763   9.309   6.113
46661SOL    HW240008   8.669   9.297   6.247
46662SOL     OW40009   8.480   7.997   5.602
46662SOL    HW140010   8.439   8.079   5.563
46662SOL    HW240011   8.544   8.023   5.675
46663SOL     OW40012   7.526   8.004   6.972
46663SOL    HW140013   7.618   8.003   6.931
46663SOL    HW240014   7.520   8.078   7.039
46664SOL     OW40015   8.009   7.670   6.733
46664SOL    HW140016   8.047   7.586   6.770
46664SOL    HW240017   7.921   7.689   6.777
46665SOL     OW40018   8.314   7.902   6.228
46665SOL    HW140019   8.282   7.974   6.166
46665SOL    HW240020   8.338   7.821   6.175
46666SOL     OW40021   8.465   7.487   6.339
46666SOL    HW140022   8.393   7.492   6.270
46666SOL    HW240023   8.441   7.418   6.408
46667SOL     OW40024   8.877   8.621   6.453
46667SOL    HW140025   8.822   8.537   6.446
46667SOL    HW240026   8.903   8.650   6.361
46668SOL     OW40027   8.914   8.038   6.578
46668SOL    HW140028   8.884   7.943   6.585
46668SOL    HW240029   8.987   8.054   6.644
46669SOL     OW40030   9.305   8.281   5.963
46669SOL    HW140031   9.347   8.217   6.027
46669SOL    HW240032   9.267   8.230   5.885
46670SOL     OW40033   7.936   8.833   5.760
46670SOL    HW140034   7.849   8.818   5.807
46670SOL    HW240035   7.919   8.859   5.665
46671SOL     OW40036   9.112   8.728   6.243
46671SOL    HW140037   9.211   8.736   6.257
46671SOL    HW240038   9.067   8.812   6.274
46672SOL     OW40039   8.838   8.023   5.664
46672SOL    HW140040   8.784   8.002   5.745
46672SOL    HW240041   8.929   7.982   5.673
46673SOL     OW40042   7.975   7.704   5.914
46673SOL    HW140043   8.002   7.645   5.839
46673SOL    HW240044   7.975   7.799   5.883
46674SOL     OW40045   9.202   8.671   7.174
46674SOL    HW140046   9.293   8.632   7.161
46674SOL    HW240047   9.210   8.767   7.198
46675SOL     OW40048   8.512   8.795   6.926
46675SOL    HW140049   8.432   8.772   6.981
46675SOL    HW240050   8.595   8.769   6.975
46676SOL     OW40051   9.040   9.077   7.211
46676SOL    HW140052   9.067   9.111   7.121
46676SOL    HW240053   9.119   9.039   7.257
46677SOL     OW40054   8.559   8.643   6.686
46677SOL    HW140055   8.519   8.687   6.767
46677SOL    HW240056   8.518   8.680   6.603
46678SOL     OW40057   9.086   8.547   6.665
46678SOL    HW140058   9.091   8.628   6.724
46678SOL    HW240059   9.000   8.549   6.614
46679SOL     OW40060   8.363   7.537   6.988
46679SOL    HW140061   8.388   7.517   6.893
46679SOL    HW240062   8.435   7.593   7.030
46680SOL     OW40063   8.428   8.564   7.305
46680SOL    HW140064   8.329   8.570   7.315
46680SOL    HW240065   8.451   8.484   7.249
46681SOL     OW40066   8.153   8.498   5.954
46681SOL    HW140067   8.139   8.505   6.053
46681SOL    HW240068   8.237   8.447   5.936
46682SOL     OW40069   7.858   8.261   6.837
46682SOL    HW140070   7.944   8.273   6.887
46682SOL    HW240071   7.816   8.174   6.864
46683SOL     OW40072   8.722   7.834   6.848
46683SOL    HW140073   8.743   7.908   6.912
46683SOL    HW240074   8.633   7.851   6.805
46684SOL     OW40075   7.512   9.012   6.917
46684SOL    HW140076   7.466   9.094   6.883
46684SOL    HW240077   7.610   9.031   6.926
46685SOL     OW40078   7.815   8.548   6.087
46685SOL    HW140079   7.808   8.631   6.031
46685SOL    HW240080   7.819   8.468   6.027
46686SOL     OW40081   8.014   7.985   6.451
46686SOL    HW140082   8.026   8.051   6.377
46686SOL    HW240083   8.060   8.019   6.534
46687SOL     OW40084   8.700   8.796   5.974
46687SOL    HW140085   8.750   8.873   6.014
46687SOL    HW240086   8.605   8.798   6.006
46688SOL     OW40087   8.720   8.893   6.728
46688SOL    HW140088   8.767   8.906   6.815
46688SOL    HW240089   8.654   8.819   6.737
46689SOL     OW40090   9.030   8.087   6.058
46689SOL    HW140091   8.999   8.148   6.131
46689SOL    HW240092   9.080   8.139   5.989
46690SOL     OW40093   7.802   8.958   6.915
46690SOL    HW140094   7.781   8.914   6.828
46690SOL    HW240095   7.899   8.984   6.918
46691SOL     OW40096   7.850   8.199   7.184
46691SOL    HW140097   7.918   8.254   7.137
46691SOL    HW240098   7.890   8.111   7.211
46692SOL     OW40099   9.035   8.227   7.256
46692SOL    HW140100   8.943   8.265   7.251
46692SOL    HW240101   9.095   8.274   7.191
46693SOL     OW40102   8.461   7.553   7.356
46693SOL    HW140103   8.467   7.638   7.304
46693SOL    HW240104   8.493   7.477   7.299
46694SOL     OW40105   7.952   7.498   7.326
46694SOL    HW140106   7.910   7.441   7.256
46694SOL    HW240107   7.886   7.567   7.358
46695SOL     OW40108   8.021   8.318   6.615
46695SOL    HW140109   8.065   8.407   6.606
46695SOL    HW240110   7.958   8.318   6.692
46696SOL     OW40111   8.808   8.310   6.631
46696SOL    HW140112   8.733   8.310   6.565
46696SOL    HW240113   8.845   8.218   6.640
46697SOL     OW40114   8.657   7.973   5.861
46697SOL    HW140115   8.670   7.889   5.915
46697SOL    HW240116   8.628   8.047   5.921
46698SOL     OW40117   7.755   7.661   6.817
46698SOL    HW140118   7.732   7.698   6.907
46698SOL    HW240119   7.725   7.566   6.811
46699SOL     OW40120   7.485   8.758   6.868
46699SOL    HW140121   7.538   8.709   6.936
46699SOL    HW240122   7.507   8.856   6.873
46700SOL     OW40123   8.180   8.082   6.650
46700SOL    HW140124   8.239   8.056   6.574
46700SOL    HW240125   8.152   8.178   6.639
46701SOL     OW40126   9.176   8.383   7.440
46701SOL    HW140127   9.130   8.376   7.351
46701SOL    HW240128   9.114   8.427   7.506
46702SOL     OW40129   7.755   7.511   6.204
46702SOL    HW140130   7.744   7.605   6.237
46702SOL    HW240131   7.750   7.448   6.281
46703SOL     OW40132   9.070   7.815   5.960
46703SOL    HW140133   9.072   7.739   6.024
46703SOL    HW240134   9.022   7.892   6.000
46704SOL     OW40135   8.471   8.214   6.552
46704SOL    HW140136   8.486   8.235   6.648
46704SOL    HW240137   8.441   8.119   6.543
46705SOL     OW40138   8.428   9.021   7.286
46705SOL    HW140139   8.408   9.065   7.198
46705SOL    HW240140   8.467   8.930   7.270
46706SOL     OW40141   9.307   8.966   7.191
46706SOL    HW140142   9.321   8.993   7.096
46706SOL    HW240143   9.390   8.988   7.244
46707SOL     OW40144   7.798   8.346   7.390
46707SOL    HW140145   7.874   8.390   7.438
46707SOL    HW240146   7.833   8.299   7.308
46708SOL     OW40147   8.988   7.722   5.711
46708SOL    HW140148   8.927   7.647   5.734
46708SOL    HW240149   9.010   7.774   5.794
46709SOL     OW40150   8.751   8.286   5.628
46709SOL    HW140151   8.785   8.193   5.643
46709SOL    HW240152   8.769   8.313   5.533
46710SOL     OW40153   8.516   8.781   6.435
46710SOL    HW140154   8.523   8.697   6.380
46710SOL    HW240155   8.578   8.850   6.399
46711SOL     OW40156   7.767   8.258   6.535
46711SOL    HW140157   7.860   8.294   6.540
46711SOL    HW240158   7.761   8.173   6.587
46712SOL     OW40159   7.787   7.957   6.592
46712SOL    HW140160   7.735   7.874   6.575
46712SOL    HW240161   7.864   7.962   6.528
46713SOL     OW40162   8.586   7.828   7.264
46713SOL    HW140163   8.541   7.891   7.328
46713SOL    HW240164   8.679   7.859   7.247
46714SOL     OW40165   8.608   7.655   7.063
46714SOL    HW140166   8.608   7.719   7.140
46714SOL    HW240167   8.636   7.703   6.980
46715SOL     OW40168   7.456   8.774   5.786
46715SOL    HW140169   7.363   8.795   5.755
46715SOL    HW240170   7.466   8.675   5.799
46716SOL     OW40171   7.536   9.249   6.513
46716SOL    HW140172   7.494   9.163   6.486
46716SOL    HW240173   7.630   9.252   6.479
46717SOL     OW40174   7.952   9.016   6.496
46717SOL    HW140175   8.018   9.090   6.505
46717SOL    HW240176   7.996   8.937   6.454
46718SOL     OW40177   8.450   8.244   6.824
46718SOL    HW140178   8.491   8.212   6.910
46718SOL    HW240179   8.354   8.217   6.821
46719SOL     OW40180   7.488   7.992   6.700
46719SOL    HW140181   7.573   7.959   6.659
46719SOL    HW240182   7.501   8.007   6.798
46720SOL     OW40183   7.637   7.968   7.308
46720SOL    HW140184   7.696   7.928   7.238
46720SOL    HW240185   7.579   8.039   7.267
46721SOL     OW40186   8.817   8.398   7.246
46721SOL    HW140187   8.856   8.487   7.266
46721SOL    HW240188   8.827   8.378   7.149
46722SOL     OW40189   8.263   8.020   5.911
46722SOL    HW140190   8.270   7.931   5.865
46722SOL    HW240191   8.169   8.054   5.903
46723SOL     OW40192   9.105   8.052   6.792
46723SOL    HW140193   9.067   7.983   6.854
46723SOL    HW240194   9.187   8.016   6.748
46724SOL     OW40195   7.700   9.012   7.330
46724SOL    HW140196   7.670   9.069   7.406
46724SOL    HW240197   7.693   8.915   7.356
46725SOL     OW40198   8.119   7.912   6.855
46725SOL    HW140199   8.085   7.823   6.825
46725SOL    HW240200   8.145   7.966   6.775
46726SOL     OW40201   8.378   9.126   7.051
46726SOL    HW140202   8.354   9.108   6.956
46726SOL    HW240203   8.408   9.220   7.061
46727SOL     OW40204   7.921   7.948   5.777
46727SOL    HW140205   7.982   8.028   5.781
46727SOL    HW240206   7.826   7.979   5.784
46728SOL     OW40207   7.607   8.585   7.052
46728SOL    HW140208   7.629   8.524   7.128
46728SOL    HW240209   7.617   8.536   6.966
46729SOL     OW40210   8.795   8.507   6.820
46729SOL    HW140211   8.819   8.444   6.746
46729SOL    HW240212   8.705   8.547   6.802
46730SOL     OW40213   8.750   8.303   5.895
46730SOL    HW140214   8.664   8.272   5.937
46730SOL    HW240215   8.746   8.289   5.796
46731SOL     OW40216   9.207   9.195   6.740
46731SOL    HW140217   9.268   9.225   6.667
46731SOL    HW240218   9.169   9.106   6.718
46732SOL     OW40219   8.700   9.179   6.714
46732SOL    HW140220   8.784   9.184   6.660
46732SOL    HW240221   8.677   9.083   6.732
46733SOL     OW40222   7.531   8.706   6.608
46733SOL    HW140223   7.526   8.705   6.708
46733SOL    HW240224   7.448   8.665   6.570
46734SOL     OW40225   8.136   9.110   7.302
46734SOL    HW140226   8.080   9.191   7.311
46734SOL    HW240227   8.188   9.114   7.216
46735SOL     OW40228   9.174   7.583   6.109
46735SOL    HW140229   9.247   7.566   6.042
46735SOL    HW240230   9.143   7.496   6.147
46736SOL     OW40231   8.836   9.021   6.063
46736SOL    HW140232   8.903   9.033   5.989
46736SOL    HW240233   8.796   9.110   6.086
46737SOL     OW40234   7.578   9.242   7.437
46737SOL    HW140235   7.537   9.168   7.490
46737SOL    HW240236   7.642   9.293   7.495
46738SOL     OW40237   8.728   8.375   6.258
46738SOL    HW140238   8.788   8.294   6.260
46738SOL    HW240239   8.768   8.444   6.198
46739SOL     OW40240   8.278   8.721   7.008
46739SOL    HW140241   8.273   8.754   7.103
46739SOL    HW240242   8.192   8.740   6.962
46740SOL     OW40243   8.120   9.064   5.740
46740SOL    HW140244   8.129   9.074   5.641
46740SOL    HW240245   8.080   8.975   5.761
46741SOL     OW40246   9.098   9.168   6.980
46741SOL    HW140247   9.151   9.178   6.896
46741SOL    HW240248   9.071   9.258   7.014
46742SOL     OW40249   9.289   7.623   6.549
46742SOL    HW140250   9.328   7.538   6.513
46742SOL    HW240251   9.191   7.625   6.530
46743SOL     OW40252   7.711   7.774   6.306
46743SOL    HW140253   7.632   7.825   6.272
46743SOL    HW240254   7.702   7.759   6.404
46744SOL     OW40255   8.642   9.060   5.617
46744SOL    HW140256   8.648   8.967   5.654
46744SOL    HW240257   8.583   9.060   5.537
46745SOL     OW40258   8.270   8.450   6.958
46745SOL    HW140259   8.310   8.449   6.866
46745SOL    HW240260   8.280   8.542   6.998
46746SOL     OW40261   8.364   8.358   5.877
46746SOL    HW140262   8.427   8.396   5.809
46746SOL    HW240263   8.404   8.275   5.916
46747SOL     OW40264   8.952   9.055   5.630
46747SOL    HW140265   8.860   9.092   5.637
46747SOL    HW240266   8.990   9.075   5.540
46748SOL     OW40267   7.820   8.736   7.076
46748SOL    HW140268   7.807   8.829   7.042
46748SOL    HW240269   7.736   8.684   7.063
46749SOL     OW40270   9.062   8.740   6.875
46749SOL    HW140271   9.122   8.743   6.955
46749SOL    HW240272   8.987   8.804   6.888
46750SOL     OW40273   8.487   8.546   6.282
46750SOL    HW140274   8.417   8.499   6.336
46750SOL    HW240275   8.546   8.478   6.239
46751SOL     OW40276   8.462   7.684   6.557
46751SOL    HW140277   8.454   7.648   6.464
46751SOL    HW240278   8.460   7.608   6.622
46752SOL     OW40279   8.038   8.935   6.077
46752SOL    HW140280   8.080   8.877   6.007
46752SOL    HW240281   7.994   9.014   6.033
46753SOL     OW40282   9.157   7.833   6.967
46753SOL    HW140283   9.230   7.902   6.971
46753SOL    HW240284   9.185   7.758   6.908
46754SOL     OW40285   7.703   8.796   5.876
46754SOL    HW140286   7.607   8.797   5.849
46754SOL    HW240287   7.715   8.849   5.960
46755SOL     OW40288   7.553   8.461   7.312
46755SOL    HW140289   7.476   8.428   7.366
46755SOL    HW240290   7.638   8.431   7.354
46756SOL     OW40291   8.120   7.651   7.075
46756SOL    HW140292   8.210   7.635   7.035
46756SOL    HW240293   8.128   7.656   7.174
46757SOL     OW40294   7.523   7.793   5.619
46757SOL    HW140295   7.431   7.765   5.590
46757SOL    HW240296   7.554   7.870   5.563
46758SOL     OW40297   8.888   8.304   6.984
46758SOL    HW140298   8.831   8.356   6.921
46758SOL    HW240299   8.984   8.316   6.960
46759SOL     OW40300   7.520   7.614   5.904
46759SOL    HW140301   7.503   7.697   5.850
46759SOL    HW240302   7.610   7.577   5.882
46760SOL     OW40303   8.631   8.783   5.705
46760SOL    HW140304   8.532   8.772   5.707
46760SOL    HW240305   8.665   8.798   5.798
46761SOL     OW40306   8.061   8.290   7.017
46761SOL    HW140307   8.117   8.371   7.000
46761SOL    HW240308   8.120   8.210   7.020
46762SOL     OW40309   8.941   9.215   6.545
46762SOL    HW140310   8.974   9.279   6.476
46762SOL    HW240311   9.007   9.209   6.620
46763SOL     OW40312   8.164   8.013   7.294
46763SOL    HW140313   8.183   8.078   7.368
46763SOL    HW240314   8.224   7.933   7.303
46764SOL     OW40315   8.898   8.668   7.219
46764SOL    HW140316   8.889   8.658   7.318
46764SOL    HW240317   8.994   8.661   7.193
46765SOL     OW40318   7.838   9.189   7.146
46765SOL    HW140319   7.747   9.230   7.144
46765SOL    HW240320   7.831   9.095   7.178
46766SOL     OW40321   9.122   8.331   6.840
46766SOL    HW140322   9.095   8.242   6.803
46766SOL    HW240323   9.123   8.399   6.767
46767SOL     OW40324   8.673   7.773   6.035
46767SOL    HW140325   8.738   7.699   6.024
46767SOL    HW240326   8.693   7.823   6.119
46768SOL     OW40327   8.042   8.193   6.238
46768SOL    HW140328   8.092   8.278   6.219
46768SOL    HW240329   7.954   8.195   6.190
46769SOL     OW40330   9.225   7.790   7.228
46769SOL    HW140331   9.208   7.821   7.134
46769SOL    HW240332   9.141   7.753   7.266
46770SOL     OW40333   9.178   8.382   7.103
46770SOL    HW140334   9.216   8.473   7.118
46770SOL    HW240335   9.170   8.365   7.004
46771SOL     OW40336   8.307   8.822   5.602
46771SOL    HW140337   8.261   8.837   5.690
46771SOL    HW240338   8.351   8.907   5.572
46772SOL     OW40339   8.109   9.238   6.539
46772SOL    HW140340   8.063   9.326   6.526
46772SOL    HW240341   8.208   9.250   6.532
46773SOL     OW40342   8.307   8.404   6.447
46773SOL    HW140343   8.361   8.335   6.495
46773SOL    HW240344   8.275   8.473   6.513
46774SOL     OW40345   8.531   8.432   5.673
46774SOL    HW140346   8.508   8.485   5.591
46774SOL    HW240347   8.612   8.376   5.654
46775SOL     OW40348   9.309   9.017   6.437
46775SOL    HW140349   9.238   9.005   6.367
46775SOL    HW240350   9.310   8.938   6.497
46776SOL     OW40351   7.669   8.762   7.430
46776SOL    HW140352   7.604   8.689   7.409
46776SOL    HW240353   7.673   8.776   7.528
46777SOL     OW40354   7.527   8.688   6.239
46777SOL    HW140355   7.526   8.641   6.327
46777SOL    HW240356   7.609   8.660   6.188
46778SOL     OW40357   8.120   8.839   7.210
46778SOL    HW140358   8.042   8.789   7.248
46778SOL    HW240359   8.117   8.934   7.241
46779SOL     OW40360   9.272   7.640   6.813
46779SOL    HW140361   9.268   7.550   6.857
46779SOL    HW240362   9.275   7.629   6.714
46780SOL     OW40363   7.876   7.872   6.106
46780SOL    HW140364   7.906   7.800   6.044
46780SOL    HW240365   7.837   7.832   6.189
46781SOL     OW40366   9.153   8.935   6.690
46781SOL    HW140367   9.060   8.910   6.663
46781SOL    HW240368   9.179   8.885   6.772
46782SOL     OW40369   7.765   7.995   6.866
46782SOL    HW140370   7.803   7.936   6.938
46782SOL    HW240371   7.805   7.969   6.778
46783SOL     OW40372   8.260   9.034   6.273
46783SOL    HW140373   8.292   9.044   6.179
46783SOL    HW240374   8.181   8.972   6.275
46784SOL     OW40375   8.872   7.662   6.698
46784SOL    HW140376   8.924   7.597   6.753
46784SOL    HW240377   8.823   7.725   6.759
46785SOL     OW40378   8.449   7.482   6.740
46785SOL    HW140379   8.386   7.410   6.709
46785SOL    HW240380   8.542   7.446   6.740
46786SOL     OW40381   8.218   8.778   5.887
46786SOL    HW140382   8.172   8.691   5.904
46786SOL    HW240383   8.309   8.775   5.928
46787SOL     OW40384   8.066   9.015   6.870
46787SOL    HW140385   8.061   9.097   6.927
46787SOL    HW240386   8.155   9.012   6.825
46788SOL     OW40387   8.800   7.500   5.754
46788SOL    HW140388   8.835   7.459   5.670
46788SOL    HW240389   8.710   7.462   5.774
46789SOL     OW40390   8.748   7.901   6.277
46789SOL    HW140391   8.689   7.981   6.281
46789SOL    HW240392   8.763   7.866   6.370
46790SOL     OW40393   9.041   7.669   6.468
46790SOL    HW140394   8.957   7.668   6.522
46790SOL    HW240395   9.043   7.752   6.412
46791SOL     OW40396   7.487   8.525   5.886
46791SOL    HW140397   7.586   8.514   5.877
46791SOL    HW240398   7.447   8.439   5.918
46792SOL     OW40399   8.323   9.094   5.923
46792SOL    HW140400   8.246   9.059   5.869
46792SOL    HW240401   8.291   9.165   5.985
46793SOL     OW40402   7.678   8.076   7.561
46793SOL    HW140403   7.585   8.074   7.598
46793SOL    HW240404   7.679   8.037   7.469
46794SOL     OW40405   7.673   7.723   8.444
46794SOL    HW140406   7.708   7.706   8.536
46794SOL    HW240407   7.585   7.678   8.432
46795SOL     OW40408   7.467   7.816   8.095
46795SOL    HW140409   7.385   7.859   8.134
46795SOL    HW240410   7.439   7.743   8.032
46796SOL     OW40411   8.017   8.723   8.613
46796SOL    HW140412   7.924   8.716   8.576
46796SOL    HW240413   8.028   8.812   8.657
46797SOL     OW40414   9.003   8.959   8.151
46797SOL    HW140415   8.946   8.943   8.232
46797SOL    HW240416   8.944   8.969   8.071
46798SOL     OW40417   8.583   8.151   8.165
46798SOL    HW140418   8.640   8.229   8.140
46798SOL    HW240419   8.523   8.177   8.241
46799SOL     OW40420   9.203   8.055   7.679
46799SOL    HW140421   9.191   8.042   7.580
46799SOL    HW240422   9.173   7.974   7.728
46800SOL     OW40423   8.216   8.592   8.471
46800SOL    HW140424   8.138   8.609   8.531
46800SOL    HW240425   8.250   8.679   8.435
46801SOL     OW40426   8.298   8.246   9.271
46801SOL    HW140427   8.294   8.322   9.336
46801SOL    HW240428   8.320   8.282   9.180
46802SOL     OW40429   8.133   8.460   8.113
46802SOL    HW140430   8.202   8.444   8.183
46802SOL    HW240431   8.060   8.517   8.151
46803SOL     OW40432   8.134   8.609   9.251
46803SOL    HW140433   8.194   8.688   9.265
46803SOL    HW240434   8.048   8.640   9.210
46804SOL     OW40435   7.783   8.883   8.509
46804SOL    HW140436   7.705   8.852   8.456
46804SOL    HW240437   7.841   8.941   8.452
46805SOL     OW40438   8.908   8.953   8.787
46805SOL    HW140439   8.932   9.047   8.813
46805SOL    HW240440   8.892   8.899   8.869
46806SOL     OW40441   7.886   7.840   8.947
46806SOL    HW140442   7.968   7.784   8.956
46806SOL    HW240443   7.805   7.782   8.951
46807SOL     OW40444   9.051   7.895   8.185
46807SOL    HW140445   8.977   7.941   8.135
46807SOL    HW240446   9.102   7.963   8.238
46808SOL     OW40447   7.679   9.161   7.931
46808SOL    HW140448   7.713   9.238   7.985
46808SOL    HW240449   7.723   9.161   7.841
46809SOL     OW40450   8.575   8.789   9.138
46809SOL    HW140451   8.622   8.789   9.226
46809SOL    HW240452   8.527   8.702   9.127
46810SOL     OW40453   7.678   8.882   7.986
46810SOL    HW140454   7.652   8.978   7.986
46810SOL    HW240455   7.607   8.828   8.031
46811SOL     OW40456   7.688   8.539   8.334
46811SOL    HW140457   7.702   8.455   8.386
46811SOL    HW240458   7.633   8.603   8.389
46812SOL     OW40459   8.068   9.234   8.887
46812SOL    HW140460   7.976   9.217   8.922
46812SOL    HW240461   8.096   9.326   8.913
46813SOL     OW40462   8.054   8.412   7.571
46813SOL    HW140463   8.061   8.496   7.517
46813SOL    HW240464   8.100   8.425   7.659
46814SOL     OW40465   9.042   7.562   8.928
46814SOL    HW140466   9.024   7.629   8.856
46814SOL    HW240467   9.039   7.608   9.017
46815SOL     OW40468   7.570   8.091   8.011
46815SOL    HW140469   7.525   8.003   8.028
46815SOL    HW240470   7.569   8.145   8.095
46816SOL     OW40471   9.290   9.215   7.807
46816SOL    HW140472   9.344   9.186   7.887
46816SOL    HW240473   9.320   9.305   7.778
46817SOL     OW40474   7.475   9.044   7.565
46817SOL    HW140475   7.456   8.948   7.586
46817SOL    HW240476   7.442   9.102   7.640
46818SOL     OW40477   9.137   8.370   8.060
46818SOL    HW140478   9.232   8.341   8.068
46818SOL    HW240479   9.129   8.435   7.985
46819SOL     OW40480   9.089   8.556   7.880
46819SOL    HW140481   9.175   8.558   7.828
46819SOL    HW240482   9.103   8.603   7.968
46820SOL     OW40483   7.561   8.185   9.045
46820SOL    HW140484   7.649   8.172   9.090
46820SOL    HW240485   7.548   8.282   9.023
46821SOL     OW40486   8.061   8.813   8.174
46821SOL    HW140487   8.012   8.726   8.183
46821SOL    HW240488   8.038   8.856   8.087
46822SOL     OW40489   8.741   8.676   8.871
46822SOL    HW140490   8.778   8.603   8.813
46822SOL    HW240491   8.793   8.681   8.956
46823SOL     OW40492   8.257   7.452   7.950
46823SOL    HW140493   8.297   7.543   7.941
46823SOL    HW240494   8.157   7.460   7.956
46824SOL     OW40495   7.645   8.424   8.712
46824SOL    HW140496   7.734   8.379   8.698
46824SOL    HW240497   7.572   8.359   8.693
46825SOL     OW40498   8.973   8.447   7.638
46825SOL    HW140499   8.910   8.371   7.651
46825SOL    HW240500   9.021   8.465   7.724
46826SOL     OW40501   8.635   9.240   9.064
46826SOL    HW140502   8.659   9.300   8.988
46826SOL    HW240503   8.642   9.145   9.034
46827SOL     OW40504   7.765   7.699   9.249
46827SOL    HW140505   7.836   7.770   9.255
46827SOL    HW240506   7.677   7.738   9.277
46828SOL     OW40507   8.914   8.865   8.401
46828SOL    HW140508   8.855   8.871   8.481
46828SOL    HW240509   8.899   8.777   8.355
46829SOL     OW40510   9.115   9.162   8.020
46829SOL    HW140511   9.074   9.139   7.932
46829SOL    HW240512   9.097   9.088   8.085
46830SOL     OW40513   8.046   8.177   7.718
46830SOL    HW140514   8.070   8.246   7.650
46830SOL    HW240515   7.968   8.210   7.772
46831SOL     OW40516   8.729   7.793   8.392
46831SOL    HW140517   8.643   7.743   8.379
46831SOL    HW240518   8.791   7.739   8.448
46832SOL     OW40519   9.024   9.110   7.755
46832SOL    HW140520   9.113   9.156   7.758
46832SOL    HW240521   9.003   9.086   7.660
46833SOL     OW40522   8.255   8.053   8.913
46833SOL    HW140523   8.208   8.050   9.002
46833SOL    HW240524   8.204   7.998   8.847
46834SOL     OW40525   8.842   7.917   9.122
46834SOL    HW140526   8.822   7.960   9.210
46834SOL    HW240527   8.920   7.855   9.131
46835SOL     OW40528   8.421   8.338   9.020
46835SOL    HW140529   8.467   8.254   8.991
46835SOL    HW240530   8.365   8.372   8.945
46836SOL     OW40531   8.439   7.858   8.690
46836SOL    HW140532   8.362   7.892   8.744
46836SOL    HW240533   8.405   7.807   8.611
46837SOL     OW40534   8.489   8.149   7.877
46837SOL    HW140535   8.515   8.145   7.973
46837SOL    HW240536   8.404   8.098   7.863
46838SOL     OW40537   7.524   8.259   8.237
46838SOL    HW140538   7.623   8.247   8.246
46838SOL    HW240539   7.500   8.354   8.258
46839SOL     OW40540   7.578   9.269   9.019
46839SOL    HW140541   7.568   9.254   9.118
46839SOL    HW240542   7.492   9.305   8.983
46840SOL     OW40543   8.313   7.796   7.643
46840SOL    HW140544   8.372   7.859   7.594
46840SOL    HW240545   8.332   7.702   7.614
46841SOL     OW40546   9.167   8.033   9.279
46841SOL    HW140547   9.141   8.122   9.243
46841SOL    HW240548   9.165   7.965   9.206
46842SOL     OW40549   8.810   8.592   7.993
46842SOL    HW140550   8.893   8.563   7.945
46842SOL    HW240551   8.761   8.659   7.937
46843SOL     OW40552   7.998   7.644   8.333
46843SOL    HW140553   7.993   7.639   8.433
46843SOL    HW240554   8.000   7.740   8.304
46844SOL     OW40555   8.456   8.904   7.925
46844SOL    HW140556   8.410   8.976   7.873
46844SOL    HW240557   8.452   8.924   8.023
46845SOL     OW40558   7.799   9.249   8.301
46845SOL    HW140559   7.849   9.163   8.307
46845SOL    HW240560   7.864   9.326   8.298
46846SOL     OW40561   9.243   8.514   8.321
46846SOL    HW140562   9.181   8.499   8.245
46846SOL    HW240563   9.191   8.525   8.406
46847SOL     OW40564   8.675   8.998   8.954
46847SOL    HW140565   8.681   8.921   9.018
46847SOL    HW240566   8.623   8.972   8.874
46848SOL     OW40567   7.769   8.391   7.690
46848SOL    HW140568   7.851   8.430   7.648
46848SOL    HW240569   7.742   8.309   7.641
46849SOL     OW40570   8.906   8.183   8.176
46849SOL    HW140571   8.901   8.118   8.251
46849SOL    HW240572   8.986   8.242   8.189
46850SOL     OW40573   7.909   8.714   9.175
46850SOL    HW140574   7.859   8.715   9.089
46850SOL    HW240575   7.846   8.696   9.251
46851SOL     OW40576   8.559   9.224   7.685
46851SOL    HW140577   8.499   9.162   7.735
46851SOL    HW240578   8.590   9.180   7.600
46852SOL     OW40579   7.650   7.733   8.946
46852SOL    HW140580   7.570   7.793   8.933
46852SOL    HW240581   7.640   7.684   9.032
46853SOL     OW40582   9.080   8.825   7.529
46853SOL    HW140583   9.048   8.919   7.519
46853SOL    HW240584   9.004   8.762   7.517
46854SOL     OW40585   7.912   9.191   7.771
46854SOL    HW140586   7.945   9.230   7.857
46854SOL    HW240587   7.988   9.184   7.706
46855SOL     OW40588   8.848   7.555   7.874
46855SOL    HW140589   8.824   7.518   7.784
46855SOL    HW240590   8.947   7.571   7.878
46856SOL     OW40591   7.697   9.233   8.689
46856SOL    HW140592   7.754   9.168   8.739
46856SOL    HW240593   7.681   9.200   8.596
46857SOL     OW40594   8.388   9.146   8.352
46857SOL    HW140595   8.468   9.089   8.373
46857SOL    HW240596   8.339   9.106   8.275
46858SOL     OW40597   7.830   8.148   7.928
46858SOL    HW140598   7.875   8.058   7.925
46858SOL    HW240599   7.736   8.137   7.961
46859SOL     OW40600   8.995   7.670   9.177
46859SOL    HW140601   8.990   7.707   9.269
46859SOL    HW240602   8.923   7.601   9.165
46860SOL     OW40603   8.062   7.570   7.565
46860SOL    HW140604   8.160   7.548   7.572
46860SOL    HW240605   8.031   7.553   7.472
46861SOL     OW40606   8.229   7.712   9.197
46861SOL    HW140607   8.296   7.651   9.240
46861SOL    HW240608   8.156   7.731   9.262
46862SOL     OW40609   8.336   8.962   8.643
46862SOL    HW140610   8.313   8.937   8.549
46862SOL    HW240611   8.397   8.893   8.682
46863SOL     OW40612   8.799   8.038   8.881
46863SOL    HW140613   8.827   7.995   8.966
46863SOL    HW240614   8.824   8.134   8.882
46864SOL     OW40615   8.251   8.850   8.372
46864SOL    HW140616   8.341   8.864   8.330
46864SOL    HW240617   8.180   8.852   8.301
46865SOL     OW40618   8.370   7.951   8.347
46865SOL    HW140619   8.345   7.942   8.251
46865SOL    HW240620   8.418   7.869   8.378
46866SOL     OW40621   7.987   7.512   7.960
46866SOL    HW140622   7.906   7.513   8.018
46866SOL    HW240623   7.990   7.595   7.905
46867SOL     OW40624   8.882   8.636   7.489
46867SOL    HW140625   8.914   8.560   7.546
46867SOL    HW240626   8.790   8.663   7.519
46868SOL     OW40627   7.745   7.483   7.619
46868SOL    HW140628   7.794   7.567   7.598
46868SOL    HW240629   7.807   7.418   7.664
46869SOL     OW40630   8.383   7.684   7.928
46869SOL    HW140631   8.335   7.725   7.850
46869SOL    HW240632   8.482   7.682   7.909
46870SOL     OW40633   8.524   8.131   8.912
46870SOL    HW140634   8.444   8.070   8.915
46870SOL    HW240635   8.605   8.078   8.888
46871SOL     OW40636   8.675   9.018   8.241
46871SOL    HW140637   8.696   9.092   8.176
46871SOL    HW240638   8.743   9.018   8.314
46872SOL     OW40639   7.907   8.600   8.189
46872SOL    HW140640   7.836   8.573   8.254
46872SOL    HW240641   7.881   8.572   8.096
46873SOL     OW40642   8.719   9.245   8.039
46873SOL    HW140643   8.763   9.309   7.975
46873SOL    HW240644   8.669   9.297   8.109
46874SOL     OW40645   8.480   7.997   7.464
46874SOL    HW140646   8.439   8.079   7.425
46874SOL    HW240647   8.544   8.023   7.537
46875SOL     OW40648   7.526   8.004   8.834
46875SOL    HW140649   7.618   8.003   8.793
46875SOL    HW240650   7.520   8.078   8.901
46876SOL     OW40651   8.009   7.670   8.595
46876SOL    HW140652   8.047   7.586   8.632
46876SOL    HW240653   7.921   7.689   8.639
46877SOL     OW40654   8.314   7.902   8.090
46877SOL    HW140655   8.282   7.974   8.028
46877SOL    HW240656   8.338   7.821   8.037
46878SOL     OW40657   8.465   7.487   8.201
46878SOL    HW140658   8.393   7.492   8.132
46878SOL    HW240659   8.441   7.418   8.270
46879SOL     OW40660   8.877   8.621   8.315
46879SOL    HW140661   8.822   8.537   8.308
46879SOL    HW240662   8.903   8.650   8.223
46880SOL     OW40663   8.914   8.038   8.440
46880SOL    HW140664   8.884   7.943   8.447
46880SOL    HW240665   8.987   8.054   8.506
46881SOL     OW40666   9.305   8.281   7.825
46881SOL    HW140667   9.347   8.217   7.889
46881SOL    HW240668   9.267   8.230   7.747
46882SOL     OW40669   7.936   8.833   7.622
46882SOL    HW140670   7.849   8.818   7.669
46882SOL    HW240671   7.919   8.859   7.527
46883SOL     OW40672   9.112   8.728   8.105
46883SOL    HW140673   9.211   8.736   8.119
46883SOL    HW240674   9.067   8.812   8.136
46884SOL     OW40675   8.838   8.023   7.526
46884SOL    HW140676   8.784   8.002   7.607
46884SOL    HW240677   8.929   7.982   7.535
46885SOL     OW40678   7.975   7.704   7.776
46885SOL    HW140679   8.002   7.645   7.701
46885SOL    HW240680   7.975   7.799   7.745
46886SOL     OW40681   9.202   8.671   9.036
46886SOL    HW140682   9.293   8.632   9.023
46886SOL    HW240683   9.210   8.767   9.060
46887SOL     OW40684   8.512   8.795   8.788
46887SOL    HW140685   8.432   8.772   8.843
46887SOL    HW240686   8.595   8.769   8.837
46888SOL     OW40687   9.040   9.077   9.073
46888SOL    HW140688   9.067   9.111   8.983
46888SOL    HW240689   9.119   9.039   9.119
46889SOL     OW40690   8.559   8.643   8.548
46889SOL    HW140691   8.519   8.687   8.629
46889SOL    HW240692   8.518   8.680   8.465
46890SOL     OW40693   9.086   8.547   8.527
46890SOL    HW140694   9.091   8.628   8.586
46890SOL    HW240695   9.000   8.549   8.476
46891SOL     OW40696   8.363   7.537   8.850
46891SOL    HW140697   8.388   7.517   8.755
46891SOL    HW240698   8.435   7.593   8.892
46892SOL     OW40699   8.428   8.564   9.167
46892SOL    HW140700   8.329   8.570   9.177
46892SOL    HW240701   8.451   8.484   9.111
46893SOL     OW40702   8.153   8.498   7.816
46893SOL    HW140703   8.139   8.505   7.915
46893SOL    HW240704   8.237   8.447   7.798
46894SOL     OW40705   7.858   8.261   8.699
46894SOL    HW140706   7.944   8.273   8.749
46894SOL    HW240707   7.816   8.174   8.726
46895SOL     OW40708   8.722   7.834   8.710
46895SOL    HW140709   8.743   7.908   8.774
46895SOL    HW240710   8.633   7.851   8.667
46896SOL     OW40711   7.512   9.012   8.779
46896SOL    HW140712   7.466   9.094   8.745
46896SOL    HW240713   7.610   9.031   8.788
46897SOL     OW40714   7.815   8.548   7.949
46897SOL    HW140715   7.808   8.631   7.893
46897SOL    HW240716   7.819   8.468   7.889
46898SOL     OW40717   8.014   7.985   8.313
46898SOL    HW140718   8.026   8.051   8.239
46898SOL    HW240719   8.060   8.019   8.396
46899SOL     OW40720   8.700   8.796   7.836
46899SOL    HW140721   8.750   8.873   7.876
46899SOL    HW240722   8.605   8.798   7.868
46900SOL     OW40723   8.720   8.893   8.590
46900SOL    HW140724   8.767   8.906   8.677
46900SOL    HW240725   8.654   8.819   8.599
46901SOL     OW40726   9.030   8.087   7.920
46901SOL    HW140727   8.999   8.148   7.993
46901SOL    HW240728   9.080   8.139   7.851
46902SOL     OW40729   7.802   8.958   8.777
46902SOL    HW140730   7.781   8.914   8.690
46902SOL    HW240731   7.899   8.984   8.780
46903SOL     OW40732   7.850   8.199   9.046
46903SOL    HW140733   7.918   8.254   8.999
46903SOL    HW240734   7.890   8.111   9.073
46904SOL     OW40735   9.035   8.227   9.118
46904SOL    HW140736   8.943   8.265   9.113
46904SOL    HW240737   9.095   8.274   9.053
46905SOL     OW40738   8.461   7.553   9.218
46905SOL    HW140739   8.467   7.638   9.166
46905SOL    HW240740   8.493   7.477   9.161
46906SOL     OW40741   7.952   7.498   9.188
46906SOL    HW140742   7.910   7.441   9.118
46906SOL    HW240743   7.886   7.567   9.220
46907SOL     OW40744   8.021   8.318   8.477
46907SOL    HW140745   8.065   8.407   8.468
46907SOL    HW240746   7.958   8.318   8.554
46908SOL     OW40747   8.808   8.310   8.493
46908SOL    HW140748   8.733   8.310   8.427
46908SOL    HW240749   8.845   8.218   8.502
46909SOL     OW40750   8.657   7.973   7.723
46909SOL    HW140751   8.670   7.889   7.777
46909SOL    HW240752   8.628   8.047   7.783
46910SOL     OW40753   7.755   7.661   8.679
46910SOL    HW140754   7.732   7.698   8.769
46910SOL    HW240755   7.725   7.566   8.673
46911SOL     OW40756   7.485   8.758   8.730
46911SOL    HW140757   7.538   8.709   8.798
46911SOL    HW240758   7.507   8.856   8.735
46912SOL     OW40759   8.180   8.082   8.512
46912SOL    HW140760   8.239   8.056   8.436
46912SOL    HW240761   8.152   8.178   8.501
46913SOL     OW40762   9.176   8.383   9.302
46913SOL    HW140763   9.130   8.376   9.213
46913SOL    HW240764   9.114   8.427   9.368
46914SOL     OW40765   7.755   7.511   8.066
46914SOL    HW140766   7.744   7.605   8.099
46914SOL    HW240767   7.750   7.448   8.143
46915SOL     OW40768   9.070   7.815   7.822
46915SOL    HW140769   9.072   7.739   7.886
46915SOL    HW240770   9.022   7.892   7.862
46916SOL     OW40771   8.471   8.214   8.414
46916SOL    HW140772   8.486   8.235   8.510
46916SOL    HW240773   8.441   8.119   8.405
46917SOL     OW40774   8.428   9.021   9.148
46917SOL    HW140775   8.408   9.065   9.060
46917SOL    HW240776   8.467   8.930   9.132
46918SOL     OW40777   9.307   8.966   9.053
46918SOL    HW140778   9.321   8.993   8.958
46918SOL    HW240779   9.390   8.988   9.106
46919SOL     OW40780   7.798   8.346   9.252
46919SOL    HW140781   7.874   8.390   9.300
46919SOL    HW240782   7.833   8.299   9.170
46920SOL     OW40783   8.988   7.722   7.573
46920SOL    HW140784   8.927   7.647   7.596
46920SOL    HW240785   9.010   7.774   7.656
46921SOL     OW40786   8.751   8.286   7.490
46921SOL    HW140787   8.785   8.193   7.505
46921SOL    HW240788   8.769   8.313   7.395
46922SOL     OW40789   8.516   8.781   8.297
46922SOL    HW140790   8.523   8.697   8.242
46922SOL    HW240791   8.578   8.850   8.261
46923SOL     OW40792   7.767   8.258   8.397
46923SOL    HW140793   7.860   8.294   8.402
46923SOL    HW240794   7.761   8.173   8.449
46924SOL     OW40795   7.787   7.957   8.454
46924SOL    HW140796   7.735   7.874   8.437
46924SOL    HW240797   7.864   7.962   8.390
46925SOL     OW40798   8.586   7.828   9.126
46925SOL    HW140799   8.541   7.891   9.190
46925SOL    HW240800   8.679   7.859   9.109
46926SOL     OW40801   8.608   7.655   8.925
46926SOL    HW140802   8.608   7.719   9.002
46926SOL    HW240803   8.636   7.703   8.842
46927SOL     OW40804   7.456   8.774   7.648
46927SOL    HW140805   7.363   8.795   7.617
46927SOL    HW240806   7.466   8.675   7.661
46928SOL     OW40807   7.536   9.249   8.375
46928SOL    HW140808   7.494   9.163   8.348
46928SOL    HW240809   7.630   9.252   8.341
46929SOL     OW40810   7.952   9.016   8.358
46929SOL    HW140811   8.018   9.090   8.367
46929SOL    HW240812   7.996   8.937   8.316
46930SOL     OW40813   8.450   8.244   8.686
46930SOL    HW140814   8.491   8.212   8.772
46930SOL    HW240815   8.354   8.217   8.683
46931SOL     OW40816   7.488   7.992   8.562
46931SOL    HW140817   7.573   7.959   8.521
46931SOL    HW240818   7.501   8.007   8.660
46932SOL     OW40819   7.637   7.968   9.170
46932SOL    HW140820   7.696   7.928   9.100
46932SOL    HW240821   7.579   8.039   9.129
46933SOL     OW40822   8.817   8.398   9.108
46933SOL    HW140823   8.856   8.487   9.128
46933SOL    HW240824   8.827   8.378   9.011
46934SOL     OW40825   8.263   8.020   7.773
46934SOL    HW140826   8.270   7.931   7.727
46934SOL    HW240827   8.169   8.054   7.765
46935SOL     OW40828   9.105   8.052   8.654
46935SOL    HW140829   9.067   7.983   8.716
46935SOL    HW240830   9.187   8.016   8.610
46936SOL     OW40831   7.700   9.012   9.192
46936SOL    HW140832   7.670   9.069   9.268
46936SOL    HW240833   7.693   8.915   9.218
46937SOL     OW40834   8.119   7.912   8.717
46937SOL    HW140835   8.085   7.823   8.687
46937SOL    HW240836   8.145   7.966   8.637
46938SOL     OW40837   8.378   9.126   8.913
46938SOL    HW140838   8.354   9.108   8.818
46938SOL    HW240839   8.408   9.220   8.923
46939SOL     OW40840   7.921   7.948   7.639
46939SOL    HW140841   7.982   8.028   7.643
46939SOL    HW240842   7.826   7.979   7.646
46940SOL     OW40843   7.607   8.585   8.914
46940SOL    HW140844   7.629   8.524   8.990
46940SOL    HW240845   7.617   8.536   8.828
46941SOL     OW40846   8.795   8.507   8.682
46941SOL    HW140847   8.819   8.444   8.608
46941SOL    HW240848   8.705   8.547   8.664
46942SOL     OW40849   8.750   8.303   7.757
46942SOL    HW140850   8.664   8.272   7.799
46942SOL    HW240851   8.746   8.289   7.658
46943SOL     OW40852   9.207   9.195   8.602
46943SOL    HW140853   9.268   9.225   8.529
46943SOL    HW240854   9.169   9.106   8.580
46944SOL     OW40855   8.700   9.179   8.576
46944SOL    HW140856   8.784   9.184   8.522
46944SOL    HW240857   8.677   9.083   8.594
46945SOL     OW40858   7.531   8.706   8.470
46945SOL    HW140859   7.526   8.705   8.570
46945SOL    HW240860   7.448   8.665   8.432
46946SOL     OW40861   8.136   9.110   9.164
46946SOL    HW140862   8.080   9.191   9.173
46946SOL    HW240863   8.188   9.114   9.078
46947SOL     OW40864   9.174   7.583   7.971
46947SOL    HW140865   9.247   7.566   7.904
46947SOL    HW240866   9.143   7.496   8.009
46948SOL     OW40867   8.836   9.021   7.925
46948SOL    HW140868   8.903   9.033   7.851
46948SOL    HW240869   8.796   9.110   7.948
46949SOL     OW40870   7.578   9.242   9.299
46949SOL    HW140871   7.537   9.168   9.352
46949SOL    HW240872   7.642   9.293   9.357
46950SOL     OW40873   8.728   8.375   8.120
46950SOL    HW140874   8.788   8.294   8.122
46950SOL    HW240875   8.768   8.444   8.060
46951SOL     OW40876   8.278   8.721   8.870
46951SOL    HW140877   8.273   8.754   8.965
46951SOL    HW240878   8.192   8.740   8.824
46952SOL     OW40879   8.120   9.064   7.602
46952SOL    HW140880   8.129   9.074   7.503
46952SOL    HW240881   8.080   8.975   7.623
46953SOL     OW40882   9.098   9.168   8.842
46953SOL    HW140883   9.151   9.178   8.758
46953SOL    HW240884   9.071   9.258   8.876
46954SOL     OW40885   9.289   7.623   8.411
46954SOL    HW140886   9.328   7.538   8.375
46954SOL    HW240887   9.191   7.625   8.392
46955SOL     OW40888   7.711   7.774   8.168
46955SOL    HW140889   7.632   7.825   8.134
46955SOL    HW240890   7.702   7.759   8.266
46956SOL     OW40891   8.642   9.060   7.479
46956SOL    HW140892   8.648   8.967   7.516
46956SOL    HW240893   8.583   9.060   7.399
46957SOL     OW40894   8.270   8.450   8.820
46957SOL    HW140895   8.310   8.449   8.728
46957SOL    HW240896   8.280   8.542   8.860
46958SOL     OW40897   8.364   8.358   7.739
46958SOL    HW140898   8.427   8.396   7.671
46958SOL    HW240899   8.404   8.275   7.778
46959SOL     OW40900   8.952   9.055   7.492
46959SOL    HW140901   8.860   9.092   7.499
46959SOL    HW240902   8.990   9.075   7.402
46960SOL     OW40903   7.820   8.736   8.938
46960SOL    HW140904   7.807   8.829   8.904
46960SOL    HW240905   7.736   8.684   8.925
46961SOL     OW40906   9.062   8.740   8.737
46961SOL    HW140907   9.122   8.743   8.817
46961SOL    HW240908   8.987   8.804   8.750
46962SOL     OW40909   8.487   8.546   8.144
46962SOL    HW140910   8.417   8.499   8.198
46962SOL    HW240911   8.546   8.478   8.101
46963SOL     OW40912   8.462   7.684   8.419
46963SOL    HW140913   8.454   7.648   8.326
46963SOL    HW240914   8.460   7.608   8.484
46964SOL     OW40915   8.038   8.935   7.939
46964SOL    HW140916   8.080   8.877   7.869
46964SOL    HW240917   7.994   9.014   7.895
46965SOL     OW40918   9.157   7.833   8.829
46965SOL    HW140919   9.230   7.902   8.833
46965SOL    HW240920   9.185   7.758   8.770
46966SOL     OW40921   7.703   8.796   7.738
46966SOL    HW140922   7.607   8.797   7.711
46966SOL    HW240923   7.715   8.849   7.822
46967SOL     OW40924   7.553   8.461   9.174
46967SOL    HW140925   7.476   8.428   9.228
46967SOL    HW240926   7.638   8.431   9.216
46968SOL     OW40927   8.120   7.651   8.937
46968SOL    HW140928   8.210   7.635   8.897
46968SOL    HW240929   8.128   7.656   9.036
46969SOL     OW40930   7.523   7.793   7.481
46969SOL    HW140931   7.431   7.765   7.452
46969SOL    HW240932   7.554   7.870   7.425
46970SOL     OW40933   8.888   8.304   8.846
46970SOL    HW140934   8.831   8.356   8.783
46970SOL    HW240935   8.984   8.316   8.822
46971SOL     OW40936   7.520   7.614   7.766
46971SOL    HW140937   7.503   7.697   7.712
46971SOL    HW240938   7.610   7.577   7.744
46972SOL     OW40939   8.631   8.783   7.567
46972SOL    HW140940   8.532   8.772   7.569
46972SOL    HW240941   8.665   8.798   7.660
46973SOL     OW40942   8.061   8.290   8.879
46973SOL    HW140943   8.117   8.371   8.862
46973SOL    HW240944   8.120   8.210   8.882
46974SOL     OW40945   8.941   9.215   8.407
46974SOL    HW140946   8.974   9.279   8.338
46974SOL    HW240947   9.007   9.209   8.482
46975SOL     OW40948   8.164   8.013   9.156
46975SOL    HW140949   8.183   8.078   9.230
46975SOL    HW240950   8.224   7.933   9.165
46976SOL     OW40951   8.898   8.668   9.081
46976SOL    HW140952   8.889   8.658   9.180
46976SOL    HW240953   8.994   8.661   9.055
46977SOL     OW40954   7.838   9.189   9.008
46977SOL    HW140955   7.747   9.230   9.006
46977SOL    HW240956   7.831   9.095   9.040
46978SOL     OW40957   9.122   8.331   8.702
46978SOL    HW140958   9.095   8.242   8.665
46978SOL    HW240959   9.123   8.399   8.629
46979SOL     OW40960   8.673   7.773   7.897
46979SOL    HW140961   8.738   7.699   7.886
46979SOL    HW240962   8.693   7.823   7.981
46980SOL     OW40963   8.042   8.193   8.100
46980SOL    HW140964   8.092   8.278   8.081
46980SOL    HW240965   7.954   8.195   8.052
46981SOL     OW40966   9.225   7.790   9.090
46981SOL    HW140967   9.208   7.821   8.996
46981SOL    HW240968   9.141   7.753   9.128
46982SOL     OW40969   9.178   8.382   8.965
46982SOL    HW140970   9.216   8.473   8.980
46982SOL    HW240971   9.170   8.365   8.866
46983SOL     OW40972   8.307   8.822   7.464
46983SOL    HW140973   8.261   8.837   7.552
46983SOL    HW240974   8.351   8.907   7.434
46984SOL     OW40975   8.109   9.238   8.401
46984SOL    HW140976   8.063   9.326   8.388
46984SOL    HW240977   8.208   9.250   8.394
46985SOL     OW40978   8.307   8.404   8.309
46985SOL    HW140979   8.361   8.335   8.357
46985SOL    HW240980   8.275   8.473   8.375
46986SOL     OW40981   8.531   8.432   7.535
46986SOL    HW140982   8.508   8.485   7.453
46986SOL    HW240983   8.612   8.376   7.516
46987SOL     OW40984   9.309   9.017   8.299
46987SOL    HW140985   9.238   9.005   8.229
46987SOL    HW240986   9.310   8.938   8.359
46988SOL     OW40987   7.669   8.762   9.292
46988SOL    HW140988   7.604   8.689   9.271
46988SOL    HW240989   7.673   8.776   9.390
46989SOL     OW40990   7.527   8.688   8.101
46989SOL    HW140991   7.526   8.641   8.189
46989SOL    HW240992   7.609   8.660   8.050
46990SOL     OW40993   8.120   8.839   9.072
46990SOL    HW140994   8.042   8.789   9.110
46990SOL    HW240995   8.117   8.934   9.103
46991SOL     OW40996   9.272   7.640   8.675
46991SOL    HW140997   9.268   7.550   8.719
46991SOL    HW240998   9.275   7.629   8.576
46992SOL     OW40999   7.876   7.872   7.968
46992SOL    HW141000   7.906   7.800   7.906
46992SOL    HW241001   7.837   7.832   8.051
46993SOL     OW41002   9.153   8.935   8.552
46993SOL    HW141003   9.060   8.910   8.525
46993SOL    HW241004   9.179   8.885   8.634
46994SOL     OW41005   7.765   7.995   8.728
46994SOL    HW141006   7.803   7.936   8.800
46994SOL    HW241007   7.805   7.969   8.640
46995SOL     OW41008   8.260   9.034   8.135
46995SOL    HW141009   8.292   9.044   8.041
46995SOL    HW241010   8.181   8.972   8.137
46996SOL     OW41011   8.872   7.662   8.560
46996SOL    HW141012   8.924   7.597   8.615
46996SOL    HW241013   8.823   7.725   8.621
46997SOL     OW41014   8.449   7.482   8.602
46997SOL    HW141015   8.386   7.410   8.571
46997SOL    HW241016   8.542   7.446   8.602
46998SOL     OW41017   8.218   8.778   7.749
46998SOL    HW141018   8.172   8.691   7.766
46998SOL    HW241019   8.309   8.775   7.790
46999SOL     OW41020   8.066   9.015   8.732
46999SOL    HW141021   8.061   9.097   8.789
46999SOL    HW241022   8.155   9.012   8.687
47000SOL     OW41023   8.800   7.500   7.616
47000SOL    HW141024   8.835   7.459   7.532
47000SOL    HW241025   8.710   7.462   7.636
47001SOL     OW41026   8.748   7.901   8.139
47001SOL    HW141027   8.689   7.981   8.143
47001SOL    HW241028   8.763   7.866   8.232
47002SOL     OW41029   9.041   7.669   8.330
47002SOL    HW141030   8.957   7.668   8.384
47002SOL    HW241031   9.043   7.752   8.274
47003SOL     OW41032   7.487   8.525   7.748
47003SOL    HW141033   7.586   8.514   7.739
47003SOL    HW241034   7.447   8.439   7.780
47004SOL     OW41035   8.323   9.094   7.785
47004SOL    HW141036   8.246   9.059   7.731
47004SOL    HW241037   8.291   9.165   7.847
47005SOL     OW41038   7.678   8.076   9.423
47005SOL    HW141039   7.585   8.074   9.460
47005SOL    HW241040   7.679   8.037   9.331
47006SOL     OW41041   7.673   7.723  10.306
47006SOL    HW141042   7.708   7.706  10.398
47006SOL    HW241043   7.585   7.678  10.294
47007SOL     OW41044   7.467   7.816   9.957
47007SOL    HW141045   7.385   7.859   9.996
47007SOL    HW241046   7.439   7.743   9.894
47008SOL     OW41047   8.017   8.723  10.475
47008SOL    HW141048   7.924   8.716  10.438
47008SOL    HW241049   8.028   8.812  10.519
47009SOL     OW41050   9.003   8.959  10.013
47009SOL    HW141051   8.946   8.943  10.094
47009SOL    HW241052   8.944   8.969   9.933
47010SOL     OW41053   8.583   8.151  10.027
47010SOL    HW141054   8.640   8.229  10.002
47010SOL    HW241055   8.523   8.177  10.103
47011SOL     OW41056   9.203   8.055   9.541
47011SOL    HW141057   9.191   8.042   9.442
47011SOL    HW241058   9.173   7.974   9.590
47012SOL     OW41059   8.216   8.592  10.333
47012SOL    HW141060   8.138   8.609  10.393
47012SOL    HW241061   8.250   8.679  10.297
47013SOL     OW41062   8.298   8.246  11.133
47013SOL    HW141063   8.294   8.322  11.198
47013SOL    HW241064   8.320   8.282  11.042
47014SOL     OW41065   8.133   8.460   9.975
47014SOL    HW141066   8.202   8.444  10.045
47014SOL    HW241067   8.060   8.517  10.013
47015SOL     OW41068   8.134   8.609  11.113
47015SOL    HW141069   8.194   8.688  11.127
47015SOL    HW241070   8.048   8.640  11.072
47016SOL     OW41071   7.783   8.883  10.371
47016SOL    HW141072   7.705   8.852  10.318
47016SOL    HW241073   7.841   8.941  10.314
47017SOL     OW41074   8.908   8.953  10.649
47017SOL    HW141075   8.932   9.047  10.675
47017SOL    HW241076   8.892   8.899  10.731
47018SOL     OW41077   7.886   7.840  10.809
47018SOL    HW141078   7.968   7.784  10.818
47018SOL    HW241079   7.805   7.782  10.813
47019SOL     OW41080   9.051   7.895  10.047
47019SOL    HW141081   8.977   7.941   9.997
47019SOL    HW241082   9.102   7.963  10.100
47020SOL     OW41083   7.679   9.161   9.793
47020SOL    HW141084   7.713   9.238   9.847
47020SOL    HW241085   7.723   9.161   9.703
47021SOL     OW41086   8.575   8.789  11.000
47021SOL    HW141087   8.622   8.789  11.088
47021SOL    HW241088   8.527   8.702  10.989
47022SOL     OW41089   7.678   8.882   9.848
47022SOL    HW141090   7.652   8.978   9.848
47022SOL    HW241091   7.607   8.828   9.893
47023SOL     OW41092   7.688   8.539  10.196
47023SOL    HW141093   7.702   8.455  10.248
47023SOL    HW241094   7.633   8.603  10.251
47024SOL     OW41095   8.068   9.234  10.749
47024SOL    HW141096   7.976   9.217  10.784
47024SOL    HW241097   8.096   9.326  10.775
47025SOL     OW41098   8.054   8.412   9.433
47025SOL    HW141099   8.061   8.496   9.379
47025SOL    HW241100   8.100   8.425   9.521
47026SOL     OW41101   9.042   7.562  10.790
47026SOL    HW141102   9.024   7.629  10.718
47026SOL    HW241103   9.039   7.608  10.879
47027SOL     OW41104   7.570   8.091   9.873
47027SOL    HW141105   7.525   8.003   9.890
47027SOL    HW241106   7.569   8.145   9.957
47028SOL     OW41107   9.290   9.215   9.669
47028SOL    HW141108   9.344   9.186   9.749
47028SOL    HW241109   9.320   9.305   9.640
47029SOL     OW41110   7.475   9.044   9.427
47029SOL    HW141111   7.456   8.948   9.448
47029SOL    HW241112   7.442   9.102   9.502
47030SOL     OW41113   9.137   8.370   9.922
47030SOL    HW141114   9.232   8.341   9.930
47030SOL    HW241115   9.129   8.435   9.847
47031SOL     OW41116   9.089   8.556   9.742
47031SOL    HW141117   9.175   8.558   9.690
47031SOL    HW241118   9.103   8.603   9.830
47032SOL     OW41119   7.561   8.185  10.907
47032SOL    HW141120   7.649   8.172  10.952
47032SOL    HW241121   7.548   8.282  10.885
47033SOL     OW41122   8.061   8.813  10.036
47033SOL    HW141123   8.012   8.726  10.045
47033SOL    HW241124   8.038   8.856   9.949
47034SOL     OW41125   8.741   8.676  10.733
47034SOL    HW141126   8.778   8.603  10.675
47034SOL    HW241127   8.793   8.681  10.818
47035SOL     OW41128   8.257   7.452   9.812
47035SOL    HW141129   8.297   7.543   9.803
47035SOL    HW241130   8.157   7.460   9.818
47036SOL     OW41131   7.645   8.424  10.574
47036SOL    HW141132   7.734   8.379  10.560
47036SOL    HW241133   7.572   8.359  10.555
47037SOL     OW41134   8.973   8.447   9.500
47037SOL    HW141135   8.910   8.371   9.513
47037SOL    HW241136   9.021   8.465   9.586
47038SOL     OW41137   8.635   9.240  10.926
47038SOL    HW141138   8.659   9.300  10.850
47038SOL    HW241139   8.642   9.145  10.896
47039SOL     OW41140   7.765   7.699  11.111
47039SOL    HW141141   7.836   7.770  11.117
47039SOL    HW241142   7.677   7.738  11.139
47040SOL     OW41143   8.914   8.865  10.263
47040SOL    HW141144   8.855   8.871  10.343
47040SOL    HW241145   8.899   8.777  10.217
47041SOL     OW41146   9.115   9.162   9.882
47041SOL    HW141147   9.074   9.139   9.794
47041SOL    HW241148   9.097   9.088   9.947
47042SOL     OW41149   8.046   8.177   9.580
47042SOL    HW141150   8.070   8.246   9.512
47042SOL    HW241151   7.968   8.210   9.634
47043SOL     OW41152   8.729   7.793  10.254
47043SOL    HW141153   8.643   7.743  10.241
47043SOL    HW241154   8.791   7.739  10.310
47044SOL     OW41155   9.024   9.110   9.617
47044SOL    HW141156   9.113   9.156   9.620
47044SOL    HW241157   9.003   9.086   9.522
47045SOL     OW41158   8.255   8.053  10.775
47045SOL    HW141159   8.208   8.050  10.864
47045SOL    HW241160   8.204   7.998  10.709
47046SOL     OW41161   8.842   7.917  10.984
47046SOL    HW141162   8.822   7.960  11.072
47046SOL    HW241163   8.920   7.855  10.993
47047SOL     OW41164   8.421   8.338  10.882
47047SOL    HW141165   8.467   8.254  10.853
47047SOL    HW241166   8.365   8.372  10.807
47048SOL     OW41167   8.439   7.858  10.552
47048SOL    HW141168   8.362   7.892  10.606
47048SOL    HW241169   8.405   7.807  10.473
47049SOL     OW41170   8.489   8.149   9.739
47049SOL    HW141171   8.515   8.145   9.835
47049SOL    HW241172   8.404   8.098   9.725
47050SOL     OW41173   7.524   8.259  10.099
47050SOL    HW141174   7.623   8.247  10.108
47050SOL    HW241175   7.500   8.354  10.120
47051SOL     OW41176   7.578   9.269  10.881
47051SOL    HW141177   7.568   9.254  10.980
47051SOL    HW241178   7.492   9.305  10.845
47052SOL     OW41179   8.313   7.796   9.505
47052SOL    HW141180   8.372   7.859   9.456
47052SOL    HW241181   8.332   7.702   9.476
47053SOL     OW41182   9.167   8.033  11.141
47053SOL    HW141183   9.141   8.122  11.105
47053SOL    HW241184   9.165   7.965  11.068
47054SOL     OW41185   8.810   8.592   9.855
47054SOL    HW141186   8.893   8.563   9.807
47054SOL    HW241187   8.761   8.659   9.799
47055SOL     OW41188   7.998   7.644  10.195
47055SOL    HW141189   7.993   7.639  10.295
47055SOL    HW241190   8.000   7.740  10.166
47056SOL     OW41191   8.456   8.904   9.787
47056SOL    HW141192   8.410   8.976   9.735
47056SOL    HW241193   8.452   8.924   9.885
47057SOL     OW41194   7.799   9.249  10.163
47057SOL    HW141195   7.849   9.163  10.169
47057SOL    HW241196   7.864   9.326  10.160
47058SOL     OW41197   9.243   8.514  10.183
47058SOL    HW141198   9.181   8.499  10.107
47058SOL    HW241199   9.191   8.525  10.268
47059SOL     OW41200   8.675   8.998  10.816
47059SOL    HW141201   8.681   8.921  10.880
47059SOL    HW241202   8.623   8.972  10.736
47060SOL     OW41203   7.769   8.391   9.552
47060SOL    HW141204   7.851   8.430   9.510
47060SOL    HW241205   7.742   8.309   9.503
47061SOL     OW41206   8.906   8.183  10.038
47061SOL    HW141207   8.901   8.118  10.113
47061SOL    HW241208   8.986   8.242  10.051
47062SOL     OW41209   7.909   8.714  11.037
47062SOL    HW141210   7.859   8.715  10.951
47062SOL    HW241211   7.846   8.696  11.113
47063SOL     OW41212   8.559   9.224   9.547
47063SOL    HW141213   8.499   9.162   9.597
47063SOL    HW241214   8.590   9.180   9.462
47064SOL     OW41215   7.650   7.733  10.808
47064SOL    HW141216   7.570   7.793  10.795
47064SOL    HW241217   7.640   7.684  10.894
47065SOL     OW41218   9.080   8.825   9.391
47065SOL    HW141219   9.048   8.919   9.381
47065SOL    HW241220   9.004   8.762   9.379
47066SOL     OW41221   7.912   9.191   9.633
47066SOL    HW141222   7.945   9.230   9.719
47066SOL    HW241223   7.988   9.184   9.568
47067SOL     OW41224   8.848   7.555   9.736
47067SOL    HW141225   8.824   7.518   9.646
47067SOL    HW241226   8.947   7.571   9.740
47068SOL     OW41227   7.697   9.233  10.551
47068SOL    HW141228   7.754   9.168  10.601
47068SOL    HW241229   7.681   9.200  10.458
47069SOL     OW41230   8.388   9.146  10.214
47069SOL    HW141231   8.468   9.089  10.235
47069SOL    HW241232   8.339   9.106  10.137
47070SOL     OW41233   7.830   8.148   9.790
47070SOL    HW141234   7.875   8.058   9.787
47070SOL    HW241235   7.736   8.137   9.823
47071SOL     OW41236   8.995   7.670  11.039
47071SOL    HW141237   8.990   7.707  11.131
47071SOL    HW241238   8.923   7.601  11.027
47072SOL     OW41239   8.062   7.570   9.427
47072SOL    HW141240   8.160   7.548   9.434
47072SOL    HW241241   8.031   7.553   9.334
47073SOL     OW41242   8.229   7.712  11.059
47073SOL    HW141243   8.296   7.651  11.102
47073SOL    HW241244   8.156   7.731  11.124
47074SOL     OW41245   8.336   8.962  10.505
47074SOL    HW141246   8.313   8.937  10.411
47074SOL    HW241247   8.397   8.893  10.544
47075SOL     OW41248   8.799   8.038  10.743
47075SOL    HW141249   8.827   7.995  10.828
47075SOL    HW241250   8.824   8.134  10.744
47076SOL     OW41251   8.251   8.850  10.234
47076SOL    HW141252   8.341   8.864  10.192
47076SOL    HW241253   8.180   8.852  10.163
47077SOL     OW41254   8.370   7.951  10.209
47077SOL    HW141255   8.345   7.942  10.113
47077SOL    HW241256   8.418   7.869  10.240
47078SOL     OW41257   7.987   7.512   9.822
47078SOL    HW141258   7.906   7.513   9.880
47078SOL    HW241259   7.990   7.595   9.767
47079SOL     OW41260   8.882   8.636   9.351
47079SOL    HW141261   8.914   8.560   9.408
47079SOL    HW241262   8.790   8.663   9.381
47080SOL     OW41263   7.745   7.483   9.481
47080SOL    HW141264   7.794   7.567   9.460
47080SOL    HW241265   7.807   7.418   9.526
47081SOL     OW41266   8.383   7.684   9.790
47081SOL    HW141267   8.335   7.725   9.712
47081SOL    HW241268   8.482   7.682   9.771
47082SOL     OW41269   8.524   8.131  10.774
47082SOL    HW141270   8.444   8.070  10.777
47082SOL    HW241271   8.605   8.078  10.750
47083SOL     OW41272   8.675   9.018  10.103
47083SOL    HW141273   8.696   9.092  10.038
47083SOL    HW241274   8.743   9.018  10.176
47084SOL     OW41275   7.907   8.600  10.051
47084SOL    HW141276   7.836   8.573  10.116
47084SOL    HW241277   7.881   8.572   9.958
47085SOL     OW41278   8.719   9.245   9.901
47085SOL    HW141279   8.763   9.309   9.837
47085SOL    HW241280   8.669   9.297   9.971
47086SOL     OW41281   8.480   7.997   9.326
47086SOL    HW141282   8.439   8.079   9.287
47086SOL    HW241283   8.544   8.023   9.399
47087SOL     OW41284   7.526   8.004  10.696
47087SOL    HW141285   7.618   8.003  10.655
47087SOL    HW241286   7.520   8.078  10.763
47088SOL     OW41287   8.009   7.670  10.457
47088SOL    HW141288   8.047   7.586  10.494
47088SOL    HW241289   7.921   7.689  10.501
47089SOL     OW41290   8.314   7.902   9.952
47089SOL    HW141291   8.282   7.974   9.890
47089SOL    HW241292   8.338   7.821   9.899
47090SOL     OW41293   8.465   7.487  10.063
47090SOL    HW141294   8.393   7.492   9.994
47090SOL    HW241295   8.441   7.418  10.132
47091SOL     OW41296   8.877   8.621  10.177
47091SOL    HW141297   8.822   8.537  10.170
47091SOL    HW241298   8.903   8.650  10.085
47092SOL     OW41299   8.914   8.038  10.302
47092SOL    HW141300   8.884   7.943  10.309
47092SOL    HW241301   8.987   8.054  10.368
47093SOL     OW41302   9.305   8.281   9.687
47093SOL    HW141303   9.347   8.217   9.751
47093SOL    HW241304   9.267   8.230   9.609
47094SOL     OW41305   7.936   8.833   9.484
47094SOL    HW141306   7.849   8.818   9.531
47094SOL    HW241307   7.919   8.859   9.389
47095SOL     OW41308   9.112   8.728   9.967
47095SOL    HW141309   9.211   8.736   9.981
47095SOL    HW241310   9.067   8.812   9.998
47096SOL     OW41311   8.838   8.023   9.388
47096SOL    HW141312   8.784   8.002   9.469
47096SOL    HW241313   8.929   7.982   9.397
47097SOL     OW41314   7.975   7.704   9.638
47097SOL    HW141315   8.002   7.645   9.563
47097SOL    HW241316   7.975   7.799   9.607
47098SOL     OW41317   9.202   8.671  10.898
47098SOL    HW141318   9.293   8.632  10.885
47098SOL    HW241319   9.210   8.767  10.922
47099SOL     OW41320   8.512   8.795  10.650
47099SOL    HW141321   8.432   8.772  10.705
47099SOL    HW241322   8.595   8.769  10.699
47100SOL     OW41323   9.040   9.077  10.935
47100SOL    HW141324   9.067   9.111  10.845
47100SOL    HW241325   9.119   9.039  10.981
47101SOL     OW41326   8.559   8.643  10.410
47101SOL    HW141327   8.519   8.687  10.491
47101SOL    HW241328   8.518   8.680  10.327
47102SOL     OW41329   9.086   8.547  10.389
47102SOL    HW141330   9.091   8.628  10.448
47102SOL    HW241331   9.000   8.549  10.338
47103SOL     OW41332   8.363   7.537  10.712
47103SOL    HW141333   8.388   7.517  10.617
47103SOL    HW241334   8.435   7.593  10.754
47104SOL     OW41335   8.428   8.564  11.029
47104SOL    HW141336   8.329   8.570  11.039
47104SOL    HW241337   8.451   8.484  10.973
47105SOL     OW41338   8.153   8.498   9.678
47105SOL    HW141339   8.139   8.505   9.777
47105SOL    HW241340   8.237   8.447   9.660
47106SOL     OW41341   7.858   8.261  10.561
47106SOL    HW141342   7.944   8.273  10.611
47106SOL    HW241343   7.816   8.174  10.588
47107SOL     OW41344   8.722   7.834  10.572
47107SOL    HW141345   8.743   7.908  10.636
47107SOL    HW241346   8.633   7.851  10.529
47108SOL     OW41347   7.512   9.012  10.641
47108SOL    HW141348   7.466   9.094  10.607
47108SOL    HW241349   7.610   9.031  10.650
47109SOL     OW41350   7.815   8.548   9.811
47109SOL    HW141351   7.808   8.631   9.755
47109SOL    HW241352   7.819   8.468   9.751
47110SOL     OW41353   8.014   7.985  10.175
47110SOL    HW141354   8.026   8.051  10.101
47110SOL    HW241355   8.060   8.019  10.258
47111SOL     OW41356   8.700   8.796   9.698
47111SOL    HW141357   8.750   8.873   9.738
47111SOL    HW241358   8.605   8.798   9.730
47112SOL     OW41359   8.720   8.893  10.452
47112SOL    HW141360   8.767   8.906  10.539
47112SOL    HW241361   8.654   8.819  10.461
47113SOL     OW41362   9.030   8.087   9.782
47113SOL    HW141363   8.999   8.148   9.855
47113SOL    HW241364   9.080   8.139   9.713
47114SOL     OW41365   7.802   8.958  10.639
47114SOL    HW141366   7.781   8.914  10.552
47114SOL    HW241367   7.899   8.984  10.642
47115SOL     OW41368   7.850   8.199  10.908
47115SOL    HW141369   7.918   8.254  10.861
47115SOL    HW241370   7.890   8.111  10.935
47116SOL     OW41371   9.035   8.227  10.980
47116SOL    HW141372   8.943   8.265  10.975
47116SOL    HW241373   9.095   8.274  10.915
47117SOL     OW41374   8.461   7.553  11.080
47117SOL    HW141375   8.467   7.638  11.028
47117SOL    HW241376   8.493   7.477  11.023
47118SOL     OW41377   7.952   7.498  11.050
47118SOL    HW141378   7.910   7.441  10.980
47118SOL    HW241379   7.886   7.567  11.082
47119SOL     OW41380   8.021   8.318  10.339
47119SOL    HW141381   8.065   8.407  10.330
47119SOL    HW241382   7.958   8.318  10.416
47120SOL     OW41383   8.808   8.310  10.355
47120SOL    HW141384   8.733   8.310  10.289
47120SOL    HW241385   8.845   8.218  10.364
47121SOL     OW41386   8.657   7.973   9.585
47121SOL    HW141387   8.670   7.889   9.639
47121SOL    HW241388   8.628   8.047   9.645
47122SOL     OW41389   7.755   7.661  10.541
47122SOL    HW141390   7.732   7.698  10.631
47122SOL    HW241391   7.725   7.566  10.535
47123SOL     OW41392   7.485   8.758  10.592
47123SOL    HW141393   7.538   8.709  10.660
47123SOL    HW241394   7.507   8.856  10.597
47124SOL     OW41395   8.180   8.082  10.374
47124SOL    HW141396   8.239   8.056  10.298
47124SOL    HW241397   8.152   8.178  10.363
47125SOL     OW41398   9.176   8.383  11.164
47125SOL    HW141399   9.130   8.376  11.075
47125SOL    HW241400   9.114   8.427  11.230
47126SOL     OW41401   7.755   7.511   9.928
47126SOL    HW141402   7.744   7.605   9.961
47126SOL    HW241403   7.750   7.448  10.005
47127SOL     OW41404   9.070   7.815   9.684
47127SOL    HW141405   9.072   7.739   9.748
47127SOL    HW241406   9.022   7.892   9.724
47128SOL     OW41407   8.471   8.214  10.276
47128SOL    HW141408   8.486   8.235  10.372
47128SOL    HW241409   8.441   8.119  10.267
47129SOL     OW41410   8.428   9.021  11.010
47129SOL    HW141411   8.408   9.065  10.922
47129SOL    HW241412   8.467   8.930  10.994
47130SOL     OW41413   9.307   8.966  10.915
47130SOL    HW141414   9.321   8.993  10.820
47130SOL    HW241415   9.390   8.988  10.968
47131SOL     OW41416   7.798   8.346  11.114
47131SOL    HW141417   7.874   8.390  11.162
47131SOL    HW241418   7.833   8.299  11.032
47132SOL     OW41419   8.988   7.722   9.435
47132SOL    HW141420   8.927   7.647   9.458
47132SOL    HW241421   9.010   7.774   9.518
47133SOL     OW41422   8.751   8.286   9.352
47133SOL    HW141423   8.785   8.193   9.367
47133SOL    HW241424   8.769   8.313   9.257
47134SOL     OW41425   8.516   8.781  10.159
47134SOL    HW141426   8.523   8.697  10.104
47134SOL    HW241427   8.578   8.850  10.123
47135SOL     OW41428   7.767   8.258  10.259
47135SOL    HW141429   7.860   8.294  10.264
47135SOL    HW241430   7.761   8.173  10.311
47136SOL     OW41431   7.787   7.957  10.316
47136SOL    HW141432   7.735   7.874  10.299
47136SOL    HW241433   7.864   7.962  10.252
47137SOL     OW41434   8.586   7.828  10.988
47137SOL    HW141435   8.541   7.891  11.052
47137SOL    HW241436   8.679   7.859  10.971
47138SOL     OW41437   8.608   7.655  10.787
47138SOL    HW141438   8.608   7.719  10.864
47138SOL    HW241439   8.636   7.703  10.704
47139SOL     OW41440   7.456   8.774   9.510
47139SOL    HW141441   7.363   8.795   9.479
47139SOL    HW241442   7.466   8.675   9.523
47140SOL     OW41443   7.536   9.249  10.237
47140SOL    HW141444   7.494   9.163  10.210
47140SOL    HW241445   7.630   9.252  10.203
47141SOL     OW41446   7.952   9.016  10.220
47141SOL    HW141447   8.018   9.090  10.229
47141SOL    HW241448   7.996   8.937  10.178
47142SOL     OW41449   8.450   8.244  10.548
47142SOL    HW141450   8.491   8.212  10.634
47142SOL    HW241451   8.354   8.217  10.545
47143SOL     OW41452   7.488   7.992  10.424
47143SOL    HW141453   7.573   7.959  10.383
47143SOL    HW241454   7.501   8.007  10.522
47144SOL     OW41455   7.637   7.968  11.032
47144SOL    HW141456   7.696   7.928  10.962
47144SOL    HW241457   7.579   8.039  10.991
47145SOL     OW41458   8.817   8.398  10.970
47145SOL    HW141459   8.856   8.487  10.990
47145SOL    HW241460   8.827   8.378  10.873
47146SOL     OW41461   8.263   8.020   9.635
47146SOL    HW141462   8.270   7.931   9.589
47146SOL    HW241463   8.169   8.054   9.627
47147SOL     OW41464   9.105   8.052  10.516
47147SOL    HW141465   9.067   7.983  10.578
47147SOL    HW241466   9.187   8.016  10.472
47148SOL     OW41467   7.700   9.012  11.054
47148SOL    HW141468   7.670   9.069  11.130
47148SOL    HW241469   7.693   8.915  11.080
47149SOL     OW41470   8.119   7.912  10.579
47149SOL    HW141471   8.085   7.823  10.549
47149SOL    HW241472   8.145   7.966  10.499
47150SOL     OW41473   8.378   9.126  10.775
47150SOL    HW141474   8.354   9.108  10.680
47150SOL    HW241475   8.408   9.220  10.785
47151SOL     OW41476   7.921   7.948   9.501
47151SOL    HW141477   7.982   8.028   9.505
47151SOL    HW241478   7.826   7.979   9.508
47152SOL     OW41479   7.607   8.585  10.776
47152SOL    HW141480   7.629   8.524  10.852
47152SOL    HW241481   7.617   8.536  10.690
47153SOL     OW41482   8.795   8.507  10.544
47153SOL    HW141483   8.819   8.444  10.470
47153SOL    HW241484   8.705   8.547  10.526
47154SOL     OW41485   8.750   8.303   9.619
47154SOL    HW141486   8.664   8.272   9.661
47154SOL    HW241487   8.746   8.289   9.520
47155SOL     OW41488   9.207   9.195  10.464
47155SOL    HW141489   9.268   9.225  10.391
47155SOL    HW241490   9.169   9.106  10.442
47156SOL     OW41491   8.700   9.179  10.438
47156SOL    HW141492   8.784   9.184  10.384
47156SOL    HW241493   8.677   9.083  10.456
47157SOL     OW41494   7.531   8.706  10.332
47157SOL    HW141495   7.526   8.705  10.432
47157SOL    HW241496   7.448   8.665  10.294
47158SOL     OW41497   8.136   9.110  11.026
47158SOL    HW141498   8.080   9.191  11.035
47158SOL    HW241499   8.188   9.114  10.940
47159SOL     OW41500   9.174   7.583   9.833
47159SOL    HW141501   9.247   7.566   9.766
47159SOL    HW241502   9.143   7.496   9.871
47160SOL     OW41503   8.836   9.021   9.787
47160SOL    HW141504   8.903   9.033   9.713
47160SOL    HW241505   8.796   9.110   9.810
47161SOL     OW41506   7.578   9.242  11.161
47161SOL    HW141507   7.537   9.168  11.214
47161SOL    HW241508   7.642   9.293  11.219
47162SOL     OW41509   8.728   8.375   9.982
47162SOL    HW141510   8.788   8.294   9.984
47162SOL    HW241511   8.768   8.444   9.922
47163SOL     OW41512   8.278   8.721  10.732
47163SOL    HW141513   8.273   8.754  10.827
47163SOL    HW241514   8.192   8.740  10.686
47164SOL     OW41515   8.120   9.064   9.464
47164SOL    HW141516   8.129   9.074   9.365
47164SOL    HW241517   8.080   8.975   9.485
47165SOL     OW41518   9.098   9.168  10.704
47165SOL    HW141519   9.151   9.178  10.620
47165SOL    HW241520   9.071   9.258  10.738
47166SOL     OW41521   9.289   7.623  10.273
47166SOL    HW141522   9.328   7.538  10.237
47166SOL    HW241523   9.191   7.625  10.254
47167SOL     OW41524   7.711   7.774  10.030
47167SOL    HW141525   7.632   7.825   9.996
47167SOL    HW241526   7.702   7.759  10.128
47168SOL     OW41527   8.642   9.060   9.341
47168SOL    HW141528   8.648   8.967   9.378
47168SOL    HW241529   8.583   9.060   9.261
47169SOL     OW41530   8.270   8.450  10.682
47169SOL    HW141531   8.310   8.449  10.590
47169SOL    HW241532   8.280   8.542  10.722
47170SOL     OW41533   8.364   8.358   9.601
47170SOL    HW141534   8.427   8.396   9.533
47170SOL    HW241535   8.404   8.275   9.640
47171SOL     OW41536   8.952   9.055   9.354
47171SOL    HW141537   8.860   9.092   9.361
47171SOL    HW241538   8.990   9.075   9.264
47172SOL     OW41539   7.820   8.736  10.800
47172SOL    HW141540   7.807   8.829  10.766
47172SOL    HW241541   7.736   8.684  10.787
47173SOL     OW41542   9.062   8.740  10.599
47173SOL    HW141543   9.122   8.743  10.679
47173SOL    HW241544   8.987   8.804  10.612
47174SOL     OW41545   8.487   8.546  10.006
47174SOL    HW141546   8.417   8.499  10.060
47174SOL    HW241547   8.546   8.478   9.963
47175SOL     OW41548   8.462   7.684  10.281
47175SOL    HW141549   8.454   7.648  10.188
47175SOL    HW241550   8.460   7.608  10.346
47176SOL     OW41551   8.038   8.935   9.801
47176SOL    HW141552   8.080   8.877   9.731
47176SOL    HW241553   7.994   9.014   9.757
47177SOL     OW41554   9.157   7.833  10.691
47177SOL    HW141555   9.230   7.902  10.695
47177SOL    HW241556   9.185   7.758  10.632
47178SOL     OW41557   7.703   8.796   9.600
47178SOL    HW141558   7.607   8.797   9.573
47178SOL    HW241559   7.715   8.849   9.684
47179SOL     OW41560   7.553   8.461  11.036
47179SOL    HW141561   7.476   8.428  11.090
47179SOL    HW241562   7.638   8.431  11.078
47180SOL     OW41563   8.120   7.651  10.799
47180SOL    HW141564   8.210   7.635  10.759
47180SOL    HW241565   8.128   7.656  10.898
47181SOL     OW41566   7.523   7.793   9.343
47181SOL    HW141567   7.431   7.765   9.314
47181SOL    HW241568   7.554   7.870   9.287
47182SOL     OW41569   8.888   8.304  10.708
47182SOL    HW141570   8.831   8.356  10.645
47182SOL    HW241571   8.984   8.316  10.684
47183SOL     OW41572   7.520   7.614   9.628
47183SOL    HW141573   7.503   7.697   9.574
47183SOL    HW241574   7.610   7.577   9.606
47184SOL     OW41575   8.631   8.783   9.429
47184SOL    HW141576   8.532   8.772   9.431
47184SOL    HW241577   8.665   8.798   9.522
47185SOL     OW41578   8.061   8.290  10.741
47185SOL    HW141579   8.117   8.371  10.724
47185SOL    HW241580   8.120   8.210  10.744
47186SOL     OW41581   8.941   9.215  10.269
47186SOL    HW141582   8.974   9.279  10.200
47186SOL    HW241583   9.007   9.209  10.344
47187SOL     OW41584   8.164   8.013  11.018
47187SOL    HW141585   8.183   8.078  11.092
47187SOL    HW241586   8.224   7.933  11.027
47188SOL     OW41587   8.898   8.668  10.943
47188SOL    HW141588   8.889   8.658  11.042
47188SOL    HW241589   8.994   8.661  10.917
47189SOL     OW41590   7.838   9.189  10.870
47189SOL    HW141591   7.747   9.230  10.868
47189SOL    HW241592   7.831   9.095  10.902
47190SOL     OW41593   9.122   8.331  10.564
47190SOL    HW141594   9.095   8.242  10.527
47190SOL    HW241595   9.123   8.399  10.491
47191SOL     OW41596   8.673   7.773   9.759
47191SOL    HW141597   8.738   7.699   9.748
47191SOL    HW241598   8.693   7.823   9.843
47192SOL     OW41599   8.042   8.193   9.962
47192SOL    HW141600   8.092   8.278   9.943
47192SOL    HW241601   7.954   8.195   9.914
47193SOL     OW41602   9.225   7.790  10.952
47193SOL    HW141603   9.208   7.821  10.858
47193SOL    HW241604   9.141   7.753  10.990
47194SOL     OW41605   9.178   8.382  10.827
47194SOL    HW141606   9.216   8.473  10.842
47194SOL    HW241607   9.170   8.365  10.728
47195SOL     OW41608   8.307   8.822   9.326
47195SOL    HW141609   8.261   8.837   9.414
47195SOL    HW241610   8.351   8.907   9.296
47196SOL     OW41611   8.109   9.238  10.263
47196SOL    HW141612   8.063   9.326  10.250
47196SOL    HW241613   8.208   9.250  10.256
47197SOL     OW41614   8.307   8.404  10.171
47197SOL    HW141615   8.361   8.335  10.219
47197SOL    HW241616   8.275   8.473  10.237
47198SOL     OW41617   8.531   8.432   9.397
47198SOL    HW141618   8.508   8.485   9.315
47198SOL    HW241619   8.612   8.376   9.378
47199SOL     OW41620   9.309   9.017  10.161
47199SOL    HW141621   9.238   9.005  10.091
47199SOL    HW241622   9.310   8.938  10.221
47200SOL     OW41623   7.669   8.762  11.154
47200SOL    HW141624   7.604   8.689  11.133
47200SOL    HW241625   7.673   8.776  11.252
47201SOL     OW41626   7.527   8.688   9.963
47201SOL    HW141627   7.526   8.641  10.051
47201SOL    HW241628   7.609   8.660   9.912
47202SOL     OW41629   8.120   8.839  10.934
47202SOL    HW141630   8.042   8.789  10.972
47202SOL    HW241631   8.117   8.934  10.965
47203SOL     OW41632   9.272   7.640  10.537
47203SOL    HW141633   9.268   7.550  10.581
47203SOL    HW241634   9.275   7.629  10.438
47204SOL     OW41635   7.876   7.872   9.830
47204SOL    HW141636   7.906   7.800   9.768
47204SOL    HW241637   7.837   7.832   9.913
47205SOL     OW41638   9.153   8.935  10.414
47205SOL    HW141639   9.060   8.910  10.387
47205SOL    HW241640   9.179   8.885  10.496
47206SOL     OW41641   7.765   7.995  10.590
47206SOL    HW141642   7.803   7.936  10.662
47206SOL    HW241643   7.805   7.969  10.502
47207SOL     OW41644   8.260   9.034   9.997
47207SOL    HW141645   8.292   9.044   9.903
47207SOL    HW241646   8.181   8.972   9.999
47208SOL     OW41647   8.872   7.662  10.422
47208SOL    HW141648   8.924   7.597  10.477
47208SOL    HW241649   8.823   7.725  10.483
47209SOL     OW41650   8.449   7.482  10.464
47209SOL    HW141651   8.386   7.410  10.433
47209SOL    HW241652   8.542   7.446  10.464
47210SOL     OW41653   8.218   8.778   9.611
47210SOL    HW141654   8.172   8.691   9.628
47210SOL    HW241655   8.309   8.775   9.652
47211SOL     OW41656   8.066   9.015  10.594
47211SOL    HW141657   8.061   9.097  10.651
47211SOL    HW241658   8.155   9.012  10.549
47212SOL     OW41659   8.800   7.500   9.478
47212SOL    HW141660   8.835   7.459   9.394
47212SOL    HW241661   8.710   7.462   9.498
47213SOL     OW41662   8.748   7.901  10.001
47213SOL    HW141663   8.689   7.981  10.005
47213SOL    HW241664   8.763   7.866  10.094
47214SOL     OW41665   9.041   7.669  10.192
47214SOL    HW141666   8.957   7.668  10.246
47214SOL    HW241667   9.043   7.752  10.136
47215SOL     OW41668   7.487   8.525   9.610
47215SOL    HW141669   7.586   8.514   9.601
47215SOL    HW241670   7.447   8.439   9.642
47216SOL     OW41671   8.323   9.094   9.647
47216SOL    HW141672   8.246   9.059   9.593
47216SOL    HW241673   8.291   9.165   9.709
47217SOL     OW41674   7.678   8.076  11.285
47217SOL    HW141675   7.585   8.074  11.322
47217SOL    HW241676   7.679   8.037  11.193
47218SOL     OW41677   7.673   7.723  12.168
47218SOL    HW141678   7.708   7.706  12.260
47218SOL    HW241679   7.585   7.678  12.156
47219SOL     OW41680   7.467   7.816  11.819
47219SOL    HW141681   7.385   7.859  11.858
47219SOL    HW241682   7.439   7.743  11.756
47220SOL     OW41683   8.017   8.723  12.337
47220SOL    HW141684   7.924   8.716  12.300
47220SOL    HW241685   8.028   8.812  12.381
47221SOL     OW41686   9.003   8.959  11.875
47221SOL    HW141687   8.946   8.943  11.956
47221SOL    HW241688   8.944   8.969  11.795
47222SOL     OW41689   8.583   8.151  11.889
47222SOL    HW141690   8.640   8.229  11.864
47222SOL    HW241691   8.523   8.177  11.965
47223SOL     OW41692   9.203   8.055  11.403
47223SOL    HW141693   9.191   8.042  11.304
47223SOL    HW241694   9.173   7.974  11.452
47224SOL     OW41695   8.216   8.592  12.195
47224SOL    HW141696   8.138   8.609  12.255
47224SOL    HW241697   8.250   8.679  12.159
47225SOL     OW41698   8.133   8.460  11.837
47225SOL    HW141699   8.202   8.444  11.907
47225SOL    HW241700   8.060   8.517  11.875
47226SOL     OW41701   7.783   8.883  12.233
47226SOL    HW141702   7.705   8.852  12.180
47226SOL    HW241703   7.841   8.941  12.176
47227SOL     OW41704   8.908   8.953  12.511
47227SOL    HW141705   8.932   9.047  12.537
47227SOL    HW241706   8.892   8.899  12.593
47228SOL     OW41707   7.886   7.840  12.671
47228SOL    HW141708   7.968   7.784  12.680
47228SOL    HW241709   7.805   7.782  12.675
47229SOL     OW41710   9.051   7.895  11.909
47229SOL    HW141711   8.977   7.941  11.859
47229SOL    HW241712   9.102   7.963  11.962
47230SOL     OW41713   7.679   9.161  11.655
47230SOL    HW141714   7.713   9.238  11.709
47230SOL    HW241715   7.723   9.161  11.565
47231SOL     OW41716   7.678   8.882  11.710
47231SOL    HW141717   7.652   8.978  11.710
47231SOL    HW241718   7.607   8.828  11.755
47232SOL     OW41719   7.688   8.539  12.058
47232SOL    HW141720   7.702   8.455  12.110
47232SOL    HW241721   7.633   8.603  12.113
47233SOL     OW41722   8.068   9.234  12.611
47233SOL    HW141723   7.976   9.217  12.646
47233SOL    HW241724   8.096   9.326  12.637
47234SOL     OW41725   8.054   8.412  11.295
47234SOL    HW141726   8.061   8.496  11.241
47234SOL    HW241727   8.100   8.425  11.383
47235SOL     OW41728   9.042   7.562  12.652
47235SOL    HW141729   9.024   7.629  12.580
47235SOL    HW241730   9.039   7.608  12.741
47236SOL     OW41731   7.570   8.091  11.735
47236SOL    HW141732   7.525   8.003  11.752
47236SOL    HW241733   7.569   8.145  11.819
47237SOL     OW41734   9.290   9.215  11.531
47237SOL    HW141735   9.344   9.186  11.611
47237SOL    HW241736   9.320   9.305  11.502
47238SOL     OW41737   7.475   9.044  11.289
47238SOL    HW141738   7.456   8.948  11.310
47238SOL    HW241739   7.442   9.102  11.364
47239SOL     OW41740   9.137   8.370  11.784
47239SOL    HW141741   9.232   8.341  11.792
47239SOL    HW241742   9.129   8.435  11.709
47240SOL     OW41743   9.089   8.556  11.604
47240SOL    HW141744   9.175   8.558  11.552
47240SOL    HW241745   9.103   8.603  11.692
47241SOL     OW41746   7.561   8.185  12.769
47241SOL    HW141747   7.649   8.172  12.814
47241SOL    HW241748   7.548   8.282  12.747
47242SOL     OW41749   8.061   8.813  11.898
47242SOL    HW141750   8.012   8.726  11.907
47242SOL    HW241751   8.038   8.856  11.811
47243SOL     OW41752   8.741   8.676  12.595
47243SOL    HW141753   8.778   8.603  12.537
47243SOL    HW241754   8.793   8.681  12.680
47244SOL     OW41755   8.257   7.452  11.674
47244SOL    HW141756   8.297   7.543  11.665
47244SOL    HW241757   8.157   7.460  11.680
47245SOL     OW41758   7.645   8.424  12.436
47245SOL    HW141759   7.734   8.379  12.422
47245SOL    HW241760   7.572   8.359  12.417
47246SOL     OW41761   8.973   8.447  11.362
47246SOL    HW141762   8.910   8.371  11.375
47246SOL    HW241763   9.021   8.465  11.448
47247SOL     OW41764   8.914   8.865  12.125
47247SOL    HW141765   8.855   8.871  12.205
47247SOL    HW241766   8.899   8.777  12.079
47248SOL     OW41767   9.115   9.162  11.744
47248SOL    HW141768   9.074   9.139  11.656
47248SOL    HW241769   9.097   9.088  11.809
47249SOL     OW41770   8.046   8.177  11.442
47249SOL    HW141771   8.070   8.246  11.374
47249SOL    HW241772   7.968   8.210  11.496
47250SOL     OW41773   8.729   7.793  12.116
47250SOL    HW141774   8.643   7.743  12.103
47250SOL    HW241775   8.791   7.739  12.172
47251SOL     OW41776   9.024   9.110  11.479
47251SOL    HW141777   9.113   9.156  11.482
47251SOL    HW241778   9.003   9.086  11.384
47252SOL     OW41779   8.255   8.053  12.637
47252SOL    HW141780   8.208   8.050  12.726
47252SOL    HW241781   8.204   7.998  12.571
47253SOL     OW41782   8.421   8.338  12.744
47253SOL    HW141783   8.467   8.254  12.715
47253SOL    HW241784   8.365   8.372  12.669
47254SOL     OW41785   8.439   7.858  12.414
47254SOL    HW141786   8.362   7.892  12.468
47254SOL    HW241787   8.405   7.807  12.335
47255SOL     OW41788   8.489   8.149  11.601
47255SOL    HW141789   8.515   8.145  11.697
47255SOL    HW241790   8.404   8.098  11.587
47256SOL     OW41791   7.524   8.259  11.961
47256SOL    HW141792   7.623   8.247  11.970
47256SOL    HW241793   7.500   8.354  11.982
47257SOL     OW41794   7.578   9.269  12.743
47257SOL    HW141795   7.568   9.254  12.842
47257SOL    HW241796   7.492   9.305  12.707
47258SOL     OW41797   8.313   7.796  11.367
47258SOL    HW141798   8.372   7.859  11.318
47258SOL    HW241799   8.332   7.702  11.338
47259SOL     OW41800   8.810   8.592  11.717
47259SOL    HW141801   8.893   8.563  11.669
47259SOL    HW241802   8.761   8.659  11.661
47260SOL     OW41803   7.998   7.644  12.057
47260SOL    HW141804   7.993   7.639  12.157
47260SOL    HW241805   8.000   7.740  12.028
47261SOL     OW41806   8.456   8.904  11.649
47261SOL    HW141807   8.410   8.976  11.597
47261SOL    HW241808   8.452   8.924  11.747
47262SOL     OW41809   7.799   9.249  12.025
47262SOL    HW141810   7.849   9.163  12.031
47262SOL    HW241811   7.864   9.326  12.022
47263SOL     OW41812   9.243   8.514  12.045
47263SOL    HW141813   9.181   8.499  11.969
47263SOL    HW241814   9.191   8.525  12.130
47264SOL     OW41815   8.675   8.998  12.678
47264SOL    HW141816   8.681   8.921  12.742
47264SOL    HW241817   8.623   8.972  12.598
47265SOL     OW41818   7.769   8.391  11.414
47265SOL    HW141819   7.851   8.430  11.372
47265SOL    HW241820   7.742   8.309  11.365
47266SOL     OW41821   8.906   8.183  11.900
47266SOL    HW141822   8.901   8.118  11.975
47266SOL    HW241823   8.986   8.242  11.913
47267SOL     OW41824   8.559   9.224  11.409
47267SOL    HW141825   8.499   9.162  11.459
47267SOL    HW241826   8.590   9.180  11.324
47268SOL     OW41827   7.650   7.733  12.670
47268SOL    HW141828   7.570   7.793  12.657
47268SOL    HW241829   7.640   7.684  12.756
47269SOL     OW41830   9.080   8.825  11.253
47269SOL    HW141831   9.048   8.919  11.243
47269SOL    HW241832   9.004   8.762  11.241
47270SOL     OW41833   7.912   9.191  11.495
47270SOL    HW141834   7.945   9.230  11.581
47270SOL    HW241835   7.988   9.184  11.430
47271SOL     OW41836   8.848   7.555  11.598
47271SOL    HW141837   8.824   7.518  11.508
47271SOL    HW241838   8.947   7.571  11.602
47272SOL     OW41839   7.697   9.233  12.413
47272SOL    HW141840   7.754   9.168  12.463
47272SOL    HW241841   7.681   9.200  12.320
47273SOL     OW41842   8.388   9.146  12.076
47273SOL    HW141843   8.468   9.089  12.097
47273SOL    HW241844   8.339   9.106  11.999
47274SOL     OW41845   7.830   8.148  11.652
47274SOL    HW141846   7.875   8.058  11.649
47274SOL    HW241847   7.736   8.137  11.685
47275SOL     OW41848   8.062   7.570  11.289
47275SOL    HW141849   8.160   7.548  11.296
47275SOL    HW241850   8.031   7.553  11.196
47276SOL     OW41851   8.336   8.962  12.367
47276SOL    HW141852   8.313   8.937  12.273
47276SOL    HW241853   8.397   8.893  12.406
47277SOL     OW41854   8.799   8.038  12.605
47277SOL    HW141855   8.827   7.995  12.690
47277SOL    HW241856   8.824   8.134  12.606
47278SOL     OW41857   8.251   8.850  12.096
47278SOL    HW141858   8.341   8.864  12.054
47278SOL    HW241859   8.180   8.852  12.025
47279SOL     OW41860   8.370   7.951  12.071
47279SOL    HW141861   8.345   7.942  11.975
47279SOL    HW241862   8.418   7.869  12.102
47280SOL     OW41863   7.987   7.512  11.684
47280SOL    HW141864   7.906   7.513  11.742
47280SOL    HW241865   7.990   7.595  11.629
47281SOL     OW41866   8.882   8.636  11.213
47281SOL    HW141867   8.914   8.560  11.270
47281SOL    HW241868   8.790   8.663  11.243
47282SOL     OW41869   7.745   7.483  11.343
47282SOL    HW141870   7.794   7.567  11.322
47282SOL    HW241871   7.807   7.418  11.388
47283SOL     OW41872   8.383   7.684  11.652
47283SOL    HW141873   8.335   7.725  11.574
47283SOL    HW241874   8.482   7.682  11.633
47284SOL     OW41875   8.524   8.131  12.636
47284SOL    HW141876   8.444   8.070  12.639
47284SOL    HW241877   8.605   8.078  12.612
47285SOL     OW41878   8.675   9.018  11.965
47285SOL    HW141879   8.696   9.092  11.900
47285SOL    HW241880   8.743   9.018  12.038
47286SOL     OW41881   7.907   8.600  11.913
47286SOL    HW141882   7.836   8.573  11.978
47286SOL    HW241883   7.881   8.572  11.820
47287SOL     OW41884   8.719   9.245  11.763
47287SOL    HW141885   8.763   9.309  11.699
47287SOL    HW241886   8.669   9.297  11.833
47288SOL     OW41887   8.480   7.997  11.188
47288SOL    HW141888   8.439   8.079  11.149
47288SOL    HW241889   8.544   8.023  11.261
47289SOL     OW41890   7.526   8.004  12.558
47289SOL    HW141891   7.618   8.003  12.517
47289SOL    HW241892   7.520   8.078  12.625
47290SOL     OW41893   8.009   7.670  12.319
47290SOL    HW141894   8.047   7.586  12.356
47290SOL    HW241895   7.921   7.689  12.363
47291SOL     OW41896   8.314   7.902  11.814
47291SOL    HW141897   8.282   7.974  11.752
47291SOL    HW241898   8.338   7.821  11.761
47292SOL     OW41899   8.465   7.487  11.925
47292SOL    HW141900   8.393   7.492  11.856
47292SOL    HW241901   8.441   7.418  11.994
47293SOL     OW41902   8.877   8.621  12.039
47293SOL    HW141903   8.822   8.537  12.032
47293SOL    HW241904   8.903   8.650  11.947
47294SOL     OW41905   8.914   8.038  12.164
47294SOL    HW141906   8.884   7.943  12.171
47294SOL    HW241907   8.987   8.054  12.230
47295SOL     OW41908   9.305   8.281  11.549
47295SOL    HW141909   9.347   8.217  11.613
47295SOL    HW241910   9.267   8.230  11.471
47296SOL     OW41911   7.936   8.833  11.346
47296SOL    HW141912   7.849   8.818  11.393
47296SOL    HW241913   7.919   8.859  11.251
47297SOL     OW41914   9.112   8.728  11.829
47297SOL    HW141915   9.211   8.736  11.843
47297SOL    HW241916   9.067   8.812  11.860
47298SOL     OW41917   8.838   8.023  11.250
47298SOL    HW141918   8.784   8.002  11.331
47298SOL    HW241919   8.929   7.982  11.259
47299SOL     OW41920   7.975   7.704  11.500
47299SOL    HW141921   8.002   7.645  11.425
47299SOL    HW241922   7.975   7.799  11.469
47300SOL     OW41923   9.202   8.671  12.760
47300SOL    HW141924   9.293   8.632  12.747
47300SOL    HW241925   9.210   8.767  12.784
47301SOL     OW41926   8.512   8.795  12.512
47301SOL    HW141927   8.432   8.772  12.567
47301SOL    HW241928   8.595   8.769  12.561
47302SOL     OW41929   8.559   8.643  12.272
47302SOL    HW141930   8.519   8.687  12.353
47302SOL    HW241931   8.518   8.680  12.189
47303SOL     OW41932   9.086   8.547  12.251
47303SOL    HW141933   9.091   8.628  12.310
47303SOL    HW241934   9.000   8.549  12.200
47304SOL     OW41935   8.363   7.537  12.574
47304SOL    HW141936   8.388   7.517  12.479
47304SOL    HW241937   8.435   7.593  12.616
47305SOL     OW41938   8.153   8.498  11.540
47305SOL    HW141939   8.139   8.505  11.639
47305SOL    HW241940   8.237   8.447  11.522
47306SOL     OW41941   7.858   8.261  12.423
47306SOL    HW141942   7.944   8.273  12.473
47306SOL    HW241943   7.816   8.174  12.450
47307SOL     OW41944   8.722   7.834  12.434
47307SOL    HW141945   8.743   7.908  12.498
47307SOL    HW241946   8.633   7.851  12.391
47308SOL     OW41947   7.512   9.012  12.503
47308SOL    HW141948   7.466   9.094  12.469
47308SOL    HW241949   7.610   9.031  12.512
47309SOL     OW41950   7.815   8.548  11.673
47309SOL    HW141951   7.808   8.631  11.617
47309SOL    HW241952   7.819   8.468  11.613
47310SOL     OW41953   8.014   7.985  12.037
47310SOL    HW141954   8.026   8.051  11.963
47310SOL    HW241955   8.060   8.019  12.120
47311SOL     OW41956   8.700   8.796  11.560
47311SOL    HW141957   8.750   8.873  11.600
47311SOL    HW241958   8.605   8.798  11.592
47312SOL     OW41959   8.720   8.893  12.314
47312SOL    HW141960   8.767   8.906  12.401
47312SOL    HW241961   8.654   8.819  12.323
47313SOL     OW41962   9.030   8.087  11.644
47313SOL    HW141963   8.999   8.148  11.717
47313SOL    HW241964   9.080   8.139  11.575
47314SOL     OW41965   7.802   8.958  12.501
47314SOL    HW141966   7.781   8.914  12.414
47314SOL    HW241967   7.899   8.984  12.504
47315SOL     OW41968   7.850   8.199  12.770
47315SOL    HW141969   7.918   8.254  12.723
47315SOL    HW241970   7.890   8.111  12.797
47316SOL     OW41971   9.035   8.227  12.842
47316SOL    HW141972   8.943   8.265  12.837
47316SOL    HW241973   9.095   8.274  12.777
47317SOL     OW41974   8.021   8.318  12.201
47317SOL    HW141975   8.065   8.407  12.192
47317SOL    HW241976   7.958   8.318  12.278
47318SOL     OW41977   8.808   8.310  12.217
47318SOL    HW141978   8.733   8.310  12.151
47318SOL    HW241979   8.845   8.218  12.226
47319SOL     OW41980   8.657   7.973  11.447
47319SOL    HW141981   8.670   7.889  11.501
47319SOL    HW241982   8.628   8.047  11.507
47320SOL     OW41983   7.755   7.661  12.403
47320SOL    HW141984   7.732   7.698  12.493
47320SOL    HW241985   7.725   7.566  12.397
47321SOL     OW41986   7.485   8.758  12.454
47321SOL    HW141987   7.538   8.709  12.522
47321SOL    HW241988   7.507   8.856  12.459
47322SOL     OW41989   8.180   8.082  12.236
47322SOL    HW141990   8.239   8.056  12.160
47322SOL    HW241991   8.152   8.178  12.225
47323SOL     OW41992   7.755   7.511  11.790
47323SOL    HW141993   7.744   7.605  11.823
47323SOL    HW241994   7.750   7.448  11.867
47324SOL     OW41995   9.070   7.815  11.546
47324SOL    HW141996   9.072   7.739  11.610
47324SOL    HW241997   9.022   7.892  11.586
47325SOL     OW41998   8.471   8.214  12.138
47325SOL    HW141999   8.486   8.235  12.234
47325SOL    HW242000   8.441   8.119  12.129
47326SOL     OW42001   8.988   7.722  11.297
47326SOL    HW142002   8.927   7.647  11.320
47326SOL    HW242003   9.010   7.774  11.380
47327SOL     OW42004   8.751   8.286  11.214
47327SOL    HW142005   8.785   8.193  11.229
47327SOL    HW242006   8.769   8.313  11.119
47328SOL     OW42007   8.516   8.781  12.021
47328SOL    HW142008   8.523   8.697  11.966
47328SOL    HW242009   8.578   8.850  11.985
47329SOL     OW42010   7.767   8.258  12.121
47329SOL    HW142011   7.860   8.294  12.126
47329SOL    HW242012   7.761   8.173  12.173
47330SOL     OW42013   7.787   7.957  12.178
47330SOL    HW142014   7.735   7.874  12.161
47330SOL    HW242015   7.864   7.962  12.114
47331SOL     OW42016   8.608   7.655  12.649
47331SOL    HW142017   8.608   7.719  12.726
47331SOL    HW242018   8.636   7.703  12.566
47332SOL     OW42019   7.456   8.774  11.372
47332SOL    HW142020   7.363   8.795  11.341
47332SOL    HW242021   7.466   8.675  11.385
47333SOL     OW42022   7.536   9.249  12.099
47333SOL    HW142023   7.494   9.163  12.072
47333SOL    HW242024   7.630   9.252  12.065
47334SOL     OW42025   7.952   9.016  12.082
47334SOL    HW142026   8.018   9.090  12.091
47334SOL    HW242027   7.996   8.937  12.040
47335SOL     OW42028   8.450   8.244  12.410
47335SOL    HW142029   8.491   8.212  12.496
47335SOL    HW242030   8.354   8.217  12.407
47336SOL     OW42031   7.488   7.992  12.286
47336SOL    HW142032   7.573   7.959  12.245
47336SOL    HW242033   7.501   8.007  12.384
47337SOL     OW42034   8.263   8.020  11.497
47337SOL    HW142035   8.270   7.931  11.451
47337SOL    HW242036   8.169   8.054  11.489
47338SOL     OW42037   9.105   8.052  12.378
47338SOL    HW142038   9.067   7.983  12.440
47338SOL    HW242039   9.187   8.016  12.334
47339SOL     OW42040   7.700   9.012  12.916
47339SOL    HW142041   7.670   9.069  12.992
47339SOL    HW242042   7.693   8.915  12.942
47340SOL     OW42043   8.119   7.912  12.441
47340SOL    HW142044   8.085   7.823  12.411
47340SOL    HW242045   8.145   7.966  12.361
47341SOL     OW42046   8.378   9.126  12.637
47341SOL    HW142047   8.354   9.108  12.542
47341SOL    HW242048   8.408   9.220  12.647
47342SOL     OW42049   7.921   7.948  11.363
47342SOL    HW142050   7.982   8.028  11.367
47342SOL    HW242051   7.826   7.979  11.370
47343SOL     OW42052   7.607   8.585  12.638
47343SOL    HW142053   7.629   8.524  12.714
47343SOL    HW242054   7.617   8.536  12.552
47344SOL     OW42055   8.795   8.507  12.406
47344SOL    HW142056   8.819   8.444  12.332
47344SOL    HW242057   8.705   8.547  12.388
47345SOL     OW42058   8.750   8.303  11.481
47345SOL    HW142059   8.664   8.272  11.523
47345SOL    HW242060   8.746   8.289  11.382
47346SOL     OW42061   9.207   9.195  12.326
47346SOL    HW142062   9.268   9.225  12.253
47346SOL    HW242063   9.169   9.106  12.304
47347SOL     OW42064   8.700   9.179  12.300
47347SOL    HW142065   8.784   9.184  12.246
47347SOL    HW242066   8.677   9.083  12.318
47348SOL     OW42067   7.531   8.706  12.194
47348SOL    HW142068   7.526   8.705  12.294
47348SOL    HW242069   7.448   8.665  12.156
47349SOL     OW42070   9.174   7.583  11.695
47349SOL    HW142071   9.247   7.566  11.628
47349SOL    HW242072   9.143   7.496  11.733
47350SOL     OW42073   8.836   9.021  11.649
47350SOL    HW142074   8.903   9.033  11.575
47350SOL    HW242075   8.796   9.110  11.672
47351SOL     OW42076   8.728   8.375  11.844
47351SOL    HW142077   8.788   8.294  11.846
47351SOL    HW242078   8.768   8.444  11.784
47352SOL     OW42079   8.278   8.721  12.594
47352SOL    HW142080   8.273   8.754  12.689
47352SOL    HW242081   8.192   8.740  12.548
47353SOL     OW42082   8.120   9.064  11.326
47353SOL    HW142083   8.129   9.074  11.227
47353SOL    HW242084   8.080   8.975  11.347
47354SOL     OW42085   9.098   9.168  12.566
47354SOL    HW142086   9.151   9.178  12.482
47354SOL    HW242087   9.071   9.258  12.600
47355SOL     OW42088   9.289   7.623  12.135
47355SOL    HW142089   9.328   7.538  12.099
47355SOL    HW242090   9.191   7.625  12.116
47356SOL     OW42091   7.711   7.774  11.892
47356SOL    HW142092   7.632   7.825  11.858
47356SOL    HW242093   7.702   7.759  11.990
47357SOL     OW42094   8.642   9.060  11.203
47357SOL    HW142095   8.648   8.967  11.240
47357SOL    HW242096   8.583   9.060  11.123
47358SOL     OW42097   8.270   8.450  12.544
47358SOL    HW142098   8.310   8.449  12.452
47358SOL    HW242099   8.280   8.542  12.584
47359SOL     OW42100   8.364   8.358  11.463
47359SOL    HW142101   8.427   8.396  11.395
47359SOL    HW242102   8.404   8.275  11.502
47360SOL     OW42103   8.952   9.055  11.216
47360SOL    HW142104   8.860   9.092  11.223
47360SOL    HW242105   8.990   9.075  11.126
47361SOL     OW42106   7.820   8.736  12.662
47361SOL    HW142107   7.807   8.829  12.628
47361SOL    HW242108   7.736   8.684  12.649
47362SOL     OW42109   9.062   8.740  12.461
47362SOL    HW142110   9.122   8.743  12.541
47362SOL    HW242111   8.987   8.804  12.474
47363SOL     OW42112   8.487   8.546  11.868
47363SOL    HW142113   8.417   8.499  11.922
47363SOL    HW242114   8.546   8.478  11.825
47364SOL     OW42115   8.462   7.684  12.143
47364SOL    HW142116   8.454   7.648  12.050
47364SOL    HW242117   8.460   7.608  12.208
47365SOL     OW42118   8.038   8.935  11.663
47365SOL    HW142119   8.080   8.877  11.593
47365SOL    HW242120   7.994   9.014  11.619
47366SOL     OW42121   9.157   7.833  12.553
47366SOL    HW142122   9.230   7.902  12.557
47366SOL    HW242123   9.185   7.758  12.494
47367SOL     OW42124   7.703   8.796  11.462
47367SOL    HW142125   7.607   8.797  11.435
47367SOL    HW242126   7.715   8.849  11.546
47368SOL     OW42127   7.553   8.461  12.898
47368SOL    HW142128   7.476   8.428  12.952
47368SOL    HW242129   7.638   8.431  12.940
47369SOL     OW42130   8.120   7.651  12.661
47369SOL    HW142131   8.210   7.635  12.621
47369SOL    HW242132   8.128   7.656  12.760
47370SOL     OW42133   7.523   7.793  11.205
47370SOL    HW142134   7.431   7.765  11.176
47370SOL    HW242135   7.554   7.870  11.149
47371SOL     OW42136   8.888   8.304  12.570
47371SOL    HW142137   8.831   8.356  12.507
47371SOL    HW242138   8.984   8.316  12.546
47372SOL     OW42139   7.520   7.614  11.490
47372SOL    HW142140   7.503   7.697  11.436
47372SOL    HW242141   7.610   7.577  11.468
47373SOL     OW42142   8.631   8.783  11.291
47373SOL    HW142143   8.532   8.772  11.293
47373SOL    HW242144   8.665   8.798  11.384
47374SOL     OW42145   8.061   8.290  12.603
47374SOL    HW142146   8.117   8.371  12.586
47374SOL    HW242147   8.120   8.210  12.606
47375SOL     OW42148   8.941   9.215  12.131
47375SOL    HW142149   8.974   9.279  12.062
47375SOL    HW242150   9.007   9.209  12.206
47376SOL     OW42151   8.164   8.013  12.880
47376SOL    HW142152   8.183   8.078  12.954
47376SOL    HW242153   8.224   7.933  12.889
47377SOL     OW42154   7.838   9.189  12.732
47377SOL    HW142155   7.747   9.230  12.730
47377SOL    HW242156   7.831   9.095  12.764
47378SOL     OW42157   9.122   8.331  12.426
47378SOL    HW142158   9.095   8.242  12.389
47378SOL    HW242159   9.123   8.399  12.353
47379SOL     OW42160   8.673   7.773  11.621
47379SOL    HW142161   8.738   7.699  11.610
47379SOL    HW242162   8.693   7.823  11.705
47380SOL     OW42163   8.042   8.193  11.824
47380SOL    HW142164   8.092   8.278  11.805
47380SOL    HW242165   7.954   8.195  11.776
47381SOL     OW42166   9.225   7.790  12.814
47381SOL    HW142167   9.208   7.821  12.720
47381SOL    HW242168   9.141   7.753  12.852
47382SOL     OW42169   9.178   8.382  12.689
47382SOL    HW142170   9.216   8.473  12.704
47382SOL    HW242171   9.170   8.365  12.590
47383SOL     OW42172   8.307   8.822  11.188
47383SOL    HW142173   8.261   8.837  11.276
47383SOL    HW242174   8.351   8.907  11.158
47384SOL     OW42175   8.109   9.238  12.125
47384SOL    HW142176   8.063   9.326  12.112
47384SOL    HW242177   8.208   9.250  12.118
47385SOL     OW42178   8.307   8.404  12.033
47385SOL    HW142179   8.361   8.335  12.081
47385SOL    HW242180   8.275   8.473  12.099
47386SOL     OW42181   8.531   8.432  11.259
47386SOL    HW142182   8.508   8.485  11.177
47386SOL    HW242183   8.612   8.376  11.240
47387SOL     OW42184   9.309   9.017  12.023
47387SOL    HW142185   9.238   9.005  11.953
47387SOL    HW242186   9.310   8.938  12.083
47388SOL     OW42187   7.527   8.688  11.825
47388SOL    HW142188   7.526   8.641  11.913
47388SOL    HW242189   7.609   8.660  11.774
47389SOL     OW42190   8.120   8.839  12.796
47389SOL    HW142191   8.042   8.789  12.834
47389SOL    HW242192   8.117   8.934  12.827
47390SOL     OW42193   9.272   7.640  12.399
47390SOL    HW142194   9.268   7.550  12.443
47390SOL    HW242195   9.275   7.629  12.300
47391SOL     OW42196   7.876   7.872  11.692
47391SOL    HW142197   7.906   7.800  11.630
47391SOL    HW242198   7.837   7.832  11.775
47392SOL     OW42199   9.153   8.935  12.276
47392SOL    HW142200   9.060   8.910  12.249
47392SOL    HW242201   9.179   8.885  12.358
47393SOL     OW42202   7.765   7.995  12.452
47393SOL    HW142203   7.803   7.936  12.524
47393SOL    HW242204   7.805   7.969  12.364
47394SOL     OW42205   8.260   9.034  11.859
47394SOL    HW142206   8.292   9.044  11.765
47394SOL    HW242207   8.181   8.972  11.861
47395SOL     OW42208   8.872   7.662  12.284
47395SOL    HW142209   8.924   7.597  12.339
47395SOL    HW242210   8.823   7.725  12.345
47396SOL     OW42211   8.449   7.482  12.326
47396SOL    HW142212   8.386   7.410  12.295
47396SOL    HW242213   8.542   7.446  12.326
47397SOL     OW42214   8.218   8.778  11.473
47397SOL    HW142215   8.172   8.691  11.490
47397SOL    HW242216   8.309   8.775  11.514
47398SOL     OW42217   8.066   9.015  12.456
47398SOL    HW142218   8.061   9.097  12.513
47398SOL    HW242219   8.155   9.012  12.411
47399SOL     OW42220   8.800   7.500  11.340
47399SOL    HW142221   8.835   7.459  11.256
47399SOL    HW242222   8.710   7.462  11.360
47400SOL     OW42223   8.748   7.901  11.863
47400SOL    HW142224   8.689   7.981  11.867
47400SOL    HW242225   8.763   7.866  11.956
47401SOL     OW42226   9.041   7.669  12.054
47401SOL    HW142227   8.957   7.668  12.108
47401SOL    HW242228   9.043   7.752  11.998
47402SOL     OW42229   7.487   8.525  11.472
47402SOL    HW142230   7.586   8.514  11.463
47402SOL    HW242231   7.447   8.439  11.504
47403SOL     OW42232   8.323   9.094  11.509
47403SOL    HW142233   8.246   9.059  11.455
47403SOL    HW242234   8.291   9.165  11.571
47404SOL     OW42235   7.678   9.938   0.113
47404SOL    HW142236   7.585   9.936   0.150
47404SOL    HW242237   7.679   9.899   0.021
47405SOL     OW42238   7.673   9.585   0.996
47405SOL    HW142239   7.708   9.568   1.088
47405SOL    HW242240   7.585   9.540   0.984
47406SOL     OW42241   7.467   9.678   0.647
47406SOL    HW142242   7.385   9.721   0.686
47406SOL    HW242243   7.439   9.605   0.584
47407SOL     OW42244   8.017  10.585   1.165
47407SOL    HW142245   7.924  10.578   1.128
47407SOL    HW242246   8.028  10.674   1.209
47408SOL     OW42247   9.003  10.821   0.703
47408SOL    HW142248   8.946  10.805   0.784
47408SOL    HW242249   8.944  10.831   0.623
47409SOL     OW42250   8.583  10.013   0.717
47409SOL    HW142251   8.640  10.091   0.692
47409SOL    HW242252   8.523  10.039   0.793
47410SOL     OW42253   9.203   9.917   0.231
47410SOL    HW142254   9.191   9.904   0.132
47410SOL    HW242255   9.173   9.836   0.280
47411SOL     OW42256   8.216  10.454   1.023
47411SOL    HW142257   8.138  10.471   1.083
47411SOL    HW242258   8.250  10.541   0.987
47412SOL     OW42259   8.298  10.108   1.823
47412SOL    HW142260   8.294  10.184   1.888
47412SOL    HW242261   8.320  10.144   1.732
47413SOL     OW42262   8.133  10.322   0.665
47413SOL    HW142263   8.202  10.306   0.735
47413SOL    HW242264   8.060  10.379   0.703
47414SOL     OW42265   8.134  10.471   1.803
47414SOL    HW142266   8.194  10.550   1.817
47414SOL    HW242267   8.048  10.502   1.762
47415SOL     OW42268   7.783  10.745   1.061
47415SOL    HW142269   7.705  10.714   1.008
47415SOL    HW242270   7.841  10.803   1.004
47416SOL     OW42271   8.908  10.815   1.339
47416SOL    HW142272   8.932  10.909   1.365
47416SOL    HW242273   8.892  10.761   1.421
47417SOL     OW42274   7.886   9.702   1.499
47417SOL    HW142275   7.968   9.646   1.508
47417SOL    HW242276   7.805   9.644   1.503
47418SOL     OW42277   9.051   9.757   0.737
47418SOL    HW142278   8.977   9.803   0.687
47418SOL    HW242279   9.102   9.825   0.790
47419SOL     OW42280   7.679  11.023   0.483
47419SOL    HW142281   7.713  11.100   0.537
47419SOL    HW242282   7.723  11.023   0.393
47420SOL     OW42283   8.575  10.651   1.690
47420SOL    HW142284   8.622  10.651   1.778
47420SOL    HW242285   8.527  10.564   1.679
47421SOL     OW42286   7.678  10.744   0.538
47421SOL    HW142287   7.652  10.840   0.538
47421SOL    HW242288   7.607  10.690   0.583
47422SOL     OW42289   7.688  10.401   0.886
47422SOL    HW142290   7.702  10.317   0.938
47422SOL    HW242291   7.633  10.465   0.941
47423SOL     OW42292   8.068  11.096   1.439
47423SOL    HW142293   7.976  11.079   1.474
47423SOL    HW242294   8.096  11.188   1.465
47424SOL     OW42295   8.054  10.274   0.123
47424SOL    HW142296   8.061  10.358   0.069
47424SOL    HW242297   8.100  10.287   0.211
47425SOL     OW42298   9.042   9.424   1.480
47425SOL    HW142299   9.024   9.491   1.408
47425SOL    HW242300   9.039   9.470   1.569
47426SOL     OW42301   7.570   9.953   0.563
47426SOL    HW142302   7.525   9.865   0.580
47426SOL    HW242303   7.569  10.007   0.647
47427SOL     OW42304   9.290  11.077   0.359
47427SOL    HW142305   9.344  11.048   0.439
47427SOL    HW242306   9.320  11.167   0.330
47428SOL     OW42307   7.475  10.906   0.117
47428SOL    HW142308   7.456  10.810   0.138
47428SOL    HW242309   7.442  10.964   0.192
47429SOL     OW42310   9.137  10.232   0.612
47429SOL    HW142311   9.232  10.203   0.620
47429SOL    HW242312   9.129  10.297   0.537
47430SOL     OW42313   9.089  10.418   0.432
47430SOL    HW142314   9.175  10.420   0.380
47430SOL    HW242315   9.103  10.465   0.520
47431SOL     OW42316   7.561  10.047   1.597
47431SOL    HW142317   7.649  10.034   1.642
47431SOL    HW242318   7.548  10.144   1.575
47432SOL     OW42319   8.061  10.675   0.726
47432SOL    HW142320   8.012  10.588   0.735
47432SOL    HW242321   8.038  10.718   0.639
47433SOL     OW42322   8.741  10.538   1.423
47433SOL    HW142323   8.778  10.465   1.365
47433SOL    HW242324   8.793  10.543   1.508
47434SOL     OW42325   8.257   9.314   0.502
47434SOL    HW142326   8.297   9.405   0.493
47434SOL    HW242327   8.157   9.322   0.508
47435SOL     OW42328   7.645  10.286   1.264
47435SOL    HW142329   7.734  10.241   1.250
47435SOL    HW242330   7.572  10.221   1.245
47436SOL     OW42331   8.973  10.309   0.190
47436SOL    HW142332   8.910  10.233   0.203
47436SOL    HW242333   9.021  10.327   0.276
47437SOL     OW42334   8.635  11.102   1.616
47437SOL    HW142335   8.659  11.162   1.540
47437SOL    HW242336   8.642  11.007   1.586
47438SOL     OW42337   7.765   9.561   1.801
47438SOL    HW142338   7.836   9.632   1.807
47438SOL    HW242339   7.677   9.600   1.829
47439SOL     OW42340   8.914  10.727   0.953
47439SOL    HW142341   8.855  10.733   1.033
47439SOL    HW242342   8.899  10.639   0.907
47440SOL     OW42343   9.115  11.024   0.572
47440SOL    HW142344   9.074  11.001   0.484
47440SOL    HW242345   9.097  10.950   0.637
47441SOL     OW42346   8.046  10.039   0.270
47441SOL    HW142347   8.070  10.108   0.202
47441SOL    HW242348   7.968  10.072   0.324
47442SOL     OW42349   8.729   9.655   0.944
47442SOL    HW142350   8.643   9.605   0.931
47442SOL    HW242351   8.791   9.601   1.000
47443SOL     OW42352   9.024  10.972   0.307
47443SOL    HW142353   9.113  11.018   0.310
47443SOL    HW242354   9.003  10.948   0.212
47444SOL     OW42355   8.255   9.915   1.465
47444SOL    HW142356   8.208   9.912   1.554
47444SOL    HW242357   8.204   9.860   1.399
47445SOL     OW42358   8.842   9.779   1.674
47445SOL    HW142359   8.822   9.822   1.762
47445SOL    HW242360   8.920   9.717   1.683
47446SOL     OW42361   8.421  10.200   1.572
47446SOL    HW142362   8.467  10.116   1.543
47446SOL    HW242363   8.365  10.234   1.497
47447SOL     OW42364   8.439   9.720   1.242
47447SOL    HW142365   8.362   9.754   1.296
47447SOL    HW242366   8.405   9.669   1.163
47448SOL     OW42367   8.489  10.011   0.429
47448SOL    HW142368   8.515  10.007   0.525
47448SOL    HW242369   8.404   9.960   0.415
47449SOL     OW42370   7.524  10.121   0.789
47449SOL    HW142371   7.623  10.109   0.798
47449SOL    HW242372   7.500  10.216   0.810
47450SOL     OW42373   7.578  11.131   1.571
47450SOL    HW142374   7.568  11.116   1.670
47450SOL    HW242375   7.492  11.167   1.535
47451SOL     OW42376   8.313   9.658   0.195
47451SOL    HW142377   8.372   9.721   0.146
47451SOL    HW242378   8.332   9.564   0.166
47452SOL     OW42379   9.167   9.895   1.831
47452SOL    HW142380   9.141   9.984   1.795
47452SOL    HW242381   9.165   9.827   1.758
47453SOL     OW42382   8.810  10.454   0.545
47453SOL    HW142383   8.893  10.425   0.497
47453SOL    HW242384   8.761  10.521   0.489
47454SOL     OW42385   7.998   9.506   0.885
47454SOL    HW142386   7.993   9.501   0.985
47454SOL    HW242387   8.000   9.602   0.856
47455SOL     OW42388   8.456  10.766   0.477
47455SOL    HW142389   8.410  10.838   0.425
47455SOL    HW242390   8.452  10.786   0.575
47456SOL     OW42391   7.799  11.111   0.853
47456SOL    HW142392   7.849  11.025   0.859
47456SOL    HW242393   7.864  11.188   0.850
47457SOL     OW42394   9.243  10.376   0.873
47457SOL    HW142395   9.181  10.361   0.797
47457SOL    HW242396   9.191  10.387   0.958
47458SOL     OW42397   8.675  10.860   1.506
47458SOL    HW142398   8.681  10.783   1.570
47458SOL    HW242399   8.623  10.834   1.426
47459SOL     OW42400   7.769  10.253   0.242
47459SOL    HW142401   7.851  10.292   0.200
47459SOL    HW242402   7.742  10.171   0.193
47460SOL     OW42403   8.906  10.045   0.728
47460SOL    HW142404   8.901   9.980   0.803
47460SOL    HW242405   8.986  10.104   0.741
47461SOL     OW42406   7.909  10.576   1.727
47461SOL    HW142407   7.859  10.577   1.641
47461SOL    HW242408   7.846  10.558   1.803
47462SOL     OW42409   8.559  11.086   0.237
47462SOL    HW142410   8.499  11.024   0.287
47462SOL    HW242411   8.590  11.042   0.152
47463SOL     OW42412   7.650   9.595   1.498
47463SOL    HW142413   7.570   9.655   1.485
47463SOL    HW242414   7.640   9.546   1.584
47464SOL     OW42415   9.080  10.687   0.081
47464SOL    HW142416   9.048  10.781   0.071
47464SOL    HW242417   9.004  10.624   0.069
47465SOL     OW42418   7.912  11.053   0.323
47465SOL    HW142419   7.945  11.092   0.409
47465SOL    HW242420   7.988  11.046   0.258
47466SOL     OW42421   8.848   9.417   0.426
47466SOL    HW142422   8.824   9.380   0.336
47466SOL    HW242423   8.947   9.433   0.430
47467SOL     OW42424   7.697  11.095   1.241
47467SOL    HW142425   7.754  11.030   1.291
47467SOL    HW242426   7.681  11.062   1.148
47468SOL     OW42427   8.388  11.008   0.904
47468SOL    HW142428   8.468  10.951   0.925
47468SOL    HW242429   8.339  10.968   0.827
47469SOL     OW42430   7.830  10.010   0.480
47469SOL    HW142431   7.875   9.920   0.477
47469SOL    HW242432   7.736   9.999   0.513
47470SOL     OW42433   8.995   9.532   1.729
47470SOL    HW142434   8.990   9.569   1.821
47470SOL    HW242435   8.923   9.463   1.717
47471SOL     OW42436   8.062   9.432   0.117
47471SOL    HW142437   8.160   9.410   0.124
47471SOL    HW242438   8.031   9.415   0.024
47472SOL     OW42439   8.229   9.574   1.749
47472SOL    HW142440   8.296   9.513   1.792
47472SOL    HW242441   8.156   9.593   1.814
47473SOL     OW42442   8.336  10.824   1.195
47473SOL    HW142443   8.313  10.799   1.101
47473SOL    HW242444   8.397  10.755   1.234
47474SOL     OW42445   8.799   9.900   1.433
47474SOL    HW142446   8.827   9.857   1.518
47474SOL    HW242447   8.824   9.996   1.434
47475SOL     OW42448   8.251  10.712   0.924
47475SOL    HW142449   8.341  10.726   0.882
47475SOL    HW242450   8.180  10.714   0.853
47476SOL     OW42451   8.370   9.813   0.899
47476SOL    HW142452   8.345   9.804   0.803
47476SOL    HW242453   8.418   9.731   0.930
47477SOL     OW42454   7.987   9.374   0.512
47477SOL    HW142455   7.906   9.375   0.570
47477SOL    HW242456   7.990   9.457   0.457
47478SOL     OW42457   8.882  10.498   0.041
47478SOL    HW142458   8.914  10.422   0.098
47478SOL    HW242459   8.790  10.525   0.071
47479SOL     OW42460   7.745   9.345   0.171
47479SOL    HW142461   7.794   9.429   0.150
47479SOL    HW242462   7.807   9.280   0.216
47480SOL     OW42463   8.383   9.546   0.480
47480SOL    HW142464   8.335   9.587   0.402
47480SOL    HW242465   8.482   9.544   0.461
47481SOL     OW42466   8.524   9.993   1.464
47481SOL    HW142467   8.444   9.932   1.467
47481SOL    HW242468   8.605   9.940   1.440
47482SOL     OW42469   8.675  10.880   0.793
47482SOL    HW142470   8.696  10.954   0.728
47482SOL    HW242471   8.743  10.880   0.866
47483SOL     OW42472   7.907  10.462   0.741
47483SOL    HW142473   7.836  10.435   0.806
47483SOL    HW242474   7.881  10.434   0.648
47484SOL     OW42475   8.719  11.107   0.591
47484SOL    HW142476   8.763  11.171   0.527
47484SOL    HW242477   8.669  11.159   0.661
47485SOL     OW42478   8.480   9.859   0.016
47485SOL    HW142479   8.439   9.941  -0.023
47485SOL    HW242480   8.544   9.885   0.089
47486SOL     OW42481   7.526   9.866   1.386
47486SOL    HW142482   7.618   9.865   1.345
47486SOL    HW242483   7.520   9.940   1.453
47487SOL     OW42484   8.009   9.532   1.147
47487SOL    HW142485   8.047   9.448   1.184
47487SOL    HW242486   7.921   9.551   1.191
47488SOL     OW42487   8.314   9.764   0.642
47488SOL    HW142488   8.282   9.836   0.580
47488SOL    HW242489   8.338   9.683   0.589
47489SOL     OW42490   8.465   9.349   0.753
47489SOL    HW142491   8.393   9.354   0.684
47489SOL    HW242492   8.441   9.280   0.822
47490SOL     OW42493   8.877  10.483   0.867
47490SOL    HW142494   8.822  10.399   0.860
47490SOL    HW242495   8.903  10.512   0.775
47491SOL     OW42496   8.914   9.900   0.992
47491SOL    HW142497   8.884   9.805   0.999
47491SOL    HW242498   8.987   9.916   1.058
47492SOL     OW42499   9.305  10.143   0.377
47492SOL    HW142500   9.347  10.079   0.441
47492SOL    HW242501   9.267  10.092   0.299
47493SOL     OW42502   7.936  10.695   0.174
47493SOL    HW142503   7.849  10.680   0.221
47493SOL    HW242504   7.919  10.721   0.079
47494SOL     OW42505   9.112  10.590   0.657
47494SOL    HW142506   9.211  10.598   0.671
47494SOL    HW242507   9.067  10.674   0.688
47495SOL     OW42508   8.838   9.885   0.078
47495SOL    HW142509   8.784   9.864   0.159
47495SOL    HW242510   8.929   9.844   0.087
47496SOL     OW42511   7.975   9.566   0.328
47496SOL    HW142512   8.002   9.507   0.253
47496SOL    HW242513   7.975   9.661   0.297
47497SOL     OW42514   9.202  10.533   1.588
47497SOL    HW142515   9.293  10.494   1.575
47497SOL    HW242516   9.210  10.629   1.612
47498SOL     OW42517   8.512  10.657   1.340
47498SOL    HW142518   8.432  10.634   1.395
47498SOL    HW242519   8.595  10.631   1.389
47499SOL     OW42520   9.040  10.939   1.625
47499SOL    HW142521   9.067  10.973   1.535
47499SOL    HW242522   9.119  10.901   1.671
47500SOL     OW42523   8.559  10.505   1.100
47500SOL    HW142524   8.519  10.549   1.181
47500SOL    HW242525   8.518  10.542   1.017
47501SOL     OW42526   9.086  10.409   1.079
47501SOL    HW142527   9.091  10.490   1.138
47501SOL    HW242528   9.000  10.411   1.028
47502SOL     OW42529   8.363   9.399   1.402
47502SOL    HW142530   8.388   9.379   1.307
47502SOL    HW242531   8.435   9.455   1.444
47503SOL     OW42532   8.428  10.426   1.719
47503SOL    HW142533   8.329  10.432   1.729
47503SOL    HW242534   8.451  10.346   1.663
47504SOL     OW42535   8.153  10.360   0.368
47504SOL    HW142536   8.139  10.367   0.467
47504SOL    HW242537   8.237  10.309   0.350
47505SOL     OW42538   7.858  10.123   1.251
47505SOL    HW142539   7.944  10.135   1.301
47505SOL    HW242540   7.816  10.036   1.278
47506SOL     OW42541   8.722   9.696   1.262
47506SOL    HW142542   8.743   9.770   1.326
47506SOL    HW242543   8.633   9.713   1.219
47507SOL     OW42544   7.512  10.874   1.331
47507SOL    HW142545   7.466  10.956   1.297
47507SOL    HW242546   7.610  10.893   1.340
47508SOL     OW42547   7.815  10.410   0.501
47508SOL    HW142548   7.808  10.493   0.445
47508SOL    HW242549   7.819  10.330   0.441
47509SOL     OW42550   8.014   9.847   0.865
47509SOL    HW142551   8.026   9.913   0.791
47509SOL    HW242552   8.060   9.881   0.948
47510SOL     OW42553   8.700  10.658   0.388
47510SOL    HW142554   8.750  10.735   0.428
47510SOL    HW242555   8.605  10.660   0.420
47511SOL     OW42556   8.720  10.755   1.142
47511SOL    HW142557   8.767  10.768   1.229
47511SOL    HW242558   8.654  10.681   1.151
47512SOL     OW42559   9.030   9.949   0.472
47512SOL    HW142560   8.999  10.010   0.545
47512SOL    HW242561   9.080  10.001   0.403
47513SOL     OW42562   7.802  10.820   1.329
47513SOL    HW142563   7.781  10.776   1.242
47513SOL    HW242564   7.899  10.846   1.332
47514SOL     OW42565   7.850  10.061   1.598
47514SOL    HW142566   7.918  10.116   1.551
47514SOL    HW242567   7.890   9.973   1.625
47515SOL     OW42568   9.035  10.089   1.670
47515SOL    HW142569   8.943  10.127   1.665
47515SOL    HW242570   9.095  10.136   1.605
47516SOL     OW42571   8.461   9.415   1.770
47516SOL    HW142572   8.467   9.500   1.718
47516SOL    HW242573   8.493   9.339   1.713
47517SOL     OW42574   7.952   9.360   1.740
47517SOL    HW142575   7.910   9.303   1.670
47517SOL    HW242576   7.886   9.429   1.772
47518SOL     OW42577   8.021  10.180   1.029
47518SOL    HW142578   8.065  10.269   1.020
47518SOL    HW242579   7.958  10.180   1.106
47519SOL     OW42580   8.808  10.172   1.045
47519SOL    HW142581   8.733  10.172   0.979
47519SOL    HW242582   8.845  10.080   1.054
47520SOL     OW42583   8.657   9.835   0.275
47520SOL    HW142584   8.670   9.751   0.329
47520SOL    HW242585   8.628   9.909   0.335
47521SOL     OW42586   7.755   9.523   1.231
47521SOL    HW142587   7.732   9.560   1.321
47521SOL    HW242588   7.725   9.428   1.225
47522SOL     OW42589   7.485  10.620   1.282
47522SOL    HW142590   7.538  10.571   1.350
47522SOL    HW242591   7.507  10.718   1.287
47523SOL     OW42592   8.180   9.944   1.064
47523SOL    HW142593   8.239   9.918   0.988
47523SOL    HW242594   8.152  10.040   1.053
47524SOL     OW42595   9.176  10.245   1.854
47524SOL    HW142596   9.130  10.238   1.765
47524SOL    HW242597   9.114  10.289   1.920
47525SOL     OW42598   7.755   9.373   0.618
47525SOL    HW142599   7.744   9.467   0.651
47525SOL    HW242600   7.750   9.310   0.695
47526SOL     OW42601   9.070   9.677   0.374
47526SOL    HW142602   9.072   9.601   0.438
47526SOL    HW242603   9.022   9.754   0.414
47527SOL     OW42604   8.471  10.076   0.966
47527SOL    HW142605   8.486  10.097   1.062
47527SOL    HW242606   8.441   9.981   0.957
47528SOL     OW42607   8.428  10.883   1.700
47528SOL    HW142608   8.408  10.927   1.612
47528SOL    HW242609   8.467  10.792   1.684
47529SOL     OW42610   9.307  10.828   1.605
47529SOL    HW142611   9.321  10.855   1.510
47529SOL    HW242612   9.390  10.850   1.658
47530SOL     OW42613   7.798  10.208   1.804
47530SOL    HW142614   7.874  10.252   1.852
47530SOL    HW242615   7.833  10.161   1.722
47531SOL     OW42616   8.988   9.584   0.125
47531SOL    HW142617   8.927   9.509   0.148
47531SOL    HW242618   9.010   9.636   0.208
47532SOL     OW42619   8.751  10.148   0.042
47532SOL    HW142620   8.785  10.055   0.057
47532SOL    HW242621   8.769  10.175  -0.053
47533SOL     OW42622   8.516  10.643   0.849
47533SOL    HW142623   8.523  10.559   0.794
47533SOL    HW242624   8.578  10.712   0.813
47534SOL     OW42625   7.767  10.120   0.949
47534SOL    HW142626   7.860  10.156   0.954
47534SOL    HW242627   7.761  10.035   1.001
47535SOL     OW42628   7.787   9.819   1.006
47535SOL    HW142629   7.735   9.736   0.989
47535SOL    HW242630   7.864   9.824   0.942
47536SOL     OW42631   8.586   9.690   1.678
47536SOL    HW142632   8.541   9.753   1.742
47536SOL    HW242633   8.679   9.721   1.661
47537SOL     OW42634   8.608   9.517   1.477
47537SOL    HW142635   8.608   9.581   1.554
47537SOL    HW242636   8.636   9.565   1.394
47538SOL     OW42637   7.456  10.636   0.200
47538SOL    HW142638   7.363  10.657   0.169
47538SOL    HW242639   7.466  10.537   0.213
47539SOL     OW42640   7.536  11.111   0.927
47539SOL    HW142641   7.494  11.025   0.900
47539SOL    HW242642   7.630  11.114   0.893
47540SOL     OW42643   7.952  10.878   0.910
47540SOL    HW142644   8.018  10.952   0.919
47540SOL    HW242645   7.996  10.799   0.868
47541SOL     OW42646   8.450  10.106   1.238
47541SOL    HW142647   8.491  10.074   1.324
47541SOL    HW242648   8.354  10.079   1.235
47542SOL     OW42649   7.488   9.854   1.114
47542SOL    HW142650   7.573   9.821   1.073
47542SOL    HW242651   7.501   9.869   1.212
47543SOL     OW42652   7.637   9.830   1.722
47543SOL    HW142653   7.696   9.790   1.652
47543SOL    HW242654   7.579   9.901   1.681
47544SOL     OW42655   8.817  10.260   1.660
47544SOL    HW142656   8.856  10.349   1.680
47544SOL    HW242657   8.827  10.240   1.563
47545SOL     OW42658   8.263   9.882   0.325
47545SOL    HW142659   8.270   9.793   0.279
47545SOL    HW242660   8.169   9.916   0.317
47546SOL     OW42661   9.105   9.914   1.206
47546SOL    HW142662   9.067   9.845   1.268
47546SOL    HW242663   9.187   9.878   1.162
47547SOL     OW42664   7.700  10.874   1.744
47547SOL    HW142665   7.670  10.931   1.820
47547SOL    HW242666   7.693  10.777   1.770
47548SOL     OW42667   8.119   9.774   1.269
47548SOL    HW142668   8.085   9.685   1.239
47548SOL    HW242669   8.145   9.828   1.189
47549SOL     OW42670   8.378  10.988   1.465
47549SOL    HW142671   8.354  10.970   1.370
47549SOL    HW242672   8.408  11.082   1.475
47550SOL     OW42673   7.921   9.810   0.191
47550SOL    HW142674   7.982   9.890   0.195
47550SOL    HW242675   7.826   9.841   0.198
47551SOL     OW42676   7.607  10.447   1.466
47551SOL    HW142677   7.629  10.386   1.542
47551SOL    HW242678   7.617  10.398   1.380
47552SOL     OW42679   8.795  10.369   1.234
47552SOL    HW142680   8.819  10.306   1.160
47552SOL    HW242681   8.705  10.409   1.216
47553SOL     OW42682   8.750  10.165   0.309
47553SOL    HW142683   8.664  10.134   0.351
47553SOL    HW242684   8.746  10.151   0.210
47554SOL     OW42685   9.207  11.057   1.154
47554SOL    HW142686   9.268  11.087   1.081
47554SOL    HW242687   9.169  10.968   1.132
47555SOL     OW42688   8.700  11.041   1.128
47555SOL    HW142689   8.784  11.046   1.074
47555SOL    HW242690   8.677  10.945   1.146
47556SOL     OW42691   7.531  10.568   1.022
47556SOL    HW142692   7.526  10.567   1.122
47556SOL    HW242693   7.448  10.527   0.984
47557SOL     OW42694   8.136  10.972   1.716
47557SOL    HW142695   8.080  11.053   1.725
47557SOL    HW242696   8.188  10.976   1.630
47558SOL     OW42697   8.351   9.396   0.133
47558SOL    HW142698   8.402   9.397   0.047
47558SOL    HW242699   8.407   9.354   0.204
47559SOL     OW42700   9.174   9.445   0.523
47559SOL    HW142701   9.247   9.428   0.456
47559SOL    HW242702   9.143   9.358   0.561
47560SOL     OW42703   8.836  10.883   0.477
47560SOL    HW142704   8.903  10.895   0.403
47560SOL    HW242705   8.796  10.972   0.500
47561SOL     OW42706   7.578  11.104   1.851
47561SOL    HW142707   7.537  11.030   1.904
47561SOL    HW242708   7.642  11.155   1.909
47562SOL     OW42709   8.728  10.237   0.672
47562SOL    HW142710   8.788  10.156   0.674
47562SOL    HW242711   8.768  10.306   0.612
47563SOL     OW42712   8.278  10.583   1.422
47563SOL    HW142713   8.273  10.616   1.517
47563SOL    HW242714   8.192  10.602   1.376
47564SOL     OW42715   8.120  10.926   0.154
47564SOL    HW142716   8.129  10.936   0.055
47564SOL    HW242717   8.080  10.837   0.175
47565SOL     OW42718   9.098  11.030   1.394
47565SOL    HW142719   9.151  11.040   1.310
47565SOL    HW242720   9.071  11.120   1.428
47566SOL     OW42721   9.289   9.485   0.963
47566SOL    HW142722   9.328   9.400   0.927
47566SOL    HW242723   9.191   9.487   0.944
47567SOL     OW42724   7.711   9.636   0.720
47567SOL    HW142725   7.632   9.687   0.686
47567SOL    HW242726   7.702   9.621   0.818
47568SOL     OW42727   8.642  10.922   0.031
47568SOL    HW142728   8.648  10.829   0.068
47568SOL    HW242729   8.583  10.922  -0.049
47569SOL     OW42730   8.270  10.312   1.372
47569SOL    HW142731   8.310  10.311   1.280
47569SOL    HW242732   8.280  10.404   1.412
47570SOL     OW42733   8.364  10.220   0.291
47570SOL    HW142734   8.427  10.258   0.223
47570SOL    HW242735   8.404  10.137   0.330
47571SOL     OW42736   8.952  10.917   0.044
47571SOL    HW142737   8.860  10.954   0.051
47571SOL    HW242738   8.990  10.937  -0.046
47572SOL     OW42739   7.820  10.598   1.490
47572SOL    HW142740   7.807  10.691   1.456
47572SOL    HW242741   7.736  10.546   1.477
47573SOL     OW42742   9.062  10.602   1.289
47573SOL    HW142743   9.122  10.605   1.369
47573SOL    HW242744   8.987  10.666   1.302
47574SOL     OW42745   8.487  10.408   0.696
47574SOL    HW142746   8.417  10.361   0.750
47574SOL    HW242747   8.546  10.340   0.653
47575SOL     OW42748   8.462   9.546   0.971
47575SOL    HW142749   8.454   9.510   0.878
47575SOL    HW242750   8.460   9.470   1.036
47576SOL     OW42751   8.038  10.797   0.491
47576SOL    HW142752   8.080  10.739   0.421
47576SOL    HW242753   7.994  10.876   0.447
47577SOL     OW42754   9.157   9.695   1.381
47577SOL    HW142755   9.230   9.764   1.385
47577SOL    HW242756   9.185   9.620   1.322
47578SOL     OW42757   7.703  10.658   0.290
47578SOL    HW142758   7.607  10.659   0.263
47578SOL    HW242759   7.715  10.711   0.374
47579SOL     OW42760   7.553  10.323   1.726
47579SOL    HW142761   7.476  10.290   1.780
47579SOL    HW242762   7.638  10.293   1.768
47580SOL     OW42763   8.120   9.513   1.489
47580SOL    HW142764   8.210   9.497   1.449
47580SOL    HW242765   8.128   9.518   1.588
47581SOL     OW42766   7.523   9.655   0.033
47581SOL    HW142767   7.431   9.627   0.004
47581SOL    HW242768   7.554   9.732  -0.023
47582SOL     OW42769   8.888  10.166   1.398
47582SOL    HW142770   8.831  10.218   1.335
47582SOL    HW242771   8.984  10.178   1.374
47583SOL     OW42772   7.520   9.476   0.318
47583SOL    HW142773   7.503   9.559   0.264
47583SOL    HW242774   7.610   9.439   0.296
47584SOL     OW42775   8.631  10.645   0.119
47584SOL    HW142776   8.532  10.634   0.121
47584SOL    HW242777   8.665  10.660   0.212
47585SOL     OW42778   8.061  10.152   1.431
47585SOL    HW142779   8.117  10.233   1.414
47585SOL    HW242780   8.120  10.072   1.434
47586SOL     OW42781   8.941  11.077   0.959
47586SOL    HW142782   8.974  11.141   0.890
47586SOL    HW242783   9.007  11.071   1.034
47587SOL     OW42784   8.164   9.875   1.708
47587SOL    HW142785   8.183   9.940   1.782
47587SOL    HW242786   8.224   9.795   1.717
47588SOL     OW42787   8.898  10.530   1.633
47588SOL    HW142788   8.889  10.520   1.732
47588SOL    HW242789   8.994  10.523   1.607
47589SOL     OW42790   7.838  11.051   1.560
47589SOL    HW142791   7.747  11.092   1.558
47589SOL    HW242792   7.831  10.957   1.592
47590SOL     OW42793   9.122  10.193   1.254
47590SOL    HW142794   9.095  10.104   1.217
47590SOL    HW242795   9.123  10.261   1.181
47591SOL     OW42796   8.673   9.635   0.449
47591SOL    HW142797   8.738   9.561   0.438
47591SOL    HW242798   8.693   9.685   0.533
47592SOL     OW42799   8.042  10.055   0.652
47592SOL    HW142800   8.092  10.140   0.633
47592SOL    HW242801   7.954  10.057   0.604
47593SOL     OW42802   9.225   9.652   1.642
47593SOL    HW142803   9.208   9.683   1.548
47593SOL    HW242804   9.141   9.615   1.680
47594SOL     OW42805   9.178  10.244   1.517
47594SOL    HW142806   9.216  10.335   1.532
47594SOL    HW242807   9.170  10.227   1.418
47595SOL     OW42808   8.307  10.684   0.016
47595SOL    HW142809   8.261  10.699   0.104
47595SOL    HW242810   8.351  10.769  -0.014
47596SOL     OW42811   8.109  11.100   0.953
47596SOL    HW142812   8.063  11.188   0.940
47596SOL    HW242813   8.208  11.112   0.946
47597SOL     OW42814   8.307  10.266   0.861
47597SOL    HW142815   8.361  10.197   0.909
47597SOL    HW242816   8.275  10.335   0.927
47598SOL     OW42817   8.531  10.294   0.087
47598SOL    HW142818   8.508  10.347   0.005
47598SOL    HW242819   8.612  10.238   0.068
47599SOL     OW42820   9.309  10.879   0.851
47599SOL    HW142821   9.238  10.867   0.781
47599SOL    HW242822   9.310  10.800   0.911
47600SOL     OW42823   7.669  10.624   1.844
47600SOL    HW142824   7.604  10.551   1.823
47600SOL    HW242825   7.673  10.638   1.942
47601SOL     OW42826   7.527  10.550   0.653
47601SOL    HW142827   7.526  10.503   0.741
47601SOL    HW242828   7.609  10.522   0.602
47602SOL     OW42829   8.120  10.701   1.624
47602SOL    HW142830   8.042  10.651   1.662
47602SOL    HW242831   8.117  10.796   1.655
47603SOL     OW42832   9.272   9.502   1.227
47603SOL    HW142833   9.268   9.412   1.271
47603SOL    HW242834   9.275   9.491   1.128
47604SOL     OW42835   7.876   9.734   0.520
47604SOL    HW142836   7.906   9.662   0.458
47604SOL    HW242837   7.837   9.694   0.603
47605SOL     OW42838   9.153  10.797   1.104
47605SOL    HW142839   9.060  10.772   1.077
47605SOL    HW242840   9.179  10.747   1.186
47606SOL     OW42841   7.765   9.857   1.280
47606SOL    HW142842   7.803   9.798   1.352
47606SOL    HW242843   7.805   9.831   1.192
47607SOL     OW42844   8.260  10.896   0.687
47607SOL    HW142845   8.292  10.906   0.593
47607SOL    HW242846   8.181  10.834   0.689
47608SOL     OW42847   8.872   9.524   1.112
47608SOL    HW142848   8.924   9.459   1.167
47608SOL    HW242849   8.823   9.587   1.173
47609SOL     OW42850   8.449   9.344   1.154
47609SOL    HW142851   8.386   9.272   1.123
47609SOL    HW242852   8.542   9.308   1.154
47610SOL     OW42853   8.218  10.640   0.301
47610SOL    HW142854   8.172  10.553   0.318
47610SOL    HW242855   8.309  10.637   0.342
47611SOL     OW42856   8.066  10.877   1.284
47611SOL    HW142857   8.061  10.959   1.341
47611SOL    HW242858   8.155  10.874   1.239
47612SOL     OW42859   8.800   9.362   0.168
47612SOL    HW142860   8.835   9.321   0.084
47612SOL    HW242861   8.710   9.324   0.188
47613SOL     OW42862   8.748   9.763   0.691
47613SOL    HW142863   8.689   9.843   0.695
47613SOL    HW242864   8.763   9.728   0.784
47614SOL     OW42865   9.041   9.531   0.882
47614SOL    HW142866   8.957   9.530   0.936
47614SOL    HW242867   9.043   9.614   0.826
47615SOL     OW42868   7.487  10.387   0.300
47615SOL    HW142869   7.586  10.376   0.291
47615SOL    HW242870   7.447  10.301   0.332
47616SOL     OW42871   8.323  10.956   0.337
47616SOL    HW142872   8.246  10.921   0.283
47616SOL    HW242873   8.291  11.027   0.399
47617SOL     OW42874   7.678   9.938   1.975
47617SOL    HW142875   7.585   9.936   2.012
47617SOL    HW242876   7.679   9.899   1.883
47618SOL     OW42877   7.673   9.585   2.858
47618SOL    HW142878   7.708   9.568   2.950
47618SOL    HW242879   7.585   9.540   2.846
47619SOL     OW42880   7.467   9.678   2.509
47619SOL    HW142881   7.385   9.721   2.548
47619SOL    HW242882   7.439   9.605   2.446
47620SOL     OW42883   8.017  10.585   3.027
47620SOL    HW142884   7.924  10.578   2.990
47620SOL    HW242885   8.028  10.674   3.071
47621SOL     OW42886   9.003  10.821   2.565
47621SOL    HW142887   8.946  10.805   2.646
47621SOL    HW242888   8.944  10.831   2.485
47622SOL     OW42889   8.583  10.013   2.579
47622SOL    HW142890   8.640  10.091   2.554
47622SOL    HW242891   8.523  10.039   2.655
47623SOL     OW42892   9.203   9.917   2.093
47623SOL    HW142893   9.191   9.904   1.994
47623SOL    HW242894   9.173   9.836   2.142
47624SOL     OW42895   8.216  10.454   2.885
47624SOL    HW142896   8.138  10.471   2.945
47624SOL    HW242897   8.250  10.541   2.849
47625SOL     OW42898   8.298  10.108   3.685
47625SOL    HW142899   8.294  10.184   3.750
47625SOL    HW242900   8.320  10.144   3.594
47626SOL     OW42901   8.133  10.322   2.527
47626SOL    HW142902   8.202  10.306   2.597
47626SOL    HW242903   8.060  10.379   2.565
47627SOL     OW42904   8.134  10.471   3.665
47627SOL    HW142905   8.194  10.550   3.679
47627SOL    HW242906   8.048  10.502   3.624
47628SOL     OW42907   7.783  10.745   2.923
47628SOL    HW142908   7.705  10.714   2.870
47628SOL    HW242909   7.841  10.803   2.866
47629SOL     OW42910   8.908  10.815   3.201
47629SOL    HW142911   8.932  10.909   3.227
47629SOL    HW242912   8.892  10.761   3.283
47630SOL     OW42913   7.886   9.702   3.361
47630SOL    HW142914   7.968   9.646   3.370
47630SOL    HW242915   7.805   9.644   3.365
47631SOL     OW42916   9.051   9.757   2.599
47631SOL    HW142917   8.977   9.803   2.549
47631SOL    HW242918   9.102   9.825   2.652
47632SOL     OW42919   7.679  11.023   2.345
47632SOL    HW142920   7.713  11.100   2.399
47632SOL    HW242921   7.723  11.023   2.255
47633SOL     OW42922   8.575  10.651   3.552
47633SOL    HW142923   8.622  10.651   3.640
47633SOL    HW242924   8.527  10.564   3.541
47634SOL     OW42925   7.678  10.744   2.400
47634SOL    HW142926   7.652  10.840   2.400
47634SOL    HW242927   7.607  10.690   2.445
47635SOL     OW42928   7.688  10.401   2.748
47635SOL    HW142929   7.702  10.317   2.800
47635SOL    HW242930   7.633  10.465   2.803
47636SOL     OW42931   8.068  11.096   3.301
47636SOL    HW142932   7.976  11.079   3.336
47636SOL    HW242933   8.096  11.188   3.327
47637SOL     OW42934   8.054  10.274   1.985
47637SOL    HW142935   8.061  10.358   1.931
47637SOL    HW242936   8.100  10.287   2.073
47638SOL     OW42937   9.042   9.424   3.342
47638SOL    HW142938   9.024   9.491   3.270
47638SOL    HW242939   9.039   9.470   3.431
47639SOL     OW42940   7.570   9.953   2.425
47639SOL    HW142941   7.525   9.865   2.442
47639SOL    HW242942   7.569  10.007   2.509
47640SOL     OW42943   9.290  11.077   2.221
47640SOL    HW142944   9.344  11.048   2.301
47640SOL    HW242945   9.320  11.167   2.192
47641SOL     OW42946   7.475  10.906   1.979
47641SOL    HW142947   7.456  10.810   2.000
47641SOL    HW242948   7.442  10.964   2.054
47642SOL     OW42949   9.137  10.232   2.474
47642SOL    HW142950   9.232  10.203   2.482
47642SOL    HW242951   9.129  10.297   2.399
47643SOL     OW42952   9.089  10.418   2.294
47643SOL    HW142953   9.175  10.420   2.242
47643SOL    HW242954   9.103  10.465   2.382
47644SOL     OW42955   7.561  10.047   3.459
47644SOL    HW142956   7.649  10.034   3.504
47644SOL    HW242957   7.548  10.144   3.437
47645SOL     OW42958   8.061  10.675   2.588
47645SOL    HW142959   8.012  10.588   2.597
47645SOL    HW242960   8.038  10.718   2.501
47646SOL     OW42961   8.741  10.538   3.285
47646SOL    HW142962   8.778  10.465   3.227
47646SOL    HW242963   8.793  10.543   3.370
47647SOL     OW42964   8.257   9.314   2.364
47647SOL    HW142965   8.297   9.405   2.355
47647SOL    HW242966   8.157   9.322   2.370
47648SOL     OW42967   7.645  10.286   3.126
47648SOL    HW142968   7.734  10.241   3.112
47648SOL    HW242969   7.572  10.221   3.107
47649SOL     OW42970   8.973  10.309   2.052
47649SOL    HW142971   8.910  10.233   2.065
47649SOL    HW242972   9.021  10.327   2.138
47650SOL     OW42973   8.635  11.102   3.478
47650SOL    HW142974   8.659  11.162   3.402
47650SOL    HW242975   8.642  11.007   3.448
47651SOL     OW42976   7.765   9.561   3.663
47651SOL    HW142977   7.836   9.632   3.669
47651SOL    HW242978   7.677   9.600   3.691
47652SOL     OW42979   8.914  10.727   2.815
47652SOL    HW142980   8.855  10.733   2.895
47652SOL    HW242981   8.899  10.639   2.769
47653SOL     OW42982   9.115  11.024   2.434
47653SOL    HW142983   9.074  11.001   2.346
47653SOL    HW242984   9.097  10.950   2.499
47654SOL     OW42985   8.046  10.039   2.132
47654SOL    HW142986   8.070  10.108   2.064
47654SOL    HW242987   7.968  10.072   2.186
47655SOL     OW42988   8.729   9.655   2.806
47655SOL    HW142989   8.643   9.605   2.793
47655SOL    HW242990   8.791   9.601   2.862
47656SOL     OW42991   9.024  10.972   2.169
47656SOL    HW142992   9.113  11.018   2.172
47656SOL    HW242993   9.003  10.948   2.074
47657SOL     OW42994   8.255   9.915   3.327
47657SOL    HW142995   8.208   9.912   3.416
47657SOL    HW242996   8.204   9.860   3.261
47658SOL     OW42997   8.842   9.779   3.536
47658SOL    HW142998   8.822   9.822   3.624
47658SOL    HW242999   8.920   9.717   3.545
47659SOL     OW43000   8.421  10.200   3.434
47659SOL    HW143001   8.467  10.116   3.405
47659SOL    HW243002   8.365  10.234   3.359
47660SOL     OW43003   8.439   9.720   3.104
47660SOL    HW143004   8.362   9.754   3.158
47660SOL    HW243005   8.405   9.669   3.025
47661SOL     OW43006   8.489  10.011   2.291
47661SOL    HW143007   8.515  10.007   2.387
47661SOL    HW243008   8.404   9.960   2.277
47662SOL     OW43009   7.524  10.121   2.651
47662SOL    HW143010   7.623  10.109   2.660
47662SOL    HW243011   7.500  10.216   2.672
47663SOL     OW43012   7.578  11.131   3.433
47663SOL    HW143013   7.568  11.116   3.532
47663SOL    HW243014   7.492  11.167   3.397
47664SOL     OW43015   8.313   9.658   2.057
47664SOL    HW143016   8.372   9.721   2.008
47664SOL    HW243017   8.332   9.564   2.028
47665SOL     OW43018   9.167   9.895   3.693
47665SOL    HW143019   9.141   9.984   3.657
47665SOL    HW243020   9.165   9.827   3.620
47666SOL     OW43021   8.810  10.454   2.407
47666SOL    HW143022   8.893  10.425   2.359
47666SOL    HW243023   8.761  10.521   2.351
47667SOL     OW43024   7.998   9.506   2.747
47667SOL    HW143025   7.993   9.501   2.847
47667SOL    HW243026   8.000   9.602   2.718
47668SOL     OW43027   8.456  10.766   2.339
47668SOL    HW143028   8.410  10.838   2.287
47668SOL    HW243029   8.452  10.786   2.437
47669SOL     OW43030   7.799  11.111   2.715
47669SOL    HW143031   7.849  11.025   2.721
47669SOL    HW243032   7.864  11.188   2.712
47670SOL     OW43033   9.243  10.376   2.735
47670SOL    HW143034   9.181  10.361   2.659
47670SOL    HW243035   9.191  10.387   2.820
47671SOL     OW43036   8.675  10.860   3.368
47671SOL    HW143037   8.681  10.783   3.432
47671SOL    HW243038   8.623  10.834   3.288
47672SOL     OW43039   7.769  10.253   2.104
47672SOL    HW143040   7.851  10.292   2.062
47672SOL    HW243041   7.742  10.171   2.055
47673SOL     OW43042   8.906  10.045   2.590
47673SOL    HW143043   8.901   9.980   2.665
47673SOL    HW243044   8.986  10.104   2.603
47674SOL     OW43045   7.909  10.576   3.589
47674SOL    HW143046   7.859  10.577   3.503
47674SOL    HW243047   7.846  10.558   3.665
47675SOL     OW43048   8.559  11.086   2.099
47675SOL    HW143049   8.499  11.024   2.149
47675SOL    HW243050   8.590  11.042   2.014
47676SOL     OW43051   7.650   9.595   3.360
47676SOL    HW143052   7.570   9.655   3.347
47676SOL    HW243053   7.640   9.546   3.446
47677SOL     OW43054   9.080  10.687   1.943
47677SOL    HW143055   9.048  10.781   1.933
47677SOL    HW243056   9.004  10.624   1.931
47678SOL     OW43057   7.912  11.053   2.185
47678SOL    HW143058   7.945  11.092   2.271
47678SOL    HW243059   7.988  11.046   2.120
47679SOL     OW43060   8.848   9.417   2.288
47679SOL    HW143061   8.824   9.380   2.198
47679SOL    HW243062   8.947   9.433   2.292
47680SOL     OW43063   7.697  11.095   3.103
47680SOL    HW143064   7.754  11.030   3.153
47680SOL    HW243065   7.681  11.062   3.010
47681SOL     OW43066   8.388  11.008   2.766
47681SOL    HW143067   8.468  10.951   2.787
47681SOL    HW243068   8.339  10.968   2.689
47682SOL     OW43069   7.830  10.010   2.342
47682SOL    HW143070   7.875   9.920   2.339
47682SOL    HW243071   7.736   9.999   2.375
47683SOL     OW43072   8.995   9.532   3.591
47683SOL    HW143073   8.990   9.569   3.683
47683SOL    HW243074   8.923   9.463   3.579
47684SOL     OW43075   8.062   9.432   1.979
47684SOL    HW143076   8.160   9.410   1.986
47684SOL    HW243077   8.031   9.415   1.886
47685SOL     OW43078   8.229   9.574   3.611
47685SOL    HW143079   8.296   9.513   3.654
47685SOL    HW243080   8.156   9.593   3.676
47686SOL     OW43081   8.336  10.824   3.057
47686SOL    HW143082   8.313  10.799   2.963
47686SOL    HW243083   8.397  10.755   3.096
47687SOL     OW43084   8.799   9.900   3.295
47687SOL    HW143085   8.827   9.857   3.380
47687SOL    HW243086   8.824   9.996   3.296
47688SOL     OW43087   8.251  10.712   2.786
47688SOL    HW143088   8.341  10.726   2.744
47688SOL    HW243089   8.180  10.714   2.715
47689SOL     OW43090   8.370   9.813   2.761
47689SOL    HW143091   8.345   9.804   2.665
47689SOL    HW243092   8.418   9.731   2.792
47690SOL     OW43093   7.987   9.374   2.374
47690SOL    HW143094   7.906   9.375   2.432
47690SOL    HW243095   7.990   9.457   2.319
47691SOL     OW43096   8.882  10.498   1.903
47691SOL    HW143097   8.914  10.422   1.960
47691SOL    HW243098   8.790  10.525   1.933
47692SOL     OW43099   7.745   9.345   2.033
47692SOL    HW143100   7.794   9.429   2.012
47692SOL    HW243101   7.807   9.280   2.078
47693SOL     OW43102   8.383   9.546   2.342
47693SOL    HW143103   8.335   9.587   2.264
47693SOL    HW243104   8.482   9.544   2.323
47694SOL     OW43105   8.524   9.993   3.326
47694SOL    HW143106   8.444   9.932   3.329
47694SOL    HW243107   8.605   9.940   3.302
47695SOL     OW43108   8.675  10.880   2.655
47695SOL    HW143109   8.696  10.954   2.590
47695SOL    HW243110   8.743  10.880   2.728
47696SOL     OW43111   7.907  10.462   2.603
47696SOL    HW143112   7.836  10.435   2.668
47696SOL    HW243113   7.881  10.434   2.510
47697SOL     OW43114   8.719  11.107   2.453
47697SOL    HW143115   8.763  11.171   2.389
47697SOL    HW243116   8.669  11.159   2.523
47698SOL     OW43117   8.480   9.859   1.878
47698SOL    HW143118   8.439   9.941   1.839
47698SOL    HW243119   8.544   9.885   1.951
47699SOL     OW43120   7.526   9.866   3.248
47699SOL    HW143121   7.618   9.865   3.207
47699SOL    HW243122   7.520   9.940   3.315
47700SOL     OW43123   8.009   9.532   3.009
47700SOL    HW143124   8.047   9.448   3.046
47700SOL    HW243125   7.921   9.551   3.053
47701SOL     OW43126   8.314   9.764   2.504
47701SOL    HW143127   8.282   9.836   2.442
47701SOL    HW243128   8.338   9.683   2.451
47702SOL     OW43129   8.465   9.349   2.615
47702SOL    HW143130   8.393   9.354   2.546
47702SOL    HW243131   8.441   9.280   2.684
47703SOL     OW43132   8.877  10.483   2.729
47703SOL    HW143133   8.822  10.399   2.722
47703SOL    HW243134   8.903  10.512   2.637
47704SOL     OW43135   8.914   9.900   2.854
47704SOL    HW143136   8.884   9.805   2.861
47704SOL    HW243137   8.987   9.916   2.920
47705SOL     OW43138   9.305  10.143   2.239
47705SOL    HW143139   9.347  10.079   2.303
47705SOL    HW243140   9.267  10.092   2.161
47706SOL     OW43141   7.936  10.695   2.036
47706SOL    HW143142   7.849  10.680   2.083
47706SOL    HW243143   7.919  10.721   1.941
47707SOL     OW43144   9.112  10.590   2.519
47707SOL    HW143145   9.211  10.598   2.533
47707SOL    HW243146   9.067  10.674   2.550
47708SOL     OW43147   8.838   9.885   1.940
47708SOL    HW143148   8.784   9.864   2.021
47708SOL    HW243149   8.929   9.844   1.949
47709SOL     OW43150   7.975   9.566   2.190
47709SOL    HW143151   8.002   9.507   2.115
47709SOL    HW243152   7.975   9.661   2.159
47710SOL     OW43153   9.202  10.533   3.450
47710SOL    HW143154   9.293  10.494   3.437
47710SOL    HW243155   9.210  10.629   3.474
47711SOL     OW43156   8.512  10.657   3.202
47711SOL    HW143157   8.432  10.634   3.257
47711SOL    HW243158   8.595  10.631   3.251
47712SOL     OW43159   9.040  10.939   3.487
47712SOL    HW143160   9.067  10.973   3.397
47712SOL    HW243161   9.119  10.901   3.533
47713SOL     OW43162   8.559  10.505   2.962
47713SOL    HW143163   8.519  10.549   3.043
47713SOL    HW243164   8.518  10.542   2.879
47714SOL     OW43165   9.086  10.409   2.941
47714SOL    HW143166   9.091  10.490   3.000
47714SOL    HW243167   9.000  10.411   2.890
47715SOL     OW43168   8.363   9.399   3.264
47715SOL    HW143169   8.388   9.379   3.169
47715SOL    HW243170   8.435   9.455   3.306
47716SOL     OW43171   8.428  10.426   3.581
47716SOL    HW143172   8.329  10.432   3.591
47716SOL    HW243173   8.451  10.346   3.525
47717SOL     OW43174   8.153  10.360   2.230
47717SOL    HW143175   8.139  10.367   2.329
47717SOL    HW243176   8.237  10.309   2.212
47718SOL     OW43177   7.858  10.123   3.113
47718SOL    HW143178   7.944  10.135   3.163
47718SOL    HW243179   7.816  10.036   3.140
47719SOL     OW43180   8.722   9.696   3.124
47719SOL    HW143181   8.743   9.770   3.188
47719SOL    HW243182   8.633   9.713   3.081
47720SOL     OW43183   7.512  10.874   3.193
47720SOL    HW143184   7.466  10.956   3.159
47720SOL    HW243185   7.610  10.893   3.202
47721SOL     OW43186   7.815  10.410   2.363
47721SOL    HW143187   7.808  10.493   2.307
47721SOL    HW243188   7.819  10.330   2.303
47722SOL     OW43189   8.014   9.847   2.727
47722SOL    HW143190   8.026   9.913   2.653
47722SOL    HW243191   8.060   9.881   2.810
47723SOL     OW43192   8.700  10.658   2.250
47723SOL    HW143193   8.750  10.735   2.290
47723SOL    HW243194   8.605  10.660   2.282
47724SOL     OW43195   8.720  10.755   3.004
47724SOL    HW143196   8.767  10.768   3.091
47724SOL    HW243197   8.654  10.681   3.013
47725SOL     OW43198   9.030   9.949   2.334
47725SOL    HW143199   8.999  10.010   2.407
47725SOL    HW243200   9.080  10.001   2.265
47726SOL     OW43201   7.802  10.820   3.191
47726SOL    HW143202   7.781  10.776   3.104
47726SOL    HW243203   7.899  10.846   3.194
47727SOL     OW43204   7.850  10.061   3.460
47727SOL    HW143205   7.918  10.116   3.413
47727SOL    HW243206   7.890   9.973   3.487
47728SOL     OW43207   9.035  10.089   3.532
47728SOL    HW143208   8.943  10.127   3.527
47728SOL    HW243209   9.095  10.136   3.467
47729SOL     OW43210   8.461   9.415   3.632
47729SOL    HW143211   8.467   9.500   3.580
47729SOL    HW243212   8.493   9.339   3.575
47730SOL     OW43213   7.952   9.360   3.602
47730SOL    HW143214   7.910   9.303   3.532
47730SOL    HW243215   7.886   9.429   3.634
47731SOL     OW43216   8.021  10.180   2.891
47731SOL    HW143217   8.065  10.269   2.882
47731SOL    HW243218   7.958  10.180   2.968
47732SOL     OW43219   8.808  10.172   2.907
47732SOL    HW143220   8.733  10.172   2.841
47732SOL    HW243221   8.845  10.080   2.916
47733SOL     OW43222   8.657   9.835   2.137
47733SOL    HW143223   8.670   9.751   2.191
47733SOL    HW243224   8.628   9.909   2.197
47734SOL     OW43225   7.755   9.523   3.093
47734SOL    HW143226   7.732   9.560   3.183
47734SOL    HW243227   7.725   9.428   3.087
47735SOL     OW43228   7.485  10.620   3.144
47735SOL    HW143229   7.538  10.571   3.212
47735SOL    HW243230   7.507  10.718   3.149
47736SOL     OW43231   8.180   9.944   2.926
47736SOL    HW143232   8.239   9.918   2.850
47736SOL    HW243233   8.152  10.040   2.915
47737SOL     OW43234   9.176  10.245   3.716
47737SOL    HW143235   9.130  10.238   3.627
47737SOL    HW243236   9.114  10.289   3.782
47738SOL     OW43237   7.755   9.373   2.480
47738SOL    HW143238   7.744   9.467   2.513
47738SOL    HW243239   7.750   9.310   2.557
47739SOL     OW43240   9.070   9.677   2.236
47739SOL    HW143241   9.072   9.601   2.300
47739SOL    HW243242   9.022   9.754   2.276
47740SOL     OW43243   8.471  10.076   2.828
47740SOL    HW143244   8.486  10.097   2.924
47740SOL    HW243245   8.441   9.981   2.819
47741SOL     OW43246   8.428  10.883   3.562
47741SOL    HW143247   8.408  10.927   3.474
47741SOL    HW243248   8.467  10.792   3.546
47742SOL     OW43249   9.307  10.828   3.467
47742SOL    HW143250   9.321  10.855   3.372
47742SOL    HW243251   9.390  10.850   3.520
47743SOL     OW43252   7.798  10.208   3.666
47743SOL    HW143253   7.874  10.252   3.714
47743SOL    HW243254   7.833  10.161   3.584
47744SOL     OW43255   8.988   9.584   1.987
47744SOL    HW143256   8.927   9.509   2.010
47744SOL    HW243257   9.010   9.636   2.070
47745SOL     OW43258   8.751  10.148   1.904
47745SOL    HW143259   8.785  10.055   1.919
47745SOL    HW243260   8.769  10.175   1.809
47746SOL     OW43261   8.516  10.643   2.711
47746SOL    HW143262   8.523  10.559   2.656
47746SOL    HW243263   8.578  10.712   2.675
47747SOL     OW43264   7.767  10.120   2.811
47747SOL    HW143265   7.860  10.156   2.816
47747SOL    HW243266   7.761  10.035   2.863
47748SOL     OW43267   7.787   9.819   2.868
47748SOL    HW143268   7.735   9.736   2.851
47748SOL    HW243269   7.864   9.824   2.804
47749SOL     OW43270   8.586   9.690   3.540
47749SOL    HW143271   8.541   9.753   3.604
47749SOL    HW243272   8.679   9.721   3.523
47750SOL     OW43273   8.608   9.517   3.339
47750SOL    HW143274   8.608   9.581   3.416
47750SOL    HW243275   8.636   9.565   3.256
47751SOL     OW43276   7.456  10.636   2.062
47751SOL    HW143277   7.363  10.657   2.031
47751SOL    HW243278   7.466  10.537   2.075
47752SOL     OW43279   7.536  11.111   2.789
47752SOL    HW143280   7.494  11.025   2.762
47752SOL    HW243281   7.630  11.114   2.755
47753SOL     OW43282   7.952  10.878   2.772
47753SOL    HW143283   8.018  10.952   2.781
47753SOL    HW243284   7.996  10.799   2.730
47754SOL     OW43285   8.450  10.106   3.100
47754SOL    HW143286   8.491  10.074   3.186
47754SOL    HW243287   8.354  10.079   3.097
47755SOL     OW43288   7.488   9.854   2.976
47755SOL    HW143289   7.573   9.821   2.935
47755SOL    HW243290   7.501   9.869   3.074
47756SOL     OW43291   7.637   9.830   3.584
47756SOL    HW143292   7.696   9.790   3.514
47756SOL    HW243293   7.579   9.901   3.543
47757SOL     OW43294   8.817  10.260   3.522
47757SOL    HW143295   8.856  10.349   3.542
47757SOL    HW243296   8.827  10.240   3.425
47758SOL     OW43297   8.263   9.882   2.187
47758SOL    HW143298   8.270   9.793   2.141
47758SOL    HW243299   8.169   9.916   2.179
47759SOL     OW43300   9.105   9.914   3.068
47759SOL    HW143301   9.067   9.845   3.130
47759SOL    HW243302   9.187   9.878   3.024
47760SOL     OW43303   7.700  10.874   3.606
47760SOL    HW143304   7.670  10.931   3.682
47760SOL    HW243305   7.693  10.777   3.632
47761SOL     OW43306   8.119   9.774   3.131
47761SOL    HW143307   8.085   9.685   3.101
47761SOL    HW243308   8.145   9.828   3.051
47762SOL     OW43309   8.378  10.988   3.327
47762SOL    HW143310   8.354  10.970   3.232
47762SOL    HW243311   8.408  11.082   3.337
47763SOL     OW43312   7.921   9.810   2.053
47763SOL    HW143313   7.982   9.890   2.057
47763SOL    HW243314   7.826   9.841   2.060
47764SOL     OW43315   7.607  10.447   3.328
47764SOL    HW143316   7.629  10.386   3.404
47764SOL    HW243317   7.617  10.398   3.242
47765SOL     OW43318   8.795  10.369   3.096
47765SOL    HW143319   8.819  10.306   3.022
47765SOL    HW243320   8.705  10.409   3.078
47766SOL     OW43321   8.750  10.165   2.171
47766SOL    HW143322   8.664  10.134   2.213
47766SOL    HW243323   8.746  10.151   2.072
47767SOL     OW43324   9.207  11.057   3.016
47767SOL    HW143325   9.268  11.087   2.943
47767SOL    HW243326   9.169  10.968   2.994
47768SOL     OW43327   8.700  11.041   2.990
47768SOL    HW143328   8.784  11.046   2.936
47768SOL    HW243329   8.677  10.945   3.008
47769SOL     OW43330   7.531  10.568   2.884
47769SOL    HW143331   7.526  10.567   2.984
47769SOL    HW243332   7.448  10.527   2.846
47770SOL     OW43333   8.136  10.972   3.578
47770SOL    HW143334   8.080  11.053   3.587
47770SOL    HW243335   8.188  10.976   3.492
47771SOL     OW43336   9.174   9.445   2.385
47771SOL    HW143337   9.247   9.428   2.318
47771SOL    HW243338   9.143   9.358   2.423
47772SOL     OW43339   8.836  10.883   2.339
47772SOL    HW143340   8.903  10.895   2.265
47772SOL    HW243341   8.796  10.972   2.362
47773SOL     OW43342   7.578  11.104   3.713
47773SOL    HW143343   7.537  11.030   3.766
47773SOL    HW243344   7.642  11.155   3.771
47774SOL     OW43345   8.728  10.237   2.534
47774SOL    HW143346   8.788  10.156   2.536
47774SOL    HW243347   8.768  10.306   2.474
47775SOL     OW43348   8.278  10.583   3.284
47775SOL    HW143349   8.273  10.616   3.379
47775SOL    HW243350   8.192  10.602   3.238
47776SOL     OW43351   8.120  10.926   2.016
47776SOL    HW143352   8.129  10.936   1.917
47776SOL    HW243353   8.080  10.837   2.037
47777SOL     OW43354   9.098  11.030   3.256
47777SOL    HW143355   9.151  11.040   3.172
47777SOL    HW243356   9.071  11.120   3.290
47778SOL     OW43357   9.289   9.485   2.825
47778SOL    HW143358   9.328   9.400   2.789
47778SOL    HW243359   9.191   9.487   2.806
47779SOL     OW43360   7.711   9.636   2.582
47779SOL    HW143361   7.632   9.687   2.548
47779SOL    HW243362   7.702   9.621   2.680
47780SOL     OW43363   8.642  10.922   1.893
47780SOL    HW143364   8.648  10.829   1.930
47780SOL    HW243365   8.583  10.922   1.813
47781SOL     OW43366   8.270  10.312   3.234
47781SOL    HW143367   8.310  10.311   3.142
47781SOL    HW243368   8.280  10.404   3.274
47782SOL     OW43369   8.364  10.220   2.153
47782SOL    HW143370   8.427  10.258   2.085
47782SOL    HW243371   8.404  10.137   2.192
47783SOL     OW43372   8.952  10.917   1.906
47783SOL    HW143373   8.860  10.954   1.913
47783SOL    HW243374   8.990  10.937   1.816
47784SOL     OW43375   7.820  10.598   3.352
47784SOL    HW143376   7.807  10.691   3.318
47784SOL    HW243377   7.736  10.546   3.339
47785SOL     OW43378   9.062  10.602   3.151
47785SOL    HW143379   9.122  10.605   3.231
47785SOL    HW243380   8.987  10.666   3.164
47786SOL     OW43381   8.487  10.408   2.558
47786SOL    HW143382   8.417  10.361   2.612
47786SOL    HW243383   8.546  10.340   2.515
47787SOL     OW43384   8.462   9.546   2.833
47787SOL    HW143385   8.454   9.510   2.740
47787SOL    HW243386   8.460   9.470   2.898
47788SOL     OW43387   8.038  10.797   2.353
47788SOL    HW143388   8.080  10.739   2.283
47788SOL    HW243389   7.994  10.876   2.309
47789SOL     OW43390   9.157   9.695   3.243
47789SOL    HW143391   9.230   9.764   3.247
47789SOL    HW243392   9.185   9.620   3.184
47790SOL     OW43393   7.703  10.658   2.152
47790SOL    HW143394   7.607  10.659   2.125
47790SOL    HW243395   7.715  10.711   2.236
47791SOL     OW43396   7.553  10.323   3.588
47791SOL    HW143397   7.476  10.290   3.642
47791SOL    HW243398   7.638  10.293   3.630
47792SOL     OW43399   8.120   9.513   3.351
47792SOL    HW143400   8.210   9.497   3.311
47792SOL    HW243401   8.128   9.518   3.450
47793SOL     OW43402   7.523   9.655   1.895
47793SOL    HW143403   7.431   9.627   1.866
47793SOL    HW243404   7.554   9.732   1.839
47794SOL     OW43405   8.888  10.166   3.260
47794SOL    HW143406   8.831  10.218   3.197
47794SOL    HW243407   8.984  10.178   3.236
47795SOL     OW43408   7.520   9.476   2.180
47795SOL    HW143409   7.503   9.559   2.126
47795SOL    HW243410   7.610   9.439   2.158
47796SOL     OW43411   8.631  10.645   1.981
47796SOL    HW143412   8.532  10.634   1.983
47796SOL    HW243413   8.665  10.660   2.074
47797SOL     OW43414   8.061  10.152   3.293
47797SOL    HW143415   8.117  10.233   3.276
47797SOL    HW243416   8.120  10.072   3.296
47798SOL     OW43417   8.941  11.077   2.821
47798SOL    HW143418   8.974  11.141   2.752
47798SOL    HW243419   9.007  11.071   2.896
47799SOL     OW43420   8.164   9.875   3.570
47799SOL    HW143421   8.183   9.940   3.644
47799SOL    HW243422   8.224   9.795   3.579
47800SOL     OW43423   8.898  10.530   3.495
47800SOL    HW143424   8.889  10.520   3.594
47800SOL    HW243425   8.994  10.523   3.469
47801SOL     OW43426   7.838  11.051   3.422
47801SOL    HW143427   7.747  11.092   3.420
47801SOL    HW243428   7.831  10.957   3.454
47802SOL     OW43429   9.122  10.193   3.116
47802SOL    HW143430   9.095  10.104   3.079
47802SOL    HW243431   9.123  10.261   3.043
47803SOL     OW43432   8.673   9.635   2.311
47803SOL    HW143433   8.738   9.561   2.300
47803SOL    HW243434   8.693   9.685   2.395
47804SOL     OW43435   8.042  10.055   2.514
47804SOL    HW143436   8.092  10.140   2.495
47804SOL    HW243437   7.954  10.057   2.466
47805SOL     OW43438   9.225   9.652   3.504
47805SOL    HW143439   9.208   9.683   3.410
47805SOL    HW243440   9.141   9.615   3.542
47806SOL     OW43441   9.178  10.244   3.379
47806SOL    HW143442   9.216  10.335   3.394
47806SOL    HW243443   9.170  10.227   3.280
47807SOL     OW43444   8.307  10.684   1.878
47807SOL    HW143445   8.261  10.699   1.966
47807SOL    HW243446   8.351  10.769   1.848
47808SOL     OW43447   8.109  11.100   2.815
47808SOL    HW143448   8.063  11.188   2.802
47808SOL    HW243449   8.208  11.112   2.808
47809SOL     OW43450   8.307  10.266   2.723
47809SOL    HW143451   8.361  10.197   2.771
47809SOL    HW243452   8.275  10.335   2.789
47810SOL     OW43453   8.531  10.294   1.949
47810SOL    HW143454   8.508  10.347   1.867
47810SOL    HW243455   8.612  10.238   1.930
47811SOL     OW43456   9.309  10.879   2.713
47811SOL    HW143457   9.238  10.867   2.643
47811SOL    HW243458   9.310  10.800   2.773
47812SOL     OW43459   7.669  10.624   3.706
47812SOL    HW143460   7.604  10.551   3.685
47812SOL    HW243461   7.673  10.638   3.804
47813SOL     OW43462   7.527  10.550   2.515
47813SOL    HW143463   7.526  10.503   2.603
47813SOL    HW243464   7.609  10.522   2.464
47814SOL     OW43465   8.120  10.701   3.486
47814SOL    HW143466   8.042  10.651   3.524
47814SOL    HW243467   8.117  10.796   3.517
47815SOL     OW43468   9.272   9.502   3.089
47815SOL    HW143469   9.268   9.412   3.133
47815SOL    HW243470   9.275   9.491   2.990
47816SOL     OW43471   7.876   9.734   2.382
47816SOL    HW143472   7.906   9.662   2.320
47816SOL    HW243473   7.837   9.694   2.465
47817SOL     OW43474   9.153  10.797   2.966
47817SOL    HW143475   9.060  10.772   2.939
47817SOL    HW243476   9.179  10.747   3.048
47818SOL     OW43477   7.765   9.857   3.142
47818SOL    HW143478   7.803   9.798   3.214
47818SOL    HW243479   7.805   9.831   3.054
47819SOL     OW43480   8.260  10.896   2.549
47819SOL    HW143481   8.292  10.906   2.455
47819SOL    HW243482   8.181  10.834   2.551
47820SOL     OW43483   8.872   9.524   2.974
47820SOL    HW143484   8.924   9.459   3.029
47820SOL    HW243485   8.823   9.587   3.035
47821SOL     OW43486   8.449   9.344   3.016
47821SOL    HW143487   8.386   9.272   2.985
47821SOL    HW243488   8.542   9.308   3.016
47822SOL     OW43489   8.218  10.640   2.163
47822SOL    HW143490   8.172  10.553   2.180
47822SOL    HW243491   8.309  10.637   2.204
47823SOL     OW43492   8.066  10.877   3.146
47823SOL    HW143493   8.061  10.959   3.203
47823SOL    HW243494   8.155  10.874   3.101
47824SOL     OW43495   8.800   9.362   2.030
47824SOL    HW143496   8.835   9.321   1.946
47824SOL    HW243497   8.710   9.324   2.050
47825SOL     OW43498   8.748   9.763   2.553
47825SOL    HW143499   8.689   9.843   2.557
47825SOL    HW243500   8.763   9.728   2.646
47826SOL     OW43501   9.041   9.531   2.744
47826SOL    HW143502   8.957   9.530   2.798
47826SOL    HW243503   9.043   9.614   2.688
47827SOL     OW43504   7.487  10.387   2.162
47827SOL    HW143505   7.586  10.376   2.153
47827SOL    HW243506   7.447  10.301   2.194
47828SOL     OW43507   8.323  10.956   2.199
47828SOL    HW143508   8.246  10.921   2.145
47828SOL    HW243509   8.291  11.027   2.261
47829SOL     OW43510   7.678   9.938   3.837
47829SOL    HW143511   7.585   9.936   3.874
47829SOL    HW243512   7.679   9.899   3.745
47830SOL     OW43513   7.673   9.585   4.720
47830SOL    HW143514   7.708   9.568   4.812
47830SOL    HW243515   7.585   9.540   4.708
47831SOL     OW43516   7.467   9.678   4.371
47831SOL    HW143517   7.385   9.721   4.410
47831SOL    HW243518   7.439   9.605   4.308
47832SOL     OW43519   8.017  10.585   4.889
47832SOL    HW143520   7.924  10.578   4.852
47832SOL    HW243521   8.028  10.674   4.933
47833SOL     OW43522   9.003  10.821   4.427
47833SOL    HW143523   8.946  10.805   4.508
47833SOL    HW243524   8.944  10.831   4.347
47834SOL     OW43525   8.583  10.013   4.441
47834SOL    HW143526   8.640  10.091   4.416
47834SOL    HW243527   8.523  10.039   4.517
47835SOL     OW43528   9.203   9.917   3.955
47835SOL    HW143529   9.191   9.904   3.856
47835SOL    HW243530   9.173   9.836   4.004
47836SOL     OW43531   8.216  10.454   4.747
47836SOL    HW143532   8.138  10.471   4.807
47836SOL    HW243533   8.250  10.541   4.711
47837SOL     OW43534   8.298  10.108   5.547
47837SOL    HW143535   8.294  10.184   5.612
47837SOL    HW243536   8.320  10.144   5.456
47838SOL     OW43537   8.133  10.322   4.389
47838SOL    HW143538   8.202  10.306   4.459
47838SOL    HW243539   8.060  10.379   4.427
47839SOL     OW43540   8.134  10.471   5.527
47839SOL    HW143541   8.194  10.550   5.541
47839SOL    HW243542   8.048  10.502   5.486
47840SOL     OW43543   7.783  10.745   4.785
47840SOL    HW143544   7.705  10.714   4.732
47840SOL    HW243545   7.841  10.803   4.728
47841SOL     OW43546   8.908  10.815   5.063
47841SOL    HW143547   8.932  10.909   5.089
47841SOL    HW243548   8.892  10.761   5.145
47842SOL     OW43549   7.886   9.702   5.223
47842SOL    HW143550   7.968   9.646   5.232
47842SOL    HW243551   7.805   9.644   5.227
47843SOL     OW43552   9.051   9.757   4.461
47843SOL    HW143553   8.977   9.803   4.411
47843SOL    HW243554   9.102   9.825   4.514
47844SOL     OW43555   7.679  11.023   4.207
47844SOL    HW143556   7.713  11.100   4.261
47844SOL    HW243557   7.723  11.023   4.117
47845SOL     OW43558   8.575  10.651   5.414
47845SOL    HW143559   8.622  10.651   5.502
47845SOL    HW243560   8.527  10.564   5.403
47846SOL     OW43561   7.678  10.744   4.262
47846SOL    HW143562   7.652  10.840   4.262
47846SOL    HW243563   7.607  10.690   4.307
47847SOL     OW43564   7.688  10.401   4.610
47847SOL    HW143565   7.702  10.317   4.662
47847SOL    HW243566   7.633  10.465   4.665
47848SOL     OW43567   8.068  11.096   5.163
47848SOL    HW143568   7.976  11.079   5.198
47848SOL    HW243569   8.096  11.188   5.189
47849SOL     OW43570   8.054  10.274   3.847
47849SOL    HW143571   8.061  10.358   3.793
47849SOL    HW243572   8.100  10.287   3.935
47850SOL     OW43573   9.042   9.424   5.204
47850SOL    HW143574   9.024   9.491   5.132
47850SOL    HW243575   9.039   9.470   5.293
47851SOL     OW43576   7.570   9.953   4.287
47851SOL    HW143577   7.525   9.865   4.304
47851SOL    HW243578   7.569  10.007   4.371
47852SOL     OW43579   9.290  11.077   4.083
47852SOL    HW143580   9.344  11.048   4.163
47852SOL    HW243581   9.320  11.167   4.054
47853SOL     OW43582   7.475  10.906   3.841
47853SOL    HW143583   7.456  10.810   3.862
47853SOL    HW243584   7.442  10.964   3.916
47854SOL     OW43585   9.137  10.232   4.336
47854SOL    HW143586   9.232  10.203   4.344
47854SOL    HW243587   9.129  10.297   4.261
47855SOL     OW43588   9.089  10.418   4.156
47855SOL    HW143589   9.175  10.420   4.104
47855SOL    HW243590   9.103  10.465   4.244
47856SOL     OW43591   7.561  10.047   5.321
47856SOL    HW143592   7.649  10.034   5.366
47856SOL    HW243593   7.548  10.144   5.299
47857SOL     OW43594   8.061  10.675   4.450
47857SOL    HW143595   8.012  10.588   4.459
47857SOL    HW243596   8.038  10.718   4.363
47858SOL     OW43597   8.741  10.538   5.147
47858SOL    HW143598   8.778  10.465   5.089
47858SOL    HW243599   8.793  10.543   5.232
47859SOL     OW43600   8.257   9.314   4.226
47859SOL    HW143601   8.297   9.405   4.217
47859SOL    HW243602   8.157   9.322   4.232
47860SOL     OW43603   7.645  10.286   4.988
47860SOL    HW143604   7.734  10.241   4.974
47860SOL    HW243605   7.572  10.221   4.969
47861SOL     OW43606   8.973  10.309   3.914
47861SOL    HW143607   8.910  10.233   3.927
47861SOL    HW243608   9.021  10.327   4.000
47862SOL     OW43609   8.635  11.102   5.340
47862SOL    HW143610   8.659  11.162   5.264
47862SOL    HW243611   8.642  11.007   5.310
47863SOL     OW43612   7.765   9.561   5.525
47863SOL    HW143613   7.836   9.632   5.531
47863SOL    HW243614   7.677   9.600   5.553
47864SOL     OW43615   8.914  10.727   4.677
47864SOL    HW143616   8.855  10.733   4.757
47864SOL    HW243617   8.899  10.639   4.631
47865SOL     OW43618   9.115  11.024   4.296
47865SOL    HW143619   9.074  11.001   4.208
47865SOL    HW243620   9.097  10.950   4.361
47866SOL     OW43621   8.046  10.039   3.994
47866SOL    HW143622   8.070  10.108   3.926
47866SOL    HW243623   7.968  10.072   4.048
47867SOL     OW43624   8.729   9.655   4.668
47867SOL    HW143625   8.643   9.605   4.655
47867SOL    HW243626   8.791   9.601   4.724
47868SOL     OW43627   9.024  10.972   4.031
47868SOL    HW143628   9.113  11.018   4.034
47868SOL    HW243629   9.003  10.948   3.936
47869SOL     OW43630   8.255   9.915   5.189
47869SOL    HW143631   8.208   9.912   5.278
47869SOL    HW243632   8.204   9.860   5.123
47870SOL     OW43633   8.842   9.779   5.398
47870SOL    HW143634   8.822   9.822   5.486
47870SOL    HW243635   8.920   9.717   5.407
47871SOL     OW43636   8.421  10.200   5.296
47871SOL    HW143637   8.467  10.116   5.267
47871SOL    HW243638   8.365  10.234   5.221
47872SOL     OW43639   8.439   9.720   4.966
47872SOL    HW143640   8.362   9.754   5.020
47872SOL    HW243641   8.405   9.669   4.887
47873SOL     OW43642   8.489  10.011   4.153
47873SOL    HW143643   8.515  10.007   4.249
47873SOL    HW243644   8.404   9.960   4.139
47874SOL     OW43645   7.524  10.121   4.513
47874SOL    HW143646   7.623  10.109   4.522
47874SOL    HW243647   7.500  10.216   4.534
47875SOL     OW43648   7.578  11.131   5.295
47875SOL    HW143649   7.568  11.116   5.394
47875SOL    HW243650   7.492  11.167   5.259
47876SOL     OW43651   8.313   9.658   3.919
47876SOL    HW143652   8.372   9.721   3.870
47876SOL    HW243653   8.332   9.564   3.890
47877SOL     OW43654   9.167   9.895   5.555
47877SOL    HW143655   9.141   9.984   5.519
47877SOL    HW243656   9.165   9.827   5.482
47878SOL     OW43657   8.810  10.454   4.269
47878SOL    HW143658   8.893  10.425   4.221
47878SOL    HW243659   8.761  10.521   4.213
47879SOL     OW43660   7.998   9.506   4.609
47879SOL    HW143661   7.993   9.501   4.709
47879SOL    HW243662   8.000   9.602   4.580
47880SOL     OW43663   8.456  10.766   4.201
47880SOL    HW143664   8.410  10.838   4.149
47880SOL    HW243665   8.452  10.786   4.299
47881SOL     OW43666   7.799  11.111   4.577
47881SOL    HW143667   7.849  11.025   4.583
47881SOL    HW243668   7.864  11.188   4.574
47882SOL     OW43669   9.243  10.376   4.597
47882SOL    HW143670   9.181  10.361   4.521
47882SOL    HW243671   9.191  10.387   4.682
47883SOL     OW43672   8.675  10.860   5.230
47883SOL    HW143673   8.681  10.783   5.294
47883SOL    HW243674   8.623  10.834   5.150
47884SOL     OW43675   7.769  10.253   3.966
47884SOL    HW143676   7.851  10.292   3.924
47884SOL    HW243677   7.742  10.171   3.917
47885SOL     OW43678   8.906  10.045   4.452
47885SOL    HW143679   8.901   9.980   4.527
47885SOL    HW243680   8.986  10.104   4.465
47886SOL     OW43681   7.909  10.576   5.451
47886SOL    HW143682   7.859  10.577   5.365
47886SOL    HW243683   7.846  10.558   5.527
47887SOL     OW43684   8.559  11.086   3.961
47887SOL    HW143685   8.499  11.024   4.011
47887SOL    HW243686   8.590  11.042   3.876
47888SOL     OW43687   7.650   9.595   5.222
47888SOL    HW143688   7.570   9.655   5.209
47888SOL    HW243689   7.640   9.546   5.308
47889SOL     OW43690   9.080  10.687   3.805
47889SOL    HW143691   9.048  10.781   3.795
47889SOL    HW243692   9.004  10.624   3.793
47890SOL     OW43693   7.912  11.053   4.047
47890SOL    HW143694   7.945  11.092   4.133
47890SOL    HW243695   7.988  11.046   3.982
47891SOL     OW43696   8.848   9.417   4.150
47891SOL    HW143697   8.824   9.380   4.060
47891SOL    HW243698   8.947   9.433   4.154
47892SOL     OW43699   7.697  11.095   4.965
47892SOL    HW143700   7.754  11.030   5.015
47892SOL    HW243701   7.681  11.062   4.872
47893SOL     OW43702   8.388  11.008   4.628
47893SOL    HW143703   8.468  10.951   4.649
47893SOL    HW243704   8.339  10.968   4.551
47894SOL     OW43705   7.830  10.010   4.204
47894SOL    HW143706   7.875   9.920   4.201
47894SOL    HW243707   7.736   9.999   4.237
47895SOL     OW43708   8.995   9.532   5.453
47895SOL    HW143709   8.990   9.569   5.545
47895SOL    HW243710   8.923   9.463   5.441
47896SOL     OW43711   8.062   9.432   3.841
47896SOL    HW143712   8.160   9.410   3.848
47896SOL    HW243713   8.031   9.415   3.748
47897SOL     OW43714   8.229   9.574   5.473
47897SOL    HW143715   8.296   9.513   5.516
47897SOL    HW243716   8.156   9.593   5.538
47898SOL     OW43717   8.336  10.824   4.919
47898SOL    HW143718   8.313  10.799   4.825
47898SOL    HW243719   8.397  10.755   4.958
47899SOL     OW43720   8.799   9.900   5.157
47899SOL    HW143721   8.827   9.857   5.242
47899SOL    HW243722   8.824   9.996   5.158
47900SOL     OW43723   8.251  10.712   4.648
47900SOL    HW143724   8.341  10.726   4.606
47900SOL    HW243725   8.180  10.714   4.577
47901SOL     OW43726   8.370   9.813   4.623
47901SOL    HW143727   8.345   9.804   4.527
47901SOL    HW243728   8.418   9.731   4.654
47902SOL     OW43729   7.987   9.374   4.236
47902SOL    HW143730   7.906   9.375   4.294
47902SOL    HW243731   7.990   9.457   4.181
47903SOL     OW43732   8.882  10.498   3.765
47903SOL    HW143733   8.914  10.422   3.822
47903SOL    HW243734   8.790  10.525   3.795
47904SOL     OW43735   7.745   9.345   3.895
47904SOL    HW143736   7.794   9.429   3.874
47904SOL    HW243737   7.807   9.280   3.940
47905SOL     OW43738   8.383   9.546   4.204
47905SOL    HW143739   8.335   9.587   4.126
47905SOL    HW243740   8.482   9.544   4.185
47906SOL     OW43741   8.524   9.993   5.188
47906SOL    HW143742   8.444   9.932   5.191
47906SOL    HW243743   8.605   9.940   5.164
47907SOL     OW43744   8.675  10.880   4.517
47907SOL    HW143745   8.696  10.954   4.452
47907SOL    HW243746   8.743  10.880   4.590
47908SOL     OW43747   7.907  10.462   4.465
47908SOL    HW143748   7.836  10.435   4.530
47908SOL    HW243749   7.881  10.434   4.372
47909SOL     OW43750   8.719  11.107   4.315
47909SOL    HW143751   8.763  11.171   4.251
47909SOL    HW243752   8.669  11.159   4.385
47910SOL     OW43753   8.480   9.859   3.740
47910SOL    HW143754   8.439   9.941   3.701
47910SOL    HW243755   8.544   9.885   3.813
47911SOL     OW43756   7.526   9.866   5.110
47911SOL    HW143757   7.618   9.865   5.069
47911SOL    HW243758   7.520   9.940   5.177
47912SOL     OW43759   8.009   9.532   4.871
47912SOL    HW143760   8.047   9.448   4.908
47912SOL    HW243761   7.921   9.551   4.915
47913SOL     OW43762   8.314   9.764   4.366
47913SOL    HW143763   8.282   9.836   4.304
47913SOL    HW243764   8.338   9.683   4.313
47914SOL     OW43765   8.465   9.349   4.477
47914SOL    HW143766   8.393   9.354   4.408
47914SOL    HW243767   8.441   9.280   4.546
47915SOL     OW43768   8.877  10.483   4.591
47915SOL    HW143769   8.822  10.399   4.584
47915SOL    HW243770   8.903  10.512   4.499
47916SOL     OW43771   8.914   9.900   4.716
47916SOL    HW143772   8.884   9.805   4.723
47916SOL    HW243773   8.987   9.916   4.782
47917SOL     OW43774   9.305  10.143   4.101
47917SOL    HW143775   9.347  10.079   4.165
47917SOL    HW243776   9.267  10.092   4.023
47918SOL     OW43777   7.936  10.695   3.898
47918SOL    HW143778   7.849  10.680   3.945
47918SOL    HW243779   7.919  10.721   3.803
47919SOL     OW43780   9.112  10.590   4.381
47919SOL    HW143781   9.211  10.598   4.395
47919SOL    HW243782   9.067  10.674   4.412
47920SOL     OW43783   8.838   9.885   3.802
47920SOL    HW143784   8.784   9.864   3.883
47920SOL    HW243785   8.929   9.844   3.811
47921SOL     OW43786   7.975   9.566   4.052
47921SOL    HW143787   8.002   9.507   3.977
47921SOL    HW243788   7.975   9.661   4.021
47922SOL     OW43789   9.202  10.533   5.312
47922SOL    HW143790   9.293  10.494   5.299
47922SOL    HW243791   9.210  10.629   5.336
47923SOL     OW43792   8.512  10.657   5.064
47923SOL    HW143793   8.432  10.634   5.119
47923SOL    HW243794   8.595  10.631   5.113
47924SOL     OW43795   9.040  10.939   5.349
47924SOL    HW143796   9.067  10.973   5.259
47924SOL    HW243797   9.119  10.901   5.395
47925SOL     OW43798   8.559  10.505   4.824
47925SOL    HW143799   8.519  10.549   4.905
47925SOL    HW243800   8.518  10.542   4.741
47926SOL     OW43801   9.086  10.409   4.803
47926SOL    HW143802   9.091  10.490   4.862
47926SOL    HW243803   9.000  10.411   4.752
47927SOL     OW43804   8.363   9.399   5.126
47927SOL    HW143805   8.388   9.379   5.031
47927SOL    HW243806   8.435   9.455   5.168
47928SOL     OW43807   8.428  10.426   5.443
47928SOL    HW143808   8.329  10.432   5.453
47928SOL    HW243809   8.451  10.346   5.387
47929SOL     OW43810   8.153  10.360   4.092
47929SOL    HW143811   8.139  10.367   4.191
47929SOL    HW243812   8.237  10.309   4.074
47930SOL     OW43813   7.858  10.123   4.975
47930SOL    HW143814   7.944  10.135   5.025
47930SOL    HW243815   7.816  10.036   5.002
47931SOL     OW43816   8.722   9.696   4.986
47931SOL    HW143817   8.743   9.770   5.050
47931SOL    HW243818   8.633   9.713   4.943
47932SOL     OW43819   7.512  10.874   5.055
47932SOL    HW143820   7.466  10.956   5.021
47932SOL    HW243821   7.610  10.893   5.064
47933SOL     OW43822   7.815  10.410   4.225
47933SOL    HW143823   7.808  10.493   4.169
47933SOL    HW243824   7.819  10.330   4.165
47934SOL     OW43825   8.014   9.847   4.589
47934SOL    HW143826   8.026   9.913   4.515
47934SOL    HW243827   8.060   9.881   4.672
47935SOL     OW43828   8.700  10.658   4.112
47935SOL    HW143829   8.750  10.735   4.152
47935SOL    HW243830   8.605  10.660   4.144
47936SOL     OW43831   8.720  10.755   4.866
47936SOL    HW143832   8.767  10.768   4.953
47936SOL    HW243833   8.654  10.681   4.875
47937SOL     OW43834   9.030   9.949   4.196
47937SOL    HW143835   8.999  10.010   4.269
47937SOL    HW243836   9.080  10.001   4.127
47938SOL     OW43837   7.802  10.820   5.053
47938SOL    HW143838   7.781  10.776   4.966
47938SOL    HW243839   7.899  10.846   5.056
47939SOL     OW43840   7.850  10.061   5.322
47939SOL    HW143841   7.918  10.116   5.275
47939SOL    HW243842   7.890   9.973   5.349
47940SOL     OW43843   9.035  10.089   5.394
47940SOL    HW143844   8.943  10.127   5.389
47940SOL    HW243845   9.095  10.136   5.329
47941SOL     OW43846   8.461   9.415   5.494
47941SOL    HW143847   8.467   9.500   5.442
47941SOL    HW243848   8.493   9.339   5.437
47942SOL     OW43849   7.952   9.360   5.464
47942SOL    HW143850   7.910   9.303   5.394
47942SOL    HW243851   7.886   9.429   5.496
47943SOL     OW43852   8.021  10.180   4.753
47943SOL    HW143853   8.065  10.269   4.744
47943SOL    HW243854   7.958  10.180   4.830
47944SOL     OW43855   8.808  10.172   4.769
47944SOL    HW143856   8.733  10.172   4.703
47944SOL    HW243857   8.845  10.080   4.778
47945SOL     OW43858   8.657   9.835   3.999
47945SOL    HW143859   8.670   9.751   4.053
47945SOL    HW243860   8.628   9.909   4.059
47946SOL     OW43861   7.755   9.523   4.955
47946SOL    HW143862   7.732   9.560   5.045
47946SOL    HW243863   7.725   9.428   4.949
47947SOL     OW43864   7.485  10.620   5.006
47947SOL    HW143865   7.538  10.571   5.074
47947SOL    HW243866   7.507  10.718   5.011
47948SOL     OW43867   8.180   9.944   4.788
47948SOL    HW143868   8.239   9.918   4.712
47948SOL    HW243869   8.152  10.040   4.777
47949SOL     OW43870   9.176  10.245   5.578
47949SOL    HW143871   9.130  10.238   5.489
47949SOL    HW243872   9.114  10.289   5.644
47950SOL     OW43873   7.755   9.373   4.342
47950SOL    HW143874   7.744   9.467   4.375
47950SOL    HW243875   7.750   9.310   4.419
47951SOL     OW43876   9.070   9.677   4.098
47951SOL    HW143877   9.072   9.601   4.162
47951SOL    HW243878   9.022   9.754   4.138
47952SOL     OW43879   8.471  10.076   4.690
47952SOL    HW143880   8.486  10.097   4.786
47952SOL    HW243881   8.441   9.981   4.681
47953SOL     OW43882   8.428  10.883   5.424
47953SOL    HW143883   8.408  10.927   5.336
47953SOL    HW243884   8.467  10.792   5.408
47954SOL     OW43885   9.307  10.828   5.329
47954SOL    HW143886   9.321  10.855   5.234
47954SOL    HW243887   9.390  10.850   5.382
47955SOL     OW43888   7.798  10.208   5.528
47955SOL    HW143889   7.874  10.252   5.576
47955SOL    HW243890   7.833  10.161   5.446
47956SOL     OW43891   8.988   9.584   3.849
47956SOL    HW143892   8.927   9.509   3.872
47956SOL    HW243893   9.010   9.636   3.932
47957SOL     OW43894   8.751  10.148   3.766
47957SOL    HW143895   8.785  10.055   3.781
47957SOL    HW243896   8.769  10.175   3.671
47958SOL     OW43897   8.516  10.643   4.573
47958SOL    HW143898   8.523  10.559   4.518
47958SOL    HW243899   8.578  10.712   4.537
47959SOL     OW43900   7.767  10.120   4.673
47959SOL    HW143901   7.860  10.156   4.678
47959SOL    HW243902   7.761  10.035   4.725
47960SOL     OW43903   7.787   9.819   4.730
47960SOL    HW143904   7.735   9.736   4.713
47960SOL    HW243905   7.864   9.824   4.666
47961SOL     OW43906   8.586   9.690   5.402
47961SOL    HW143907   8.541   9.753   5.466
47961SOL    HW243908   8.679   9.721   5.385
47962SOL     OW43909   8.608   9.517   5.201
47962SOL    HW143910   8.608   9.581   5.278
47962SOL    HW243911   8.636   9.565   5.118
47963SOL     OW43912   7.456  10.636   3.924
47963SOL    HW143913   7.363  10.657   3.893
47963SOL    HW243914   7.466  10.537   3.937
47964SOL     OW43915   7.536  11.111   4.651
47964SOL    HW143916   7.494  11.025   4.624
47964SOL    HW243917   7.630  11.114   4.617
47965SOL     OW43918   7.952  10.878   4.634
47965SOL    HW143919   8.018  10.952   4.643
47965SOL    HW243920   7.996  10.799   4.592
47966SOL     OW43921   8.450  10.106   4.962
47966SOL    HW143922   8.491  10.074   5.048
47966SOL    HW243923   8.354  10.079   4.959
47967SOL     OW43924   7.488   9.854   4.838
47967SOL    HW143925   7.573   9.821   4.797
47967SOL    HW243926   7.501   9.869   4.936
47968SOL     OW43927   7.637   9.830   5.446
47968SOL    HW143928   7.696   9.790   5.376
47968SOL    HW243929   7.579   9.901   5.405
47969SOL     OW43930   8.817  10.260   5.384
47969SOL    HW143931   8.856  10.349   5.404
47969SOL    HW243932   8.827  10.240   5.287
47970SOL     OW43933   8.263   9.882   4.049
47970SOL    HW143934   8.270   9.793   4.003
47970SOL    HW243935   8.169   9.916   4.041
47971SOL     OW43936   9.105   9.914   4.930
47971SOL    HW143937   9.067   9.845   4.992
47971SOL    HW243938   9.187   9.878   4.886
47972SOL     OW43939   7.700  10.874   5.468
47972SOL    HW143940   7.670  10.931   5.544
47972SOL    HW243941   7.693  10.777   5.494
47973SOL     OW43942   8.119   9.774   4.993
47973SOL    HW143943   8.085   9.685   4.963
47973SOL    HW243944   8.145   9.828   4.913
47974SOL     OW43945   8.378  10.988   5.189
47974SOL    HW143946   8.354  10.970   5.094
47974SOL    HW243947   8.408  11.082   5.199
47975SOL     OW43948   7.921   9.810   3.915
47975SOL    HW143949   7.982   9.890   3.919
47975SOL    HW243950   7.826   9.841   3.922
47976SOL     OW43951   7.607  10.447   5.190
47976SOL    HW143952   7.629  10.386   5.266
47976SOL    HW243953   7.617  10.398   5.104
47977SOL     OW43954   8.795  10.369   4.958
47977SOL    HW143955   8.819  10.306   4.884
47977SOL    HW243956   8.705  10.409   4.940
47978SOL     OW43957   8.750  10.165   4.033
47978SOL    HW143958   8.664  10.134   4.075
47978SOL    HW243959   8.746  10.151   3.934
47979SOL     OW43960   9.207  11.057   4.878
47979SOL    HW143961   9.268  11.087   4.805
47979SOL    HW243962   9.169  10.968   4.856
47980SOL     OW43963   8.700  11.041   4.852
47980SOL    HW143964   8.784  11.046   4.798
47980SOL    HW243965   8.677  10.945   4.870
47981SOL     OW43966   7.531  10.568   4.746
47981SOL    HW143967   7.526  10.567   4.846
47981SOL    HW243968   7.448  10.527   4.708
47982SOL     OW43969   8.136  10.972   5.440
47982SOL    HW143970   8.080  11.053   5.449
47982SOL    HW243971   8.188  10.976   5.354
47983SOL     OW43972   9.174   9.445   4.247
47983SOL    HW143973   9.247   9.428   4.180
47983SOL    HW243974   9.143   9.358   4.285
47984SOL     OW43975   8.836  10.883   4.201
47984SOL    HW143976   8.903  10.895   4.127
47984SOL    HW243977   8.796  10.972   4.224
47985SOL     OW43978   7.578  11.104   5.575
47985SOL    HW143979   7.537  11.030   5.628
47985SOL    HW243980   7.642  11.155   5.633
47986SOL     OW43981   8.728  10.237   4.396
47986SOL    HW143982   8.788  10.156   4.398
47986SOL    HW243983   8.768  10.306   4.336
47987SOL     OW43984   8.278  10.583   5.146
47987SOL    HW143985   8.273  10.616   5.241
47987SOL    HW243986   8.192  10.602   5.100
47988SOL     OW43987   8.120  10.926   3.878
47988SOL    HW143988   8.129  10.936   3.779
47988SOL    HW243989   8.080  10.837   3.899
47989SOL     OW43990   9.098  11.030   5.118
47989SOL    HW143991   9.151  11.040   5.034
47989SOL    HW243992   9.071  11.120   5.152
47990SOL     OW43993   9.289   9.485   4.687
47990SOL    HW143994   9.328   9.400   4.651
47990SOL    HW243995   9.191   9.487   4.668
47991SOL     OW43996   7.711   9.636   4.444
47991SOL    HW143997   7.632   9.687   4.410
47991SOL    HW243998   7.702   9.621   4.542
47992SOL     OW43999   8.642  10.922   3.755
47992SOL    HW144000   8.648  10.829   3.792
47992SOL    HW244001   8.583  10.922   3.675
47993SOL     OW44002   8.270  10.312   5.096
47993SOL    HW144003   8.310  10.311   5.004
47993SOL    HW244004   8.280  10.404   5.136
47994SOL     OW44005   8.364  10.220   4.015
47994SOL    HW144006   8.427  10.258   3.947
47994SOL    HW244007   8.404  10.137   4.054
47995SOL     OW44008   8.952  10.917   3.768
47995SOL    HW144009   8.860  10.954   3.775
47995SOL    HW244010   8.990  10.937   3.678
47996SOL     OW44011   7.820  10.598   5.214
47996SOL    HW144012   7.807  10.691   5.180
47996SOL    HW244013   7.736  10.546   5.201
47997SOL     OW44014   9.062  10.602   5.013
47997SOL    HW144015   9.122  10.605   5.093
47997SOL    HW244016   8.987  10.666   5.026
47998SOL     OW44017   8.487  10.408   4.420
47998SOL    HW144018   8.417  10.361   4.474
47998SOL    HW244019   8.546  10.340   4.377
47999SOL     OW44020   8.462   9.546   4.695
47999SOL    HW144021   8.454   9.510   4.602
47999SOL    HW244022   8.460   9.470   4.760
48000SOL     OW44023   8.038  10.797   4.215
48000SOL    HW144024   8.080  10.739   4.145
48000SOL    HW244025   7.994  10.876   4.171
48001SOL     OW44026   9.157   9.695   5.105
48001SOL    HW144027   9.230   9.764   5.109
48001SOL    HW244028   9.185   9.620   5.046
48002SOL     OW44029   7.703  10.658   4.014
48002SOL    HW144030   7.607  10.659   3.987
48002SOL    HW244031   7.715  10.711   4.098
48003SOL     OW44032   7.553  10.323   5.450
48003SOL    HW144033   7.476  10.290   5.504
48003SOL    HW244034   7.638  10.293   5.492
48004SOL     OW44035   8.120   9.513   5.213
48004SOL    HW144036   8.210   9.497   5.173
48004SOL    HW244037   8.128   9.518   5.312
48005SOL     OW44038   7.523   9.655   3.757
48005SOL    HW144039   7.431   9.627   3.728
48005SOL    HW244040   7.554   9.732   3.701
48006SOL     OW44041   8.888  10.166   5.122
48006SOL    HW144042   8.831  10.218   5.059
48006SOL    HW244043   8.984  10.178   5.098
48007SOL     OW44044   7.520   9.476   4.042
48007SOL    HW144045   7.503   9.559   3.988
48007SOL    HW244046   7.610   9.439   4.020
48008SOL     OW44047   8.631  10.645   3.843
48008SOL    HW144048   8.532  10.634   3.845
48008SOL    HW244049   8.665  10.660   3.936
48009SOL     OW44050   8.061  10.152   5.155
48009SOL    HW144051   8.117  10.233   5.138
48009SOL    HW244052   8.120  10.072   5.158
48010SOL     OW44053   8.941  11.077   4.683
48010SOL    HW144054   8.974  11.141   4.614
48010SOL    HW244055   9.007  11.071   4.758
48011SOL     OW44056   8.164   9.875   5.432
48011SOL    HW144057   8.183   9.940   5.506
48011SOL    HW244058   8.224   9.795   5.441
48012SOL     OW44059   8.898  10.530   5.357
48012SOL    HW144060   8.889  10.520   5.456
48012SOL    HW244061   8.994  10.523   5.331
48013SOL     OW44062   7.838  11.051   5.284
48013SOL    HW144063   7.747  11.092   5.282
48013SOL    HW244064   7.831  10.957   5.316
48014SOL     OW44065   9.122  10.193   4.978
48014SOL    HW144066   9.095  10.104   4.941
48014SOL    HW244067   9.123  10.261   4.905
48015SOL     OW44068   8.673   9.635   4.173
48015SOL    HW144069   8.738   9.561   4.162
48015SOL    HW244070   8.693   9.685   4.257
48016SOL     OW44071   8.042  10.055   4.376
48016SOL    HW144072   8.092  10.140   4.357
48016SOL    HW244073   7.954  10.057   4.328
48017SOL     OW44074   9.225   9.652   5.366
48017SOL    HW144075   9.208   9.683   5.272
48017SOL    HW244076   9.141   9.615   5.404
48018SOL     OW44077   9.178  10.244   5.241
48018SOL    HW144078   9.216  10.335   5.256
48018SOL    HW244079   9.170  10.227   5.142
48019SOL     OW44080   8.307  10.684   3.740
48019SOL    HW144081   8.261  10.699   3.828
48019SOL    HW244082   8.351  10.769   3.710
48020SOL     OW44083   8.109  11.100   4.677
48020SOL    HW144084   8.063  11.188   4.664
48020SOL    HW244085   8.208  11.112   4.670
48021SOL     OW44086   8.307  10.266   4.585
48021SOL    HW144087   8.361  10.197   4.633
48021SOL    HW244088   8.275  10.335   4.651
48022SOL     OW44089   8.531  10.294   3.811
48022SOL    HW144090   8.508  10.347   3.729
48022SOL    HW244091   8.612  10.238   3.792
48023SOL     OW44092   9.309  10.879   4.575
48023SOL    HW144093   9.238  10.867   4.505
48023SOL    HW244094   9.310  10.800   4.635
48024SOL     OW44095   7.669  10.624   5.568
48024SOL    HW144096   7.604  10.551   5.547
48024SOL    HW244097   7.673  10.638   5.666
48025SOL     OW44098   7.527  10.550   4.377
48025SOL    HW144099   7.526  10.503   4.465
48025SOL    HW244100   7.609  10.522   4.326
48026SOL     OW44101   8.120  10.701   5.348
48026SOL    HW144102   8.042  10.651   5.386
48026SOL    HW244103   8.117  10.796   5.379
48027SOL     OW44104   9.272   9.502   4.951
48027SOL    HW144105   9.268   9.412   4.995
48027SOL    HW244106   9.275   9.491   4.852
48028SOL     OW44107   7.876   9.734   4.244
48028SOL    HW144108   7.906   9.662   4.182
48028SOL    HW244109   7.837   9.694   4.327
48029SOL     OW44110   9.153  10.797   4.828
48029SOL    HW144111   9.060  10.772   4.801
48029SOL    HW244112   9.179  10.747   4.910
48030SOL     OW44113   7.765   9.857   5.004
48030SOL    HW144114   7.803   9.798   5.076
48030SOL    HW244115   7.805   9.831   4.916
48031SOL     OW44116   8.260  10.896   4.411
48031SOL    HW144117   8.292  10.906   4.317
48031SOL    HW244118   8.181  10.834   4.413
48032SOL     OW44119   8.872   9.524   4.836
48032SOL    HW144120   8.924   9.459   4.891
48032SOL    HW244121   8.823   9.587   4.897
48033SOL     OW44122   8.449   9.344   4.878
48033SOL    HW144123   8.386   9.272   4.847
48033SOL    HW244124   8.542   9.308   4.878
48034SOL     OW44125   8.218  10.640   4.025
48034SOL    HW144126   8.172  10.553   4.042
48034SOL    HW244127   8.309  10.637   4.066
48035SOL     OW44128   8.066  10.877   5.008
48035SOL    HW144129   8.061  10.959   5.065
48035SOL    HW244130   8.155  10.874   4.963
48036SOL     OW44131   8.800   9.362   3.892
48036SOL    HW144132   8.835   9.321   3.808
48036SOL    HW244133   8.710   9.324   3.912
48037SOL     OW44134   8.748   9.763   4.415
48037SOL    HW144135   8.689   9.843   4.419
48037SOL    HW244136   8.763   9.728   4.508
48038SOL     OW44137   9.041   9.531   4.606
48038SOL    HW144138   8.957   9.530   4.660
48038SOL    HW244139   9.043   9.614   4.550
48039SOL     OW44140   7.487  10.387   4.024
48039SOL    HW144141   7.586  10.376   4.015
48039SOL    HW244142   7.447  10.301   4.056
48040SOL     OW44143   8.323  10.956   4.061
48040SOL    HW144144   8.246  10.921   4.007
48040SOL    HW244145   8.291  11.027   4.123
48041SOL     OW44146   7.678   9.938   5.699
48041SOL    HW144147   7.585   9.936   5.736
48041SOL    HW244148   7.679   9.899   5.607
48042SOL     OW44149   7.673   9.585   6.582
48042SOL    HW144150   7.708   9.568   6.674
48042SOL    HW244151   7.585   9.540   6.570
48043SOL     OW44152   7.467   9.678   6.233
48043SOL    HW144153   7.385   9.721   6.272
48043SOL    HW244154   7.439   9.605   6.170
48044SOL     OW44155   8.017  10.585   6.751
48044SOL    HW144156   7.924  10.578   6.714
48044SOL    HW244157   8.028  10.674   6.795
48045SOL     OW44158   9.003  10.821   6.289
48045SOL    HW144159   8.946  10.805   6.370
48045SOL    HW244160   8.944  10.831   6.209
48046SOL     OW44161   8.583  10.013   6.303
48046SOL    HW144162   8.640  10.091   6.278
48046SOL    HW244163   8.523  10.039   6.379
48047SOL     OW44164   9.203   9.917   5.817
48047SOL    HW144165   9.191   9.904   5.718
48047SOL    HW244166   9.173   9.836   5.866
48048SOL     OW44167   8.216  10.454   6.609
48048SOL    HW144168   8.138  10.471   6.669
48048SOL    HW244169   8.250  10.541   6.573
48049SOL     OW44170   8.298  10.108   7.409
48049SOL    HW144171   8.294  10.184   7.474
48049SOL    HW244172   8.320  10.144   7.318
48050SOL     OW44173   8.133  10.322   6.251
48050SOL    HW144174   8.202  10.306   6.321
48050SOL    HW244175   8.060  10.379   6.289
48051SOL     OW44176   8.134  10.471   7.389
48051SOL    HW144177   8.194  10.550   7.403
48051SOL    HW244178   8.048  10.502   7.348
48052SOL     OW44179   7.783  10.745   6.647
48052SOL    HW144180   7.705  10.714   6.594
48052SOL    HW244181   7.841  10.803   6.590
48053SOL     OW44182   8.908  10.815   6.925
48053SOL    HW144183   8.932  10.909   6.951
48053SOL    HW244184   8.892  10.761   7.007
48054SOL     OW44185   7.886   9.702   7.085
48054SOL    HW144186   7.968   9.646   7.094
48054SOL    HW244187   7.805   9.644   7.089
48055SOL     OW44188   9.051   9.757   6.323
48055SOL    HW144189   8.977   9.803   6.273
48055SOL    HW244190   9.102   9.825   6.376
48056SOL     OW44191   7.679  11.023   6.069
48056SOL    HW144192   7.713  11.100   6.123
48056SOL    HW244193   7.723  11.023   5.979
48057SOL     OW44194   8.575  10.651   7.276
48057SOL    HW144195   8.622  10.651   7.364
48057SOL    HW244196   8.527  10.564   7.265
48058SOL     OW44197   7.678  10.744   6.124
48058SOL    HW144198   7.652  10.840   6.124
48058SOL    HW244199   7.607  10.690   6.169
48059SOL     OW44200   7.688  10.401   6.472
48059SOL    HW144201   7.702  10.317   6.524
48059SOL    HW244202   7.633  10.465   6.527
48060SOL     OW44203   8.068  11.096   7.025
48060SOL    HW144204   7.976  11.079   7.060
48060SOL    HW244205   8.096  11.188   7.051
48061SOL     OW44206   8.054  10.274   5.709
48061SOL    HW144207   8.061  10.358   5.655
48061SOL    HW244208   8.100  10.287   5.797
48062SOL     OW44209   9.042   9.424   7.066
48062SOL    HW144210   9.024   9.491   6.994
48062SOL    HW244211   9.039   9.470   7.155
48063SOL     OW44212   7.570   9.953   6.149
48063SOL    HW144213   7.525   9.865   6.166
48063SOL    HW244214   7.569  10.007   6.233
48064SOL     OW44215   9.290  11.077   5.945
48064SOL    HW144216   9.344  11.048   6.025
48064SOL    HW244217   9.320  11.167   5.916
48065SOL     OW44218   7.475  10.906   5.703
48065SOL    HW144219   7.456  10.810   5.724
48065SOL    HW244220   7.442  10.964   5.778
48066SOL     OW44221   9.137  10.232   6.198
48066SOL    HW144222   9.232  10.203   6.206
48066SOL    HW244223   9.129  10.297   6.123
48067SOL     OW44224   9.089  10.418   6.018
48067SOL    HW144225   9.175  10.420   5.966
48067SOL    HW244226   9.103  10.465   6.106
48068SOL     OW44227   7.561  10.047   7.183
48068SOL    HW144228   7.649  10.034   7.228
48068SOL    HW244229   7.548  10.144   7.161
48069SOL     OW44230   8.061  10.675   6.312
48069SOL    HW144231   8.012  10.588   6.321
48069SOL    HW244232   8.038  10.718   6.225
48070SOL     OW44233   8.741  10.538   7.009
48070SOL    HW144234   8.778  10.465   6.951
48070SOL    HW244235   8.793  10.543   7.094
48071SOL     OW44236   8.257   9.314   6.088
48071SOL    HW144237   8.297   9.405   6.079
48071SOL    HW244238   8.157   9.322   6.094
48072SOL     OW44239   7.645  10.286   6.850
48072SOL    HW144240   7.734  10.241   6.836
48072SOL    HW244241   7.572  10.221   6.831
48073SOL     OW44242   8.973  10.309   5.776
48073SOL    HW144243   8.910  10.233   5.789
48073SOL    HW244244   9.021  10.327   5.862
48074SOL     OW44245   8.635  11.102   7.202
48074SOL    HW144246   8.659  11.162   7.126
48074SOL    HW244247   8.642  11.007   7.172
48075SOL     OW44248   7.765   9.561   7.387
48075SOL    HW144249   7.836   9.632   7.393
48075SOL    HW244250   7.677   9.600   7.415
48076SOL     OW44251   8.914  10.727   6.539
48076SOL    HW144252   8.855  10.733   6.619
48076SOL    HW244253   8.899  10.639   6.493
48077SOL     OW44254   9.115  11.024   6.158
48077SOL    HW144255   9.074  11.001   6.070
48077SOL    HW244256   9.097  10.950   6.223
48078SOL     OW44257   8.046  10.039   5.856
48078SOL    HW144258   8.070  10.108   5.788
48078SOL    HW244259   7.968  10.072   5.910
48079SOL     OW44260   8.729   9.655   6.530
48079SOL    HW144261   8.643   9.605   6.517
48079SOL    HW244262   8.791   9.601   6.586
48080SOL     OW44263   9.024  10.972   5.893
48080SOL    HW144264   9.113  11.018   5.896
48080SOL    HW244265   9.003  10.948   5.798
48081SOL     OW44266   8.255   9.915   7.051
48081SOL    HW144267   8.208   9.912   7.140
48081SOL    HW244268   8.204   9.860   6.985
48082SOL     OW44269   8.842   9.779   7.260
48082SOL    HW144270   8.822   9.822   7.348
48082SOL    HW244271   8.920   9.717   7.269
48083SOL     OW44272   8.421  10.200   7.158
48083SOL    HW144273   8.467  10.116   7.129
48083SOL    HW244274   8.365  10.234   7.083
48084SOL     OW44275   8.439   9.720   6.828
48084SOL    HW144276   8.362   9.754   6.882
48084SOL    HW244277   8.405   9.669   6.749
48085SOL     OW44278   8.489  10.011   6.015
48085SOL    HW144279   8.515  10.007   6.111
48085SOL    HW244280   8.404   9.960   6.001
48086SOL     OW44281   7.524  10.121   6.375
48086SOL    HW144282   7.623  10.109   6.384
48086SOL    HW244283   7.500  10.216   6.396
48087SOL     OW44284   7.578  11.131   7.157
48087SOL    HW144285   7.568  11.116   7.256
48087SOL    HW244286   7.492  11.167   7.121
48088SOL     OW44287   8.313   9.658   5.781
48088SOL    HW144288   8.372   9.721   5.732
48088SOL    HW244289   8.332   9.564   5.752
48089SOL     OW44290   9.167   9.895   7.417
48089SOL    HW144291   9.141   9.984   7.381
48089SOL    HW244292   9.165   9.827   7.344
48090SOL     OW44293   8.810  10.454   6.131
48090SOL    HW144294   8.893  10.425   6.083
48090SOL    HW244295   8.761  10.521   6.075
48091SOL     OW44296   7.998   9.506   6.471
48091SOL    HW144297   7.993   9.501   6.571
48091SOL    HW244298   8.000   9.602   6.442
48092SOL     OW44299   8.456  10.766   6.063
48092SOL    HW144300   8.410  10.838   6.011
48092SOL    HW244301   8.452  10.786   6.161
48093SOL     OW44302   7.799  11.111   6.439
48093SOL    HW144303   7.849  11.025   6.445
48093SOL    HW244304   7.864  11.188   6.436
48094SOL     OW44305   9.243  10.376   6.459
48094SOL    HW144306   9.181  10.361   6.383
48094SOL    HW244307   9.191  10.387   6.544
48095SOL     OW44308   8.675  10.860   7.092
48095SOL    HW144309   8.681  10.783   7.156
48095SOL    HW244310   8.623  10.834   7.012
48096SOL     OW44311   7.769  10.253   5.828
48096SOL    HW144312   7.851  10.292   5.786
48096SOL    HW244313   7.742  10.171   5.779
48097SOL     OW44314   8.906  10.045   6.314
48097SOL    HW144315   8.901   9.980   6.389
48097SOL    HW244316   8.986  10.104   6.327
48098SOL     OW44317   7.909  10.576   7.313
48098SOL    HW144318   7.859  10.577   7.227
48098SOL    HW244319   7.846  10.558   7.389
48099SOL     OW44320   8.559  11.086   5.823
48099SOL    HW144321   8.499  11.024   5.873
48099SOL    HW244322   8.590  11.042   5.738
48100SOL     OW44323   7.650   9.595   7.084
48100SOL    HW144324   7.570   9.655   7.071
48100SOL    HW244325   7.640   9.546   7.170
48101SOL     OW44326   9.080  10.687   5.667
48101SOL    HW144327   9.048  10.781   5.657
48101SOL    HW244328   9.004  10.624   5.655
48102SOL     OW44329   7.912  11.053   5.909
48102SOL    HW144330   7.945  11.092   5.995
48102SOL    HW244331   7.988  11.046   5.844
48103SOL     OW44332   8.848   9.417   6.012
48103SOL    HW144333   8.824   9.380   5.922
48103SOL    HW244334   8.947   9.433   6.016
48104SOL     OW44335   7.697  11.095   6.827
48104SOL    HW144336   7.754  11.030   6.877
48104SOL    HW244337   7.681  11.062   6.734
48105SOL     OW44338   8.388  11.008   6.490
48105SOL    HW144339   8.468  10.951   6.511
48105SOL    HW244340   8.339  10.968   6.413
48106SOL     OW44341   7.830  10.010   6.066
48106SOL    HW144342   7.875   9.920   6.063
48106SOL    HW244343   7.736   9.999   6.099
48107SOL     OW44344   8.995   9.532   7.315
48107SOL    HW144345   8.990   9.569   7.407
48107SOL    HW244346   8.923   9.463   7.303
48108SOL     OW44347   8.062   9.432   5.703
48108SOL    HW144348   8.160   9.410   5.710
48108SOL    HW244349   8.031   9.415   5.610
48109SOL     OW44350   8.229   9.574   7.335
48109SOL    HW144351   8.296   9.513   7.378
48109SOL    HW244352   8.156   9.593   7.400
48110SOL     OW44353   8.336  10.824   6.781
48110SOL    HW144354   8.313  10.799   6.687
48110SOL    HW244355   8.397  10.755   6.820
48111SOL     OW44356   8.799   9.900   7.019
48111SOL    HW144357   8.827   9.857   7.104
48111SOL    HW244358   8.824   9.996   7.020
48112SOL     OW44359   8.251  10.712   6.510
48112SOL    HW144360   8.341  10.726   6.468
48112SOL    HW244361   8.180  10.714   6.439
48113SOL     OW44362   8.370   9.813   6.485
48113SOL    HW144363   8.345   9.804   6.389
48113SOL    HW244364   8.418   9.731   6.516
48114SOL     OW44365   7.987   9.374   6.098
48114SOL    HW144366   7.906   9.375   6.156
48114SOL    HW244367   7.990   9.457   6.043
48115SOL     OW44368   8.882  10.498   5.627
48115SOL    HW144369   8.914  10.422   5.684
48115SOL    HW244370   8.790  10.525   5.657
48116SOL     OW44371   7.745   9.345   5.757
48116SOL    HW144372   7.794   9.429   5.736
48116SOL    HW244373   7.807   9.280   5.802
48117SOL     OW44374   8.383   9.546   6.066
48117SOL    HW144375   8.335   9.587   5.988
48117SOL    HW244376   8.482   9.544   6.047
48118SOL     OW44377   8.524   9.993   7.050
48118SOL    HW144378   8.444   9.932   7.053
48118SOL    HW244379   8.605   9.940   7.026
48119SOL     OW44380   8.675  10.880   6.379
48119SOL    HW144381   8.696  10.954   6.314
48119SOL    HW244382   8.743  10.880   6.452
48120SOL     OW44383   7.907  10.462   6.327
48120SOL    HW144384   7.836  10.435   6.392
48120SOL    HW244385   7.881  10.434   6.234
48121SOL     OW44386   8.719  11.107   6.177
48121SOL    HW144387   8.763  11.171   6.113
48121SOL    HW244388   8.669  11.159   6.247
48122SOL     OW44389   8.480   9.859   5.602
48122SOL    HW144390   8.439   9.941   5.563
48122SOL    HW244391   8.544   9.885   5.675
48123SOL     OW44392   7.526   9.866   6.972
48123SOL    HW144393   7.618   9.865   6.931
48123SOL    HW244394   7.520   9.940   7.039
48124SOL     OW44395   8.009   9.532   6.733
48124SOL    HW144396   8.047   9.448   6.770
48124SOL    HW244397   7.921   9.551   6.777
48125SOL     OW44398   8.314   9.764   6.228
48125SOL    HW144399   8.282   9.836   6.166
48125SOL    HW244400   8.338   9.683   6.175
48126SOL     OW44401   8.465   9.349   6.339
48126SOL    HW144402   8.393   9.354   6.270
48126SOL    HW244403   8.441   9.280   6.408
48127SOL     OW44404   8.877  10.483   6.453
48127SOL    HW144405   8.822  10.399   6.446
48127SOL    HW244406   8.903  10.512   6.361
48128SOL     OW44407   8.914   9.900   6.578
48128SOL    HW144408   8.884   9.805   6.585
48128SOL    HW244409   8.987   9.916   6.644
48129SOL     OW44410   9.305  10.143   5.963
48129SOL    HW144411   9.347  10.079   6.027
48129SOL    HW244412   9.267  10.092   5.885
48130SOL     OW44413   7.936  10.695   5.760
48130SOL    HW144414   7.849  10.680   5.807
48130SOL    HW244415   7.919  10.721   5.665
48131SOL     OW44416   9.112  10.590   6.243
48131SOL    HW144417   9.211  10.598   6.257
48131SOL    HW244418   9.067  10.674   6.274
48132SOL     OW44419   8.838   9.885   5.664
48132SOL    HW144420   8.784   9.864   5.745
48132SOL    HW244421   8.929   9.844   5.673
48133SOL     OW44422   7.975   9.566   5.914
48133SOL    HW144423   8.002   9.507   5.839
48133SOL    HW244424   7.975   9.661   5.883
48134SOL     OW44425   9.202  10.533   7.174
48134SOL    HW144426   9.293  10.494   7.161
48134SOL    HW244427   9.210  10.629   7.198
48135SOL     OW44428   8.512  10.657   6.926
48135SOL    HW144429   8.432  10.634   6.981
48135SOL    HW244430   8.595  10.631   6.975
48136SOL     OW44431   9.040  10.939   7.211
48136SOL    HW144432   9.067  10.973   7.121
48136SOL    HW244433   9.119  10.901   7.257
48137SOL     OW44434   8.559  10.505   6.686
48137SOL    HW144435   8.519  10.549   6.767
48137SOL    HW244436   8.518  10.542   6.603
48138SOL     OW44437   9.086  10.409   6.665
48138SOL    HW144438   9.091  10.490   6.724
48138SOL    HW244439   9.000  10.411   6.614
48139SOL     OW44440   8.363   9.399   6.988
48139SOL    HW144441   8.388   9.379   6.893
48139SOL    HW244442   8.435   9.455   7.030
48140SOL     OW44443   8.428  10.426   7.305
48140SOL    HW144444   8.329  10.432   7.315
48140SOL    HW244445   8.451  10.346   7.249
48141SOL     OW44446   8.153  10.360   5.954
48141SOL    HW144447   8.139  10.367   6.053
48141SOL    HW244448   8.237  10.309   5.936
48142SOL     OW44449   7.858  10.123   6.837
48142SOL    HW144450   7.944  10.135   6.887
48142SOL    HW244451   7.816  10.036   6.864
48143SOL     OW44452   8.722   9.696   6.848
48143SOL    HW144453   8.743   9.770   6.912
48143SOL    HW244454   8.633   9.713   6.805
48144SOL     OW44455   7.512  10.874   6.917
48144SOL    HW144456   7.466  10.956   6.883
48144SOL    HW244457   7.610  10.893   6.926
48145SOL     OW44458   7.815  10.410   6.087
48145SOL    HW144459   7.808  10.493   6.031
48145SOL    HW244460   7.819  10.330   6.027
48146SOL     OW44461   8.014   9.847   6.451
48146SOL    HW144462   8.026   9.913   6.377
48146SOL    HW244463   8.060   9.881   6.534
48147SOL     OW44464   8.700  10.658   5.974
48147SOL    HW144465   8.750  10.735   6.014
48147SOL    HW244466   8.605  10.660   6.006
48148SOL     OW44467   8.720  10.755   6.728
48148SOL    HW144468   8.767  10.768   6.815
48148SOL    HW244469   8.654  10.681   6.737
48149SOL     OW44470   9.030   9.949   6.058
48149SOL    HW144471   8.999  10.010   6.131
48149SOL    HW244472   9.080  10.001   5.989
48150SOL     OW44473   7.802  10.820   6.915
48150SOL    HW144474   7.781  10.776   6.828
48150SOL    HW244475   7.899  10.846   6.918
48151SOL     OW44476   7.850  10.061   7.184
48151SOL    HW144477   7.918  10.116   7.137
48151SOL    HW244478   7.890   9.973   7.211
48152SOL     OW44479   9.035  10.089   7.256
48152SOL    HW144480   8.943  10.127   7.251
48152SOL    HW244481   9.095  10.136   7.191
48153SOL     OW44482   8.461   9.415   7.356
48153SOL    HW144483   8.467   9.500   7.304
48153SOL    HW244484   8.493   9.339   7.299
48154SOL     OW44485   7.952   9.360   7.326
48154SOL    HW144486   7.910   9.303   7.256
48154SOL    HW244487   7.886   9.429   7.358
48155SOL     OW44488   8.021  10.180   6.615
48155SOL    HW144489   8.065  10.269   6.606
48155SOL    HW244490   7.958  10.180   6.692
48156SOL     OW44491   8.808  10.172   6.631
48156SOL    HW144492   8.733  10.172   6.565
48156SOL    HW244493   8.845  10.080   6.640
48157SOL     OW44494   8.657   9.835   5.861
48157SOL    HW144495   8.670   9.751   5.915
48157SOL    HW244496   8.628   9.909   5.921
48158SOL     OW44497   7.755   9.523   6.817
48158SOL    HW144498   7.732   9.560   6.907
48158SOL    HW244499   7.725   9.428   6.811
48159SOL     OW44500   7.485  10.620   6.868
48159SOL    HW144501   7.538  10.571   6.936
48159SOL    HW244502   7.507  10.718   6.873
48160SOL     OW44503   8.180   9.944   6.650
48160SOL    HW144504   8.239   9.918   6.574
48160SOL    HW244505   8.152  10.040   6.639
48161SOL     OW44506   9.176  10.245   7.440
48161SOL    HW144507   9.130  10.238   7.351
48161SOL    HW244508   9.114  10.289   7.506
48162SOL     OW44509   7.755   9.373   6.204
48162SOL    HW144510   7.744   9.467   6.237
48162SOL    HW244511   7.750   9.310   6.281
48163SOL     OW44512   9.070   9.677   5.960
48163SOL    HW144513   9.072   9.601   6.024
48163SOL    HW244514   9.022   9.754   6.000
48164SOL     OW44515   8.471  10.076   6.552
48164SOL    HW144516   8.486  10.097   6.648
48164SOL    HW244517   8.441   9.981   6.543
48165SOL     OW44518   8.428  10.883   7.286
48165SOL    HW144519   8.408  10.927   7.198
48165SOL    HW244520   8.467  10.792   7.270
48166SOL     OW44521   9.307  10.828   7.191
48166SOL    HW144522   9.321  10.855   7.096
48166SOL    HW244523   9.390  10.850   7.244
48167SOL     OW44524   7.798  10.208   7.390
48167SOL    HW144525   7.874  10.252   7.438
48167SOL    HW244526   7.833  10.161   7.308
48168SOL     OW44527   8.988   9.584   5.711
48168SOL    HW144528   8.927   9.509   5.734
48168SOL    HW244529   9.010   9.636   5.794
48169SOL     OW44530   8.751  10.148   5.628
48169SOL    HW144531   8.785  10.055   5.643
48169SOL    HW244532   8.769  10.175   5.533
48170SOL     OW44533   8.516  10.643   6.435
48170SOL    HW144534   8.523  10.559   6.380
48170SOL    HW244535   8.578  10.712   6.399
48171SOL     OW44536   7.767  10.120   6.535
48171SOL    HW144537   7.860  10.156   6.540
48171SOL    HW244538   7.761  10.035   6.587
48172SOL     OW44539   7.787   9.819   6.592
48172SOL    HW144540   7.735   9.736   6.575
48172SOL    HW244541   7.864   9.824   6.528
48173SOL     OW44542   8.586   9.690   7.264
48173SOL    HW144543   8.541   9.753   7.328
48173SOL    HW244544   8.679   9.721   7.247
48174SOL     OW44545   8.608   9.517   7.063
48174SOL    HW144546   8.608   9.581   7.140
48174SOL    HW244547   8.636   9.565   6.980
48175SOL     OW44548   7.456  10.636   5.786
48175SOL    HW144549   7.363  10.657   5.755
48175SOL    HW244550   7.466  10.537   5.799
48176SOL     OW44551   7.536  11.111   6.513
48176SOL    HW144552   7.494  11.025   6.486
48176SOL    HW244553   7.630  11.114   6.479
48177SOL     OW44554   7.952  10.878   6.496
48177SOL    HW144555   8.018  10.952   6.505
48177SOL    HW244556   7.996  10.799   6.454
48178SOL     OW44557   8.450  10.106   6.824
48178SOL    HW144558   8.491  10.074   6.910
48178SOL    HW244559   8.354  10.079   6.821
48179SOL     OW44560   7.488   9.854   6.700
48179SOL    HW144561   7.573   9.821   6.659
48179SOL    HW244562   7.501   9.869   6.798
48180SOL     OW44563   7.637   9.830   7.308
48180SOL    HW144564   7.696   9.790   7.238
48180SOL    HW244565   7.579   9.901   7.267
48181SOL     OW44566   8.817  10.260   7.246
48181SOL    HW144567   8.856  10.349   7.266
48181SOL    HW244568   8.827  10.240   7.149
48182SOL     OW44569   8.263   9.882   5.911
48182SOL    HW144570   8.270   9.793   5.865
48182SOL    HW244571   8.169   9.916   5.903
48183SOL     OW44572   9.105   9.914   6.792
48183SOL    HW144573   9.067   9.845   6.854
48183SOL    HW244574   9.187   9.878   6.748
48184SOL     OW44575   7.700  10.874   7.330
48184SOL    HW144576   7.670  10.931   7.406
48184SOL    HW244577   7.693  10.777   7.356
48185SOL     OW44578   8.119   9.774   6.855
48185SOL    HW144579   8.085   9.685   6.825
48185SOL    HW244580   8.145   9.828   6.775
48186SOL     OW44581   8.378  10.988   7.051
48186SOL    HW144582   8.354  10.970   6.956
48186SOL    HW244583   8.408  11.082   7.061
48187SOL     OW44584   7.921   9.810   5.777
48187SOL    HW144585   7.982   9.890   5.781
48187SOL    HW244586   7.826   9.841   5.784
48188SOL     OW44587   7.607  10.447   7.052
48188SOL    HW144588   7.629  10.386   7.128
48188SOL    HW244589   7.617  10.398   6.966
48189SOL     OW44590   8.795  10.369   6.820
48189SOL    HW144591   8.819  10.306   6.746
48189SOL    HW244592   8.705  10.409   6.802
48190SOL     OW44593   8.750  10.165   5.895
48190SOL    HW144594   8.664  10.134   5.937
48190SOL    HW244595   8.746  10.151   5.796
48191SOL     OW44596   9.207  11.057   6.740
48191SOL    HW144597   9.268  11.087   6.667
48191SOL    HW244598   9.169  10.968   6.718
48192SOL     OW44599   8.700  11.041   6.714
48192SOL    HW144600   8.784  11.046   6.660
48192SOL    HW244601   8.677  10.945   6.732
48193SOL     OW44602   7.531  10.568   6.608
48193SOL    HW144603   7.526  10.567   6.708
48193SOL    HW244604   7.448  10.527   6.570
48194SOL     OW44605   8.136  10.972   7.302
48194SOL    HW144606   8.080  11.053   7.311
48194SOL    HW244607   8.188  10.976   7.216
48195SOL     OW44608   9.174   9.445   6.109
48195SOL    HW144609   9.247   9.428   6.042
48195SOL    HW244610   9.143   9.358   6.147
48196SOL     OW44611   8.836  10.883   6.063
48196SOL    HW144612   8.903  10.895   5.989
48196SOL    HW244613   8.796  10.972   6.086
48197SOL     OW44614   7.578  11.104   7.437
48197SOL    HW144615   7.537  11.030   7.490
48197SOL    HW244616   7.642  11.155   7.495
48198SOL     OW44617   8.728  10.237   6.258
48198SOL    HW144618   8.788  10.156   6.260
48198SOL    HW244619   8.768  10.306   6.198
48199SOL     OW44620   8.278  10.583   7.008
48199SOL    HW144621   8.273  10.616   7.103
48199SOL    HW244622   8.192  10.602   6.962
48200SOL     OW44623   8.120  10.926   5.740
48200SOL    HW144624   8.129  10.936   5.641
48200SOL    HW244625   8.080  10.837   5.761
48201SOL     OW44626   9.098  11.030   6.980
48201SOL    HW144627   9.151  11.040   6.896
48201SOL    HW244628   9.071  11.120   7.014
48202SOL     OW44629   9.289   9.485   6.549
48202SOL    HW144630   9.328   9.400   6.513
48202SOL    HW244631   9.191   9.487   6.530
48203SOL     OW44632   7.711   9.636   6.306
48203SOL    HW144633   7.632   9.687   6.272
48203SOL    HW244634   7.702   9.621   6.404
48204SOL     OW44635   8.642  10.922   5.617
48204SOL    HW144636   8.648  10.829   5.654
48204SOL    HW244637   8.583  10.922   5.537
48205SOL     OW44638   8.270  10.312   6.958
48205SOL    HW144639   8.310  10.311   6.866
48205SOL    HW244640   8.280  10.404   6.998
48206SOL     OW44641   8.364  10.220   5.877
48206SOL    HW144642   8.427  10.258   5.809
48206SOL    HW244643   8.404  10.137   5.916
48207SOL     OW44644   8.952  10.917   5.630
48207SOL    HW144645   8.860  10.954   5.637
48207SOL    HW244646   8.990  10.937   5.540
48208SOL     OW44647   7.820  10.598   7.076
48208SOL    HW144648   7.807  10.691   7.042
48208SOL    HW244649   7.736  10.546   7.063
48209SOL     OW44650   9.062  10.602   6.875
48209SOL    HW144651   9.122  10.605   6.955
48209SOL    HW244652   8.987  10.666   6.888
48210SOL     OW44653   8.487  10.408   6.282
48210SOL    HW144654   8.417  10.361   6.336
48210SOL    HW244655   8.546  10.340   6.239
48211SOL     OW44656   8.462   9.546   6.557
48211SOL    HW144657   8.454   9.510   6.464
48211SOL    HW244658   8.460   9.470   6.622
48212SOL     OW44659   8.038  10.797   6.077
48212SOL    HW144660   8.080  10.739   6.007
48212SOL    HW244661   7.994  10.876   6.033
48213SOL     OW44662   9.157   9.695   6.967
48213SOL    HW144663   9.230   9.764   6.971
48213SOL    HW244664   9.185   9.620   6.908
48214SOL     OW44665   7.703  10.658   5.876
48214SOL    HW144666   7.607  10.659   5.849
48214SOL    HW244667   7.715  10.711   5.960
48215SOL     OW44668   7.553  10.323   7.312
48215SOL    HW144669   7.476  10.290   7.366
48215SOL    HW244670   7.638  10.293   7.354
48216SOL     OW44671   8.120   9.513   7.075
48216SOL    HW144672   8.210   9.497   7.035
48216SOL    HW244673   8.128   9.518   7.174
48217SOL     OW44674   7.523   9.655   5.619
48217SOL    HW144675   7.431   9.627   5.590
48217SOL    HW244676   7.554   9.732   5.563
48218SOL     OW44677   8.888  10.166   6.984
48218SOL    HW144678   8.831  10.218   6.921
48218SOL    HW244679   8.984  10.178   6.960
48219SOL     OW44680   7.520   9.476   5.904
48219SOL    HW144681   7.503   9.559   5.850
48219SOL    HW244682   7.610   9.439   5.882
48220SOL     OW44683   8.631  10.645   5.705
48220SOL    HW144684   8.532  10.634   5.707
48220SOL    HW244685   8.665  10.660   5.798
48221SOL     OW44686   8.061  10.152   7.017
48221SOL    HW144687   8.117  10.233   7.000
48221SOL    HW244688   8.120  10.072   7.020
48222SOL     OW44689   8.941  11.077   6.545
48222SOL    HW144690   8.974  11.141   6.476
48222SOL    HW244691   9.007  11.071   6.620
48223SOL     OW44692   8.164   9.875   7.294
48223SOL    HW144693   8.183   9.940   7.368
48223SOL    HW244694   8.224   9.795   7.303
48224SOL     OW44695   8.898  10.530   7.219
48224SOL    HW144696   8.889  10.520   7.318
48224SOL    HW244697   8.994  10.523   7.193
48225SOL     OW44698   7.838  11.051   7.146
48225SOL    HW144699   7.747  11.092   7.144
48225SOL    HW244700   7.831  10.957   7.178
48226SOL     OW44701   9.122  10.193   6.840
48226SOL    HW144702   9.095  10.104   6.803
48226SOL    HW244703   9.123  10.261   6.767
48227SOL     OW44704   8.673   9.635   6.035
48227SOL    HW144705   8.738   9.561   6.024
48227SOL    HW244706   8.693   9.685   6.119
48228SOL     OW44707   8.042  10.055   6.238
48228SOL    HW144708   8.092  10.140   6.219
48228SOL    HW244709   7.954  10.057   6.190
48229SOL     OW44710   9.225   9.652   7.228
48229SOL    HW144711   9.208   9.683   7.134
48229SOL    HW244712   9.141   9.615   7.266
48230SOL     OW44713   9.178  10.244   7.103
48230SOL    HW144714   9.216  10.335   7.118
48230SOL    HW244715   9.170  10.227   7.004
48231SOL     OW44716   8.307  10.684   5.602
48231SOL    HW144717   8.261  10.699   5.690
48231SOL    HW244718   8.351  10.769   5.572
48232SOL     OW44719   8.109  11.100   6.539
48232SOL    HW144720   8.063  11.188   6.526
48232SOL    HW244721   8.208  11.112   6.532
48233SOL     OW44722   8.307  10.266   6.447
48233SOL    HW144723   8.361  10.197   6.495
48233SOL    HW244724   8.275  10.335   6.513
48234SOL     OW44725   8.531  10.294   5.673
48234SOL    HW144726   8.508  10.347   5.591
48234SOL    HW244727   8.612  10.238   5.654
48235SOL     OW44728   9.309  10.879   6.437
48235SOL    HW144729   9.238  10.867   6.367
48235SOL    HW244730   9.310  10.800   6.497
48236SOL     OW44731   7.669  10.624   7.430
48236SOL    HW144732   7.604  10.551   7.409
48236SOL    HW244733   7.673  10.638   7.528
48237SOL     OW44734   7.527  10.550   6.239
48237SOL    HW144735   7.526  10.503   6.327
48237SOL    HW244736   7.609  10.522   6.188
48238SOL     OW44737   8.120  10.701   7.210
48238SOL    HW144738   8.042  10.651   7.248
48238SOL    HW244739   8.117  10.796   7.241
48239SOL     OW44740   9.272   9.502   6.813
48239SOL    HW144741   9.268   9.412   6.857
48239SOL    HW244742   9.275   9.491   6.714
48240SOL     OW44743   7.876   9.734   6.106
48240SOL    HW144744   7.906   9.662   6.044
48240SOL    HW244745   7.837   9.694   6.189
48241SOL     OW44746   9.153  10.797   6.690
48241SOL    HW144747   9.060  10.772   6.663
48241SOL    HW244748   9.179  10.747   6.772
48242SOL     OW44749   7.765   9.857   6.866
48242SOL    HW144750   7.803   9.798   6.938
48242SOL    HW244751   7.805   9.831   6.778
48243SOL     OW44752   8.260  10.896   6.273
48243SOL    HW144753   8.292  10.906   6.179
48243SOL    HW244754   8.181  10.834   6.275
48244SOL     OW44755   8.872   9.524   6.698
48244SOL    HW144756   8.924   9.459   6.753
48244SOL    HW244757   8.823   9.587   6.759
48245SOL     OW44758   8.449   9.344   6.740
48245SOL    HW144759   8.386   9.272   6.709
48245SOL    HW244760   8.542   9.308   6.740
48246SOL     OW44761   8.218  10.640   5.887
48246SOL    HW144762   8.172  10.553   5.904
48246SOL    HW244763   8.309  10.637   5.928
48247SOL     OW44764   8.066  10.877   6.870
48247SOL    HW144765   8.061  10.959   6.927
48247SOL    HW244766   8.155  10.874   6.825
48248SOL     OW44767   8.800   9.362   5.754
48248SOL    HW144768   8.835   9.321   5.670
48248SOL    HW244769   8.710   9.324   5.774
48249SOL     OW44770   8.748   9.763   6.277
48249SOL    HW144771   8.689   9.843   6.281
48249SOL    HW244772   8.763   9.728   6.370
48250SOL     OW44773   9.041   9.531   6.468
48250SOL    HW144774   8.957   9.530   6.522
48250SOL    HW244775   9.043   9.614   6.412
48251SOL     OW44776   7.487  10.387   5.886
48251SOL    HW144777   7.586  10.376   5.877
48251SOL    HW244778   7.447  10.301   5.918
48252SOL     OW44779   8.323  10.956   5.923
48252SOL    HW144780   8.246  10.921   5.869
48252SOL    HW244781   8.291  11.027   5.985
48253SOL     OW44782   7.678   9.938   7.561
48253SOL    HW144783   7.585   9.936   7.598
48253SOL    HW244784   7.679   9.899   7.469
48254SOL     OW44785   7.673   9.585   8.444
48254SOL    HW144786   7.708   9.568   8.536
48254SOL    HW244787   7.585   9.540   8.432
48255SOL     OW44788   7.467   9.678   8.095
48255SOL    HW144789   7.385   9.721   8.134
48255SOL    HW244790   7.439   9.605   8.032
48256SOL     OW44791   8.017  10.585   8.613
48256SOL    HW144792   7.924  10.578   8.576
48256SOL    HW244793   8.028  10.674   8.657
48257SOL     OW44794   9.003  10.821   8.151
48257SOL    HW144795   8.946  10.805   8.232
48257SOL    HW244796   8.944  10.831   8.071
48258SOL     OW44797   8.583  10.013   8.165
48258SOL    HW144798   8.640  10.091   8.140
48258SOL    HW244799   8.523  10.039   8.241
48259SOL     OW44800   9.203   9.917   7.679
48259SOL    HW144801   9.191   9.904   7.580
48259SOL    HW244802   9.173   9.836   7.728
48260SOL     OW44803   8.216  10.454   8.471
48260SOL    HW144804   8.138  10.471   8.531
48260SOL    HW244805   8.250  10.541   8.435
48261SOL     OW44806   8.298  10.108   9.271
48261SOL    HW144807   8.294  10.184   9.336
48261SOL    HW244808   8.320  10.144   9.180
48262SOL     OW44809   8.133  10.322   8.113
48262SOL    HW144810   8.202  10.306   8.183
48262SOL    HW244811   8.060  10.379   8.151
48263SOL     OW44812   8.134  10.471   9.251
48263SOL    HW144813   8.194  10.550   9.265
48263SOL    HW244814   8.048  10.502   9.210
48264SOL     OW44815   7.783  10.745   8.509
48264SOL    HW144816   7.705  10.714   8.456
48264SOL    HW244817   7.841  10.803   8.452
48265SOL     OW44818   8.908  10.815   8.787
48265SOL    HW144819   8.932  10.909   8.813
48265SOL    HW244820   8.892  10.761   8.869
48266SOL     OW44821   7.886   9.702   8.947
48266SOL    HW144822   7.968   9.646   8.956
48266SOL    HW244823   7.805   9.644   8.951
48267SOL     OW44824   9.051   9.757   8.185
48267SOL    HW144825   8.977   9.803   8.135
48267SOL    HW244826   9.102   9.825   8.238
48268SOL     OW44827   7.679  11.023   7.931
48268SOL    HW144828   7.713  11.100   7.985
48268SOL    HW244829   7.723  11.023   7.841
48269SOL     OW44830   8.575  10.651   9.138
48269SOL    HW144831   8.622  10.651   9.226
48269SOL    HW244832   8.527  10.564   9.127
48270SOL     OW44833   7.678  10.744   7.986
48270SOL    HW144834   7.652  10.840   7.986
48270SOL    HW244835   7.607  10.690   8.031
48271SOL     OW44836   7.688  10.401   8.334
48271SOL    HW144837   7.702  10.317   8.386
48271SOL    HW244838   7.633  10.465   8.389
48272SOL     OW44839   8.068  11.096   8.887
48272SOL    HW144840   7.976  11.079   8.922
48272SOL    HW244841   8.096  11.188   8.913
48273SOL     OW44842   8.054  10.274   7.571
48273SOL    HW144843   8.061  10.358   7.517
48273SOL    HW244844   8.100  10.287   7.659
48274SOL     OW44845   9.042   9.424   8.928
48274SOL    HW144846   9.024   9.491   8.856
48274SOL    HW244847   9.039   9.470   9.017
48275SOL     OW44848   7.570   9.953   8.011
48275SOL    HW144849   7.525   9.865   8.028
48275SOL    HW244850   7.569  10.007   8.095
48276SOL     OW44851   9.290  11.077   7.807
48276SOL    HW144852   9.344  11.048   7.887
48276SOL    HW244853   9.320  11.167   7.778
48277SOL     OW44854   7.475  10.906   7.565
48277SOL    HW144855   7.456  10.810   7.586
48277SOL    HW244856   7.442  10.964   7.640
48278SOL     OW44857   9.137  10.232   8.060
48278SOL    HW144858   9.232  10.203   8.068
48278SOL    HW244859   9.129  10.297   7.985
48279SOL     OW44860   9.089  10.418   7.880
48279SOL    HW144861   9.175  10.420   7.828
48279SOL    HW244862   9.103  10.465   7.968
48280SOL     OW44863   7.561  10.047   9.045
48280SOL    HW144864   7.649  10.034   9.090
48280SOL    HW244865   7.548  10.144   9.023
48281SOL     OW44866   8.061  10.675   8.174
48281SOL    HW144867   8.012  10.588   8.183
48281SOL    HW244868   8.038  10.718   8.087
48282SOL     OW44869   8.741  10.538   8.871
48282SOL    HW144870   8.778  10.465   8.813
48282SOL    HW244871   8.793  10.543   8.956
48283SOL     OW44872   8.257   9.314   7.950
48283SOL    HW144873   8.297   9.405   7.941
48283SOL    HW244874   8.157   9.322   7.956
48284SOL     OW44875   7.645  10.286   8.712
48284SOL    HW144876   7.734  10.241   8.698
48284SOL    HW244877   7.572  10.221   8.693
48285SOL     OW44878   8.973  10.309   7.638
48285SOL    HW144879   8.910  10.233   7.651
48285SOL    HW244880   9.021  10.327   7.724
48286SOL     OW44881   8.635  11.102   9.064
48286SOL    HW144882   8.659  11.162   8.988
48286SOL    HW244883   8.642  11.007   9.034
48287SOL     OW44884   7.765   9.561   9.249
48287SOL    HW144885   7.836   9.632   9.255
48287SOL    HW244886   7.677   9.600   9.277
48288SOL     OW44887   8.914  10.727   8.401
48288SOL    HW144888   8.855  10.733   8.481
48288SOL    HW244889   8.899  10.639   8.355
48289SOL     OW44890   9.115  11.024   8.020
48289SOL    HW144891   9.074  11.001   7.932
48289SOL    HW244892   9.097  10.950   8.085
48290SOL     OW44893   8.046  10.039   7.718
48290SOL    HW144894   8.070  10.108   7.650
48290SOL    HW244895   7.968  10.072   7.772
48291SOL     OW44896   8.729   9.655   8.392
48291SOL    HW144897   8.643   9.605   8.379
48291SOL    HW244898   8.791   9.601   8.448
48292SOL     OW44899   9.024  10.972   7.755
48292SOL    HW144900   9.113  11.018   7.758
48292SOL    HW244901   9.003  10.948   7.660
48293SOL     OW44902   8.255   9.915   8.913
48293SOL    HW144903   8.208   9.912   9.002
48293SOL    HW244904   8.204   9.860   8.847
48294SOL     OW44905   8.842   9.779   9.122
48294SOL    HW144906   8.822   9.822   9.210
48294SOL    HW244907   8.920   9.717   9.131
48295SOL     OW44908   8.421  10.200   9.020
48295SOL    HW144909   8.467  10.116   8.991
48295SOL    HW244910   8.365  10.234   8.945
48296SOL     OW44911   8.439   9.720   8.690
48296SOL    HW144912   8.362   9.754   8.744
48296SOL    HW244913   8.405   9.669   8.611
48297SOL     OW44914   8.489  10.011   7.877
48297SOL    HW144915   8.515  10.007   7.973
48297SOL    HW244916   8.404   9.960   7.863
48298SOL     OW44917   7.524  10.121   8.237
48298SOL    HW144918   7.623  10.109   8.246
48298SOL    HW244919   7.500  10.216   8.258
48299SOL     OW44920   7.578  11.131   9.019
48299SOL    HW144921   7.568  11.116   9.118
48299SOL    HW244922   7.492  11.167   8.983
48300SOL     OW44923   8.313   9.658   7.643
48300SOL    HW144924   8.372   9.721   7.594
48300SOL    HW244925   8.332   9.564   7.614
48301SOL     OW44926   9.167   9.895   9.279
48301SOL    HW144927   9.141   9.984   9.243
48301SOL    HW244928   9.165   9.827   9.206
48302SOL     OW44929   8.810  10.454   7.993
48302SOL    HW144930   8.893  10.425   7.945
48302SOL    HW244931   8.761  10.521   7.937
48303SOL     OW44932   7.998   9.506   8.333
48303SOL    HW144933   7.993   9.501   8.433
48303SOL    HW244934   8.000   9.602   8.304
48304SOL     OW44935   8.456  10.766   7.925
48304SOL    HW144936   8.410  10.838   7.873
48304SOL    HW244937   8.452  10.786   8.023
48305SOL     OW44938   7.799  11.111   8.301
48305SOL    HW144939   7.849  11.025   8.307
48305SOL    HW244940   7.864  11.188   8.298
48306SOL     OW44941   9.243  10.376   8.321
48306SOL    HW144942   9.181  10.361   8.245
48306SOL    HW244943   9.191  10.387   8.406
48307SOL     OW44944   8.675  10.860   8.954
48307SOL    HW144945   8.681  10.783   9.018
48307SOL    HW244946   8.623  10.834   8.874
48308SOL     OW44947   7.769  10.253   7.690
48308SOL    HW144948   7.851  10.292   7.648
48308SOL    HW244949   7.742  10.171   7.641
48309SOL     OW44950   8.906  10.045   8.176
48309SOL    HW144951   8.901   9.980   8.251
48309SOL    HW244952   8.986  10.104   8.189
48310SOL     OW44953   7.909  10.576   9.175
48310SOL    HW144954   7.859  10.577   9.089
48310SOL    HW244955   7.846  10.558   9.251
48311SOL     OW44956   8.559  11.086   7.685
48311SOL    HW144957   8.499  11.024   7.735
48311SOL    HW244958   8.590  11.042   7.600
48312SOL     OW44959   7.650   9.595   8.946
48312SOL    HW144960   7.570   9.655   8.933
48312SOL    HW244961   7.640   9.546   9.032
48313SOL     OW44962   9.080  10.687   7.529
48313SOL    HW144963   9.048  10.781   7.519
48313SOL    HW244964   9.004  10.624   7.517
48314SOL     OW44965   7.912  11.053   7.771
48314SOL    HW144966   7.945  11.092   7.857
48314SOL    HW244967   7.988  11.046   7.706
48315SOL     OW44968   8.848   9.417   7.874
48315SOL    HW144969   8.824   9.380   7.784
48315SOL    HW244970   8.947   9.433   7.878
48316SOL     OW44971   7.697  11.095   8.689
48316SOL    HW144972   7.754  11.030   8.739
48316SOL    HW244973   7.681  11.062   8.596
48317SOL     OW44974   8.388  11.008   8.352
48317SOL    HW144975   8.468  10.951   8.373
48317SOL    HW244976   8.339  10.968   8.275
48318SOL     OW44977   7.830  10.010   7.928
48318SOL    HW144978   7.875   9.920   7.925
48318SOL    HW244979   7.736   9.999   7.961
48319SOL     OW44980   8.995   9.532   9.177
48319SOL    HW144981   8.990   9.569   9.269
48319SOL    HW244982   8.923   9.463   9.165
48320SOL     OW44983   8.062   9.432   7.565
48320SOL    HW144984   8.160   9.410   7.572
48320SOL    HW244985   8.031   9.415   7.472
48321SOL     OW44986   8.229   9.574   9.197
48321SOL    HW144987   8.296   9.513   9.240
48321SOL    HW244988   8.156   9.593   9.262
48322SOL     OW44989   8.336  10.824   8.643
48322SOL    HW144990   8.313  10.799   8.549
48322SOL    HW244991   8.397  10.755   8.682
48323SOL     OW44992   8.799   9.900   8.881
48323SOL    HW144993   8.827   9.857   8.966
48323SOL    HW244994   8.824   9.996   8.882
48324SOL     OW44995   8.251  10.712   8.372
48324SOL    HW144996   8.341  10.726   8.330
48324SOL    HW244997   8.180  10.714   8.301
48325SOL     OW44998   8.370   9.813   8.347
48325SOL    HW144999   8.345   9.804   8.251
48325SOL    HW245000   8.418   9.731   8.378
48326SOL     OW45001   7.987   9.374   7.960
48326SOL    HW145002   7.906   9.375   8.018
48326SOL    HW245003   7.990   9.457   7.905
48327SOL     OW45004   8.882  10.498   7.489
48327SOL    HW145005   8.914  10.422   7.546
48327SOL    HW245006   8.790  10.525   7.519
48328SOL     OW45007   7.745   9.345   7.619
48328SOL    HW145008   7.794   9.429   7.598
48328SOL    HW245009   7.807   9.280   7.664
48329SOL     OW45010   8.383   9.546   7.928
48329SOL    HW145011   8.335   9.587   7.850
48329SOL    HW245012   8.482   9.544   7.909
48330SOL     OW45013   8.524   9.993   8.912
48330SOL    HW145014   8.444   9.932   8.915
48330SOL    HW245015   8.605   9.940   8.888
48331SOL     OW45016   8.675  10.880   8.241
48331SOL    HW145017   8.696  10.954   8.176
48331SOL    HW245018   8.743  10.880   8.314
48332SOL     OW45019   7.907  10.462   8.189
48332SOL    HW145020   7.836  10.435   8.254
48332SOL    HW245021   7.881  10.434   8.096
48333SOL     OW45022   8.719  11.107   8.039
48333SOL    HW145023   8.763  11.171   7.975
48333SOL    HW245024   8.669  11.159   8.109
48334SOL     OW45025   8.480   9.859   7.464
48334SOL    HW145026   8.439   9.941   7.425
48334SOL    HW245027   8.544   9.885   7.537
48335SOL     OW45028   7.526   9.866   8.834
48335SOL    HW145029   7.618   9.865   8.793
48335SOL    HW245030   7.520   9.940   8.901
48336SOL     OW45031   8.009   9.532   8.595
48336SOL    HW145032   8.047   9.448   8.632
48336SOL    HW245033   7.921   9.551   8.639
48337SOL     OW45034   8.314   9.764   8.090
48337SOL    HW145035   8.282   9.836   8.028
48337SOL    HW245036   8.338   9.683   8.037
48338SOL     OW45037   8.465   9.349   8.201
48338SOL    HW145038   8.393   9.354   8.132
48338SOL    HW245039   8.441   9.280   8.270
48339SOL     OW45040   8.877  10.483   8.315
48339SOL    HW145041   8.822  10.399   8.308
48339SOL    HW245042   8.903  10.512   8.223
48340SOL     OW45043   8.914   9.900   8.440
48340SOL    HW145044   8.884   9.805   8.447
48340SOL    HW245045   8.987   9.916   8.506
48341SOL     OW45046   9.305  10.143   7.825
48341SOL    HW145047   9.347  10.079   7.889
48341SOL    HW245048   9.267  10.092   7.747
48342SOL     OW45049   7.936  10.695   7.622
48342SOL    HW145050   7.849  10.680   7.669
48342SOL    HW245051   7.919  10.721   7.527
48343SOL     OW45052   9.112  10.590   8.105
48343SOL    HW145053   9.211  10.598   8.119
48343SOL    HW245054   9.067  10.674   8.136
48344SOL     OW45055   8.838   9.885   7.526
48344SOL    HW145056   8.784   9.864   7.607
48344SOL    HW245057   8.929   9.844   7.535
48345SOL     OW45058   7.975   9.566   7.776
48345SOL    HW145059   8.002   9.507   7.701
48345SOL    HW245060   7.975   9.661   7.745
48346SOL     OW45061   9.202  10.533   9.036
48346SOL    HW145062   9.293  10.494   9.023
48346SOL    HW245063   9.210  10.629   9.060
48347SOL     OW45064   8.512  10.657   8.788
48347SOL    HW145065   8.432  10.634   8.843
48347SOL    HW245066   8.595  10.631   8.837
48348SOL     OW45067   9.040  10.939   9.073
48348SOL    HW145068   9.067  10.973   8.983
48348SOL    HW245069   9.119  10.901   9.119
48349SOL     OW45070   8.559  10.505   8.548
48349SOL    HW145071   8.519  10.549   8.629
48349SOL    HW245072   8.518  10.542   8.465
48350SOL     OW45073   9.086  10.409   8.527
48350SOL    HW145074   9.091  10.490   8.586
48350SOL    HW245075   9.000  10.411   8.476
48351SOL     OW45076   8.363   9.399   8.850
48351SOL    HW145077   8.388   9.379   8.755
48351SOL    HW245078   8.435   9.455   8.892
48352SOL     OW45079   8.428  10.426   9.167
48352SOL    HW145080   8.329  10.432   9.177
48352SOL    HW245081   8.451  10.346   9.111
48353SOL     OW45082   8.153  10.360   7.816
48353SOL    HW145083   8.139  10.367   7.915
48353SOL    HW245084   8.237  10.309   7.798
48354SOL     OW45085   7.858  10.123   8.699
48354SOL    HW145086   7.944  10.135   8.749
48354SOL    HW245087   7.816  10.036   8.726
48355SOL     OW45088   8.722   9.696   8.710
48355SOL    HW145089   8.743   9.770   8.774
48355SOL    HW245090   8.633   9.713   8.667
48356SOL     OW45091   7.512  10.874   8.779
48356SOL    HW145092   7.466  10.956   8.745
48356SOL    HW245093   7.610  10.893   8.788
48357SOL     OW45094   7.815  10.410   7.949
48357SOL    HW145095   7.808  10.493   7.893
48357SOL    HW245096   7.819  10.330   7.889
48358SOL     OW45097   8.014   9.847   8.313
48358SOL    HW145098   8.026   9.913   8.239
48358SOL    HW245099   8.060   9.881   8.396
48359SOL     OW45100   8.700  10.658   7.836
48359SOL    HW145101   8.750  10.735   7.876
48359SOL    HW245102   8.605  10.660   7.868
48360SOL     OW45103   8.720  10.755   8.590
48360SOL    HW145104   8.767  10.768   8.677
48360SOL    HW245105   8.654  10.681   8.599
48361SOL     OW45106   9.030   9.949   7.920
48361SOL    HW145107   8.999  10.010   7.993
48361SOL    HW245108   9.080  10.001   7.851
48362SOL     OW45109   7.802  10.820   8.777
48362SOL    HW145110   7.781  10.776   8.690
48362SOL    HW245111   7.899  10.846   8.780
48363SOL     OW45112   7.850  10.061   9.046
48363SOL    HW145113   7.918  10.116   8.999
48363SOL    HW245114   7.890   9.973   9.073
48364SOL     OW45115   9.035  10.089   9.118
48364SOL    HW145116   8.943  10.127   9.113
48364SOL    HW245117   9.095  10.136   9.053
48365SOL     OW45118   8.461   9.415   9.218
48365SOL    HW145119   8.467   9.500   9.166
48365SOL    HW245120   8.493   9.339   9.161
48366SOL     OW45121   7.952   9.360   9.188
48366SOL    HW145122   7.910   9.303   9.118
48366SOL    HW245123   7.886   9.429   9.220
48367SOL     OW45124   8.021  10.180   8.477
48367SOL    HW145125   8.065  10.269   8.468
48367SOL    HW245126   7.958  10.180   8.554
48368SOL     OW45127   8.808  10.172   8.493
48368SOL    HW145128   8.733  10.172   8.427
48368SOL    HW245129   8.845  10.080   8.502
48369SOL     OW45130   8.657   9.835   7.723
48369SOL    HW145131   8.670   9.751   7.777
48369SOL    HW245132   8.628   9.909   7.783
48370SOL     OW45133   7.755   9.523   8.679
48370SOL    HW145134   7.732   9.560   8.769
48370SOL    HW245135   7.725   9.428   8.673
48371SOL     OW45136   7.485  10.620   8.730
48371SOL    HW145137   7.538  10.571   8.798
48371SOL    HW245138   7.507  10.718   8.735
48372SOL     OW45139   8.180   9.944   8.512
48372SOL    HW145140   8.239   9.918   8.436
48372SOL    HW245141   8.152  10.040   8.501
48373SOL     OW45142   9.176  10.245   9.302
48373SOL    HW145143   9.130  10.238   9.213
48373SOL    HW245144   9.114  10.289   9.368
48374SOL     OW45145   7.755   9.373   8.066
48374SOL    HW145146   7.744   9.467   8.099
48374SOL    HW245147   7.750   9.310   8.143
48375SOL     OW45148   9.070   9.677   7.822
48375SOL    HW145149   9.072   9.601   7.886
48375SOL    HW245150   9.022   9.754   7.862
48376SOL     OW45151   8.471  10.076   8.414
48376SOL    HW145152   8.486  10.097   8.510
48376SOL    HW245153   8.441   9.981   8.405
48377SOL     OW45154   8.428  10.883   9.148
48377SOL    HW145155   8.408  10.927   9.060
48377SOL    HW245156   8.467  10.792   9.132
48378SOL     OW45157   9.307  10.828   9.053
48378SOL    HW145158   9.321  10.855   8.958
48378SOL    HW245159   9.390  10.850   9.106
48379SOL     OW45160   7.798  10.208   9.252
48379SOL    HW145161   7.874  10.252   9.300
48379SOL    HW245162   7.833  10.161   9.170
48380SOL     OW45163   8.988   9.584   7.573
48380SOL    HW145164   8.927   9.509   7.596
48380SOL    HW245165   9.010   9.636   7.656
48381SOL     OW45166   8.751  10.148   7.490
48381SOL    HW145167   8.785  10.055   7.505
48381SOL    HW245168   8.769  10.175   7.395
48382SOL     OW45169   8.516  10.643   8.297
48382SOL    HW145170   8.523  10.559   8.242
48382SOL    HW245171   8.578  10.712   8.261
48383SOL     OW45172   7.767  10.120   8.397
48383SOL    HW145173   7.860  10.156   8.402
48383SOL    HW245174   7.761  10.035   8.449
48384SOL     OW45175   7.787   9.819   8.454
48384SOL    HW145176   7.735   9.736   8.437
48384SOL    HW245177   7.864   9.824   8.390
48385SOL     OW45178   8.586   9.690   9.126
48385SOL    HW145179   8.541   9.753   9.190
48385SOL    HW245180   8.679   9.721   9.109
48386SOL     OW45181   8.608   9.517   8.925
48386SOL    HW145182   8.608   9.581   9.002
48386SOL    HW245183   8.636   9.565   8.842
48387SOL     OW45184   7.456  10.636   7.648
48387SOL    HW145185   7.363  10.657   7.617
48387SOL    HW245186   7.466  10.537   7.661
48388SOL     OW45187   7.536  11.111   8.375
48388SOL    HW145188   7.494  11.025   8.348
48388SOL    HW245189   7.630  11.114   8.341
48389SOL     OW45190   7.952  10.878   8.358
48389SOL    HW145191   8.018  10.952   8.367
48389SOL    HW245192   7.996  10.799   8.316
48390SOL     OW45193   8.450  10.106   8.686
48390SOL    HW145194   8.491  10.074   8.772
48390SOL    HW245195   8.354  10.079   8.683
48391SOL     OW45196   7.488   9.854   8.562
48391SOL    HW145197   7.573   9.821   8.521
48391SOL    HW245198   7.501   9.869   8.660
48392SOL     OW45199   7.637   9.830   9.170
48392SOL    HW145200   7.696   9.790   9.100
48392SOL    HW245201   7.579   9.901   9.129
48393SOL     OW45202   8.817  10.260   9.108
48393SOL    HW145203   8.856  10.349   9.128
48393SOL    HW245204   8.827  10.240   9.011
48394SOL     OW45205   8.263   9.882   7.773
48394SOL    HW145206   8.270   9.793   7.727
48394SOL    HW245207   8.169   9.916   7.765
48395SOL     OW45208   9.105   9.914   8.654
48395SOL    HW145209   9.067   9.845   8.716
48395SOL    HW245210   9.187   9.878   8.610
48396SOL     OW45211   7.700  10.874   9.192
48396SOL    HW145212   7.670  10.931   9.268
48396SOL    HW245213   7.693  10.777   9.218
48397SOL     OW45214   8.119   9.774   8.717
48397SOL    HW145215   8.085   9.685   8.687
48397SOL    HW245216   8.145   9.828   8.637
48398SOL     OW45217   8.378  10.988   8.913
48398SOL    HW145218   8.354  10.970   8.818
48398SOL    HW245219   8.408  11.082   8.923
48399SOL     OW45220   7.921   9.810   7.639
48399SOL    HW145221   7.982   9.890   7.643
48399SOL    HW245222   7.826   9.841   7.646
48400SOL     OW45223   7.607  10.447   8.914
48400SOL    HW145224   7.629  10.386   8.990
48400SOL    HW245225   7.617  10.398   8.828
48401SOL     OW45226   8.795  10.369   8.682
48401SOL    HW145227   8.819  10.306   8.608
48401SOL    HW245228   8.705  10.409   8.664
48402SOL     OW45229   8.750  10.165   7.757
48402SOL    HW145230   8.664  10.134   7.799
48402SOL    HW245231   8.746  10.151   7.658
48403SOL     OW45232   9.207  11.057   8.602
48403SOL    HW145233   9.268  11.087   8.529
48403SOL    HW245234   9.169  10.968   8.580
48404SOL     OW45235   8.700  11.041   8.576
48404SOL    HW145236   8.784  11.046   8.522
48404SOL    HW245237   8.677  10.945   8.594
48405SOL     OW45238   7.531  10.568   8.470
48405SOL    HW145239   7.526  10.567   8.570
48405SOL    HW245240   7.448  10.527   8.432
48406SOL     OW45241   8.136  10.972   9.164
48406SOL    HW145242   8.080  11.053   9.173
48406SOL    HW245243   8.188  10.976   9.078
48407SOL     OW45244   9.174   9.445   7.971
48407SOL    HW145245   9.247   9.428   7.904
48407SOL    HW245246   9.143   9.358   8.009
48408SOL     OW45247   8.836  10.883   7.925
48408SOL    HW145248   8.903  10.895   7.851
48408SOL    HW245249   8.796  10.972   7.948
48409SOL     OW45250   7.578  11.104   9.299
48409SOL    HW145251   7.537  11.030   9.352
48409SOL    HW245252   7.642  11.155   9.357
48410SOL     OW45253   8.728  10.237   8.120
48410SOL    HW145254   8.788  10.156   8.122
48410SOL    HW245255   8.768  10.306   8.060
48411SOL     OW45256   8.278  10.583   8.870
48411SOL    HW145257   8.273  10.616   8.965
48411SOL    HW245258   8.192  10.602   8.824
48412SOL     OW45259   8.120  10.926   7.602
48412SOL    HW145260   8.129  10.936   7.503
48412SOL    HW245261   8.080  10.837   7.623
48413SOL     OW45262   9.098  11.030   8.842
48413SOL    HW145263   9.151  11.040   8.758
48413SOL    HW245264   9.071  11.120   8.876
48414SOL     OW45265   9.289   9.485   8.411
48414SOL    HW145266   9.328   9.400   8.375
48414SOL    HW245267   9.191   9.487   8.392
48415SOL     OW45268   7.711   9.636   8.168
48415SOL    HW145269   7.632   9.687   8.134
48415SOL    HW245270   7.702   9.621   8.266
48416SOL     OW45271   8.642  10.922   7.479
48416SOL    HW145272   8.648  10.829   7.516
48416SOL    HW245273   8.583  10.922   7.399
48417SOL     OW45274   8.270  10.312   8.820
48417SOL    HW145275   8.310  10.311   8.728
48417SOL    HW245276   8.280  10.404   8.860
48418SOL     OW45277   8.364  10.220   7.739
48418SOL    HW145278   8.427  10.258   7.671
48418SOL    HW245279   8.404  10.137   7.778
48419SOL     OW45280   8.952  10.917   7.492
48419SOL    HW145281   8.860  10.954   7.499
48419SOL    HW245282   8.990  10.937   7.402
48420SOL     OW45283   7.820  10.598   8.938
48420SOL    HW145284   7.807  10.691   8.904
48420SOL    HW245285   7.736  10.546   8.925
48421SOL     OW45286   9.062  10.602   8.737
48421SOL    HW145287   9.122  10.605   8.817
48421SOL    HW245288   8.987  10.666   8.750
48422SOL     OW45289   8.487  10.408   8.144
48422SOL    HW145290   8.417  10.361   8.198
48422SOL    HW245291   8.546  10.340   8.101
48423SOL     OW45292   8.462   9.546   8.419
48423SOL    HW145293   8.454   9.510   8.326
48423SOL    HW245294   8.460   9.470   8.484
48424SOL     OW45295   8.038  10.797   7.939
48424SOL    HW145296   8.080  10.739   7.869
48424SOL    HW245297   7.994  10.876   7.895
48425SOL     OW45298   9.157   9.695   8.829
48425SOL    HW145299   9.230   9.764   8.833
48425SOL    HW245300   9.185   9.620   8.770
48426SOL     OW45301   7.703  10.658   7.738
48426SOL    HW145302   7.607  10.659   7.711
48426SOL    HW245303   7.715  10.711   7.822
48427SOL     OW45304   7.553  10.323   9.174
48427SOL    HW145305   7.476  10.290   9.228
48427SOL    HW245306   7.638  10.293   9.216
48428SOL     OW45307   8.120   9.513   8.937
48428SOL    HW145308   8.210   9.497   8.897
48428SOL    HW245309   8.128   9.518   9.036
48429SOL     OW45310   7.523   9.655   7.481
48429SOL    HW145311   7.431   9.627   7.452
48429SOL    HW245312   7.554   9.732   7.425
48430SOL     OW45313   8.888  10.166   8.846
48430SOL    HW145314   8.831  10.218   8.783
48430SOL    HW245315   8.984  10.178   8.822
48431SOL     OW45316   7.520   9.476   7.766
48431SOL    HW145317   7.503   9.559   7.712
48431SOL    HW245318   7.610   9.439   7.744
48432SOL     OW45319   8.631  10.645   7.567
48432SOL    HW145320   8.532  10.634   7.569
48432SOL    HW245321   8.665  10.660   7.660
48433SOL     OW45322   8.061  10.152   8.879
48433SOL    HW145323   8.117  10.233   8.862
48433SOL    HW245324   8.120  10.072   8.882
48434SOL     OW45325   8.941  11.077   8.407
48434SOL    HW145326   8.974  11.141   8.338
48434SOL    HW245327   9.007  11.071   8.482
48435SOL     OW45328   8.164   9.875   9.156
48435SOL    HW145329   8.183   9.940   9.230
48435SOL    HW245330   8.224   9.795   9.165
48436SOL     OW45331   8.898  10.530   9.081
48436SOL    HW145332   8.889  10.520   9.180
48436SOL    HW245333   8.994  10.523   9.055
48437SOL     OW45334   7.838  11.051   9.008
48437SOL    HW145335   7.747  11.092   9.006
48437SOL    HW245336   7.831  10.957   9.040
48438SOL     OW45337   9.122  10.193   8.702
48438SOL    HW145338   9.095  10.104   8.665
48438SOL    HW245339   9.123  10.261   8.629
48439SOL     OW45340   8.673   9.635   7.897
48439SOL    HW145341   8.738   9.561   7.886
48439SOL    HW245342   8.693   9.685   7.981
48440SOL     OW45343   8.042  10.055   8.100
48440SOL    HW145344   8.092  10.140   8.081
48440SOL    HW245345   7.954  10.057   8.052
48441SOL     OW45346   9.225   9.652   9.090
48441SOL    HW145347   9.208   9.683   8.996
48441SOL    HW245348   9.141   9.615   9.128
48442SOL     OW45349   9.178  10.244   8.965
48442SOL    HW145350   9.216  10.335   8.980
48442SOL    HW245351   9.170  10.227   8.866
48443SOL     OW45352   8.307  10.684   7.464
48443SOL    HW145353   8.261  10.699   7.552
48443SOL    HW245354   8.351  10.769   7.434
48444SOL     OW45355   8.109  11.100   8.401
48444SOL    HW145356   8.063  11.188   8.388
48444SOL    HW245357   8.208  11.112   8.394
48445SOL     OW45358   8.307  10.266   8.309
48445SOL    HW145359   8.361  10.197   8.357
48445SOL    HW245360   8.275  10.335   8.375
48446SOL     OW45361   8.531  10.294   7.535
48446SOL    HW145362   8.508  10.347   7.453
48446SOL    HW245363   8.612  10.238   7.516
48447SOL     OW45364   9.309  10.879   8.299
48447SOL    HW145365   9.238  10.867   8.229
48447SOL    HW245366   9.310  10.800   8.359
48448SOL     OW45367   7.669  10.624   9.292
48448SOL    HW145368   7.604  10.551   9.271
48448SOL    HW245369   7.673  10.638   9.390
48449SOL     OW45370   7.527  10.550   8.101
48449SOL    HW145371   7.526  10.503   8.189
48449SOL    HW245372   7.609  10.522   8.050
48450SOL     OW45373   8.120  10.701   9.072
48450SOL    HW145374   8.042  10.651   9.110
48450SOL    HW245375   8.117  10.796   9.103
48451SOL     OW45376   9.272   9.502   8.675
48451SOL    HW145377   9.268   9.412   8.719
48451SOL    HW245378   9.275   9.491   8.576
48452SOL     OW45379   7.876   9.734   7.968
48452SOL    HW145380   7.906   9.662   7.906
48452SOL    HW245381   7.837   9.694   8.051
48453SOL     OW45382   9.153  10.797   8.552
48453SOL    HW145383   9.060  10.772   8.525
48453SOL    HW245384   9.179  10.747   8.634
48454SOL     OW45385   7.765   9.857   8.728
48454SOL    HW145386   7.803   9.798   8.800
48454SOL    HW245387   7.805   9.831   8.640
48455SOL     OW45388   8.260  10.896   8.135
48455SOL    HW145389   8.292  10.906   8.041
48455SOL    HW245390   8.181  10.834   8.137
48456SOL     OW45391   8.872   9.524   8.560
48456SOL    HW145392   8.924   9.459   8.615
48456SOL    HW245393   8.823   9.587   8.621
48457SOL     OW45394   8.449   9.344   8.602
48457SOL    HW145395   8.386   9.272   8.571
48457SOL    HW245396   8.542   9.308   8.602
48458SOL     OW45397   8.218  10.640   7.749
48458SOL    HW145398   8.172  10.553   7.766
48458SOL    HW245399   8.309  10.637   7.790
48459SOL     OW45400   8.066  10.877   8.732
48459SOL    HW145401   8.061  10.959   8.789
48459SOL    HW245402   8.155  10.874   8.687
48460SOL     OW45403   8.800   9.362   7.616
48460SOL    HW145404   8.835   9.321   7.532
48460SOL    HW245405   8.710   9.324   7.636
48461SOL     OW45406   8.748   9.763   8.139
48461SOL    HW145407   8.689   9.843   8.143
48461SOL    HW245408   8.763   9.728   8.232
48462SOL     OW45409   9.041   9.531   8.330
48462SOL    HW145410   8.957   9.530   8.384
48462SOL    HW245411   9.043   9.614   8.274
48463SOL     OW45412   7.487  10.387   7.748
48463SOL    HW145413   7.586  10.376   7.739
48463SOL    HW245414   7.447  10.301   7.780
48464SOL     OW45415   8.323  10.956   7.785
48464SOL    HW145416   8.246  10.921   7.731
48464SOL    HW245417   8.291  11.027   7.847
48465SOL     OW45418   7.678   9.938   9.423
48465SOL    HW145419   7.585   9.936   9.460
48465SOL    HW245420   7.679   9.899   9.331
48466SOL     OW45421   7.673   9.585  10.306
48466SOL    HW145422   7.708   9.568  10.398
48466SOL    HW245423   7.585   9.540  10.294
48467SOL     OW45424   7.467   9.678   9.957
48467SOL    HW145425   7.385   9.721   9.996
48467SOL    HW245426   7.439   9.605   9.894
48468SOL     OW45427   8.017  10.585  10.475
48468SOL    HW145428   7.924  10.578  10.438
48468SOL    HW245429   8.028  10.674  10.519
48469SOL     OW45430   9.003  10.821  10.013
48469SOL    HW145431   8.946  10.805  10.094
48469SOL    HW245432   8.944  10.831   9.933
48470SOL     OW45433   8.583  10.013  10.027
48470SOL    HW145434   8.640  10.091  10.002
48470SOL    HW245435   8.523  10.039  10.103
48471SOL     OW45436   9.203   9.917   9.541
48471SOL    HW145437   9.191   9.904   9.442
48471SOL    HW245438   9.173   9.836   9.590
48472SOL     OW45439   8.216  10.454  10.333
48472SOL    HW145440   8.138  10.471  10.393
48472SOL    HW245441   8.250  10.541  10.297
48473SOL     OW45442   8.298  10.108  11.133
48473SOL    HW145443   8.294  10.184  11.198
48473SOL    HW245444   8.320  10.144  11.042
48474SOL     OW45445   8.133  10.322   9.975
48474SOL    HW145446   8.202  10.306  10.045
48474SOL    HW245447   8.060  10.379  10.013
48475SOL     OW45448   8.134  10.471  11.113
48475SOL    HW145449   8.194  10.550  11.127
48475SOL    HW245450   8.048  10.502  11.072
48476SOL     OW45451   7.783  10.745  10.371
48476SOL    HW145452   7.705  10.714  10.318
48476SOL    HW245453   7.841  10.803  10.314
48477SOL     OW45454   8.908  10.815  10.649
48477SOL    HW145455   8.932  10.909  10.675
48477SOL    HW245456   8.892  10.761  10.731
48478SOL     OW45457   7.886   9.702  10.809
48478SOL    HW145458   7.968   9.646  10.818
48478SOL    HW245459   7.805   9.644  10.813
48479SOL     OW45460   9.051   9.757  10.047
48479SOL    HW145461   8.977   9.803   9.997
48479SOL    HW245462   9.102   9.825  10.100
48480SOL     OW45463   7.679  11.023   9.793
48480SOL    HW145464   7.713  11.100   9.847
48480SOL    HW245465   7.723  11.023   9.703
48481SOL     OW45466   8.575  10.651  11.000
48481SOL    HW145467   8.622  10.651  11.088
48481SOL    HW245468   8.527  10.564  10.989
48482SOL     OW45469   7.678  10.744   9.848
48482SOL    HW145470   7.652  10.840   9.848
48482SOL    HW245471   7.607  10.690   9.893
48483SOL     OW45472   7.688  10.401  10.196
48483SOL    HW145473   7.702  10.317  10.248
48483SOL    HW245474   7.633  10.465  10.251
48484SOL     OW45475   8.068  11.096  10.749
48484SOL    HW145476   7.976  11.079  10.784
48484SOL    HW245477   8.096  11.188  10.775
48485SOL     OW45478   8.054  10.274   9.433
48485SOL    HW145479   8.061  10.358   9.379
48485SOL    HW245480   8.100  10.287   9.521
48486SOL     OW45481   9.042   9.424  10.790
48486SOL    HW145482   9.024   9.491  10.718
48486SOL    HW245483   9.039   9.470  10.879
48487SOL     OW45484   7.570   9.953   9.873
48487SOL    HW145485   7.525   9.865   9.890
48487SOL    HW245486   7.569  10.007   9.957
48488SOL     OW45487   9.290  11.077   9.669
48488SOL    HW145488   9.344  11.048   9.749
48488SOL    HW245489   9.320  11.167   9.640
48489SOL     OW45490   7.475  10.906   9.427
48489SOL    HW145491   7.456  10.810   9.448
48489SOL    HW245492   7.442  10.964   9.502
48490SOL     OW45493   9.137  10.232   9.922
48490SOL    HW145494   9.232  10.203   9.930
48490SOL    HW245495   9.129  10.297   9.847
48491SOL     OW45496   9.089  10.418   9.742
48491SOL    HW145497   9.175  10.420   9.690
48491SOL    HW245498   9.103  10.465   9.830
48492SOL     OW45499   7.561  10.047  10.907
48492SOL    HW145500   7.649  10.034  10.952
48492SOL    HW245501   7.548  10.144  10.885
48493SOL     OW45502   8.061  10.675  10.036
48493SOL    HW145503   8.012  10.588  10.045
48493SOL    HW245504   8.038  10.718   9.949
48494SOL     OW45505   8.741  10.538  10.733
48494SOL    HW145506   8.778  10.465  10.675
48494SOL    HW245507   8.793  10.543  10.818
48495SOL     OW45508   8.257   9.314   9.812
48495SOL    HW145509   8.297   9.405   9.803
48495SOL    HW245510   8.157   9.322   9.818
48496SOL     OW45511   7.645  10.286  10.574
48496SOL    HW145512   7.734  10.241  10.560
48496SOL    HW245513   7.572  10.221  10.555
48497SOL     OW45514   8.973  10.309   9.500
48497SOL    HW145515   8.910  10.233   9.513
48497SOL    HW245516   9.021  10.327   9.586
48498SOL     OW45517   8.635  11.102  10.926
48498SOL    HW145518   8.659  11.162  10.850
48498SOL    HW245519   8.642  11.007  10.896
48499SOL     OW45520   7.765   9.561  11.111
48499SOL    HW145521   7.836   9.632  11.117
48499SOL    HW245522   7.677   9.600  11.139
48500SOL     OW45523   8.914  10.727  10.263
48500SOL    HW145524   8.855  10.733  10.343
48500SOL    HW245525   8.899  10.639  10.217
48501SOL     OW45526   9.115  11.024   9.882
48501SOL    HW145527   9.074  11.001   9.794
48501SOL    HW245528   9.097  10.950   9.947
48502SOL     OW45529   8.046  10.039   9.580
48502SOL    HW145530   8.070  10.108   9.512
48502SOL    HW245531   7.968  10.072   9.634
48503SOL     OW45532   8.729   9.655  10.254
48503SOL    HW145533   8.643   9.605  10.241
48503SOL    HW245534   8.791   9.601  10.310
48504SOL     OW45535   9.024  10.972   9.617
48504SOL    HW145536   9.113  11.018   9.620
48504SOL    HW245537   9.003  10.948   9.522
48505SOL     OW45538   8.255   9.915  10.775
48505SOL    HW145539   8.208   9.912  10.864
48505SOL    HW245540   8.204   9.860  10.709
48506SOL     OW45541   8.842   9.779  10.984
48506SOL    HW145542   8.822   9.822  11.072
48506SOL    HW245543   8.920   9.717  10.993
48507SOL     OW45544   8.421  10.200  10.882
48507SOL    HW145545   8.467  10.116  10.853
48507SOL    HW245546   8.365  10.234  10.807
48508SOL     OW45547   8.439   9.720  10.552
48508SOL    HW145548   8.362   9.754  10.606
48508SOL    HW245549   8.405   9.669  10.473
48509SOL     OW45550   8.489  10.011   9.739
48509SOL    HW145551   8.515  10.007   9.835
48509SOL    HW245552   8.404   9.960   9.725
48510SOL     OW45553   7.524  10.121  10.099
48510SOL    HW145554   7.623  10.109  10.108
48510SOL    HW245555   7.500  10.216  10.120
48511SOL     OW45556   7.578  11.131  10.881
48511SOL    HW145557   7.568  11.116  10.980
48511SOL    HW245558   7.492  11.167  10.845
48512SOL     OW45559   8.313   9.658   9.505
48512SOL    HW145560   8.372   9.721   9.456
48512SOL    HW245561   8.332   9.564   9.476
48513SOL     OW45562   9.167   9.895  11.141
48513SOL    HW145563   9.141   9.984  11.105
48513SOL    HW245564   9.165   9.827  11.068
48514SOL     OW45565   8.810  10.454   9.855
48514SOL    HW145566   8.893  10.425   9.807
48514SOL    HW245567   8.761  10.521   9.799
48515SOL     OW45568   7.998   9.506  10.195
48515SOL    HW145569   7.993   9.501  10.295
48515SOL    HW245570   8.000   9.602  10.166
48516SOL     OW45571   8.456  10.766   9.787
48516SOL    HW145572   8.410  10.838   9.735
48516SOL    HW245573   8.452  10.786   9.885
48517SOL     OW45574   7.799  11.111  10.163
48517SOL    HW145575   7.849  11.025  10.169
48517SOL    HW245576   7.864  11.188  10.160
48518SOL     OW45577   9.243  10.376  10.183
48518SOL    HW145578   9.181  10.361  10.107
48518SOL    HW245579   9.191  10.387  10.268
48519SOL     OW45580   8.675  10.860  10.816
48519SOL    HW145581   8.681  10.783  10.880
48519SOL    HW245582   8.623  10.834  10.736
48520SOL     OW45583   7.769  10.253   9.552
48520SOL    HW145584   7.851  10.292   9.510
48520SOL    HW245585   7.742  10.171   9.503
48521SOL     OW45586   8.906  10.045  10.038
48521SOL    HW145587   8.901   9.980  10.113
48521SOL    HW245588   8.986  10.104  10.051
48522SOL     OW45589   7.909  10.576  11.037
48522SOL    HW145590   7.859  10.577  10.951
48522SOL    HW245591   7.846  10.558  11.113
48523SOL     OW45592   8.559  11.086   9.547
48523SOL    HW145593   8.499  11.024   9.597
48523SOL    HW245594   8.590  11.042   9.462
48524SOL     OW45595   7.650   9.595  10.808
48524SOL    HW145596   7.570   9.655  10.795
48524SOL    HW245597   7.640   9.546  10.894
48525SOL     OW45598   9.080  10.687   9.391
48525SOL    HW145599   9.048  10.781   9.381
48525SOL    HW245600   9.004  10.624   9.379
48526SOL     OW45601   7.912  11.053   9.633
48526SOL    HW145602   7.945  11.092   9.719
48526SOL    HW245603   7.988  11.046   9.568
48527SOL     OW45604   8.848   9.417   9.736
48527SOL    HW145605   8.824   9.380   9.646
48527SOL    HW245606   8.947   9.433   9.740
48528SOL     OW45607   7.697  11.095  10.551
48528SOL    HW145608   7.754  11.030  10.601
48528SOL    HW245609   7.681  11.062  10.458
48529SOL     OW45610   8.388  11.008  10.214
48529SOL    HW145611   8.468  10.951  10.235
48529SOL    HW245612   8.339  10.968  10.137
48530SOL     OW45613   7.830  10.010   9.790
48530SOL    HW145614   7.875   9.920   9.787
48530SOL    HW245615   7.736   9.999   9.823
48531SOL     OW45616   8.995   9.532  11.039
48531SOL    HW145617   8.990   9.569  11.131
48531SOL    HW245618   8.923   9.463  11.027
48532SOL     OW45619   8.062   9.432   9.427
48532SOL    HW145620   8.160   9.410   9.434
48532SOL    HW245621   8.031   9.415   9.334
48533SOL     OW45622   8.229   9.574  11.059
48533SOL    HW145623   8.296   9.513  11.102
48533SOL    HW245624   8.156   9.593  11.124
48534SOL     OW45625   8.336  10.824  10.505
48534SOL    HW145626   8.313  10.799  10.411
48534SOL    HW245627   8.397  10.755  10.544
48535SOL     OW45628   8.799   9.900  10.743
48535SOL    HW145629   8.827   9.857  10.828
48535SOL    HW245630   8.824   9.996  10.744
48536SOL     OW45631   8.251  10.712  10.234
48536SOL    HW145632   8.341  10.726  10.192
48536SOL    HW245633   8.180  10.714  10.163
48537SOL     OW45634   8.370   9.813  10.209
48537SOL    HW145635   8.345   9.804  10.113
48537SOL    HW245636   8.418   9.731  10.240
48538SOL     OW45637   7.987   9.374   9.822
48538SOL    HW145638   7.906   9.375   9.880
48538SOL    HW245639   7.990   9.457   9.767
48539SOL     OW45640   8.882  10.498   9.351
48539SOL    HW145641   8.914  10.422   9.408
48539SOL    HW245642   8.790  10.525   9.381
48540SOL     OW45643   7.745   9.345   9.481
48540SOL    HW145644   7.794   9.429   9.460
48540SOL    HW245645   7.807   9.280   9.526
48541SOL     OW45646   8.383   9.546   9.790
48541SOL    HW145647   8.335   9.587   9.712
48541SOL    HW245648   8.482   9.544   9.771
48542SOL     OW45649   8.524   9.993  10.774
48542SOL    HW145650   8.444   9.932  10.777
48542SOL    HW245651   8.605   9.940  10.750
48543SOL     OW45652   8.675  10.880  10.103
48543SOL    HW145653   8.696  10.954  10.038
48543SOL    HW245654   8.743  10.880  10.176
48544SOL     OW45655   7.907  10.462  10.051
48544SOL    HW145656   7.836  10.435  10.116
48544SOL    HW245657   7.881  10.434   9.958
48545SOL     OW45658   8.719  11.107   9.901
48545SOL    HW145659   8.763  11.171   9.837
48545SOL    HW245660   8.669  11.159   9.971
48546SOL     OW45661   8.480   9.859   9.326
48546SOL    HW145662   8.439   9.941   9.287
48546SOL    HW245663   8.544   9.885   9.399
48547SOL     OW45664   7.526   9.866  10.696
48547SOL    HW145665   7.618   9.865  10.655
48547SOL    HW245666   7.520   9.940  10.763
48548SOL     OW45667   8.009   9.532  10.457
48548SOL    HW145668   8.047   9.448  10.494
48548SOL    HW245669   7.921   9.551  10.501
48549SOL     OW45670   8.314   9.764   9.952
48549SOL    HW145671   8.282   9.836   9.890
48549SOL    HW245672   8.338   9.683   9.899
48550SOL     OW45673   8.465   9.349  10.063
48550SOL    HW145674   8.393   9.354   9.994
48550SOL    HW245675   8.441   9.280  10.132
48551SOL     OW45676   8.877  10.483  10.177
48551SOL    HW145677   8.822  10.399  10.170
48551SOL    HW245678   8.903  10.512  10.085
48552SOL     OW45679   8.914   9.900  10.302
48552SOL    HW145680   8.884   9.805  10.309
48552SOL    HW245681   8.987   9.916  10.368
48553SOL     OW45682   9.305  10.143   9.687
48553SOL    HW145683   9.347  10.079   9.751
48553SOL    HW245684   9.267  10.092   9.609
48554SOL     OW45685   7.936  10.695   9.484
48554SOL    HW145686   7.849  10.680   9.531
48554SOL    HW245687   7.919  10.721   9.389
48555SOL     OW45688   9.112  10.590   9.967
48555SOL    HW145689   9.211  10.598   9.981
48555SOL    HW245690   9.067  10.674   9.998
48556SOL     OW45691   8.838   9.885   9.388
48556SOL    HW145692   8.784   9.864   9.469
48556SOL    HW245693   8.929   9.844   9.397
48557SOL     OW45694   7.975   9.566   9.638
48557SOL    HW145695   8.002   9.507   9.563
48557SOL    HW245696   7.975   9.661   9.607
48558SOL     OW45697   9.202  10.533  10.898
48558SOL    HW145698   9.293  10.494  10.885
48558SOL    HW245699   9.210  10.629  10.922
48559SOL     OW45700   8.512  10.657  10.650
48559SOL    HW145701   8.432  10.634  10.705
48559SOL    HW245702   8.595  10.631  10.699
48560SOL     OW45703   9.040  10.939  10.935
48560SOL    HW145704   9.067  10.973  10.845
48560SOL    HW245705   9.119  10.901  10.981
48561SOL     OW45706   8.559  10.505  10.410
48561SOL    HW145707   8.519  10.549  10.491
48561SOL    HW245708   8.518  10.542  10.327
48562SOL     OW45709   9.086  10.409  10.389
48562SOL    HW145710   9.091  10.490  10.448
48562SOL    HW245711   9.000  10.411  10.338
48563SOL     OW45712   8.363   9.399  10.712
48563SOL    HW145713   8.388   9.379  10.617
48563SOL    HW245714   8.435   9.455  10.754
48564SOL     OW45715   8.428  10.426  11.029
48564SOL    HW145716   8.329  10.432  11.039
48564SOL    HW245717   8.451  10.346  10.973
48565SOL     OW45718   8.153  10.360   9.678
48565SOL    HW145719   8.139  10.367   9.777
48565SOL    HW245720   8.237  10.309   9.660
48566SOL     OW45721   7.858  10.123  10.561
48566SOL    HW145722   7.944  10.135  10.611
48566SOL    HW245723   7.816  10.036  10.588
48567SOL     OW45724   8.722   9.696  10.572
48567SOL    HW145725   8.743   9.770  10.636
48567SOL    HW245726   8.633   9.713  10.529
48568SOL     OW45727   7.512  10.874  10.641
48568SOL    HW145728   7.466  10.956  10.607
48568SOL    HW245729   7.610  10.893  10.650
48569SOL     OW45730   7.815  10.410   9.811
48569SOL    HW145731   7.808  10.493   9.755
48569SOL    HW245732   7.819  10.330   9.751
48570SOL     OW45733   8.014   9.847  10.175
48570SOL    HW145734   8.026   9.913  10.101
48570SOL    HW245735   8.060   9.881  10.258
48571SOL     OW45736   8.700  10.658   9.698
48571SOL    HW145737   8.750  10.735   9.738
48571SOL    HW245738   8.605  10.660   9.730
48572SOL     OW45739   8.720  10.755  10.452
48572SOL    HW145740   8.767  10.768  10.539
48572SOL    HW245741   8.654  10.681  10.461
48573SOL     OW45742   9.030   9.949   9.782
48573SOL    HW145743   8.999  10.010   9.855
48573SOL    HW245744   9.080  10.001   9.713
48574SOL     OW45745   7.802  10.820  10.639
48574SOL    HW145746   7.781  10.776  10.552
48574SOL    HW245747   7.899  10.846  10.642
48575SOL     OW45748   7.850  10.061  10.908
48575SOL    HW145749   7.918  10.116  10.861
48575SOL    HW245750   7.890   9.973  10.935
48576SOL     OW45751   9.035  10.089  10.980
48576SOL    HW145752   8.943  10.127  10.975
48576SOL    HW245753   9.095  10.136  10.915
48577SOL     OW45754   8.461   9.415  11.080
48577SOL    HW145755   8.467   9.500  11.028
48577SOL    HW245756   8.493   9.339  11.023
48578SOL     OW45757   7.952   9.360  11.050
48578SOL    HW145758   7.910   9.303  10.980
48578SOL    HW245759   7.886   9.429  11.082
48579SOL     OW45760   8.021  10.180  10.339
48579SOL    HW145761   8.065  10.269  10.330
48579SOL    HW245762   7.958  10.180  10.416
48580SOL     OW45763   8.808  10.172  10.355
48580SOL    HW145764   8.733  10.172  10.289
48580SOL    HW245765   8.845  10.080  10.364
48581SOL     OW45766   8.657   9.835   9.585
48581SOL    HW145767   8.670   9.751   9.639
48581SOL    HW245768   8.628   9.909   9.645
48582SOL     OW45769   7.755   9.523  10.541
48582SOL    HW145770   7.732   9.560  10.631
48582SOL    HW245771   7.725   9.428  10.535
48583SOL     OW45772   7.485  10.620  10.592
48583SOL    HW145773   7.538  10.571  10.660
48583SOL    HW245774   7.507  10.718  10.597
48584SOL     OW45775   8.180   9.944  10.374
48584SOL    HW145776   8.239   9.918  10.298
48584SOL    HW245777   8.152  10.040  10.363
48585SOL     OW45778   9.176  10.245  11.164
48585SOL    HW145779   9.130  10.238  11.075
48585SOL    HW245780   9.114  10.289  11.230
48586SOL     OW45781   7.755   9.373   9.928
48586SOL    HW145782   7.744   9.467   9.961
48586SOL    HW245783   7.750   9.310  10.005
48587SOL     OW45784   9.070   9.677   9.684
48587SOL    HW145785   9.072   9.601   9.748
48587SOL    HW245786   9.022   9.754   9.724
48588SOL     OW45787   8.471  10.076  10.276
48588SOL    HW145788   8.486  10.097  10.372
48588SOL    HW245789   8.441   9.981  10.267
48589SOL     OW45790   8.428  10.883  11.010
48589SOL    HW145791   8.408  10.927  10.922
48589SOL    HW245792   8.467  10.792  10.994
48590SOL     OW45793   9.307  10.828  10.915
48590SOL    HW145794   9.321  10.855  10.820
48590SOL    HW245795   9.390  10.850  10.968
48591SOL     OW45796   7.798  10.208  11.114
48591SOL    HW145797   7.874  10.252  11.162
48591SOL    HW245798   7.833  10.161  11.032
48592SOL     OW45799   8.988   9.584   9.435
48592SOL    HW145800   8.927   9.509   9.458
48592SOL    HW245801   9.010   9.636   9.518
48593SOL     OW45802   8.751  10.148   9.352
48593SOL    HW145803   8.785  10.055   9.367
48593SOL    HW245804   8.769  10.175   9.257
48594SOL     OW45805   8.516  10.643  10.159
48594SOL    HW145806   8.523  10.559  10.104
48594SOL    HW245807   8.578  10.712  10.123
48595SOL     OW45808   7.767  10.120  10.259
48595SOL    HW145809   7.860  10.156  10.264
48595SOL    HW245810   7.761  10.035  10.311
48596SOL     OW45811   7.787   9.819  10.316
48596SOL    HW145812   7.735   9.736  10.299
48596SOL    HW245813   7.864   9.824  10.252
48597SOL     OW45814   8.586   9.690  10.988
48597SOL    HW145815   8.541   9.753  11.052
48597SOL    HW245816   8.679   9.721  10.971
48598SOL     OW45817   8.608   9.517  10.787
48598SOL    HW145818   8.608   9.581  10.864
48598SOL    HW245819   8.636   9.565  10.704
48599SOL     OW45820   7.456  10.636   9.510
48599SOL    HW145821   7.363  10.657   9.479
48599SOL    HW245822   7.466  10.537   9.523
48600SOL     OW45823   7.536  11.111  10.237
48600SOL    HW145824   7.494  11.025  10.210
48600SOL    HW245825   7.630  11.114  10.203
48601SOL     OW45826   7.952  10.878  10.220
48601SOL    HW145827   8.018  10.952  10.229
48601SOL    HW245828   7.996  10.799  10.178
48602SOL     OW45829   8.450  10.106  10.548
48602SOL    HW145830   8.491  10.074  10.634
48602SOL    HW245831   8.354  10.079  10.545
48603SOL     OW45832   7.488   9.854  10.424
48603SOL    HW145833   7.573   9.821  10.383
48603SOL    HW245834   7.501   9.869  10.522
48604SOL     OW45835   7.637   9.830  11.032
48604SOL    HW145836   7.696   9.790  10.962
48604SOL    HW245837   7.579   9.901  10.991
48605SOL     OW45838   8.817  10.260  10.970
48605SOL    HW145839   8.856  10.349  10.990
48605SOL    HW245840   8.827  10.240  10.873
48606SOL     OW45841   8.263   9.882   9.635
48606SOL    HW145842   8.270   9.793   9.589
48606SOL    HW245843   8.169   9.916   9.627
48607SOL     OW45844   9.105   9.914  10.516
48607SOL    HW145845   9.067   9.845  10.578
48607SOL    HW245846   9.187   9.878  10.472
48608SOL     OW45847   7.700  10.874  11.054
48608SOL    HW145848   7.670  10.931  11.130
48608SOL    HW245849   7.693  10.777  11.080
48609SOL     OW45850   8.119   9.774  10.579
48609SOL    HW145851   8.085   9.685  10.549
48609SOL    HW245852   8.145   9.828  10.499
48610SOL     OW45853   8.378  10.988  10.775
48610SOL    HW145854   8.354  10.970  10.680
48610SOL    HW245855   8.408  11.082  10.785
48611SOL     OW45856   7.921   9.810   9.501
48611SOL    HW145857   7.982   9.890   9.505
48611SOL    HW245858   7.826   9.841   9.508
48612SOL     OW45859   7.607  10.447  10.776
48612SOL    HW145860   7.629  10.386  10.852
48612SOL    HW245861   7.617  10.398  10.690
48613SOL     OW45862   8.795  10.369  10.544
48613SOL    HW145863   8.819  10.306  10.470
48613SOL    HW245864   8.705  10.409  10.526
48614SOL     OW45865   8.750  10.165   9.619
48614SOL    HW145866   8.664  10.134   9.661
48614SOL    HW245867   8.746  10.151   9.520
48615SOL     OW45868   9.207  11.057  10.464
48615SOL    HW145869   9.268  11.087  10.391
48615SOL    HW245870   9.169  10.968  10.442
48616SOL     OW45871   8.700  11.041  10.438
48616SOL    HW145872   8.784  11.046  10.384
48616SOL    HW245873   8.677  10.945  10.456
48617SOL     OW45874   7.531  10.568  10.332
48617SOL    HW145875   7.526  10.567  10.432
48617SOL    HW245876   7.448  10.527  10.294
48618SOL     OW45877   8.136  10.972  11.026
48618SOL    HW145878   8.080  11.053  11.035
48618SOL    HW245879   8.188  10.976  10.940
48619SOL     OW45880   9.174   9.445   9.833
48619SOL    HW145881   9.247   9.428   9.766
48619SOL    HW245882   9.143   9.358   9.871
48620SOL     OW45883   8.836  10.883   9.787
48620SOL    HW145884   8.903  10.895   9.713
48620SOL    HW245885   8.796  10.972   9.810
48621SOL     OW45886   7.578  11.104  11.161
48621SOL    HW145887   7.537  11.030  11.214
48621SOL    HW245888   7.642  11.155  11.219
48622SOL     OW45889   8.728  10.237   9.982
48622SOL    HW145890   8.788  10.156   9.984
48622SOL    HW245891   8.768  10.306   9.922
48623SOL     OW45892   8.278  10.583  10.732
48623SOL    HW145893   8.273  10.616  10.827
48623SOL    HW245894   8.192  10.602  10.686
48624SOL     OW45895   8.120  10.926   9.464
48624SOL    HW145896   8.129  10.936   9.365
48624SOL    HW245897   8.080  10.837   9.485
48625SOL     OW45898   9.098  11.030  10.704
48625SOL    HW145899   9.151  11.040  10.620
48625SOL    HW245900   9.071  11.120  10.738
48626SOL     OW45901   9.289   9.485  10.273
48626SOL    HW145902   9.328   9.400  10.237
48626SOL    HW245903   9.191   9.487  10.254
48627SOL     OW45904   7.711   9.636  10.030
48627SOL    HW145905   7.632   9.687   9.996
48627SOL    HW245906   7.702   9.621  10.128
48628SOL     OW45907   8.642  10.922   9.341
48628SOL    HW145908   8.648  10.829   9.378
48628SOL    HW245909   8.583  10.922   9.261
48629SOL     OW45910   8.270  10.312  10.682
48629SOL    HW145911   8.310  10.311  10.590
48629SOL    HW245912   8.280  10.404  10.722
48630SOL     OW45913   8.364  10.220   9.601
48630SOL    HW145914   8.427  10.258   9.533
48630SOL    HW245915   8.404  10.137   9.640
48631SOL     OW45916   8.952  10.917   9.354
48631SOL    HW145917   8.860  10.954   9.361
48631SOL    HW245918   8.990  10.937   9.264
48632SOL     OW45919   7.820  10.598  10.800
48632SOL    HW145920   7.807  10.691  10.766
48632SOL    HW245921   7.736  10.546  10.787
48633SOL     OW45922   9.062  10.602  10.599
48633SOL    HW145923   9.122  10.605  10.679
48633SOL    HW245924   8.987  10.666  10.612
48634SOL     OW45925   8.487  10.408  10.006
48634SOL    HW145926   8.417  10.361  10.060
48634SOL    HW245927   8.546  10.340   9.963
48635SOL     OW45928   8.462   9.546  10.281
48635SOL    HW145929   8.454   9.510  10.188
48635SOL    HW245930   8.460   9.470  10.346
48636SOL     OW45931   8.038  10.797   9.801
48636SOL    HW145932   8.080  10.739   9.731
48636SOL    HW245933   7.994  10.876   9.757
48637SOL     OW45934   9.157   9.695  10.691
48637SOL    HW145935   9.230   9.764  10.695
48637SOL    HW245936   9.185   9.620  10.632
48638SOL     OW45937   7.703  10.658   9.600
48638SOL    HW145938   7.607  10.659   9.573
48638SOL    HW245939   7.715  10.711   9.684
48639SOL     OW45940   7.553  10.323  11.036
48639SOL    HW145941   7.476  10.290  11.090
48639SOL    HW245942   7.638  10.293  11.078
48640SOL     OW45943   8.120   9.513  10.799
48640SOL    HW145944   8.210   9.497  10.759
48640SOL    HW245945   8.128   9.518  10.898
48641SOL     OW45946   7.523   9.655   9.343
48641SOL    HW145947   7.431   9.627   9.314
48641SOL    HW245948   7.554   9.732   9.287
48642SOL     OW45949   8.888  10.166  10.708
48642SOL    HW145950   8.831  10.218  10.645
48642SOL    HW245951   8.984  10.178  10.684
48643SOL     OW45952   7.520   9.476   9.628
48643SOL    HW145953   7.503   9.559   9.574
48643SOL    HW245954   7.610   9.439   9.606
48644SOL     OW45955   8.631  10.645   9.429
48644SOL    HW145956   8.532  10.634   9.431
48644SOL    HW245957   8.665  10.660   9.522
48645SOL     OW45958   8.061  10.152  10.741
48645SOL    HW145959   8.117  10.233  10.724
48645SOL    HW245960   8.120  10.072  10.744
48646SOL     OW45961   8.941  11.077  10.269
48646SOL    HW145962   8.974  11.141  10.200
48646SOL    HW245963   9.007  11.071  10.344
48647SOL     OW45964   8.164   9.875  11.018
48647SOL    HW145965   8.183   9.940  11.092
48647SOL    HW245966   8.224   9.795  11.027
48648SOL     OW45967   8.898  10.530  10.943
48648SOL    HW145968   8.889  10.520  11.042
48648SOL    HW245969   8.994  10.523  10.917
48649SOL     OW45970   7.838  11.051  10.870
48649SOL    HW145971   7.747  11.092  10.868
48649SOL    HW245972   7.831  10.957  10.902
48650SOL     OW45973   9.122  10.193  10.564
48650SOL    HW145974   9.095  10.104  10.527
48650SOL    HW245975   9.123  10.261  10.491
48651SOL     OW45976   8.673   9.635   9.759
48651SOL    HW145977   8.738   9.561   9.748
48651SOL    HW245978   8.693   9.685   9.843
48652SOL     OW45979   8.042  10.055   9.962
48652SOL    HW145980   8.092  10.140   9.943
48652SOL    HW245981   7.954  10.057   9.914
48653SOL     OW45982   9.225   9.652  10.952
48653SOL    HW145983   9.208   9.683  10.858
48653SOL    HW245984   9.141   9.615  10.990
48654SOL     OW45985   9.178  10.244  10.827
48654SOL    HW145986   9.216  10.335  10.842
48654SOL    HW245987   9.170  10.227  10.728
48655SOL     OW45988   8.307  10.684   9.326
48655SOL    HW145989   8.261  10.699   9.414
48655SOL    HW245990   8.351  10.769   9.296
48656SOL     OW45991   8.109  11.100  10.263
48656SOL    HW145992   8.063  11.188  10.250
48656SOL    HW245993   8.208  11.112  10.256
48657SOL     OW45994   8.307  10.266  10.171
48657SOL    HW145995   8.361  10.197  10.219
48657SOL    HW245996   8.275  10.335  10.237
48658SOL     OW45997   8.531  10.294   9.397
48658SOL    HW145998   8.508  10.347   9.315
48658SOL    HW245999   8.612  10.238   9.378
48659SOL     OW46000   9.309  10.879  10.161
48659SOL    HW146001   9.238  10.867  10.091
48659SOL    HW246002   9.310  10.800  10.221
48660SOL     OW46003   7.669  10.624  11.154
48660SOL    HW146004   7.604  10.551  11.133
48660SOL    HW246005   7.673  10.638  11.252
48661SOL     OW46006   7.527  10.550   9.963
48661SOL    HW146007   7.526  10.503  10.051
48661SOL    HW246008   7.609  10.522   9.912
48662SOL     OW46009   8.120  10.701  10.934
48662SOL    HW146010   8.042  10.651  10.972
48662SOL    HW246011   8.117  10.796  10.965
48663SOL     OW46012   9.272   9.502  10.537
48663SOL    HW146013   9.268   9.412  10.581
48663SOL    HW246014   9.275   9.491  10.438
48664SOL     OW46015   7.876   9.734   9.830
48664SOL    HW146016   7.906   9.662   9.768
48664SOL    HW246017   7.837   9.694   9.913
48665SOL     OW46018   9.153  10.797  10.414
48665SOL    HW146019   9.060  10.772  10.387
48665SOL    HW246020   9.179  10.747  10.496
48666SOL     OW46021   7.765   9.857  10.590
48666SOL    HW146022   7.803   9.798  10.662
48666SOL    HW246023   7.805   9.831  10.502
48667SOL     OW46024   8.260  10.896   9.997
48667SOL    HW146025   8.292  10.906   9.903
48667SOL    HW246026   8.181  10.834   9.999
48668SOL     OW46027   8.872   9.524  10.422
48668SOL    HW146028   8.924   9.459  10.477
48668SOL    HW246029   8.823   9.587  10.483
48669SOL     OW46030   8.449   9.344  10.464
48669SOL    HW146031   8.386   9.272  10.433
48669SOL    HW246032   8.542   9.308  10.464
48670SOL     OW46033   8.218  10.640   9.611
48670SOL    HW146034   8.172  10.553   9.628
48670SOL    HW246035   8.309  10.637   9.652
48671SOL     OW46036   8.066  10.877  10.594
48671SOL    HW146037   8.061  10.959  10.651
48671SOL    HW246038   8.155  10.874  10.549
48672SOL     OW46039   8.800   9.362   9.478
48672SOL    HW146040   8.835   9.321   9.394
48672SOL    HW246041   8.710   9.324   9.498
48673SOL     OW46042   8.748   9.763  10.001
48673SOL    HW146043   8.689   9.843  10.005
48673SOL    HW246044   8.763   9.728  10.094
48674SOL     OW46045   9.041   9.531  10.192
48674SOL    HW146046   8.957   9.530  10.246
48674SOL    HW246047   9.043   9.614  10.136
48675SOL     OW46048   7.487  10.387   9.610
48675SOL    HW146049   7.586  10.376   9.601
48675SOL    HW246050   7.447  10.301   9.642
48676SOL     OW46051   8.323  10.956   9.647
48676SOL    HW146052   8.246  10.921   9.593
48676SOL    HW246053   8.291  11.027   9.709
48677SOL     OW46054   7.678   9.938  11.285
48677SOL    HW146055   7.585   9.936  11.322
48677SOL    HW246056   7.679   9.899  11.193
48678SOL     OW46057   7.673   9.585  12.168
48678SOL    HW146058   7.708   9.568  12.260
48678SOL    HW246059   7.585   9.540  12.156
48679SOL     OW46060   7.467   9.678  11.819
48679SOL    HW146061   7.385   9.721  11.858
48679SOL    HW246062   7.439   9.605  11.756
48680SOL     OW46063   8.017  10.585  12.337
48680SOL    HW146064   7.924  10.578  12.300
48680SOL    HW246065   8.028  10.674  12.381
48681SOL     OW46066   9.003  10.821  11.875
48681SOL    HW146067   8.946  10.805  11.956
48681SOL    HW246068   8.944  10.831  11.795
48682SOL     OW46069   8.583  10.013  11.889
48682SOL    HW146070   8.640  10.091  11.864
48682SOL    HW246071   8.523  10.039  11.965
48683SOL     OW46072   9.203   9.917  11.403
48683SOL    HW146073   9.191   9.904  11.304
48683SOL    HW246074   9.173   9.836  11.452
48684SOL     OW46075   8.216  10.454  12.195
48684SOL    HW146076   8.138  10.471  12.255
48684SOL    HW246077   8.250  10.541  12.159
48685SOL     OW46078   8.133  10.322  11.837
48685SOL    HW146079   8.202  10.306  11.907
48685SOL    HW246080   8.060  10.379  11.875
48686SOL     OW46081   7.783  10.745  12.233
48686SOL    HW146082   7.705  10.714  12.180
48686SOL    HW246083   7.841  10.803  12.176
48687SOL     OW46084   8.908  10.815  12.511
48687SOL    HW146085   8.932  10.909  12.537
48687SOL    HW246086   8.892  10.761  12.593
48688SOL     OW46087   7.886   9.702  12.671
48688SOL    HW146088   7.968   9.646  12.680
48688SOL    HW246089   7.805   9.644  12.675
48689SOL     OW46090   9.051   9.757  11.909
48689SOL    HW146091   8.977   9.803  11.859
48689SOL    HW246092   9.102   9.825  11.962
48690SOL     OW46093   7.679  11.023  11.655
48690SOL    HW146094   7.713  11.100  11.709
48690SOL    HW246095   7.723  11.023  11.565
48691SOL     OW46096   7.678  10.744  11.710
48691SOL    HW146097   7.652  10.840  11.710
48691SOL    HW246098   7.607  10.690  11.755
48692SOL     OW46099   7.688  10.401  12.058
48692SOL    HW146100   7.702  10.317  12.110
48692SOL    HW246101   7.633  10.465  12.113
48693SOL     OW46102   8.068  11.096  12.611
48693SOL    HW146103   7.976  11.079  12.646
48693SOL    HW246104   8.096  11.188  12.637
48694SOL     OW46105   8.054  10.274  11.295
48694SOL    HW146106   8.061  10.358  11.241
48694SOL    HW246107   8.100  10.287  11.383
48695SOL     OW46108   9.042   9.424  12.652
48695SOL    HW146109   9.024   9.491  12.580
48695SOL    HW246110   9.039   9.470  12.741
48696SOL     OW46111   7.570   9.953  11.735
48696SOL    HW146112   7.525   9.865  11.752
48696SOL    HW246113   7.569  10.007  11.819
48697SOL     OW46114   9.290  11.077  11.531
48697SOL    HW146115   9.344  11.048  11.611
48697SOL    HW246116   9.320  11.167  11.502
48698SOL     OW46117   7.475  10.906  11.289
48698SOL    HW146118   7.456  10.810  11.310
48698SOL    HW246119   7.442  10.964  11.364
48699SOL     OW46120   9.137  10.232  11.784
48699SOL    HW146121   9.232  10.203  11.792
48699SOL    HW246122   9.129  10.297  11.709
48700SOL     OW46123   9.089  10.418  11.604
48700SOL    HW146124   9.175  10.420  11.552
48700SOL    HW246125   9.103  10.465  11.692
48701SOL     OW46126   7.561  10.047  12.769
48701SOL    HW146127   7.649  10.034  12.814
48701SOL    HW246128   7.548  10.144  12.747
48702SOL     OW46129   8.061  10.675  11.898
48702SOL    HW146130   8.012  10.588  11.907
48702SOL    HW246131   8.038  10.718  11.811
48703SOL     OW46132   8.741  10.538  12.595
48703SOL    HW146133   8.778  10.465  12.537
48703SOL    HW246134   8.793  10.543  12.680
48704SOL     OW46135   8.257   9.314  11.674
48704SOL    HW146136   8.297   9.405  11.665
48704SOL    HW246137   8.157   9.322  11.680
48705SOL     OW46138   7.645  10.286  12.436
48705SOL    HW146139   7.734  10.241  12.422
48705SOL    HW246140   7.572  10.221  12.417
48706SOL     OW46141   8.973  10.309  11.362
48706SOL    HW146142   8.910  10.233  11.375
48706SOL    HW246143   9.021  10.327  11.448
48707SOL     OW46144   8.914  10.727  12.125
48707SOL    HW146145   8.855  10.733  12.205
48707SOL    HW246146   8.899  10.639  12.079
48708SOL     OW46147   9.115  11.024  11.744
48708SOL    HW146148   9.074  11.001  11.656
48708SOL    HW246149   9.097  10.950  11.809
48709SOL     OW46150   8.046  10.039  11.442
48709SOL    HW146151   8.070  10.108  11.374
48709SOL    HW246152   7.968  10.072  11.496
48710SOL     OW46153   8.729   9.655  12.116
48710SOL    HW146154   8.643   9.605  12.103
48710SOL    HW246155   8.791   9.601  12.172
48711SOL     OW46156   9.024  10.972  11.479
48711SOL    HW146157   9.113  11.018  11.482
48711SOL    HW246158   9.003  10.948  11.384
48712SOL     OW46159   8.255   9.915  12.637
48712SOL    HW146160   8.208   9.912  12.726
48712SOL    HW246161   8.204   9.860  12.571
48713SOL     OW46162   8.421  10.200  12.744
48713SOL    HW146163   8.467  10.116  12.715
48713SOL    HW246164   8.365  10.234  12.669
48714SOL     OW46165   8.439   9.720  12.414
48714SOL    HW146166   8.362   9.754  12.468
48714SOL    HW246167   8.405   9.669  12.335
48715SOL     OW46168   8.489  10.011  11.601
48715SOL    HW146169   8.515  10.007  11.697
48715SOL    HW246170   8.404   9.960  11.587
48716SOL     OW46171   7.524  10.121  11.961
48716SOL    HW146172   7.623  10.109  11.970
48716SOL    HW246173   7.500  10.216  11.982
48717SOL     OW46174   7.578  11.131  12.743
48717SOL    HW146175   7.568  11.116  12.842
48717SOL    HW246176   7.492  11.167  12.707
48718SOL     OW46177   8.313   9.658  11.367
48718SOL    HW146178   8.372   9.721  11.318
48718SOL    HW246179   8.332   9.564  11.338
48719SOL     OW46180   8.810  10.454  11.717
48719SOL    HW146181   8.893  10.425  11.669
48719SOL    HW246182   8.761  10.521  11.661
48720SOL     OW46183   7.998   9.506  12.057
48720SOL    HW146184   7.993   9.501  12.157
48720SOL    HW246185   8.000   9.602  12.028
48721SOL     OW46186   8.456  10.766  11.649
48721SOL    HW146187   8.410  10.838  11.597
48721SOL    HW246188   8.452  10.786  11.747
48722SOL     OW46189   7.799  11.111  12.025
48722SOL    HW146190   7.849  11.025  12.031
48722SOL    HW246191   7.864  11.188  12.022
48723SOL     OW46192   9.243  10.376  12.045
48723SOL    HW146193   9.181  10.361  11.969
48723SOL    HW246194   9.191  10.387  12.130
48724SOL     OW46195   8.675  10.860  12.678
48724SOL    HW146196   8.681  10.783  12.742
48724SOL    HW246197   8.623  10.834  12.598
48725SOL     OW46198   7.769  10.253  11.414
48725SOL    HW146199   7.851  10.292  11.372
48725SOL    HW246200   7.742  10.171  11.365
48726SOL     OW46201   8.906  10.045  11.900
48726SOL    HW146202   8.901   9.980  11.975
48726SOL    HW246203   8.986  10.104  11.913
48727SOL     OW46204   8.559  11.086  11.409
48727SOL    HW146205   8.499  11.024  11.459
48727SOL    HW246206   8.590  11.042  11.324
48728SOL     OW46207   7.650   9.595  12.670
48728SOL    HW146208   7.570   9.655  12.657
48728SOL    HW246209   7.640   9.546  12.756
48729SOL     OW46210   9.080  10.687  11.253
48729SOL    HW146211   9.048  10.781  11.243
48729SOL    HW246212   9.004  10.624  11.241
48730SOL     OW46213   7.912  11.053  11.495
48730SOL    HW146214   7.945  11.092  11.581
48730SOL    HW246215   7.988  11.046  11.430
48731SOL     OW46216   8.848   9.417  11.598
48731SOL    HW146217   8.824   9.380  11.508
48731SOL    HW246218   8.947   9.433  11.602
48732SOL     OW46219   7.697  11.095  12.413
48732SOL    HW146220   7.754  11.030  12.463
48732SOL    HW246221   7.681  11.062  12.320
48733SOL     OW46222   8.388  11.008  12.076
48733SOL    HW146223   8.468  10.951  12.097
48733SOL    HW246224   8.339  10.968  11.999
48734SOL     OW46225   7.830  10.010  11.652
48734SOL    HW146226   7.875   9.920  11.649
48734SOL    HW246227   7.736   9.999  11.685
48735SOL     OW46228   8.062   9.432  11.289
48735SOL    HW146229   8.160   9.410  11.296
48735SOL    HW246230   8.031   9.415  11.196
48736SOL     OW46231   8.336  10.824  12.367
48736SOL    HW146232   8.313  10.799  12.273
48736SOL    HW246233   8.397  10.755  12.406
48737SOL     OW46234   8.799   9.900  12.605
48737SOL    HW146235   8.827   9.857  12.690
48737SOL    HW246236   8.824   9.996  12.606
48738SOL     OW46237   8.251  10.712  12.096
48738SOL    HW146238   8.341  10.726  12.054
48738SOL    HW246239   8.180  10.714  12.025
48739SOL     OW46240   8.370   9.813  12.071
48739SOL    HW146241   8.345   9.804  11.975
48739SOL    HW246242   8.418   9.731  12.102
48740SOL     OW46243   7.987   9.374  11.684
48740SOL    HW146244   7.906   9.375  11.742
48740SOL    HW246245   7.990   9.457  11.629
48741SOL     OW46246   8.882  10.498  11.213
48741SOL    HW146247   8.914  10.422  11.270
48741SOL    HW246248   8.790  10.525  11.243
48742SOL     OW46249   7.745   9.345  11.343
48742SOL    HW146250   7.794   9.429  11.322
48742SOL    HW246251   7.807   9.280  11.388
48743SOL     OW46252   8.383   9.546  11.652
48743SOL    HW146253   8.335   9.587  11.574
48743SOL    HW246254   8.482   9.544  11.633
48744SOL     OW46255   8.524   9.993  12.636
48744SOL    HW146256   8.444   9.932  12.639
48744SOL    HW246257   8.605   9.940  12.612
48745SOL     OW46258   8.675  10.880  11.965
48745SOL    HW146259   8.696  10.954  11.900
48745SOL    HW246260   8.743  10.880  12.038
48746SOL     OW46261   7.907  10.462  11.913
48746SOL    HW146262   7.836  10.435  11.978
48746SOL    HW246263   7.881  10.434  11.820
48747SOL     OW46264   8.719  11.107  11.763
48747SOL    HW146265   8.763  11.171  11.699
48747SOL    HW246266   8.669  11.159  11.833
48748SOL     OW46267   8.480   9.859  11.188
48748SOL    HW146268   8.439   9.941  11.149
48748SOL    HW246269   8.544   9.885  11.261
48749SOL     OW46270   7.526   9.866  12.558
48749SOL    HW146271   7.618   9.865  12.517
48749SOL    HW246272   7.520   9.940  12.625
48750SOL     OW46273   8.009   9.532  12.319
48750SOL    HW146274   8.047   9.448  12.356
48750SOL    HW246275   7.921   9.551  12.363
48751SOL     OW46276   8.314   9.764  11.814
48751SOL    HW146277   8.282   9.836  11.752
48751SOL    HW246278   8.338   9.683  11.761
48752SOL     OW46279   8.465   9.349  11.925
48752SOL    HW146280   8.393   9.354  11.856
48752SOL    HW246281   8.441   9.280  11.994
48753SOL     OW46282   8.877  10.483  12.039
48753SOL    HW146283   8.822  10.399  12.032
48753SOL    HW246284   8.903  10.512  11.947
48754SOL     OW46285   8.914   9.900  12.164
48754SOL    HW146286   8.884   9.805  12.171
48754SOL    HW246287   8.987   9.916  12.230
48755SOL     OW46288   9.305  10.143  11.549
48755SOL    HW146289   9.347  10.079  11.613
48755SOL    HW246290   9.267  10.092  11.471
48756SOL     OW46291   7.936  10.695  11.346
48756SOL    HW146292   7.849  10.680  11.393
48756SOL    HW246293   7.919  10.721  11.251
48757SOL     OW46294   9.112  10.590  11.829
48757SOL    HW146295   9.211  10.598  11.843
48757SOL    HW246296   9.067  10.674  11.860
48758SOL     OW46297   8.838   9.885  11.250
48758SOL    HW146298   8.784   9.864  11.331
48758SOL    HW246299   8.929   9.844  11.259
48759SOL     OW46300   7.975   9.566  11.500
48759SOL    HW146301   8.002   9.507  11.425
48759SOL    HW246302   7.975   9.661  11.469
48760SOL     OW46303   9.202  10.533  12.760
48760SOL    HW146304   9.293  10.494  12.747
48760SOL    HW246305   9.210  10.629  12.784
48761SOL     OW46306   8.512  10.657  12.512
48761SOL    HW146307   8.432  10.634  12.567
48761SOL    HW246308   8.595  10.631  12.561
48762SOL     OW46309   8.559  10.505  12.272
48762SOL    HW146310   8.519  10.549  12.353
48762SOL    HW246311   8.518  10.542  12.189
48763SOL     OW46312   9.086  10.409  12.251
48763SOL    HW146313   9.091  10.490  12.310
48763SOL    HW246314   9.000  10.411  12.200
48764SOL     OW46315   8.363   9.399  12.574
48764SOL    HW146316   8.388   9.379  12.479
48764SOL    HW246317   8.435   9.455  12.616
48765SOL     OW46318   8.153  10.360  11.540
48765SOL    HW146319   8.139  10.367  11.639
48765SOL    HW246320   8.237  10.309  11.522
48766SOL     OW46321   7.858  10.123  12.423
48766SOL    HW146322   7.944  10.135  12.473
48766SOL    HW246323   7.816  10.036  12.450
48767SOL     OW46324   8.722   9.696  12.434
48767SOL    HW146325   8.743   9.770  12.498
48767SOL    HW246326   8.633   9.713  12.391
48768SOL     OW46327   7.512  10.874  12.503
48768SOL    HW146328   7.466  10.956  12.469
48768SOL    HW246329   7.610  10.893  12.512
48769SOL     OW46330   7.815  10.410  11.673
48769SOL    HW146331   7.808  10.493  11.617
48769SOL    HW246332   7.819  10.330  11.613
48770SOL     OW46333   8.014   9.847  12.037
48770SOL    HW146334   8.026   9.913  11.963
48770SOL    HW246335   8.060   9.881  12.120
48771SOL     OW46336   8.700  10.658  11.560
48771SOL    HW146337   8.750  10.735  11.600
48771SOL    HW246338   8.605  10.660  11.592
48772SOL     OW46339   8.720  10.755  12.314
48772SOL    HW146340   8.767  10.768  12.401
48772SOL    HW246341   8.654  10.681  12.323
48773SOL     OW46342   9.030   9.949  11.644
48773SOL    HW146343   8.999  10.010  11.717
48773SOL    HW246344   9.080  10.001  11.575
48774SOL     OW46345   7.802  10.820  12.501
48774SOL    HW146346   7.781  10.776  12.414
48774SOL    HW246347   7.899  10.846  12.504
48775SOL     OW46348   7.850  10.061  12.770
48775SOL    HW146349   7.918  10.116  12.723
48775SOL    HW246350   7.890   9.973  12.797
48776SOL     OW46351   9.035  10.089  12.842
48776SOL    HW146352   8.943  10.127  12.837
48776SOL    HW246353   9.095  10.136  12.777
48777SOL     OW46354   8.021  10.180  12.201
48777SOL    HW146355   8.065  10.269  12.192
48777SOL    HW246356   7.958  10.180  12.278
48778SOL     OW46357   8.808  10.172  12.217
48778SOL    HW146358   8.733  10.172  12.151
48778SOL    HW246359   8.845  10.080  12.226
48779SOL     OW46360   8.657   9.835  11.447
48779SOL    HW146361   8.670   9.751  11.501
48779SOL    HW246362   8.628   9.909  11.507
48780SOL     OW46363   7.755   9.523  12.403
48780SOL    HW146364   7.732   9.560  12.493
48780SOL    HW246365   7.725   9.428  12.397
48781SOL     OW46366   7.485  10.620  12.454
48781SOL    HW146367   7.538  10.571  12.522
48781SOL    HW246368   7.507  10.718  12.459
48782SOL     OW46369   8.180   9.944  12.236
48782SOL    HW146370   8.239   9.918  12.160
48782SOL    HW246371   8.152  10.040  12.225
48783SOL     OW46372   7.755   9.373  11.790
48783SOL    HW146373   7.744   9.467  11.823
48783SOL    HW246374   7.750   9.310  11.867
48784SOL     OW46375   9.070   9.677  11.546
48784SOL    HW146376   9.072   9.601  11.610
48784SOL    HW246377   9.022   9.754  11.586
48785SOL     OW46378   8.471  10.076  12.138
48785SOL    HW146379   8.486  10.097  12.234
48785SOL    HW246380   8.441   9.981  12.129
48786SOL     OW46381   8.988   9.584  11.297
48786SOL    HW146382   8.927   9.509  11.320
48786SOL    HW246383   9.010   9.636  11.380
48787SOL     OW46384   8.751  10.148  11.214
48787SOL    HW146385   8.785  10.055  11.229
48787SOL    HW246386   8.769  10.175  11.119
48788SOL     OW46387   8.516  10.643  12.021
48788SOL    HW146388   8.523  10.559  11.966
48788SOL    HW246389   8.578  10.712  11.985
48789SOL     OW46390   7.767  10.120  12.121
48789SOL    HW146391   7.860  10.156  12.126
48789SOL    HW246392   7.761  10.035  12.173
48790SOL     OW46393   7.787   9.819  12.178
48790SOL    HW146394   7.735   9.736  12.161
48790SOL    HW246395   7.864   9.824  12.114
48791SOL     OW46396   8.608   9.517  12.649
48791SOL    HW146397   8.608   9.581  12.726
48791SOL    HW246398   8.636   9.565  12.566
48792SOL     OW46399   7.456  10.636  11.372
48792SOL    HW146400   7.363  10.657  11.341
48792SOL    HW246401   7.466  10.537  11.385
48793SOL     OW46402   7.536  11.111  12.099
48793SOL    HW146403   7.494  11.025  12.072
48793SOL    HW246404   7.630  11.114  12.065
48794SOL     OW46405   7.952  10.878  12.082
48794SOL    HW146406   8.018  10.952  12.091
48794SOL    HW246407   7.996  10.799  12.040
48795SOL     OW46408   8.450  10.106  12.410
48795SOL    HW146409   8.491  10.074  12.496
48795SOL    HW246410   8.354  10.079  12.407
48796SOL     OW46411   7.488   9.854  12.286
48796SOL    HW146412   7.573   9.821  12.245
48796SOL    HW246413   7.501   9.869  12.384
48797SOL     OW46414   8.263   9.882  11.497
48797SOL    HW146415   8.270   9.793  11.451
48797SOL    HW246416   8.169   9.916  11.489
48798SOL     OW46417   9.105   9.914  12.378
48798SOL    HW146418   9.067   9.845  12.440
48798SOL    HW246419   9.187   9.878  12.334
48799SOL     OW46420   7.700  10.874  12.916
48799SOL    HW146421   7.670  10.931  12.992
48799SOL    HW246422   7.693  10.777  12.942
48800SOL     OW46423   8.119   9.774  12.441
48800SOL    HW146424   8.085   9.685  12.411
48800SOL    HW246425   8.145   9.828  12.361
48801SOL     OW46426   8.378  10.988  12.637
48801SOL    HW146427   8.354  10.970  12.542
48801SOL    HW246428   8.408  11.082  12.647
48802SOL     OW46429   7.921   9.810  11.363
48802SOL    HW146430   7.982   9.890  11.367
48802SOL    HW246431   7.826   9.841  11.370
48803SOL     OW46432   7.607  10.447  12.638
48803SOL    HW146433   7.629  10.386  12.714
48803SOL    HW246434   7.617  10.398  12.552
48804SOL     OW46435   8.795  10.369  12.406
48804SOL    HW146436   8.819  10.306  12.332
48804SOL    HW246437   8.705  10.409  12.388
48805SOL     OW46438   8.750  10.165  11.481
48805SOL    HW146439   8.664  10.134  11.523
48805SOL    HW246440   8.746  10.151  11.382
48806SOL     OW46441   9.207  11.057  12.326
48806SOL    HW146442   9.268  11.087  12.253
48806SOL    HW246443   9.169  10.968  12.304
48807SOL     OW46444   8.700  11.041  12.300
48807SOL    HW146445   8.784  11.046  12.246
48807SOL    HW246446   8.677  10.945  12.318
48808SOL     OW46447   7.531  10.568  12.194
48808SOL    HW146448   7.526  10.567  12.294
48808SOL    HW246449   7.448  10.527  12.156
48809SOL     OW46450   9.174   9.445  11.695
48809SOL    HW146451   9.247   9.428  11.628
48809SOL    HW246452   9.143   9.358  11.733
48810SOL     OW46453   8.836  10.883  11.649
48810SOL    HW146454   8.903  10.895  11.575
48810SOL    HW246455   8.796  10.972  11.672
48811SOL     OW46456   8.728  10.237  11.844
48811SOL    HW146457   8.788  10.156  11.846
48811SOL    HW246458   8.768  10.306  11.784
48812SOL     OW46459   8.278  10.583  12.594
48812SOL    HW146460   8.273  10.616  12.689
48812SOL    HW246461   8.192  10.602  12.548
48813SOL     OW46462   8.120  10.926  11.326
48813SOL    HW146463   8.129  10.936  11.227
48813SOL    HW246464   8.080  10.837  11.347
48814SOL     OW46465   9.098  11.030  12.566
48814SOL    HW146466   9.151  11.040  12.482
48814SOL    HW246467   9.071  11.120  12.600
48815SOL     OW46468   9.289   9.485  12.135
48815SOL    HW146469   9.328   9.400  12.099
48815SOL    HW246470   9.191   9.487  12.116
48816SOL     OW46471   7.711   9.636  11.892
48816SOL    HW146472   7.632   9.687  11.858
48816SOL    HW246473   7.702   9.621  11.990
48817SOL     OW46474   8.642  10.922  11.203
48817SOL    HW146475   8.648  10.829  11.240
48817SOL    HW246476   8.583  10.922  11.123
48818SOL     OW46477   8.270  10.312  12.544
48818SOL    HW146478   8.310  10.311  12.452
48818SOL    HW246479   8.280  10.404  12.584
48819SOL     OW46480   8.364  10.220  11.463
48819SOL    HW146481   8.427  10.258  11.395
48819SOL    HW246482   8.404  10.137  11.502
48820SOL     OW46483   8.952  10.917  11.216
48820SOL    HW146484   8.860  10.954  11.223
48820SOL    HW246485   8.990  10.937  11.126
48821SOL     OW46486   7.820  10.598  12.662
48821SOL    HW146487   7.807  10.691  12.628
48821SOL    HW246488   7.736  10.546  12.649
48822SOL     OW46489   9.062  10.602  12.461
48822SOL    HW146490   9.122  10.605  12.541
48822SOL    HW246491   8.987  10.666  12.474
48823SOL     OW46492   8.487  10.408  11.868
48823SOL    HW146493   8.417  10.361  11.922
48823SOL    HW246494   8.546  10.340  11.825
48824SOL     OW46495   8.462   9.546  12.143
48824SOL    HW146496   8.454   9.510  12.050
48824SOL    HW246497   8.460   9.470  12.208
48825SOL     OW46498   8.038  10.797  11.663
48825SOL    HW146499   8.080  10.739  11.593
48825SOL    HW246500   7.994  10.876  11.619
48826SOL     OW46501   9.157   9.695  12.553
48826SOL    HW146502   9.230   9.764  12.557
48826SOL    HW246503   9.185   9.620  12.494
48827SOL     OW46504   7.703  10.658  11.462
48827SOL    HW146505   7.607  10.659  11.435
48827SOL    HW246506   7.715  10.711  11.546
48828SOL     OW46507   7.553  10.323  12.898
48828SOL    HW146508   7.476  10.290  12.952
48828SOL    HW246509   7.638  10.293  12.940
48829SOL     OW46510   8.120   9.513  12.661
48829SOL    HW146511   8.210   9.497  12.621
48829SOL    HW246512   8.128   9.518  12.760
48830SOL     OW46513   7.523   9.655  11.205
48830SOL    HW146514   7.431   9.627  11.176
48830SOL    HW246515   7.554   9.732  11.149
48831SOL     OW46516   8.888  10.166  12.570
48831SOL    HW146517   8.831  10.218  12.507
48831SOL    HW246518   8.984  10.178  12.546
48832SOL     OW46519   7.520   9.476  11.490
48832SOL    HW146520   7.503   9.559  11.436
48832SOL    HW246521   7.610   9.439  11.468
48833SOL     OW46522   8.631  10.645  11.291
48833SOL    HW146523   8.532  10.634  11.293
48833SOL    HW246524   8.665  10.660  11.384
48834SOL     OW46525   8.061  10.152  12.603
48834SOL    HW146526   8.117  10.233  12.586
48834SOL    HW246527   8.120  10.072  12.606
48835SOL     OW46528   8.941  11.077  12.131
48835SOL    HW146529   8.974  11.141  12.062
48835SOL    HW246530   9.007  11.071  12.206
48836SOL     OW46531   8.164   9.875  12.880
48836SOL    HW146532   8.183   9.940  12.954
48836SOL    HW246533   8.224   9.795  12.889
48837SOL     OW46534   7.838  11.051  12.732
48837SOL    HW146535   7.747  11.092  12.730
48837SOL    HW246536   7.831  10.957  12.764
48838SOL     OW46537   9.122  10.193  12.426
48838SOL    HW146538   9.095  10.104  12.389
48838SOL    HW246539   9.123  10.261  12.353
48839SOL     OW46540   8.673   9.635  11.621
48839SOL    HW146541   8.738   9.561  11.610
48839SOL    HW246542   8.693   9.685  11.705
48840SOL     OW46543   8.042  10.055  11.824
48840SOL    HW146544   8.092  10.140  11.805
48840SOL    HW246545   7.954  10.057  11.776
48841SOL     OW46546   9.178  10.244  12.689
48841SOL    HW146547   9.216  10.335  12.704
48841SOL    HW246548   9.170  10.227  12.590
48842SOL     OW46549   8.307  10.684  11.188
48842SOL    HW146550   8.261  10.699  11.276
48842SOL    HW246551   8.351  10.769  11.158
48843SOL     OW46552   8.109  11.100  12.125
48843SOL    HW146553   8.063  11.188  12.112
48843SOL    HW246554   8.208  11.112  12.118
48844SOL     OW46555   8.307  10.266  12.033
48844SOL    HW146556   8.361  10.197  12.081
48844SOL    HW246557   8.275  10.335  12.099
48845SOL     OW46558   8.531  10.294  11.259
48845SOL    HW146559   8.508  10.347  11.177
48845SOL    HW246560   8.612  10.238  11.240
48846SOL     OW46561   9.309  10.879  12.023
48846SOL    HW146562   9.238  10.867  11.953
48846SOL    HW246563   9.310  10.800  12.083
48847SOL     OW46564   7.527  10.550  11.825
48847SOL    HW146565   7.526  10.503  11.913
48847SOL    HW246566   7.609  10.522  11.774
48848SOL     OW46567   8.120  10.701  12.796
48848SOL    HW146568   8.042  10.651  12.834
48848SOL    HW246569   8.117  10.796  12.827
48849SOL     OW46570   9.272   9.502  12.399
48849SOL    HW146571   9.268   9.412  12.443
48849SOL    HW246572   9.275   9.491  12.300
48850SOL     OW46573   7.876   9.734  11.692
48850SOL    HW146574   7.906   9.662  11.630
48850SOL    HW246575   7.837   9.694  11.775
48851SOL     OW46576   9.153  10.797  12.276
48851SOL    HW146577   9.060  10.772  12.249
48851SOL    HW246578   9.179  10.747  12.358
48852SOL     OW46579   7.765   9.857  12.452
48852SOL    HW146580   7.803   9.798  12.524
48852SOL    HW246581   7.805   9.831  12.364
48853SOL     OW46582   8.260  10.896  11.859
48853SOL    HW146583   8.292  10.906  11.765
48853SOL    HW246584   8.181  10.834  11.861
48854SOL     OW46585   8.872   9.524  12.284
48854SOL    HW146586   8.924   9.459  12.339
48854SOL    HW246587   8.823   9.587  12.345
48855SOL     OW46588   8.449   9.344  12.326
48855SOL    HW146589   8.386   9.272  12.295
48855SOL    HW246590   8.542   9.308  12.326
48856SOL     OW46591   8.218  10.640  11.473
48856SOL    HW146592   8.172  10.553  11.490
48856SOL    HW246593   8.309  10.637  11.514
48857SOL     OW46594   8.066  10.877  12.456
48857SOL    HW146595   8.061  10.959  12.513
48857SOL    HW246596   8.155  10.874  12.411
48858SOL     OW46597   8.800   9.362  11.340
48858SOL    HW146598   8.835   9.321  11.256
48858SOL    HW246599   8.710   9.324  11.360
48859SOL     OW46600   8.748   9.763  11.863
48859SOL    HW146601   8.689   9.843  11.867
48859SOL    HW246602   8.763   9.728  11.956
48860SOL     OW46603   9.041   9.531  12.054
48860SOL    HW146604   8.957   9.530  12.108
48860SOL    HW246605   9.043   9.614  11.998
48861SOL     OW46606   7.487  10.387  11.472
48861SOL    HW146607   7.586  10.376  11.463
48861SOL    HW246608   7.447  10.301  11.504
48862SOL     OW46609   8.323  10.956  11.509
48862SOL    HW146610   8.246  10.921  11.455
48862SOL    HW246611   8.291  11.027  11.571
48863SOL     OW46612   7.678  11.800   0.113
48863SOL    HW146613   7.585  11.798   0.150
48863SOL    HW246614   7.679  11.761   0.021
48864SOL     OW46615   7.673  11.447   0.996
48864SOL    HW146616   7.708  11.430   1.088
48864SOL    HW246617   7.585  11.402   0.984
48865SOL     OW46618   7.467  11.540   0.647
48865SOL    HW146619   7.385  11.583   0.686
48865SOL    HW246620   7.439  11.467   0.584
48866SOL     OW46621   8.017  12.447   1.165
48866SOL    HW146622   7.924  12.440   1.128
48866SOL    HW246623   8.028  12.536   1.209
48867SOL     OW46624   9.003  12.683   0.703
48867SOL    HW146625   8.946  12.667   0.784
48867SOL    HW246626   8.944  12.693   0.623
48868SOL     OW46627   8.583  11.875   0.717
48868SOL    HW146628   8.640  11.953   0.692
48868SOL    HW246629   8.523  11.901   0.793
48869SOL     OW46630   9.203  11.779   0.231
48869SOL    HW146631   9.191  11.766   0.132
48869SOL    HW246632   9.173  11.698   0.280
48870SOL     OW46633   8.216  12.316   1.023
48870SOL    HW146634   8.138  12.333   1.083
48870SOL    HW246635   8.250  12.403   0.987
48871SOL     OW46636   8.298  11.970   1.823
48871SOL    HW146637   8.294  12.046   1.888
48871SOL    HW246638   8.320  12.006   1.732
48872SOL     OW46639   8.133  12.184   0.665
48872SOL    HW146640   8.202  12.168   0.735
48872SOL    HW246641   8.060  12.241   0.703
48873SOL     OW46642   8.134  12.333   1.803
48873SOL    HW146643   8.194  12.412   1.817
48873SOL    HW246644   8.048  12.364   1.762
48874SOL     OW46645   7.783  12.607   1.061
48874SOL    HW146646   7.705  12.576   1.008
48874SOL    HW246647   7.841  12.665   1.004
48875SOL     OW46648   8.908  12.677   1.339
48875SOL    HW146649   8.932  12.771   1.365
48875SOL    HW246650   8.892  12.623   1.421
48876SOL     OW46651   7.886  11.564   1.499
48876SOL    HW146652   7.968  11.508   1.508
48876SOL    HW246653   7.805  11.506   1.503
48877SOL     OW46654   9.051  11.619   0.737
48877SOL    HW146655   8.977  11.665   0.687
48877SOL    HW246656   9.102  11.687   0.790
48878SOL     OW46657   8.575  12.513   1.690
48878SOL    HW146658   8.622  12.513   1.778
48878SOL    HW246659   8.527  12.426   1.679
48879SOL     OW46660   7.678  12.606   0.538
48879SOL    HW146661   7.652  12.702   0.538
48879SOL    HW246662   7.607  12.552   0.583
48880SOL     OW46663   7.688  12.263   0.886
48880SOL    HW146664   7.702  12.179   0.938
48880SOL    HW246665   7.633  12.327   0.941
48881SOL     OW46666   8.054  12.136   0.123
48881SOL    HW146667   8.061  12.220   0.069
48881SOL    HW246668   8.100  12.149   0.211
48882SOL     OW46669   9.042  11.286   1.480
48882SOL    HW146670   9.024  11.353   1.408
48882SOL    HW246671   9.039  11.332   1.569
48883SOL     OW46672   7.570  11.815   0.563
48883SOL    HW146673   7.525  11.727   0.580
48883SOL    HW246674   7.569  11.869   0.647
48884SOL     OW46675   7.475  12.768   0.117
48884SOL    HW146676   7.456  12.672   0.138
48884SOL    HW246677   7.442  12.826   0.192
48885SOL     OW46678   9.137  12.094   0.612
48885SOL    HW146679   9.232  12.065   0.620
48885SOL    HW246680   9.129  12.159   0.537
48886SOL     OW46681   9.089  12.280   0.432
48886SOL    HW146682   9.175  12.282   0.380
48886SOL    HW246683   9.103  12.327   0.520
48887SOL     OW46684   7.561  11.909   1.597
48887SOL    HW146685   7.649  11.896   1.642
48887SOL    HW246686   7.548  12.006   1.575
48888SOL     OW46687   8.061  12.537   0.726
48888SOL    HW146688   8.012  12.450   0.735
48888SOL    HW246689   8.038  12.580   0.639
48889SOL     OW46690   8.741  12.400   1.423
48889SOL    HW146691   8.778  12.327   1.365
48889SOL    HW246692   8.793  12.405   1.508
48890SOL     OW46693   8.257  11.176   0.502
48890SOL    HW146694   8.297  11.267   0.493
48890SOL    HW246695   8.157  11.184   0.508
48891SOL     OW46696   7.645  12.148   1.264
48891SOL    HW146697   7.734  12.103   1.250
48891SOL    HW246698   7.572  12.083   1.245
48892SOL     OW46699   8.973  12.171   0.190
48892SOL    HW146700   8.910  12.095   0.203
48892SOL    HW246701   9.021  12.189   0.276
48893SOL     OW46702   7.765  11.423   1.801
48893SOL    HW146703   7.836  11.494   1.807
48893SOL    HW246704   7.677  11.462   1.829
48894SOL     OW46705   8.914  12.589   0.953
48894SOL    HW146706   8.855  12.595   1.033
48894SOL    HW246707   8.899  12.501   0.907
48895SOL     OW46708   8.046  11.901   0.270
48895SOL    HW146709   8.070  11.970   0.202
48895SOL    HW246710   7.968  11.934   0.324
48896SOL     OW46711   8.729  11.517   0.944
48896SOL    HW146712   8.643  11.467   0.931
48896SOL    HW246713   8.791  11.463   1.000
48897SOL     OW46714   9.024  12.834   0.307
48897SOL    HW146715   9.113  12.880   0.310
48897SOL    HW246716   9.003  12.810   0.212
48898SOL     OW46717   8.255  11.777   1.465
48898SOL    HW146718   8.208  11.774   1.554
48898SOL    HW246719   8.204  11.722   1.399
48899SOL     OW46720   8.842  11.641   1.674
48899SOL    HW146721   8.822  11.684   1.762
48899SOL    HW246722   8.920  11.579   1.683
48900SOL     OW46723   8.421  12.062   1.572
48900SOL    HW146724   8.467  11.978   1.543
48900SOL    HW246725   8.365  12.096   1.497
48901SOL     OW46726   8.439  11.582   1.242
48901SOL    HW146727   8.362  11.616   1.296
48901SOL    HW246728   8.405  11.531   1.163
48902SOL     OW46729   8.489  11.873   0.429
48902SOL    HW146730   8.515  11.869   0.525
48902SOL    HW246731   8.404  11.822   0.415
48903SOL     OW46732   7.524  11.983   0.789
48903SOL    HW146733   7.623  11.971   0.798
48903SOL    HW246734   7.500  12.078   0.810
48904SOL     OW46735   8.313  11.520   0.195
48904SOL    HW146736   8.372  11.583   0.146
48904SOL    HW246737   8.332  11.426   0.166
48905SOL     OW46738   9.167  11.757   1.831
48905SOL    HW146739   9.141  11.846   1.795
48905SOL    HW246740   9.165  11.689   1.758
48906SOL     OW46741   8.810  12.316   0.545
48906SOL    HW146742   8.893  12.287   0.497
48906SOL    HW246743   8.761  12.383   0.489
48907SOL     OW46744   7.998  11.368   0.885
48907SOL    HW146745   7.993  11.363   0.985
48907SOL    HW246746   8.000  11.464   0.856
48908SOL     OW46747   8.456  12.628   0.477
48908SOL    HW146748   8.410  12.700   0.425
48908SOL    HW246749   8.452  12.648   0.575
48909SOL     OW46750   9.243  12.238   0.873
48909SOL    HW146751   9.181  12.223   0.797
48909SOL    HW246752   9.191  12.249   0.958
48910SOL     OW46753   8.675  12.722   1.506
48910SOL    HW146754   8.681  12.645   1.570
48910SOL    HW246755   8.623  12.696   1.426
48911SOL     OW46756   7.769  12.115   0.242
48911SOL    HW146757   7.851  12.154   0.200
48911SOL    HW246758   7.742  12.033   0.193
48912SOL     OW46759   8.906  11.907   0.728
48912SOL    HW146760   8.901  11.842   0.803
48912SOL    HW246761   8.986  11.966   0.741
48913SOL     OW46762   7.909  12.438   1.727
48913SOL    HW146763   7.859  12.439   1.641
48913SOL    HW246764   7.846  12.420   1.803
48914SOL     OW46765   7.650  11.457   1.498
48914SOL    HW146766   7.570  11.517   1.485
48914SOL    HW246767   7.640  11.408   1.584
48915SOL     OW46768   9.080  12.549   0.081
48915SOL    HW146769   9.048  12.643   0.071
48915SOL    HW246770   9.004  12.486   0.069
48916SOL     OW46771   8.848  11.279   0.426
48916SOL    HW146772   8.824  11.242   0.336
48916SOL    HW246773   8.947  11.295   0.430
48917SOL     OW46774   7.830  11.872   0.480
48917SOL    HW146775   7.875  11.782   0.477
48917SOL    HW246776   7.736  11.861   0.513
48918SOL     OW46777   8.995  11.394   1.729
48918SOL    HW146778   8.990  11.431   1.821
48918SOL    HW246779   8.923  11.325   1.717
48919SOL     OW46780   8.062  11.294   0.117
48919SOL    HW146781   8.160  11.272   0.124
48919SOL    HW246782   8.031  11.277   0.024
48920SOL     OW46783   8.229  11.436   1.749
48920SOL    HW146784   8.296  11.375   1.792
48920SOL    HW246785   8.156  11.455   1.814
48921SOL     OW46786   8.799  11.762   1.433
48921SOL    HW146787   8.827  11.719   1.518
48921SOL    HW246788   8.824  11.858   1.434
48922SOL     OW46789   8.251  12.574   0.924
48922SOL    HW146790   8.341  12.588   0.882
48922SOL    HW246791   8.180  12.576   0.853
48923SOL     OW46792   8.370  11.675   0.899
48923SOL    HW146793   8.345  11.666   0.803
48923SOL    HW246794   8.418  11.593   0.930
48924SOL     OW46795   7.987  11.236   0.512
48924SOL    HW146796   7.906  11.237   0.570
48924SOL    HW246797   7.990  11.319   0.457
48925SOL     OW46798   8.882  12.360   0.041
48925SOL    HW146799   8.914  12.284   0.098
48925SOL    HW246800   8.790  12.387   0.071
48926SOL     OW46801   7.745  11.207   0.171
48926SOL    HW146802   7.794  11.291   0.150
48926SOL    HW246803   7.807  11.142   0.216
48927SOL     OW46804   8.383  11.408   0.480
48927SOL    HW146805   8.335  11.449   0.402
48927SOL    HW246806   8.482  11.406   0.461
48928SOL     OW46807   8.524  11.855   1.464
48928SOL    HW146808   8.444  11.794   1.467
48928SOL    HW246809   8.605  11.802   1.440
48929SOL     OW46810   8.675  12.742   0.793
48929SOL    HW146811   8.696  12.816   0.728
48929SOL    HW246812   8.743  12.742   0.866
48930SOL     OW46813   7.907  12.324   0.741
48930SOL    HW146814   7.836  12.297   0.806
48930SOL    HW246815   7.881  12.296   0.648
48931SOL     OW46816   8.480  11.721   0.016
48931SOL    HW146817   8.439  11.803  -0.023
48931SOL    HW246818   8.544  11.747   0.089
48932SOL     OW46819   7.526  11.728   1.386
48932SOL    HW146820   7.618  11.727   1.345
48932SOL    HW246821   7.520  11.802   1.453
48933SOL     OW46822   8.009  11.394   1.147
48933SOL    HW146823   8.047  11.310   1.184
48933SOL    HW246824   7.921  11.413   1.191
48934SOL     OW46825   8.314  11.626   0.642
48934SOL    HW146826   8.282  11.698   0.580
48934SOL    HW246827   8.338  11.545   0.589
48935SOL     OW46828   8.465  11.211   0.753
48935SOL    HW146829   8.393  11.216   0.684
48935SOL    HW246830   8.441  11.142   0.822
48936SOL     OW46831   8.877  12.345   0.867
48936SOL    HW146832   8.822  12.261   0.860
48936SOL    HW246833   8.903  12.374   0.775
48937SOL     OW46834   8.914  11.762   0.992
48937SOL    HW146835   8.884  11.667   0.999
48937SOL    HW246836   8.987  11.778   1.058
48938SOL     OW46837   9.305  12.005   0.377
48938SOL    HW146838   9.347  11.941   0.441
48938SOL    HW246839   9.267  11.954   0.299
48939SOL     OW46840   7.936  12.557   0.174
48939SOL    HW146841   7.849  12.542   0.221
48939SOL    HW246842   7.919  12.583   0.079
48940SOL     OW46843   9.112  12.452   0.657
48940SOL    HW146844   9.211  12.460   0.671
48940SOL    HW246845   9.067  12.536   0.688
48941SOL     OW46846   8.838  11.747   0.078
48941SOL    HW146847   8.784  11.726   0.159
48941SOL    HW246848   8.929  11.706   0.087
48942SOL     OW46849   7.975  11.428   0.328
48942SOL    HW146850   8.002  11.369   0.253
48942SOL    HW246851   7.975  11.523   0.297
48943SOL     OW46852   9.202  12.395   1.588
48943SOL    HW146853   9.293  12.356   1.575
48943SOL    HW246854   9.210  12.491   1.612
48944SOL     OW46855   8.512  12.519   1.340
48944SOL    HW146856   8.432  12.496   1.395
48944SOL    HW246857   8.595  12.493   1.389
48945SOL     OW46858   8.559  12.367   1.100
48945SOL    HW146859   8.519  12.411   1.181
48945SOL    HW246860   8.518  12.404   1.017
48946SOL     OW46861   9.086  12.271   1.079
48946SOL    HW146862   9.091  12.352   1.138
48946SOL    HW246863   9.000  12.273   1.028
48947SOL     OW46864   8.363  11.261   1.402
48947SOL    HW146865   8.388  11.241   1.307
48947SOL    HW246866   8.435  11.317   1.444
48948SOL     OW46867   8.428  12.288   1.719
48948SOL    HW146868   8.329  12.294   1.729
48948SOL    HW246869   8.451  12.208   1.663
48949SOL     OW46870   8.153  12.222   0.368
48949SOL    HW146871   8.139  12.229   0.467
48949SOL    HW246872   8.237  12.171   0.350
48950SOL     OW46873   7.858  11.985   1.251
48950SOL    HW146874   7.944  11.997   1.301
48950SOL    HW246875   7.816  11.898   1.278
48951SOL     OW46876   8.722  11.558   1.262
48951SOL    HW146877   8.743  11.632   1.326
48951SOL    HW246878   8.633  11.575   1.219
48952SOL     OW46879   7.512  12.736   1.331
48952SOL    HW146880   7.466  12.818   1.297
48952SOL    HW246881   7.610  12.755   1.340
48953SOL     OW46882   7.815  12.272   0.501
48953SOL    HW146883   7.808  12.355   0.445
48953SOL    HW246884   7.819  12.192   0.441
48954SOL     OW46885   8.014  11.709   0.865
48954SOL    HW146886   8.026  11.775   0.791
48954SOL    HW246887   8.060  11.743   0.948
48955SOL     OW46888   8.700  12.520   0.388
48955SOL    HW146889   8.750  12.597   0.428
48955SOL    HW246890   8.605  12.522   0.420
48956SOL     OW46891   8.720  12.617   1.142
48956SOL    HW146892   8.767  12.630   1.229
48956SOL    HW246893   8.654  12.543   1.151
48957SOL     OW46894   9.030  11.811   0.472
48957SOL    HW146895   8.999  11.872   0.545
48957SOL    HW246896   9.080  11.863   0.403
48958SOL     OW46897   7.802  12.682   1.329
48958SOL    HW146898   7.781  12.638   1.242
48958SOL    HW246899   7.899  12.708   1.332
48959SOL     OW46900   7.850  11.923   1.598
48959SOL    HW146901   7.918  11.978   1.551
48959SOL    HW246902   7.890  11.835   1.625
48960SOL     OW46903   9.035  11.951   1.670
48960SOL    HW146904   8.943  11.989   1.665
48960SOL    HW246905   9.095  11.998   1.605
48961SOL     OW46906   8.461  11.277   1.770
48961SOL    HW146907   8.467  11.362   1.718
48961SOL    HW246908   8.493  11.201   1.713
48962SOL     OW46909   7.952  11.222   1.740
48962SOL    HW146910   7.910  11.165   1.670
48962SOL    HW246911   7.886  11.291   1.772
48963SOL     OW46912   8.021  12.042   1.029
48963SOL    HW146913   8.065  12.131   1.020
48963SOL    HW246914   7.958  12.042   1.106
48964SOL     OW46915   8.808  12.034   1.045
48964SOL    HW146916   8.733  12.034   0.979
48964SOL    HW246917   8.845  11.942   1.054
48965SOL     OW46918   8.657  11.697   0.275
48965SOL    HW146919   8.670  11.613   0.329
48965SOL    HW246920   8.628  11.771   0.335
48966SOL     OW46921   7.755  11.385   1.231
48966SOL    HW146922   7.732  11.422   1.321
48966SOL    HW246923   7.725  11.290   1.225
48967SOL     OW46924   7.485  12.482   1.282
48967SOL    HW146925   7.538  12.433   1.350
48967SOL    HW246926   7.507  12.580   1.287
48968SOL     OW46927   8.180  11.806   1.064
48968SOL    HW146928   8.239  11.780   0.988
48968SOL    HW246929   8.152  11.902   1.053
48969SOL     OW46930   9.176  12.107   1.854
48969SOL    HW146931   9.130  12.100   1.765
48969SOL    HW246932   9.114  12.151   1.920
48970SOL     OW46933   7.755  11.235   0.618
48970SOL    HW146934   7.744  11.329   0.651
48970SOL    HW246935   7.750  11.172   0.695
48971SOL     OW46936   9.070  11.539   0.374
48971SOL    HW146937   9.072  11.463   0.438
48971SOL    HW246938   9.022  11.616   0.414
48972SOL     OW46939   8.471  11.938   0.966
48972SOL    HW146940   8.486  11.959   1.062
48972SOL    HW246941   8.441  11.843   0.957
48973SOL     OW46942   9.307  12.690   1.605
48973SOL    HW146943   9.321  12.717   1.510
48973SOL    HW246944   9.390  12.712   1.658
48974SOL     OW46945   7.798  12.070   1.804
48974SOL    HW146946   7.874  12.114   1.852
48974SOL    HW246947   7.833  12.023   1.722
48975SOL     OW46948   8.988  11.446   0.125
48975SOL    HW146949   8.927  11.371   0.148
48975SOL    HW246950   9.010  11.498   0.208
48976SOL     OW46951   8.751  12.010   0.042
48976SOL    HW146952   8.785  11.917   0.057
48976SOL    HW246953   8.769  12.037  -0.053
48977SOL     OW46954   8.516  12.505   0.849
48977SOL    HW146955   8.523  12.421   0.794
48977SOL    HW246956   8.578  12.574   0.813
48978SOL     OW46957   7.767  11.982   0.949
48978SOL    HW146958   7.860  12.018   0.954
48978SOL    HW246959   7.761  11.897   1.001
48979SOL     OW46960   7.787  11.681   1.006
48979SOL    HW146961   7.735  11.598   0.989
48979SOL    HW246962   7.864  11.686   0.942
48980SOL     OW46963   8.586  11.552   1.678
48980SOL    HW146964   8.541  11.615   1.742
48980SOL    HW246965   8.679  11.583   1.661
48981SOL     OW46966   8.608  11.379   1.477
48981SOL    HW146967   8.608  11.443   1.554
48981SOL    HW246968   8.636  11.427   1.394
48982SOL     OW46969   7.456  12.498   0.200
48982SOL    HW146970   7.363  12.519   0.169
48982SOL    HW246971   7.466  12.399   0.213
48983SOL     OW46972   7.952  12.740   0.910
48983SOL    HW146973   8.018  12.814   0.919
48983SOL    HW246974   7.996  12.661   0.868
48984SOL     OW46975   8.450  11.968   1.238
48984SOL    HW146976   8.491  11.936   1.324
48984SOL    HW246977   8.354  11.941   1.235
48985SOL     OW46978   7.488  11.716   1.114
48985SOL    HW146979   7.573  11.683   1.073
48985SOL    HW246980   7.501  11.731   1.212
48986SOL     OW46981   7.637  11.692   1.722
48986SOL    HW146982   7.696  11.652   1.652
48986SOL    HW246983   7.579  11.763   1.681
48987SOL     OW46984   8.817  12.122   1.660
48987SOL    HW146985   8.856  12.211   1.680
48987SOL    HW246986   8.827  12.102   1.563
48988SOL     OW46987   8.263  11.744   0.325
48988SOL    HW146988   8.270  11.655   0.279
48988SOL    HW246989   8.169  11.778   0.317
48989SOL     OW46990   9.105  11.776   1.206
48989SOL    HW146991   9.067  11.707   1.268
48989SOL    HW246992   9.187  11.740   1.162
48990SOL     OW46993   7.700  12.736   1.744
48990SOL    HW146994   7.670  12.793   1.820
48990SOL    HW246995   7.693  12.639   1.770
48991SOL     OW46996   8.119  11.636   1.269
48991SOL    HW146997   8.085  11.547   1.239
48991SOL    HW246998   8.145  11.690   1.189
48992SOL     OW46999   7.921  11.672   0.191
48992SOL    HW147000   7.982  11.752   0.195
48992SOL    HW247001   7.826  11.703   0.198
48993SOL     OW47002   7.607  12.309   1.466
48993SOL    HW147003   7.629  12.248   1.542
48993SOL    HW247004   7.617  12.260   1.380
48994SOL     OW47005   8.795  12.231   1.234
48994SOL    HW147006   8.819  12.168   1.160
48994SOL    HW247007   8.705  12.271   1.216
48995SOL     OW47008   8.750  12.027   0.309
48995SOL    HW147009   8.664  11.996   0.351
48995SOL    HW247010   8.746  12.013   0.210
48996SOL     OW47011   8.700  12.903   1.128
48996SOL    HW147012   8.784  12.908   1.074
48996SOL    HW247013   8.677  12.807   1.146
48997SOL     OW47014   7.531  12.430   1.022
48997SOL    HW147015   7.526  12.429   1.122
48997SOL    HW247016   7.448  12.389   0.984
48998SOL     OW47017   8.351  11.258   0.133
48998SOL    HW147018   8.402  11.259   0.047
48998SOL    HW247019   8.407  11.216   0.204
48999SOL     OW47020   9.174  11.307   0.523
48999SOL    HW147021   9.247  11.290   0.456
48999SOL    HW247022   9.143  11.220   0.561
49000SOL     OW47023   7.578  12.966   1.851
49000SOL    HW147024   7.537  12.892   1.904
49000SOL    HW247025   7.642  13.017   1.909
49001SOL     OW47026   8.728  12.099   0.672
49001SOL    HW147027   8.788  12.018   0.674
49001SOL    HW247028   8.768  12.168   0.612
49002SOL     OW47029   8.278  12.445   1.422
49002SOL    HW147030   8.273  12.478   1.517
49002SOL    HW247031   8.192  12.464   1.376
49003SOL     OW47032   8.120  12.788   0.154
49003SOL    HW147033   8.129  12.798   0.055
49003SOL    HW247034   8.080  12.699   0.175
49004SOL     OW47035   9.289  11.347   0.963
49004SOL    HW147036   9.328  11.262   0.927
49004SOL    HW247037   9.191  11.349   0.944
49005SOL     OW47038   7.711  11.498   0.720
49005SOL    HW147039   7.632  11.549   0.686
49005SOL    HW247040   7.702  11.483   0.818
49006SOL     OW47041   8.642  12.784   0.031
49006SOL    HW147042   8.648  12.691   0.068
49006SOL    HW247043   8.583  12.784  -0.049
49007SOL     OW47044   8.270  12.174   1.372
49007SOL    HW147045   8.310  12.173   1.280
49007SOL    HW247046   8.280  12.266   1.412
49008SOL     OW47047   8.364  12.082   0.291
49008SOL    HW147048   8.427  12.120   0.223
49008SOL    HW247049   8.404  11.999   0.330
49009SOL     OW47050   7.820  12.460   1.490
49009SOL    HW147051   7.807  12.553   1.456
49009SOL    HW247052   7.736  12.408   1.477
49010SOL     OW47053   9.062  12.464   1.289
49010SOL    HW147054   9.122  12.467   1.369
49010SOL    HW247055   8.987  12.528   1.302
49011SOL     OW47056   8.487  12.270   0.696
49011SOL    HW147057   8.417  12.223   0.750
49011SOL    HW247058   8.546  12.202   0.653
49012SOL     OW47059   8.462  11.408   0.971
49012SOL    HW147060   8.454  11.372   0.878
49012SOL    HW247061   8.460  11.332   1.036
49013SOL     OW47062   8.038  12.659   0.491
49013SOL    HW147063   8.080  12.601   0.421
49013SOL    HW247064   7.994  12.738   0.447
49014SOL     OW47065   9.157  11.557   1.381
49014SOL    HW147066   9.230  11.626   1.385
49014SOL    HW247067   9.185  11.482   1.322
49015SOL     OW47068   7.703  12.520   0.290
49015SOL    HW147069   7.607  12.521   0.263
49015SOL    HW247070   7.715  12.573   0.374
49016SOL     OW47071   7.553  12.185   1.726
49016SOL    HW147072   7.476  12.152   1.780
49016SOL    HW247073   7.638  12.155   1.768
49017SOL     OW47074   8.120  11.375   1.489
49017SOL    HW147075   8.210  11.359   1.449
49017SOL    HW247076   8.128  11.380   1.588
49018SOL     OW47077   8.888  12.028   1.398
49018SOL    HW147078   8.831  12.080   1.335
49018SOL    HW247079   8.984  12.040   1.374
49019SOL     OW47080   7.520  11.338   0.318
49019SOL    HW147081   7.503  11.421   0.264
49019SOL    HW247082   7.610  11.301   0.296
49020SOL     OW47083   8.631  12.507   0.119
49020SOL    HW147084   8.532  12.496   0.121
49020SOL    HW247085   8.665  12.522   0.212
49021SOL     OW47086   8.061  12.014   1.431
49021SOL    HW147087   8.117  12.095   1.414
49021SOL    HW247088   8.120  11.934   1.434
49022SOL     OW47089   8.164  11.737   1.708
49022SOL    HW147090   8.183  11.802   1.782
49022SOL    HW247091   8.224  11.657   1.717
49023SOL     OW47092   8.898  12.392   1.633
49023SOL    HW147093   8.889  12.382   1.732
49023SOL    HW247094   8.994  12.385   1.607
49024SOL     OW47095   9.122  12.055   1.254
49024SOL    HW147096   9.095  11.966   1.217
49024SOL    HW247097   9.123  12.123   1.181
49025SOL     OW47098   8.673  11.497   0.449
49025SOL    HW147099   8.738  11.423   0.438
49025SOL    HW247100   8.693  11.547   0.533
49026SOL     OW47101   8.042  11.917   0.652
49026SOL    HW147102   8.092  12.002   0.633
49026SOL    HW247103   7.954  11.919   0.604
49027SOL     OW47104   9.225  11.514   1.642
49027SOL    HW147105   9.208  11.545   1.548
49027SOL    HW247106   9.141  11.477   1.680
49028SOL     OW47107   9.178  12.106   1.517
49028SOL    HW147108   9.216  12.197   1.532
49028SOL    HW247109   9.170  12.089   1.418
49029SOL     OW47110   8.307  12.546   0.016
49029SOL    HW147111   8.261  12.561   0.104
49029SOL    HW247112   8.351  12.631  -0.014
49030SOL     OW47113   8.307  12.128   0.861
49030SOL    HW147114   8.361  12.059   0.909
49030SOL    HW247115   8.275  12.197   0.927
49031SOL     OW47116   8.531  12.156   0.087
49031SOL    HW147117   8.508  12.209   0.005
49031SOL    HW247118   8.612  12.100   0.068
49032SOL     OW47119   9.309  12.741   0.851
49032SOL    HW147120   9.238  12.729   0.781
49032SOL    HW247121   9.310  12.662   0.911
49033SOL     OW47122   7.669  12.486   1.844
49033SOL    HW147123   7.604  12.413   1.823
49033SOL    HW247124   7.673  12.500   1.942
49034SOL     OW47125   7.527  12.412   0.653
49034SOL    HW147126   7.526  12.365   0.741
49034SOL    HW247127   7.609  12.384   0.602
49035SOL     OW47128   8.120  12.563   1.624
49035SOL    HW147129   8.042  12.513   1.662
49035SOL    HW247130   8.117  12.658   1.655
49036SOL     OW47131   9.272  11.364   1.227
49036SOL    HW147132   9.268  11.274   1.271
49036SOL    HW247133   9.275  11.353   1.128
49037SOL     OW47134   7.876  11.596   0.520
49037SOL    HW147135   7.906  11.524   0.458
49037SOL    HW247136   7.837  11.556   0.603
49038SOL     OW47137   9.153  12.659   1.104
49038SOL    HW147138   9.060  12.634   1.077
49038SOL    HW247139   9.179  12.609   1.186
49039SOL     OW47140   7.765  11.719   1.280
49039SOL    HW147141   7.803  11.660   1.352
49039SOL    HW247142   7.805  11.693   1.192
49040SOL     OW47143   8.872  11.386   1.112
49040SOL    HW147144   8.924  11.321   1.167
49040SOL    HW247145   8.823  11.449   1.173
49041SOL     OW47146   8.449  11.206   1.154
49041SOL    HW147147   8.386  11.134   1.123
49041SOL    HW247148   8.542  11.170   1.154
49042SOL     OW47149   8.218  12.502   0.301
49042SOL    HW147150   8.172  12.415   0.318
49042SOL    HW247151   8.309  12.499   0.342
49043SOL     OW47152   8.066  12.739   1.284
49043SOL    HW147153   8.061  12.821   1.341
49043SOL    HW247154   8.155  12.736   1.239
49044SOL     OW47155   8.800  11.224   0.168
49044SOL    HW147156   8.835  11.183   0.084
49044SOL    HW247157   8.710  11.186   0.188
49045SOL     OW47158   8.748  11.625   0.691
49045SOL    HW147159   8.689  11.705   0.695
49045SOL    HW247160   8.763  11.590   0.784
49046SOL     OW47161   9.041  11.393   0.882
49046SOL    HW147162   8.957  11.392   0.936
49046SOL    HW247163   9.043  11.476   0.826
49047SOL     OW47164   7.487  12.249   0.300
49047SOL    HW147165   7.586  12.238   0.291
49047SOL    HW247166   7.447  12.163   0.332
49048SOL     OW47167   7.678  11.800   1.975
49048SOL    HW147168   7.585  11.798   2.012
49048SOL    HW247169   7.679  11.761   1.883
49049SOL     OW47170   7.673  11.447   2.858
49049SOL    HW147171   7.708  11.430   2.950
49049SOL    HW247172   7.585  11.402   2.846
49050SOL     OW47173   7.467  11.540   2.509
49050SOL    HW147174   7.385  11.583   2.548
49050SOL    HW247175   7.439  11.467   2.446
49051SOL     OW47176   8.017  12.447   3.027
49051SOL    HW147177   7.924  12.440   2.990
49051SOL    HW247178   8.028  12.536   3.071
49052SOL     OW47179   9.003  12.683   2.565
49052SOL    HW147180   8.946  12.667   2.646
49052SOL    HW247181   8.944  12.693   2.485
49053SOL     OW47182   8.583  11.875   2.579
49053SOL    HW147183   8.640  11.953   2.554
49053SOL    HW247184   8.523  11.901   2.655
49054SOL     OW47185   9.203  11.779   2.093
49054SOL    HW147186   9.191  11.766   1.994
49054SOL    HW247187   9.173  11.698   2.142
49055SOL     OW47188   8.216  12.316   2.885
49055SOL    HW147189   8.138  12.333   2.945
49055SOL    HW247190   8.250  12.403   2.849
49056SOL     OW47191   8.298  11.970   3.685
49056SOL    HW147192   8.294  12.046   3.750
49056SOL    HW247193   8.320  12.006   3.594
49057SOL     OW47194   8.133  12.184   2.527
49057SOL    HW147195   8.202  12.168   2.597
49057SOL    HW247196   8.060  12.241   2.565
49058SOL     OW47197   8.134  12.333   3.665
49058SOL    HW147198   8.194  12.412   3.679
49058SOL    HW247199   8.048  12.364   3.624
49059SOL     OW47200   7.783  12.607   2.923
49059SOL    HW147201   7.705  12.576   2.870
49059SOL    HW247202   7.841  12.665   2.866
49060SOL     OW47203   8.908  12.677   3.201
49060SOL    HW147204   8.932  12.771   3.227
49060SOL    HW247205   8.892  12.623   3.283
49061SOL     OW47206   7.886  11.564   3.361
49061SOL    HW147207   7.968  11.508   3.370
49061SOL    HW247208   7.805  11.506   3.365
49062SOL     OW47209   9.051  11.619   2.599
49062SOL    HW147210   8.977  11.665   2.549
49062SOL    HW247211   9.102  11.687   2.652
49063SOL     OW47212   8.575  12.513   3.552
49063SOL    HW147213   8.622  12.513   3.640
49063SOL    HW247214   8.527  12.426   3.541
49064SOL     OW47215   7.678  12.606   2.400
49064SOL    HW147216   7.652  12.702   2.400
49064SOL    HW247217   7.607  12.552   2.445
49065SOL     OW47218   7.688  12.263   2.748
49065SOL    HW147219   7.702  12.179   2.800
49065SOL    HW247220   7.633  12.327   2.803
49066SOL     OW47221   8.054  12.136   1.985
49066SOL    HW147222   8.061  12.220   1.931
49066SOL    HW247223   8.100  12.149   2.073
49067SOL     OW47224   9.042  11.286   3.342
49067SOL    HW147225   9.024  11.353   3.270
49067SOL    HW247226   9.039  11.332   3.431
49068SOL     OW47227   7.570  11.815   2.425
49068SOL    HW147228   7.525  11.727   2.442
49068SOL    HW247229   7.569  11.869   2.509
49069SOL     OW47230   7.475  12.768   1.979
49069SOL    HW147231   7.456  12.672   2.000
49069SOL    HW247232   7.442  12.826   2.054
49070SOL     OW47233   9.137  12.094   2.474
49070SOL    HW147234   9.232  12.065   2.482
49070SOL    HW247235   9.129  12.159   2.399
49071SOL     OW47236   9.089  12.280   2.294
49071SOL    HW147237   9.175  12.282   2.242
49071SOL    HW247238   9.103  12.327   2.382
49072SOL     OW47239   7.561  11.909   3.459
49072SOL    HW147240   7.649  11.896   3.504
49072SOL    HW247241   7.548  12.006   3.437
49073SOL     OW47242   8.061  12.537   2.588
49073SOL    HW147243   8.012  12.450   2.597
49073SOL    HW247244   8.038  12.580   2.501
49074SOL     OW47245   8.741  12.400   3.285
49074SOL    HW147246   8.778  12.327   3.227
49074SOL    HW247247   8.793  12.405   3.370
49075SOL     OW47248   8.257  11.176   2.364
49075SOL    HW147249   8.297  11.267   2.355
49075SOL    HW247250   8.157  11.184   2.370
49076SOL     OW47251   7.645  12.148   3.126
49076SOL    HW147252   7.734  12.103   3.112
49076SOL    HW247253   7.572  12.083   3.107
49077SOL     OW47254   8.973  12.171   2.052
49077SOL    HW147255   8.910  12.095   2.065
49077SOL    HW247256   9.021  12.189   2.138
49078SOL     OW47257   7.765  11.423   3.663
49078SOL    HW147258   7.836  11.494   3.669
49078SOL    HW247259   7.677  11.462   3.691
49079SOL     OW47260   8.914  12.589   2.815
49079SOL    HW147261   8.855  12.595   2.895
49079SOL    HW247262   8.899  12.501   2.769
49080SOL     OW47263   8.046  11.901   2.132
49080SOL    HW147264   8.070  11.970   2.064
49080SOL    HW247265   7.968  11.934   2.186
49081SOL     OW47266   8.729  11.517   2.806
49081SOL    HW147267   8.643  11.467   2.793
49081SOL    HW247268   8.791  11.463   2.862
49082SOL     OW47269   9.024  12.834   2.169
49082SOL    HW147270   9.113  12.880   2.172
49082SOL    HW247271   9.003  12.810   2.074
49083SOL     OW47272   8.255  11.777   3.327
49083SOL    HW147273   8.208  11.774   3.416
49083SOL    HW247274   8.204  11.722   3.261
49084SOL     OW47275   8.842  11.641   3.536
49084SOL    HW147276   8.822  11.684   3.624
49084SOL    HW247277   8.920  11.579   3.545
49085SOL     OW47278   8.421  12.062   3.434
49085SOL    HW147279   8.467  11.978   3.405
49085SOL    HW247280   8.365  12.096   3.359
49086SOL     OW47281   8.439  11.582   3.104
49086SOL    HW147282   8.362  11.616   3.158
49086SOL    HW247283   8.405  11.531   3.025
49087SOL     OW47284   8.489  11.873   2.291
49087SOL    HW147285   8.515  11.869   2.387
49087SOL    HW247286   8.404  11.822   2.277
49088SOL     OW47287   7.524  11.983   2.651
49088SOL    HW147288   7.623  11.971   2.660
49088SOL    HW247289   7.500  12.078   2.672
49089SOL     OW47290   8.313  11.520   2.057
49089SOL    HW147291   8.372  11.583   2.008
49089SOL    HW247292   8.332  11.426   2.028
49090SOL     OW47293   9.167  11.757   3.693
49090SOL    HW147294   9.141  11.846   3.657
49090SOL    HW247295   9.165  11.689   3.620
49091SOL     OW47296   8.810  12.316   2.407
49091SOL    HW147297   8.893  12.287   2.359
49091SOL    HW247298   8.761  12.383   2.351
49092SOL     OW47299   7.998  11.368   2.747
49092SOL    HW147300   7.993  11.363   2.847
49092SOL    HW247301   8.000  11.464   2.718
49093SOL     OW47302   8.456  12.628   2.339
49093SOL    HW147303   8.410  12.700   2.287
49093SOL    HW247304   8.452  12.648   2.437
49094SOL     OW47305   9.243  12.238   2.735
49094SOL    HW147306   9.181  12.223   2.659
49094SOL    HW247307   9.191  12.249   2.820
49095SOL     OW47308   8.675  12.722   3.368
49095SOL    HW147309   8.681  12.645   3.432
49095SOL    HW247310   8.623  12.696   3.288
49096SOL     OW47311   7.769  12.115   2.104
49096SOL    HW147312   7.851  12.154   2.062
49096SOL    HW247313   7.742  12.033   2.055
49097SOL     OW47314   8.906  11.907   2.590
49097SOL    HW147315   8.901  11.842   2.665
49097SOL    HW247316   8.986  11.966   2.603
49098SOL     OW47317   7.909  12.438   3.589
49098SOL    HW147318   7.859  12.439   3.503
49098SOL    HW247319   7.846  12.420   3.665
49099SOL     OW47320   7.650  11.457   3.360
49099SOL    HW147321   7.570  11.517   3.347
49099SOL    HW247322   7.640  11.408   3.446
49100SOL     OW47323   9.080  12.549   1.943
49100SOL    HW147324   9.048  12.643   1.933
49100SOL    HW247325   9.004  12.486   1.931
49101SOL     OW47326   8.848  11.279   2.288
49101SOL    HW147327   8.824  11.242   2.198
49101SOL    HW247328   8.947  11.295   2.292
49102SOL     OW47329   7.830  11.872   2.342
49102SOL    HW147330   7.875  11.782   2.339
49102SOL    HW247331   7.736  11.861   2.375
49103SOL     OW47332   8.995  11.394   3.591
49103SOL    HW147333   8.990  11.431   3.683
49103SOL    HW247334   8.923  11.325   3.579
49104SOL     OW47335   8.062  11.294   1.979
49104SOL    HW147336   8.160  11.272   1.986
49104SOL    HW247337   8.031  11.277   1.886
49105SOL     OW47338   8.229  11.436   3.611
49105SOL    HW147339   8.296  11.375   3.654
49105SOL    HW247340   8.156  11.455   3.676
49106SOL     OW47341   8.799  11.762   3.295
49106SOL    HW147342   8.827  11.719   3.380
49106SOL    HW247343   8.824  11.858   3.296
49107SOL     OW47344   8.251  12.574   2.786
49107SOL    HW147345   8.341  12.588   2.744
49107SOL    HW247346   8.180  12.576   2.715
49108SOL     OW47347   8.370  11.675   2.761
49108SOL    HW147348   8.345  11.666   2.665
49108SOL    HW247349   8.418  11.593   2.792
49109SOL     OW47350   7.987  11.236   2.374
49109SOL    HW147351   7.906  11.237   2.432
49109SOL    HW247352   7.990  11.319   2.319
49110SOL     OW47353   8.882  12.360   1.903
49110SOL    HW147354   8.914  12.284   1.960
49110SOL    HW247355   8.790  12.387   1.933
49111SOL     OW47356   7.745  11.207   2.033
49111SOL    HW147357   7.794  11.291   2.012
49111SOL    HW247358   7.807  11.142   2.078
49112SOL     OW47359   8.383  11.408   2.342
49112SOL    HW147360   8.335  11.449   2.264
49112SOL    HW247361   8.482  11.406   2.323
49113SOL     OW47362   8.524  11.855   3.326
49113SOL    HW147363   8.444  11.794   3.329
49113SOL    HW247364   8.605  11.802   3.302
49114SOL     OW47365   8.675  12.742   2.655
49114SOL    HW147366   8.696  12.816   2.590
49114SOL    HW247367   8.743  12.742   2.728
49115SOL     OW47368   7.907  12.324   2.603
49115SOL    HW147369   7.836  12.297   2.668
49115SOL    HW247370   7.881  12.296   2.510
49116SOL     OW47371   8.480  11.721   1.878
49116SOL    HW147372   8.439  11.803   1.839
49116SOL    HW247373   8.544  11.747   1.951
49117SOL     OW47374   7.526  11.728   3.248
49117SOL    HW147375   7.618  11.727   3.207
49117SOL    HW247376   7.520  11.802   3.315
49118SOL     OW47377   8.009  11.394   3.009
49118SOL    HW147378   8.047  11.310   3.046
49118SOL    HW247379   7.921  11.413   3.053
49119SOL     OW47380   8.314  11.626   2.504
49119SOL    HW147381   8.282  11.698   2.442
49119SOL    HW247382   8.338  11.545   2.451
49120SOL     OW47383   8.465  11.211   2.615
49120SOL    HW147384   8.393  11.216   2.546
49120SOL    HW247385   8.441  11.142   2.684
49121SOL     OW47386   8.877  12.345   2.729
49121SOL    HW147387   8.822  12.261   2.722
49121SOL    HW247388   8.903  12.374   2.637
49122SOL     OW47389   8.914  11.762   2.854
49122SOL    HW147390   8.884  11.667   2.861
49122SOL    HW247391   8.987  11.778   2.920
49123SOL     OW47392   9.305  12.005   2.239
49123SOL    HW147393   9.347  11.941   2.303
49123SOL    HW247394   9.267  11.954   2.161
49124SOL     OW47395   7.936  12.557   2.036
49124SOL    HW147396   7.849  12.542   2.083
49124SOL    HW247397   7.919  12.583   1.941
49125SOL     OW47398   9.112  12.452   2.519
49125SOL    HW147399   9.211  12.460   2.533
49125SOL    HW247400   9.067  12.536   2.550
49126SOL     OW47401   8.838  11.747   1.940
49126SOL    HW147402   8.784  11.726   2.021
49126SOL    HW247403   8.929  11.706   1.949
49127SOL     OW47404   7.975  11.428   2.190
49127SOL    HW147405   8.002  11.369   2.115
49127SOL    HW247406   7.975  11.523   2.159
49128SOL     OW47407   9.202  12.395   3.450
49128SOL    HW147408   9.293  12.356   3.437
49128SOL    HW247409   9.210  12.491   3.474
49129SOL     OW47410   8.512  12.519   3.202
49129SOL    HW147411   8.432  12.496   3.257
49129SOL    HW247412   8.595  12.493   3.251
49130SOL     OW47413   8.559  12.367   2.962
49130SOL    HW147414   8.519  12.411   3.043
49130SOL    HW247415   8.518  12.404   2.879
49131SOL     OW47416   9.086  12.271   2.941
49131SOL    HW147417   9.091  12.352   3.000
49131SOL    HW247418   9.000  12.273   2.890
49132SOL     OW47419   8.363  11.261   3.264
49132SOL    HW147420   8.388  11.241   3.169
49132SOL    HW247421   8.435  11.317   3.306
49133SOL     OW47422   8.428  12.288   3.581
49133SOL    HW147423   8.329  12.294   3.591
49133SOL    HW247424   8.451  12.208   3.525
49134SOL     OW47425   8.153  12.222   2.230
49134SOL    HW147426   8.139  12.229   2.329
49134SOL    HW247427   8.237  12.171   2.212
49135SOL     OW47428   7.858  11.985   3.113
49135SOL    HW147429   7.944  11.997   3.163
49135SOL    HW247430   7.816  11.898   3.140
49136SOL     OW47431   8.722  11.558   3.124
49136SOL    HW147432   8.743  11.632   3.188
49136SOL    HW247433   8.633  11.575   3.081
49137SOL     OW47434   7.512  12.736   3.193
49137SOL    HW147435   7.466  12.818   3.159
49137SOL    HW247436   7.610  12.755   3.202
49138SOL     OW47437   7.815  12.272   2.363
49138SOL    HW147438   7.808  12.355   2.307
49138SOL    HW247439   7.819  12.192   2.303
49139SOL     OW47440   8.014  11.709   2.727
49139SOL    HW147441   8.026  11.775   2.653
49139SOL    HW247442   8.060  11.743   2.810
49140SOL     OW47443   8.700  12.520   2.250
49140SOL    HW147444   8.750  12.597   2.290
49140SOL    HW247445   8.605  12.522   2.282
49141SOL     OW47446   8.720  12.617   3.004
49141SOL    HW147447   8.767  12.630   3.091
49141SOL    HW247448   8.654  12.543   3.013
49142SOL     OW47449   9.030  11.811   2.334
49142SOL    HW147450   8.999  11.872   2.407
49142SOL    HW247451   9.080  11.863   2.265
49143SOL     OW47452   7.802  12.682   3.191
49143SOL    HW147453   7.781  12.638   3.104
49143SOL    HW247454   7.899  12.708   3.194
49144SOL     OW47455   7.850  11.923   3.460
49144SOL    HW147456   7.918  11.978   3.413
49144SOL    HW247457   7.890  11.835   3.487
49145SOL     OW47458   9.035  11.951   3.532
49145SOL    HW147459   8.943  11.989   3.527
49145SOL    HW247460   9.095  11.998   3.467
49146SOL     OW47461   8.461  11.277   3.632
49146SOL    HW147462   8.467  11.362   3.580
49146SOL    HW247463   8.493  11.201   3.575
49147SOL     OW47464   7.952  11.222   3.602
49147SOL    HW147465   7.910  11.165   3.532
49147SOL    HW247466   7.886  11.291   3.634
49148SOL     OW47467   8.021  12.042   2.891
49148SOL    HW147468   8.065  12.131   2.882
49148SOL    HW247469   7.958  12.042   2.968
49149SOL     OW47470   8.808  12.034   2.907
49149SOL    HW147471   8.733  12.034   2.841
49149SOL    HW247472   8.845  11.942   2.916
49150SOL     OW47473   8.657  11.697   2.137
49150SOL    HW147474   8.670  11.613   2.191
49150SOL    HW247475   8.628  11.771   2.197
49151SOL     OW47476   7.755  11.385   3.093
49151SOL    HW147477   7.732  11.422   3.183
49151SOL    HW247478   7.725  11.290   3.087
49152SOL     OW47479   7.485  12.482   3.144
49152SOL    HW147480   7.538  12.433   3.212
49152SOL    HW247481   7.507  12.580   3.149
49153SOL     OW47482   8.180  11.806   2.926
49153SOL    HW147483   8.239  11.780   2.850
49153SOL    HW247484   8.152  11.902   2.915
49154SOL     OW47485   9.176  12.107   3.716
49154SOL    HW147486   9.130  12.100   3.627
49154SOL    HW247487   9.114  12.151   3.782
49155SOL     OW47488   7.755  11.235   2.480
49155SOL    HW147489   7.744  11.329   2.513
49155SOL    HW247490   7.750  11.172   2.557
49156SOL     OW47491   9.070  11.539   2.236
49156SOL    HW147492   9.072  11.463   2.300
49156SOL    HW247493   9.022  11.616   2.276
49157SOL     OW47494   8.471  11.938   2.828
49157SOL    HW147495   8.486  11.959   2.924
49157SOL    HW247496   8.441  11.843   2.819
49158SOL     OW47497   9.307  12.690   3.467
49158SOL    HW147498   9.321  12.717   3.372
49158SOL    HW247499   9.390  12.712   3.520
49159SOL     OW47500   7.798  12.070   3.666
49159SOL    HW147501   7.874  12.114   3.714
49159SOL    HW247502   7.833  12.023   3.584
49160SOL     OW47503   8.988  11.446   1.987
49160SOL    HW147504   8.927  11.371   2.010
49160SOL    HW247505   9.010  11.498   2.070
49161SOL     OW47506   8.751  12.010   1.904
49161SOL    HW147507   8.785  11.917   1.919
49161SOL    HW247508   8.769  12.037   1.809
49162SOL     OW47509   8.516  12.505   2.711
49162SOL    HW147510   8.523  12.421   2.656
49162SOL    HW247511   8.578  12.574   2.675
49163SOL     OW47512   7.767  11.982   2.811
49163SOL    HW147513   7.860  12.018   2.816
49163SOL    HW247514   7.761  11.897   2.863
49164SOL     OW47515   7.787  11.681   2.868
49164SOL    HW147516   7.735  11.598   2.851
49164SOL    HW247517   7.864  11.686   2.804
49165SOL     OW47518   8.586  11.552   3.540
49165SOL    HW147519   8.541  11.615   3.604
49165SOL    HW247520   8.679  11.583   3.523
49166SOL     OW47521   8.608  11.379   3.339
49166SOL    HW147522   8.608  11.443   3.416
49166SOL    HW247523   8.636  11.427   3.256
49167SOL     OW47524   7.456  12.498   2.062
49167SOL    HW147525   7.363  12.519   2.031
49167SOL    HW247526   7.466  12.399   2.075
49168SOL     OW47527   7.952  12.740   2.772
49168SOL    HW147528   8.018  12.814   2.781
49168SOL    HW247529   7.996  12.661   2.730
49169SOL     OW47530   8.450  11.968   3.100
49169SOL    HW147531   8.491  11.936   3.186
49169SOL    HW247532   8.354  11.941   3.097
49170SOL     OW47533   7.488  11.716   2.976
49170SOL    HW147534   7.573  11.683   2.935
49170SOL    HW247535   7.501  11.731   3.074
49171SOL     OW47536   7.637  11.692   3.584
49171SOL    HW147537   7.696  11.652   3.514
49171SOL    HW247538   7.579  11.763   3.543
49172SOL     OW47539   8.817  12.122   3.522
49172SOL    HW147540   8.856  12.211   3.542
49172SOL    HW247541   8.827  12.102   3.425
49173SOL     OW47542   8.263  11.744   2.187
49173SOL    HW147543   8.270  11.655   2.141
49173SOL    HW247544   8.169  11.778   2.179
49174SOL     OW47545   9.105  11.776   3.068
49174SOL    HW147546   9.067  11.707   3.130
49174SOL    HW247547   9.187  11.740   3.024
49175SOL     OW47548   7.700  12.736   3.606
49175SOL    HW147549   7.670  12.793   3.682
49175SOL    HW247550   7.693  12.639   3.632
49176SOL     OW47551   8.119  11.636   3.131
49176SOL    HW147552   8.085  11.547   3.101
49176SOL    HW247553   8.145  11.690   3.051
49177SOL     OW47554   7.921  11.672   2.053
49177SOL    HW147555   7.982  11.752   2.057
49177SOL    HW247556   7.826  11.703   2.060
49178SOL     OW47557   7.607  12.309   3.328
49178SOL    HW147558   7.629  12.248   3.404
49178SOL    HW247559   7.617  12.260   3.242
49179SOL     OW47560   8.795  12.231   3.096
49179SOL    HW147561   8.819  12.168   3.022
49179SOL    HW247562   8.705  12.271   3.078
49180SOL     OW47563   8.750  12.027   2.171
49180SOL    HW147564   8.664  11.996   2.213
49180SOL    HW247565   8.746  12.013   2.072
49181SOL     OW47566   8.700  12.903   2.990
49181SOL    HW147567   8.784  12.908   2.936
49181SOL    HW247568   8.677  12.807   3.008
49182SOL     OW47569   7.531  12.430   2.884
49182SOL    HW147570   7.526  12.429   2.984
49182SOL    HW247571   7.448  12.389   2.846
49183SOL     OW47572   9.174  11.307   2.385
49183SOL    HW147573   9.247  11.290   2.318
49183SOL    HW247574   9.143  11.220   2.423
49184SOL     OW47575   7.578  12.966   3.713
49184SOL    HW147576   7.537  12.892   3.766
49184SOL    HW247577   7.642  13.017   3.771
49185SOL     OW47578   8.728  12.099   2.534
49185SOL    HW147579   8.788  12.018   2.536
49185SOL    HW247580   8.768  12.168   2.474
49186SOL     OW47581   8.278  12.445   3.284
49186SOL    HW147582   8.273  12.478   3.379
49186SOL    HW247583   8.192  12.464   3.238
49187SOL     OW47584   8.120  12.788   2.016
49187SOL    HW147585   8.129  12.798   1.917
49187SOL    HW247586   8.080  12.699   2.037
49188SOL     OW47587   9.289  11.347   2.825
49188SOL    HW147588   9.328  11.262   2.789
49188SOL    HW247589   9.191  11.349   2.806
49189SOL     OW47590   7.711  11.498   2.582
49189SOL    HW147591   7.632  11.549   2.548
49189SOL    HW247592   7.702  11.483   2.680
49190SOL     OW47593   8.642  12.784   1.893
49190SOL    HW147594   8.648  12.691   1.930
49190SOL    HW247595   8.583  12.784   1.813
49191SOL     OW47596   8.270  12.174   3.234
49191SOL    HW147597   8.310  12.173   3.142
49191SOL    HW247598   8.280  12.266   3.274
49192SOL     OW47599   8.364  12.082   2.153
49192SOL    HW147600   8.427  12.120   2.085
49192SOL    HW247601   8.404  11.999   2.192
49193SOL     OW47602   7.820  12.460   3.352
49193SOL    HW147603   7.807  12.553   3.318
49193SOL    HW247604   7.736  12.408   3.339
49194SOL     OW47605   9.062  12.464   3.151
49194SOL    HW147606   9.122  12.467   3.231
49194SOL    HW247607   8.987  12.528   3.164
49195SOL     OW47608   8.487  12.270   2.558
49195SOL    HW147609   8.417  12.223   2.612
49195SOL    HW247610   8.546  12.202   2.515
49196SOL     OW47611   8.462  11.408   2.833
49196SOL    HW147612   8.454  11.372   2.740
49196SOL    HW247613   8.460  11.332   2.898
49197SOL     OW47614   8.038  12.659   2.353
49197SOL    HW147615   8.080  12.601   2.283
49197SOL    HW247616   7.994  12.738   2.309
49198SOL     OW47617   9.157  11.557   3.243
49198SOL    HW147618   9.230  11.626   3.247
49198SOL    HW247619   9.185  11.482   3.184
49199SOL     OW47620   7.703  12.520   2.152
49199SOL    HW147621   7.607  12.521   2.125
49199SOL    HW247622   7.715  12.573   2.236
49200SOL     OW47623   7.553  12.185   3.588
49200SOL    HW147624   7.476  12.152   3.642
49200SOL    HW247625   7.638  12.155   3.630
49201SOL     OW47626   8.120  11.375   3.351
49201SOL    HW147627   8.210  11.359   3.311
49201SOL    HW247628   8.128  11.380   3.450
49202SOL     OW47629   7.523  11.517   1.895
49202SOL    HW147630   7.431  11.489   1.866
49202SOL    HW247631   7.554  11.594   1.839
49203SOL     OW47632   8.888  12.028   3.260
49203SOL    HW147633   8.831  12.080   3.197
49203SOL    HW247634   8.984  12.040   3.236
49204SOL     OW47635   7.520  11.338   2.180
49204SOL    HW147636   7.503  11.421   2.126
49204SOL    HW247637   7.610  11.301   2.158
49205SOL     OW47638   8.631  12.507   1.981
49205SOL    HW147639   8.532  12.496   1.983
49205SOL    HW247640   8.665  12.522   2.074
49206SOL     OW47641   8.061  12.014   3.293
49206SOL    HW147642   8.117  12.095   3.276
49206SOL    HW247643   8.120  11.934   3.296
49207SOL     OW47644   8.164  11.737   3.570
49207SOL    HW147645   8.183  11.802   3.644
49207SOL    HW247646   8.224  11.657   3.579
49208SOL     OW47647   8.898  12.392   3.495
49208SOL    HW147648   8.889  12.382   3.594
49208SOL    HW247649   8.994  12.385   3.469
49209SOL     OW47650   9.122  12.055   3.116
49209SOL    HW147651   9.095  11.966   3.079
49209SOL    HW247652   9.123  12.123   3.043
49210SOL     OW47653   8.673  11.497   2.311
49210SOL    HW147654   8.738  11.423   2.300
49210SOL    HW247655   8.693  11.547   2.395
49211SOL     OW47656   8.042  11.917   2.514
49211SOL    HW147657   8.092  12.002   2.495
49211SOL    HW247658   7.954  11.919   2.466
49212SOL     OW47659   9.225  11.514   3.504
49212SOL    HW147660   9.208  11.545   3.410
49212SOL    HW247661   9.141  11.477   3.542
49213SOL     OW47662   9.178  12.106   3.379
49213SOL    HW147663   9.216  12.197   3.394
49213SOL    HW247664   9.170  12.089   3.280
49214SOL     OW47665   8.307  12.546   1.878
49214SOL    HW147666   8.261  12.561   1.966
49214SOL    HW247667   8.351  12.631   1.848
49215SOL     OW47668   8.307  12.128   2.723
49215SOL    HW147669   8.361  12.059   2.771
49215SOL    HW247670   8.275  12.197   2.789
49216SOL     OW47671   8.531  12.156   1.949
49216SOL    HW147672   8.508  12.209   1.867
49216SOL    HW247673   8.612  12.100   1.930
49217SOL     OW47674   9.309  12.741   2.713
49217SOL    HW147675   9.238  12.729   2.643
49217SOL    HW247676   9.310  12.662   2.773
49218SOL     OW47677   7.669  12.486   3.706
49218SOL    HW147678   7.604  12.413   3.685
49218SOL    HW247679   7.673  12.500   3.804
49219SOL     OW47680   7.527  12.412   2.515
49219SOL    HW147681   7.526  12.365   2.603
49219SOL    HW247682   7.609  12.384   2.464
49220SOL     OW47683   8.120  12.563   3.486
49220SOL    HW147684   8.042  12.513   3.524
49220SOL    HW247685   8.117  12.658   3.517
49221SOL     OW47686   9.272  11.364   3.089
49221SOL    HW147687   9.268  11.274   3.133
49221SOL    HW247688   9.275  11.353   2.990
49222SOL     OW47689   7.876  11.596   2.382
49222SOL    HW147690   7.906  11.524   2.320
49222SOL    HW247691   7.837  11.556   2.465
49223SOL     OW47692   9.153  12.659   2.966
49223SOL    HW147693   9.060  12.634   2.939
49223SOL    HW247694   9.179  12.609   3.048
49224SOL     OW47695   7.765  11.719   3.142
49224SOL    HW147696   7.803  11.660   3.214
49224SOL    HW247697   7.805  11.693   3.054
49225SOL     OW47698   8.872  11.386   2.974
49225SOL    HW147699   8.924  11.321   3.029
49225SOL    HW247700   8.823  11.449   3.035
49226SOL     OW47701   8.449  11.206   3.016
49226SOL    HW147702   8.386  11.134   2.985
49226SOL    HW247703   8.542  11.170   3.016
49227SOL     OW47704   8.218  12.502   2.163
49227SOL    HW147705   8.172  12.415   2.180
49227SOL    HW247706   8.309  12.499   2.204
49228SOL     OW47707   8.066  12.739   3.146
49228SOL    HW147708   8.061  12.821   3.203
49228SOL    HW247709   8.155  12.736   3.101
49229SOL     OW47710   8.800  11.224   2.030
49229SOL    HW147711   8.835  11.183   1.946
49229SOL    HW247712   8.710  11.186   2.050
49230SOL     OW47713   8.748  11.625   2.553
49230SOL    HW147714   8.689  11.705   2.557
49230SOL    HW247715   8.763  11.590   2.646
49231SOL     OW47716   9.041  11.393   2.744
49231SOL    HW147717   8.957  11.392   2.798
49231SOL    HW247718   9.043  11.476   2.688
49232SOL     OW47719   7.487  12.249   2.162
49232SOL    HW147720   7.586  12.238   2.153
49232SOL    HW247721   7.447  12.163   2.194
49233SOL     OW47722   7.678  11.800   3.837
49233SOL    HW147723   7.585  11.798   3.874
49233SOL    HW247724   7.679  11.761   3.745
49234SOL     OW47725   7.673  11.447   4.720
49234SOL    HW147726   7.708  11.430   4.812
49234SOL    HW247727   7.585  11.402   4.708
49235SOL     OW47728   7.467  11.540   4.371
49235SOL    HW147729   7.385  11.583   4.410
49235SOL    HW247730   7.439  11.467   4.308
49236SOL     OW47731   8.017  12.447   4.889
49236SOL    HW147732   7.924  12.440   4.852
49236SOL    HW247733   8.028  12.536   4.933
49237SOL     OW47734   9.003  12.683   4.427
49237SOL    HW147735   8.946  12.667   4.508
49237SOL    HW247736   8.944  12.693   4.347
49238SOL     OW47737   8.583  11.875   4.441
49238SOL    HW147738   8.640  11.953   4.416
49238SOL    HW247739   8.523  11.901   4.517
49239SOL     OW47740   9.203  11.779   3.955
49239SOL    HW147741   9.191  11.766   3.856
49239SOL    HW247742   9.173  11.698   4.004
49240SOL     OW47743   8.216  12.316   4.747
49240SOL    HW147744   8.138  12.333   4.807
49240SOL    HW247745   8.250  12.403   4.711
49241SOL     OW47746   8.298  11.970   5.547
49241SOL    HW147747   8.294  12.046   5.612
49241SOL    HW247748   8.320  12.006   5.456
49242SOL     OW47749   8.133  12.184   4.389
49242SOL    HW147750   8.202  12.168   4.459
49242SOL    HW247751   8.060  12.241   4.427
49243SOL     OW47752   8.134  12.333   5.527
49243SOL    HW147753   8.194  12.412   5.541
49243SOL    HW247754   8.048  12.364   5.486
49244SOL     OW47755   7.783  12.607   4.785
49244SOL    HW147756   7.705  12.576   4.732
49244SOL    HW247757   7.841  12.665   4.728
49245SOL     OW47758   8.908  12.677   5.063
49245SOL    HW147759   8.932  12.771   5.089
49245SOL    HW247760   8.892  12.623   5.145
49246SOL     OW47761   7.886  11.564   5.223
49246SOL    HW147762   7.968  11.508   5.232
49246SOL    HW247763   7.805  11.506   5.227
49247SOL     OW47764   9.051  11.619   4.461
49247SOL    HW147765   8.977  11.665   4.411
49247SOL    HW247766   9.102  11.687   4.514
49248SOL     OW47767   8.575  12.513   5.414
49248SOL    HW147768   8.622  12.513   5.502
49248SOL    HW247769   8.527  12.426   5.403
49249SOL     OW47770   7.678  12.606   4.262
49249SOL    HW147771   7.652  12.702   4.262
49249SOL    HW247772   7.607  12.552   4.307
49250SOL     OW47773   7.688  12.263   4.610
49250SOL    HW147774   7.702  12.179   4.662
49250SOL    HW247775   7.633  12.327   4.665
49251SOL     OW47776   8.054  12.136   3.847
49251SOL    HW147777   8.061  12.220   3.793
49251SOL    HW247778   8.100  12.149   3.935
49252SOL     OW47779   9.042  11.286   5.204
49252SOL    HW147780   9.024  11.353   5.132
49252SOL    HW247781   9.039  11.332   5.293
49253SOL     OW47782   7.570  11.815   4.287
49253SOL    HW147783   7.525  11.727   4.304
49253SOL    HW247784   7.569  11.869   4.371
49254SOL     OW47785   7.475  12.768   3.841
49254SOL    HW147786   7.456  12.672   3.862
49254SOL    HW247787   7.442  12.826   3.916
49255SOL     OW47788   9.137  12.094   4.336
49255SOL    HW147789   9.232  12.065   4.344
49255SOL    HW247790   9.129  12.159   4.261
49256SOL     OW47791   9.089  12.280   4.156
49256SOL    HW147792   9.175  12.282   4.104
49256SOL    HW247793   9.103  12.327   4.244
49257SOL     OW47794   7.561  11.909   5.321
49257SOL    HW147795   7.649  11.896   5.366
49257SOL    HW247796   7.548  12.006   5.299
49258SOL     OW47797   8.061  12.537   4.450
49258SOL    HW147798   8.012  12.450   4.459
49258SOL    HW247799   8.038  12.580   4.363
49259SOL     OW47800   8.741  12.400   5.147
49259SOL    HW147801   8.778  12.327   5.089
49259SOL    HW247802   8.793  12.405   5.232
49260SOL     OW47803   8.257  11.176   4.226
49260SOL    HW147804   8.297  11.267   4.217
49260SOL    HW247805   8.157  11.184   4.232
49261SOL     OW47806   7.645  12.148   4.988
49261SOL    HW147807   7.734  12.103   4.974
49261SOL    HW247808   7.572  12.083   4.969
49262SOL     OW47809   8.973  12.171   3.914
49262SOL    HW147810   8.910  12.095   3.927
49262SOL    HW247811   9.021  12.189   4.000
49263SOL     OW47812   7.765  11.423   5.525
49263SOL    HW147813   7.836  11.494   5.531
49263SOL    HW247814   7.677  11.462   5.553
49264SOL     OW47815   8.914  12.589   4.677
49264SOL    HW147816   8.855  12.595   4.757
49264SOL    HW247817   8.899  12.501   4.631
49265SOL     OW47818   8.046  11.901   3.994
49265SOL    HW147819   8.070  11.970   3.926
49265SOL    HW247820   7.968  11.934   4.048
49266SOL     OW47821   8.729  11.517   4.668
49266SOL    HW147822   8.643  11.467   4.655
49266SOL    HW247823   8.791  11.463   4.724
49267SOL     OW47824   9.024  12.834   4.031
49267SOL    HW147825   9.113  12.880   4.034
49267SOL    HW247826   9.003  12.810   3.936
49268SOL     OW47827   8.255  11.777   5.189
49268SOL    HW147828   8.208  11.774   5.278
49268SOL    HW247829   8.204  11.722   5.123
49269SOL     OW47830   8.842  11.641   5.398
49269SOL    HW147831   8.822  11.684   5.486
49269SOL    HW247832   8.920  11.579   5.407
49270SOL     OW47833   8.421  12.062   5.296
49270SOL    HW147834   8.467  11.978   5.267
49270SOL    HW247835   8.365  12.096   5.221
49271SOL     OW47836   8.439  11.582   4.966
49271SOL    HW147837   8.362  11.616   5.020
49271SOL    HW247838   8.405  11.531   4.887
49272SOL     OW47839   8.489  11.873   4.153
49272SOL    HW147840   8.515  11.869   4.249
49272SOL    HW247841   8.404  11.822   4.139
49273SOL     OW47842   7.524  11.983   4.513
49273SOL    HW147843   7.623  11.971   4.522
49273SOL    HW247844   7.500  12.078   4.534
49274SOL     OW47845   8.313  11.520   3.919
49274SOL    HW147846   8.372  11.583   3.870
49274SOL    HW247847   8.332  11.426   3.890
49275SOL     OW47848   9.167  11.757   5.555
49275SOL    HW147849   9.141  11.846   5.519
49275SOL    HW247850   9.165  11.689   5.482
49276SOL     OW47851   8.810  12.316   4.269
49276SOL    HW147852   8.893  12.287   4.221
49276SOL    HW247853   8.761  12.383   4.213
49277SOL     OW47854   7.998  11.368   4.609
49277SOL    HW147855   7.993  11.363   4.709
49277SOL    HW247856   8.000  11.464   4.580
49278SOL     OW47857   8.456  12.628   4.201
49278SOL    HW147858   8.410  12.700   4.149
49278SOL    HW247859   8.452  12.648   4.299
49279SOL     OW47860   9.243  12.238   4.597
49279SOL    HW147861   9.181  12.223   4.521
49279SOL    HW247862   9.191  12.249   4.682
49280SOL     OW47863   8.675  12.722   5.230
49280SOL    HW147864   8.681  12.645   5.294
49280SOL    HW247865   8.623  12.696   5.150
49281SOL     OW47866   7.769  12.115   3.966
49281SOL    HW147867   7.851  12.154   3.924
49281SOL    HW247868   7.742  12.033   3.917
49282SOL     OW47869   8.906  11.907   4.452
49282SOL    HW147870   8.901  11.842   4.527
49282SOL    HW247871   8.986  11.966   4.465
49283SOL     OW47872   7.909  12.438   5.451
49283SOL    HW147873   7.859  12.439   5.365
49283SOL    HW247874   7.846  12.420   5.527
49284SOL     OW47875   7.650  11.457   5.222
49284SOL    HW147876   7.570  11.517   5.209
49284SOL    HW247877   7.640  11.408   5.308
49285SOL     OW47878   9.080  12.549   3.805
49285SOL    HW147879   9.048  12.643   3.795
49285SOL    HW247880   9.004  12.486   3.793
49286SOL     OW47881   8.848  11.279   4.150
49286SOL    HW147882   8.824  11.242   4.060
49286SOL    HW247883   8.947  11.295   4.154
49287SOL     OW47884   7.830  11.872   4.204
49287SOL    HW147885   7.875  11.782   4.201
49287SOL    HW247886   7.736  11.861   4.237
49288SOL     OW47887   8.995  11.394   5.453
49288SOL    HW147888   8.990  11.431   5.545
49288SOL    HW247889   8.923  11.325   5.441
49289SOL     OW47890   8.062  11.294   3.841
49289SOL    HW147891   8.160  11.272   3.848
49289SOL    HW247892   8.031  11.277   3.748
49290SOL     OW47893   8.229  11.436   5.473
49290SOL    HW147894   8.296  11.375   5.516
49290SOL    HW247895   8.156  11.455   5.538
49291SOL     OW47896   8.799  11.762   5.157
49291SOL    HW147897   8.827  11.719   5.242
49291SOL    HW247898   8.824  11.858   5.158
49292SOL     OW47899   8.251  12.574   4.648
49292SOL    HW147900   8.341  12.588   4.606
49292SOL    HW247901   8.180  12.576   4.577
49293SOL     OW47902   8.370  11.675   4.623
49293SOL    HW147903   8.345  11.666   4.527
49293SOL    HW247904   8.418  11.593   4.654
49294SOL     OW47905   7.987  11.236   4.236
49294SOL    HW147906   7.906  11.237   4.294
49294SOL    HW247907   7.990  11.319   4.181
49295SOL     OW47908   8.882  12.360   3.765
49295SOL    HW147909   8.914  12.284   3.822
49295SOL    HW247910   8.790  12.387   3.795
49296SOL     OW47911   7.745  11.207   3.895
49296SOL    HW147912   7.794  11.291   3.874
49296SOL    HW247913   7.807  11.142   3.940
49297SOL     OW47914   8.383  11.408   4.204
49297SOL    HW147915   8.335  11.449   4.126
49297SOL    HW247916   8.482  11.406   4.185
49298SOL     OW47917   8.524  11.855   5.188
49298SOL    HW147918   8.444  11.794   5.191
49298SOL    HW247919   8.605  11.802   5.164
49299SOL     OW47920   8.675  12.742   4.517
49299SOL    HW147921   8.696  12.816   4.452
49299SOL    HW247922   8.743  12.742   4.590
49300SOL     OW47923   7.907  12.324   4.465
49300SOL    HW147924   7.836  12.297   4.530
49300SOL    HW247925   7.881  12.296   4.372
49301SOL     OW47926   8.480  11.721   3.740
49301SOL    HW147927   8.439  11.803   3.701
49301SOL    HW247928   8.544  11.747   3.813
49302SOL     OW47929   7.526  11.728   5.110
49302SOL    HW147930   7.618  11.727   5.069
49302SOL    HW247931   7.520  11.802   5.177
49303SOL     OW47932   8.009  11.394   4.871
49303SOL    HW147933   8.047  11.310   4.908
49303SOL    HW247934   7.921  11.413   4.915
49304SOL     OW47935   8.314  11.626   4.366
49304SOL    HW147936   8.282  11.698   4.304
49304SOL    HW247937   8.338  11.545   4.313
49305SOL     OW47938   8.465  11.211   4.477
49305SOL    HW147939   8.393  11.216   4.408
49305SOL    HW247940   8.441  11.142   4.546
49306SOL     OW47941   8.877  12.345   4.591
49306SOL    HW147942   8.822  12.261   4.584
49306SOL    HW247943   8.903  12.374   4.499
49307SOL     OW47944   8.914  11.762   4.716
49307SOL    HW147945   8.884  11.667   4.723
49307SOL    HW247946   8.987  11.778   4.782
49308SOL     OW47947   9.305  12.005   4.101
49308SOL    HW147948   9.347  11.941   4.165
49308SOL    HW247949   9.267  11.954   4.023
49309SOL     OW47950   7.936  12.557   3.898
49309SOL    HW147951   7.849  12.542   3.945
49309SOL    HW247952   7.919  12.583   3.803
49310SOL     OW47953   9.112  12.452   4.381
49310SOL    HW147954   9.211  12.460   4.395
49310SOL    HW247955   9.067  12.536   4.412
49311SOL     OW47956   8.838  11.747   3.802
49311SOL    HW147957   8.784  11.726   3.883
49311SOL    HW247958   8.929  11.706   3.811
49312SOL     OW47959   7.975  11.428   4.052
49312SOL    HW147960   8.002  11.369   3.977
49312SOL    HW247961   7.975  11.523   4.021
49313SOL     OW47962   9.202  12.395   5.312
49313SOL    HW147963   9.293  12.356   5.299
49313SOL    HW247964   9.210  12.491   5.336
49314SOL     OW47965   8.512  12.519   5.064
49314SOL    HW147966   8.432  12.496   5.119
49314SOL    HW247967   8.595  12.493   5.113
49315SOL     OW47968   8.559  12.367   4.824
49315SOL    HW147969   8.519  12.411   4.905
49315SOL    HW247970   8.518  12.404   4.741
49316SOL     OW47971   9.086  12.271   4.803
49316SOL    HW147972   9.091  12.352   4.862
49316SOL    HW247973   9.000  12.273   4.752
49317SOL     OW47974   8.363  11.261   5.126
49317SOL    HW147975   8.388  11.241   5.031
49317SOL    HW247976   8.435  11.317   5.168
49318SOL     OW47977   8.428  12.288   5.443
49318SOL    HW147978   8.329  12.294   5.453
49318SOL    HW247979   8.451  12.208   5.387
49319SOL     OW47980   8.153  12.222   4.092
49319SOL    HW147981   8.139  12.229   4.191
49319SOL    HW247982   8.237  12.171   4.074
49320SOL     OW47983   7.858  11.985   4.975
49320SOL    HW147984   7.944  11.997   5.025
49320SOL    HW247985   7.816  11.898   5.002
49321SOL     OW47986   8.722  11.558   4.986
49321SOL    HW147987   8.743  11.632   5.050
49321SOL    HW247988   8.633  11.575   4.943
49322SOL     OW47989   7.512  12.736   5.055
49322SOL    HW147990   7.466  12.818   5.021
49322SOL    HW247991   7.610  12.755   5.064
49323SOL     OW47992   7.815  12.272   4.225
49323SOL    HW147993   7.808  12.355   4.169
49323SOL    HW247994   7.819  12.192   4.165
49324SOL     OW47995   8.014  11.709   4.589
49324SOL    HW147996   8.026  11.775   4.515
49324SOL    HW247997   8.060  11.743   4.672
49325SOL     OW47998   8.700  12.520   4.112
49325SOL    HW147999   8.750  12.597   4.152
49325SOL    HW248000   8.605  12.522   4.144
49326SOL     OW48001   8.720  12.617   4.866
49326SOL    HW148002   8.767  12.630   4.953
49326SOL    HW248003   8.654  12.543   4.875
49327SOL     OW48004   9.030  11.811   4.196
49327SOL    HW148005   8.999  11.872   4.269
49327SOL    HW248006   9.080  11.863   4.127
49328SOL     OW48007   7.802  12.682   5.053
49328SOL    HW148008   7.781  12.638   4.966
49328SOL    HW248009   7.899  12.708   5.056
49329SOL     OW48010   7.850  11.923   5.322
49329SOL    HW148011   7.918  11.978   5.275
49329SOL    HW248012   7.890  11.835   5.349
49330SOL     OW48013   9.035  11.951   5.394
49330SOL    HW148014   8.943  11.989   5.389
49330SOL    HW248015   9.095  11.998   5.329
49331SOL     OW48016   8.461  11.277   5.494
49331SOL    HW148017   8.467  11.362   5.442
49331SOL    HW248018   8.493  11.201   5.437
49332SOL     OW48019   7.952  11.222   5.464
49332SOL    HW148020   7.910  11.165   5.394
49332SOL    HW248021   7.886  11.291   5.496
49333SOL     OW48022   8.021  12.042   4.753
49333SOL    HW148023   8.065  12.131   4.744
49333SOL    HW248024   7.958  12.042   4.830
49334SOL     OW48025   8.808  12.034   4.769
49334SOL    HW148026   8.733  12.034   4.703
49334SOL    HW248027   8.845  11.942   4.778
49335SOL     OW48028   8.657  11.697   3.999
49335SOL    HW148029   8.670  11.613   4.053
49335SOL    HW248030   8.628  11.771   4.059
49336SOL     OW48031   7.755  11.385   4.955
49336SOL    HW148032   7.732  11.422   5.045
49336SOL    HW248033   7.725  11.290   4.949
49337SOL     OW48034   7.485  12.482   5.006
49337SOL    HW148035   7.538  12.433   5.074
49337SOL    HW248036   7.507  12.580   5.011
49338SOL     OW48037   8.180  11.806   4.788
49338SOL    HW148038   8.239  11.780   4.712
49338SOL    HW248039   8.152  11.902   4.777
49339SOL     OW48040   9.176  12.107   5.578
49339SOL    HW148041   9.130  12.100   5.489
49339SOL    HW248042   9.114  12.151   5.644
49340SOL     OW48043   7.755  11.235   4.342
49340SOL    HW148044   7.744  11.329   4.375
49340SOL    HW248045   7.750  11.172   4.419
49341SOL     OW48046   9.070  11.539   4.098
49341SOL    HW148047   9.072  11.463   4.162
49341SOL    HW248048   9.022  11.616   4.138
49342SOL     OW48049   8.471  11.938   4.690
49342SOL    HW148050   8.486  11.959   4.786
49342SOL    HW248051   8.441  11.843   4.681
49343SOL     OW48052   9.307  12.690   5.329
49343SOL    HW148053   9.321  12.717   5.234
49343SOL    HW248054   9.390  12.712   5.382
49344SOL     OW48055   7.798  12.070   5.528
49344SOL    HW148056   7.874  12.114   5.576
49344SOL    HW248057   7.833  12.023   5.446
49345SOL     OW48058   8.988  11.446   3.849
49345SOL    HW148059   8.927  11.371   3.872
49345SOL    HW248060   9.010  11.498   3.932
49346SOL     OW48061   8.751  12.010   3.766
49346SOL    HW148062   8.785  11.917   3.781
49346SOL    HW248063   8.769  12.037   3.671
49347SOL     OW48064   8.516  12.505   4.573
49347SOL    HW148065   8.523  12.421   4.518
49347SOL    HW248066   8.578  12.574   4.537
49348SOL     OW48067   7.767  11.982   4.673
49348SOL    HW148068   7.860  12.018   4.678
49348SOL    HW248069   7.761  11.897   4.725
49349SOL     OW48070   7.787  11.681   4.730
49349SOL    HW148071   7.735  11.598   4.713
49349SOL    HW248072   7.864  11.686   4.666
49350SOL     OW48073   8.586  11.552   5.402
49350SOL    HW148074   8.541  11.615   5.466
49350SOL    HW248075   8.679  11.583   5.385
49351SOL     OW48076   8.608  11.379   5.201
49351SOL    HW148077   8.608  11.443   5.278
49351SOL    HW248078   8.636  11.427   5.118
49352SOL     OW48079   7.456  12.498   3.924
49352SOL    HW148080   7.363  12.519   3.893
49352SOL    HW248081   7.466  12.399   3.937
49353SOL     OW48082   7.952  12.740   4.634
49353SOL    HW148083   8.018  12.814   4.643
49353SOL    HW248084   7.996  12.661   4.592
49354SOL     OW48085   8.450  11.968   4.962
49354SOL    HW148086   8.491  11.936   5.048
49354SOL    HW248087   8.354  11.941   4.959
49355SOL     OW48088   7.488  11.716   4.838
49355SOL    HW148089   7.573  11.683   4.797
49355SOL    HW248090   7.501  11.731   4.936
49356SOL     OW48091   7.637  11.692   5.446
49356SOL    HW148092   7.696  11.652   5.376
49356SOL    HW248093   7.579  11.763   5.405
49357SOL     OW48094   8.817  12.122   5.384
49357SOL    HW148095   8.856  12.211   5.404
49357SOL    HW248096   8.827  12.102   5.287
49358SOL     OW48097   8.263  11.744   4.049
49358SOL    HW148098   8.270  11.655   4.003
49358SOL    HW248099   8.169  11.778   4.041
49359SOL     OW48100   9.105  11.776   4.930
49359SOL    HW148101   9.067  11.707   4.992
49359SOL    HW248102   9.187  11.740   4.886
49360SOL     OW48103   7.700  12.736   5.468
49360SOL    HW148104   7.670  12.793   5.544
49360SOL    HW248105   7.693  12.639   5.494
49361SOL     OW48106   8.119  11.636   4.993
49361SOL    HW148107   8.085  11.547   4.963
49361SOL    HW248108   8.145  11.690   4.913
49362SOL     OW48109   7.921  11.672   3.915
49362SOL    HW148110   7.982  11.752   3.919
49362SOL    HW248111   7.826  11.703   3.922
49363SOL     OW48112   7.607  12.309   5.190
49363SOL    HW148113   7.629  12.248   5.266
49363SOL    HW248114   7.617  12.260   5.104
49364SOL     OW48115   8.795  12.231   4.958
49364SOL    HW148116   8.819  12.168   4.884
49364SOL    HW248117   8.705  12.271   4.940
49365SOL     OW48118   8.750  12.027   4.033
49365SOL    HW148119   8.664  11.996   4.075
49365SOL    HW248120   8.746  12.013   3.934
49366SOL     OW48121   8.700  12.903   4.852
49366SOL    HW148122   8.784  12.908   4.798
49366SOL    HW248123   8.677  12.807   4.870
49367SOL     OW48124   7.531  12.430   4.746
49367SOL    HW148125   7.526  12.429   4.846
49367SOL    HW248126   7.448  12.389   4.708
49368SOL     OW48127   9.174  11.307   4.247
49368SOL    HW148128   9.247  11.290   4.180
49368SOL    HW248129   9.143  11.220   4.285
49369SOL     OW48130   7.578  12.966   5.575
49369SOL    HW148131   7.537  12.892   5.628
49369SOL    HW248132   7.642  13.017   5.633
49370SOL     OW48133   8.728  12.099   4.396
49370SOL    HW148134   8.788  12.018   4.398
49370SOL    HW248135   8.768  12.168   4.336
49371SOL     OW48136   8.278  12.445   5.146
49371SOL    HW148137   8.273  12.478   5.241
49371SOL    HW248138   8.192  12.464   5.100
49372SOL     OW48139   8.120  12.788   3.878
49372SOL    HW148140   8.129  12.798   3.779
49372SOL    HW248141   8.080  12.699   3.899
49373SOL     OW48142   9.289  11.347   4.687
49373SOL    HW148143   9.328  11.262   4.651
49373SOL    HW248144   9.191  11.349   4.668
49374SOL     OW48145   7.711  11.498   4.444
49374SOL    HW148146   7.632  11.549   4.410
49374SOL    HW248147   7.702  11.483   4.542
49375SOL     OW48148   8.642  12.784   3.755
49375SOL    HW148149   8.648  12.691   3.792
49375SOL    HW248150   8.583  12.784   3.675
49376SOL     OW48151   8.270  12.174   5.096
49376SOL    HW148152   8.310  12.173   5.004
49376SOL    HW248153   8.280  12.266   5.136
49377SOL     OW48154   8.364  12.082   4.015
49377SOL    HW148155   8.427  12.120   3.947
49377SOL    HW248156   8.404  11.999   4.054
49378SOL     OW48157   7.820  12.460   5.214
49378SOL    HW148158   7.807  12.553   5.180
49378SOL    HW248159   7.736  12.408   5.201
49379SOL     OW48160   9.062  12.464   5.013
49379SOL    HW148161   9.122  12.467   5.093
49379SOL    HW248162   8.987  12.528   5.026
49380SOL     OW48163   8.487  12.270   4.420
49380SOL    HW148164   8.417  12.223   4.474
49380SOL    HW248165   8.546  12.202   4.377
49381SOL     OW48166   8.462  11.408   4.695
49381SOL    HW148167   8.454  11.372   4.602
49381SOL    HW248168   8.460  11.332   4.760
49382SOL     OW48169   8.038  12.659   4.215
49382SOL    HW148170   8.080  12.601   4.145
49382SOL    HW248171   7.994  12.738   4.171
49383SOL     OW48172   9.157  11.557   5.105
49383SOL    HW148173   9.230  11.626   5.109
49383SOL    HW248174   9.185  11.482   5.046
49384SOL     OW48175   7.703  12.520   4.014
49384SOL    HW148176   7.607  12.521   3.987
49384SOL    HW248177   7.715  12.573   4.098
49385SOL     OW48178   7.553  12.185   5.450
49385SOL    HW148179   7.476  12.152   5.504
49385SOL    HW248180   7.638  12.155   5.492
49386SOL     OW48181   8.120  11.375   5.213
49386SOL    HW148182   8.210  11.359   5.173
49386SOL    HW248183   8.128  11.380   5.312
49387SOL     OW48184   7.523  11.517   3.757
49387SOL    HW148185   7.431  11.489   3.728
49387SOL    HW248186   7.554  11.594   3.701
49388SOL     OW48187   8.888  12.028   5.122
49388SOL    HW148188   8.831  12.080   5.059
49388SOL    HW248189   8.984  12.040   5.098
49389SOL     OW48190   7.520  11.338   4.042
49389SOL    HW148191   7.503  11.421   3.988
49389SOL    HW248192   7.610  11.301   4.020
49390SOL     OW48193   8.631  12.507   3.843
49390SOL    HW148194   8.532  12.496   3.845
49390SOL    HW248195   8.665  12.522   3.936
49391SOL     OW48196   8.061  12.014   5.155
49391SOL    HW148197   8.117  12.095   5.138
49391SOL    HW248198   8.120  11.934   5.158
49392SOL     OW48199   8.164  11.737   5.432
49392SOL    HW148200   8.183  11.802   5.506
49392SOL    HW248201   8.224  11.657   5.441
49393SOL     OW48202   8.898  12.392   5.357
49393SOL    HW148203   8.889  12.382   5.456
49393SOL    HW248204   8.994  12.385   5.331
49394SOL     OW48205   9.122  12.055   4.978
49394SOL    HW148206   9.095  11.966   4.941
49394SOL    HW248207   9.123  12.123   4.905
49395SOL     OW48208   8.673  11.497   4.173
49395SOL    HW148209   8.738  11.423   4.162
49395SOL    HW248210   8.693  11.547   4.257
49396SOL     OW48211   8.042  11.917   4.376
49396SOL    HW148212   8.092  12.002   4.357
49396SOL    HW248213   7.954  11.919   4.328
49397SOL     OW48214   9.225  11.514   5.366
49397SOL    HW148215   9.208  11.545   5.272
49397SOL    HW248216   9.141  11.477   5.404
49398SOL     OW48217   9.178  12.106   5.241
49398SOL    HW148218   9.216  12.197   5.256
49398SOL    HW248219   9.170  12.089   5.142
49399SOL     OW48220   8.307  12.546   3.740
49399SOL    HW148221   8.261  12.561   3.828
49399SOL    HW248222   8.351  12.631   3.710
49400SOL     OW48223   8.307  12.128   4.585
49400SOL    HW148224   8.361  12.059   4.633
49400SOL    HW248225   8.275  12.197   4.651
49401SOL     OW48226   8.531  12.156   3.811
49401SOL    HW148227   8.508  12.209   3.729
49401SOL    HW248228   8.612  12.100   3.792
49402SOL     OW48229   9.309  12.741   4.575
49402SOL    HW148230   9.238  12.729   4.505
49402SOL    HW248231   9.310  12.662   4.635
49403SOL     OW48232   7.669  12.486   5.568
49403SOL    HW148233   7.604  12.413   5.547
49403SOL    HW248234   7.673  12.500   5.666
49404SOL     OW48235   7.527  12.412   4.377
49404SOL    HW148236   7.526  12.365   4.465
49404SOL    HW248237   7.609  12.384   4.326
49405SOL     OW48238   8.120  12.563   5.348
49405SOL    HW148239   8.042  12.513   5.386
49405SOL    HW248240   8.117  12.658   5.379
49406SOL     OW48241   9.272  11.364   4.951
49406SOL    HW148242   9.268  11.274   4.995
49406SOL    HW248243   9.275  11.353   4.852
49407SOL     OW48244   7.876  11.596   4.244
49407SOL    HW148245   7.906  11.524   4.182
49407SOL    HW248246   7.837  11.556   4.327
49408SOL     OW48247   9.153  12.659   4.828
49408SOL    HW148248   9.060  12.634   4.801
49408SOL    HW248249   9.179  12.609   4.910
49409SOL     OW48250   7.765  11.719   5.004
49409SOL    HW148251   7.803  11.660   5.076
49409SOL    HW248252   7.805  11.693   4.916
49410SOL     OW48253   8.872  11.386   4.836
49410SOL    HW148254   8.924  11.321   4.891
49410SOL    HW248255   8.823  11.449   4.897
49411SOL     OW48256   8.449  11.206   4.878
49411SOL    HW148257   8.386  11.134   4.847
49411SOL    HW248258   8.542  11.170   4.878
49412SOL     OW48259   8.218  12.502   4.025
49412SOL    HW148260   8.172  12.415   4.042
49412SOL    HW248261   8.309  12.499   4.066
49413SOL     OW48262   8.066  12.739   5.008
49413SOL    HW148263   8.061  12.821   5.065
49413SOL    HW248264   8.155  12.736   4.963
49414SOL     OW48265   8.800  11.224   3.892
49414SOL    HW148266   8.835  11.183   3.808
49414SOL    HW248267   8.710  11.186   3.912
49415SOL     OW48268   8.748  11.625   4.415
49415SOL    HW148269   8.689  11.705   4.419
49415SOL    HW248270   8.763  11.590   4.508
49416SOL     OW48271   9.041  11.393   4.606
49416SOL    HW148272   8.957  11.392   4.660
49416SOL    HW248273   9.043  11.476   4.550
49417SOL     OW48274   7.487  12.249   4.024
49417SOL    HW148275   7.586  12.238   4.015
49417SOL    HW248276   7.447  12.163   4.056
49418SOL     OW48277   7.678  11.800   5.699
49418SOL    HW148278   7.585  11.798   5.736
49418SOL    HW248279   7.679  11.761   5.607
49419SOL     OW48280   7.673  11.447   6.582
49419SOL    HW148281   7.708  11.430   6.674
49419SOL    HW248282   7.585  11.402   6.570
49420SOL     OW48283   7.467  11.540   6.233
49420SOL    HW148284   7.385  11.583   6.272
49420SOL    HW248285   7.439  11.467   6.170
49421SOL     OW48286   8.017  12.447   6.751
49421SOL    HW148287   7.924  12.440   6.714
49421SOL    HW248288   8.028  12.536   6.795
49422SOL     OW48289   9.003  12.683   6.289
49422SOL    HW148290   8.946  12.667   6.370
49422SOL    HW248291   8.944  12.693   6.209
49423SOL     OW48292   8.583  11.875   6.303
49423SOL    HW148293   8.640  11.953   6.278
49423SOL    HW248294   8.523  11.901   6.379
49424SOL     OW48295   9.203  11.779   5.817
49424SOL    HW148296   9.191  11.766   5.718
49424SOL    HW248297   9.173  11.698   5.866
49425SOL     OW48298   8.216  12.316   6.609
49425SOL    HW148299   8.138  12.333   6.669
49425SOL    HW248300   8.250  12.403   6.573
49426SOL     OW48301   8.298  11.970   7.409
49426SOL    HW148302   8.294  12.046   7.474
49426SOL    HW248303   8.320  12.006   7.318
49427SOL     OW48304   8.133  12.184   6.251
49427SOL    HW148305   8.202  12.168   6.321
49427SOL    HW248306   8.060  12.241   6.289
49428SOL     OW48307   8.134  12.333   7.389
49428SOL    HW148308   8.194  12.412   7.403
49428SOL    HW248309   8.048  12.364   7.348
49429SOL     OW48310   7.783  12.607   6.647
49429SOL    HW148311   7.705  12.576   6.594
49429SOL    HW248312   7.841  12.665   6.590
49430SOL     OW48313   8.908  12.677   6.925
49430SOL    HW148314   8.932  12.771   6.951
49430SOL    HW248315   8.892  12.623   7.007
49431SOL     OW48316   7.886  11.564   7.085
49431SOL    HW148317   7.968  11.508   7.094
49431SOL    HW248318   7.805  11.506   7.089
49432SOL     OW48319   9.051  11.619   6.323
49432SOL    HW148320   8.977  11.665   6.273
49432SOL    HW248321   9.102  11.687   6.376
49433SOL     OW48322   8.575  12.513   7.276
49433SOL    HW148323   8.622  12.513   7.364
49433SOL    HW248324   8.527  12.426   7.265
49434SOL     OW48325   7.678  12.606   6.124
49434SOL    HW148326   7.652  12.702   6.124
49434SOL    HW248327   7.607  12.552   6.169
49435SOL     OW48328   7.688  12.263   6.472
49435SOL    HW148329   7.702  12.179   6.524
49435SOL    HW248330   7.633  12.327   6.527
49436SOL     OW48331   8.054  12.136   5.709
49436SOL    HW148332   8.061  12.220   5.655
49436SOL    HW248333   8.100  12.149   5.797
49437SOL     OW48334   9.042  11.286   7.066
49437SOL    HW148335   9.024  11.353   6.994
49437SOL    HW248336   9.039  11.332   7.155
49438SOL     OW48337   7.570  11.815   6.149
49438SOL    HW148338   7.525  11.727   6.166
49438SOL    HW248339   7.569  11.869   6.233
49439SOL     OW48340   7.475  12.768   5.703
49439SOL    HW148341   7.456  12.672   5.724
49439SOL    HW248342   7.442  12.826   5.778
49440SOL     OW48343   9.137  12.094   6.198
49440SOL    HW148344   9.232  12.065   6.206
49440SOL    HW248345   9.129  12.159   6.123
49441SOL     OW48346   9.089  12.280   6.018
49441SOL    HW148347   9.175  12.282   5.966
49441SOL    HW248348   9.103  12.327   6.106
49442SOL     OW48349   7.561  11.909   7.183
49442SOL    HW148350   7.649  11.896   7.228
49442SOL    HW248351   7.548  12.006   7.161
49443SOL     OW48352   8.061  12.537   6.312
49443SOL    HW148353   8.012  12.450   6.321
49443SOL    HW248354   8.038  12.580   6.225
49444SOL     OW48355   8.741  12.400   7.009
49444SOL    HW148356   8.778  12.327   6.951
49444SOL    HW248357   8.793  12.405   7.094
49445SOL     OW48358   8.257  11.176   6.088
49445SOL    HW148359   8.297  11.267   6.079
49445SOL    HW248360   8.157  11.184   6.094
49446SOL     OW48361   7.645  12.148   6.850
49446SOL    HW148362   7.734  12.103   6.836
49446SOL    HW248363   7.572  12.083   6.831
49447SOL     OW48364   8.973  12.171   5.776
49447SOL    HW148365   8.910  12.095   5.789
49447SOL    HW248366   9.021  12.189   5.862
49448SOL     OW48367   7.765  11.423   7.387
49448SOL    HW148368   7.836  11.494   7.393
49448SOL    HW248369   7.677  11.462   7.415
49449SOL     OW48370   8.914  12.589   6.539
49449SOL    HW148371   8.855  12.595   6.619
49449SOL    HW248372   8.899  12.501   6.493
49450SOL     OW48373   8.046  11.901   5.856
49450SOL    HW148374   8.070  11.970   5.788
49450SOL    HW248375   7.968  11.934   5.910
49451SOL     OW48376   8.729  11.517   6.530
49451SOL    HW148377   8.643  11.467   6.517
49451SOL    HW248378   8.791  11.463   6.586
49452SOL     OW48379   9.024  12.834   5.893
49452SOL    HW148380   9.113  12.880   5.896
49452SOL    HW248381   9.003  12.810   5.798
49453SOL     OW48382   8.255  11.777   7.051
49453SOL    HW148383   8.208  11.774   7.140
49453SOL    HW248384   8.204  11.722   6.985
49454SOL     OW48385   8.842  11.641   7.260
49454SOL    HW148386   8.822  11.684   7.348
49454SOL    HW248387   8.920  11.579   7.269
49455SOL     OW48388   8.421  12.062   7.158
49455SOL    HW148389   8.467  11.978   7.129
49455SOL    HW248390   8.365  12.096   7.083
49456SOL     OW48391   8.439  11.582   6.828
49456SOL    HW148392   8.362  11.616   6.882
49456SOL    HW248393   8.405  11.531   6.749
49457SOL     OW48394   8.489  11.873   6.015
49457SOL    HW148395   8.515  11.869   6.111
49457SOL    HW248396   8.404  11.822   6.001
49458SOL     OW48397   7.524  11.983   6.375
49458SOL    HW148398   7.623  11.971   6.384
49458SOL    HW248399   7.500  12.078   6.396
49459SOL     OW48400   8.313  11.520   5.781
49459SOL    HW148401   8.372  11.583   5.732
49459SOL    HW248402   8.332  11.426   5.752
49460SOL     OW48403   9.167  11.757   7.417
49460SOL    HW148404   9.141  11.846   7.381
49460SOL    HW248405   9.165  11.689   7.344
49461SOL     OW48406   8.810  12.316   6.131
49461SOL    HW148407   8.893  12.287   6.083
49461SOL    HW248408   8.761  12.383   6.075
49462SOL     OW48409   7.998  11.368   6.471
49462SOL    HW148410   7.993  11.363   6.571
49462SOL    HW248411   8.000  11.464   6.442
49463SOL     OW48412   8.456  12.628   6.063
49463SOL    HW148413   8.410  12.700   6.011
49463SOL    HW248414   8.452  12.648   6.161
49464SOL     OW48415   9.243  12.238   6.459
49464SOL    HW148416   9.181  12.223   6.383
49464SOL    HW248417   9.191  12.249   6.544
49465SOL     OW48418   8.675  12.722   7.092
49465SOL    HW148419   8.681  12.645   7.156
49465SOL    HW248420   8.623  12.696   7.012
49466SOL     OW48421   7.769  12.115   5.828
49466SOL    HW148422   7.851  12.154   5.786
49466SOL    HW248423   7.742  12.033   5.779
49467SOL     OW48424   8.906  11.907   6.314
49467SOL    HW148425   8.901  11.842   6.389
49467SOL    HW248426   8.986  11.966   6.327
49468SOL     OW48427   7.909  12.438   7.313
49468SOL    HW148428   7.859  12.439   7.227
49468SOL    HW248429   7.846  12.420   7.389
49469SOL     OW48430   7.650  11.457   7.084
49469SOL    HW148431   7.570  11.517   7.071
49469SOL    HW248432   7.640  11.408   7.170
49470SOL     OW48433   9.080  12.549   5.667
49470SOL    HW148434   9.048  12.643   5.657
49470SOL    HW248435   9.004  12.486   5.655
49471SOL     OW48436   8.848  11.279   6.012
49471SOL    HW148437   8.824  11.242   5.922
49471SOL    HW248438   8.947  11.295   6.016
49472SOL     OW48439   7.830  11.872   6.066
49472SOL    HW148440   7.875  11.782   6.063
49472SOL    HW248441   7.736  11.861   6.099
49473SOL     OW48442   8.995  11.394   7.315
49473SOL    HW148443   8.990  11.431   7.407
49473SOL    HW248444   8.923  11.325   7.303
49474SOL     OW48445   8.062  11.294   5.703
49474SOL    HW148446   8.160  11.272   5.710
49474SOL    HW248447   8.031  11.277   5.610
49475SOL     OW48448   8.229  11.436   7.335
49475SOL    HW148449   8.296  11.375   7.378
49475SOL    HW248450   8.156  11.455   7.400
49476SOL     OW48451   8.799  11.762   7.019
49476SOL    HW148452   8.827  11.719   7.104
49476SOL    HW248453   8.824  11.858   7.020
49477SOL     OW48454   8.251  12.574   6.510
49477SOL    HW148455   8.341  12.588   6.468
49477SOL    HW248456   8.180  12.576   6.439
49478SOL     OW48457   8.370  11.675   6.485
49478SOL    HW148458   8.345  11.666   6.389
49478SOL    HW248459   8.418  11.593   6.516
49479SOL     OW48460   7.987  11.236   6.098
49479SOL    HW148461   7.906  11.237   6.156
49479SOL    HW248462   7.990  11.319   6.043
49480SOL     OW48463   8.882  12.360   5.627
49480SOL    HW148464   8.914  12.284   5.684
49480SOL    HW248465   8.790  12.387   5.657
49481SOL     OW48466   7.745  11.207   5.757
49481SOL    HW148467   7.794  11.291   5.736
49481SOL    HW248468   7.807  11.142   5.802
49482SOL     OW48469   8.383  11.408   6.066
49482SOL    HW148470   8.335  11.449   5.988
49482SOL    HW248471   8.482  11.406   6.047
49483SOL     OW48472   8.524  11.855   7.050
49483SOL    HW148473   8.444  11.794   7.053
49483SOL    HW248474   8.605  11.802   7.026
49484SOL     OW48475   8.675  12.742   6.379
49484SOL    HW148476   8.696  12.816   6.314
49484SOL    HW248477   8.743  12.742   6.452
49485SOL     OW48478   7.907  12.324   6.327
49485SOL    HW148479   7.836  12.297   6.392
49485SOL    HW248480   7.881  12.296   6.234
49486SOL     OW48481   8.480  11.721   5.602
49486SOL    HW148482   8.439  11.803   5.563
49486SOL    HW248483   8.544  11.747   5.675
49487SOL     OW48484   7.526  11.728   6.972
49487SOL    HW148485   7.618  11.727   6.931
49487SOL    HW248486   7.520  11.802   7.039
49488SOL     OW48487   8.009  11.394   6.733
49488SOL    HW148488   8.047  11.310   6.770
49488SOL    HW248489   7.921  11.413   6.777
49489SOL     OW48490   8.314  11.626   6.228
49489SOL    HW148491   8.282  11.698   6.166
49489SOL    HW248492   8.338  11.545   6.175
49490SOL     OW48493   8.465  11.211   6.339
49490SOL    HW148494   8.393  11.216   6.270
49490SOL    HW248495   8.441  11.142   6.408
49491SOL     OW48496   8.877  12.345   6.453
49491SOL    HW148497   8.822  12.261   6.446
49491SOL    HW248498   8.903  12.374   6.361
49492SOL     OW48499   8.914  11.762   6.578
49492SOL    HW148500   8.884  11.667   6.585
49492SOL    HW248501   8.987  11.778   6.644
49493SOL     OW48502   9.305  12.005   5.963
49493SOL    HW148503   9.347  11.941   6.027
49493SOL    HW248504   9.267  11.954   5.885
49494SOL     OW48505   7.936  12.557   5.760
49494SOL    HW148506   7.849  12.542   5.807
49494SOL    HW248507   7.919  12.583   5.665
49495SOL     OW48508   9.112  12.452   6.243
49495SOL    HW148509   9.211  12.460   6.257
49495SOL    HW248510   9.067  12.536   6.274
49496SOL     OW48511   8.838  11.747   5.664
49496SOL    HW148512   8.784  11.726   5.745
49496SOL    HW248513   8.929  11.706   5.673
49497SOL     OW48514   7.975  11.428   5.914
49497SOL    HW148515   8.002  11.369   5.839
49497SOL    HW248516   7.975  11.523   5.883
49498SOL     OW48517   9.202  12.395   7.174
49498SOL    HW148518   9.293  12.356   7.161
49498SOL    HW248519   9.210  12.491   7.198
49499SOL     OW48520   8.512  12.519   6.926
49499SOL    HW148521   8.432  12.496   6.981
49499SOL    HW248522   8.595  12.493   6.975
49500SOL     OW48523   8.559  12.367   6.686
49500SOL    HW148524   8.519  12.411   6.767
49500SOL    HW248525   8.518  12.404   6.603
49501SOL     OW48526   9.086  12.271   6.665
49501SOL    HW148527   9.091  12.352   6.724
49501SOL    HW248528   9.000  12.273   6.614
49502SOL     OW48529   8.363  11.261   6.988
49502SOL    HW148530   8.388  11.241   6.893
49502SOL    HW248531   8.435  11.317   7.030
49503SOL     OW48532   8.428  12.288   7.305
49503SOL    HW148533   8.329  12.294   7.315
49503SOL    HW248534   8.451  12.208   7.249
49504SOL     OW48535   8.153  12.222   5.954
49504SOL    HW148536   8.139  12.229   6.053
49504SOL    HW248537   8.237  12.171   5.936
49505SOL     OW48538   7.858  11.985   6.837
49505SOL    HW148539   7.944  11.997   6.887
49505SOL    HW248540   7.816  11.898   6.864
49506SOL     OW48541   8.722  11.558   6.848
49506SOL    HW148542   8.743  11.632   6.912
49506SOL    HW248543   8.633  11.575   6.805
49507SOL     OW48544   7.512  12.736   6.917
49507SOL    HW148545   7.466  12.818   6.883
49507SOL    HW248546   7.610  12.755   6.926
49508SOL     OW48547   7.815  12.272   6.087
49508SOL    HW148548   7.808  12.355   6.031
49508SOL    HW248549   7.819  12.192   6.027
49509SOL     OW48550   8.014  11.709   6.451
49509SOL    HW148551   8.026  11.775   6.377
49509SOL    HW248552   8.060  11.743   6.534
49510SOL     OW48553   8.700  12.520   5.974
49510SOL    HW148554   8.750  12.597   6.014
49510SOL    HW248555   8.605  12.522   6.006
49511SOL     OW48556   8.720  12.617   6.728
49511SOL    HW148557   8.767  12.630   6.815
49511SOL    HW248558   8.654  12.543   6.737
49512SOL     OW48559   9.030  11.811   6.058
49512SOL    HW148560   8.999  11.872   6.131
49512SOL    HW248561   9.080  11.863   5.989
49513SOL     OW48562   7.802  12.682   6.915
49513SOL    HW148563   7.781  12.638   6.828
49513SOL    HW248564   7.899  12.708   6.918
49514SOL     OW48565   7.850  11.923   7.184
49514SOL    HW148566   7.918  11.978   7.137
49514SOL    HW248567   7.890  11.835   7.211
49515SOL     OW48568   9.035  11.951   7.256
49515SOL    HW148569   8.943  11.989   7.251
49515SOL    HW248570   9.095  11.998   7.191
49516SOL     OW48571   8.461  11.277   7.356
49516SOL    HW148572   8.467  11.362   7.304
49516SOL    HW248573   8.493  11.201   7.299
49517SOL     OW48574   7.952  11.222   7.326
49517SOL    HW148575   7.910  11.165   7.256
49517SOL    HW248576   7.886  11.291   7.358
49518SOL     OW48577   8.021  12.042   6.615
49518SOL    HW148578   8.065  12.131   6.606
49518SOL    HW248579   7.958  12.042   6.692
49519SOL     OW48580   8.808  12.034   6.631
49519SOL    HW148581   8.733  12.034   6.565
49519SOL    HW248582   8.845  11.942   6.640
49520SOL     OW48583   8.657  11.697   5.861
49520SOL    HW148584   8.670  11.613   5.915
49520SOL    HW248585   8.628  11.771   5.921
49521SOL     OW48586   7.755  11.385   6.817
49521SOL    HW148587   7.732  11.422   6.907
49521SOL    HW248588   7.725  11.290   6.811
49522SOL     OW48589   7.485  12.482   6.868
49522SOL    HW148590   7.538  12.433   6.936
49522SOL    HW248591   7.507  12.580   6.873
49523SOL     OW48592   8.180  11.806   6.650
49523SOL    HW148593   8.239  11.780   6.574
49523SOL    HW248594   8.152  11.902   6.639
49524SOL     OW48595   9.176  12.107   7.440
49524SOL    HW148596   9.130  12.100   7.351
49524SOL    HW248597   9.114  12.151   7.506
49525SOL     OW48598   7.755  11.235   6.204
49525SOL    HW148599   7.744  11.329   6.237
49525SOL    HW248600   7.750  11.172   6.281
49526SOL     OW48601   9.070  11.539   5.960
49526SOL    HW148602   9.072  11.463   6.024
49526SOL    HW248603   9.022  11.616   6.000
49527SOL     OW48604   8.471  11.938   6.552
49527SOL    HW148605   8.486  11.959   6.648
49527SOL    HW248606   8.441  11.843   6.543
49528SOL     OW48607   9.307  12.690   7.191
49528SOL    HW148608   9.321  12.717   7.096
49528SOL    HW248609   9.390  12.712   7.244
49529SOL     OW48610   7.798  12.070   7.390
49529SOL    HW148611   7.874  12.114   7.438
49529SOL    HW248612   7.833  12.023   7.308
49530SOL     OW48613   8.988  11.446   5.711
49530SOL    HW148614   8.927  11.371   5.734
49530SOL    HW248615   9.010  11.498   5.794
49531SOL     OW48616   8.751  12.010   5.628
49531SOL    HW148617   8.785  11.917   5.643
49531SOL    HW248618   8.769  12.037   5.533
49532SOL     OW48619   8.516  12.505   6.435
49532SOL    HW148620   8.523  12.421   6.380
49532SOL    HW248621   8.578  12.574   6.399
49533SOL     OW48622   7.767  11.982   6.535
49533SOL    HW148623   7.860  12.018   6.540
49533SOL    HW248624   7.761  11.897   6.587
49534SOL     OW48625   7.787  11.681   6.592
49534SOL    HW148626   7.735  11.598   6.575
49534SOL    HW248627   7.864  11.686   6.528
49535SOL     OW48628   8.586  11.552   7.264
49535SOL    HW148629   8.541  11.615   7.328
49535SOL    HW248630   8.679  11.583   7.247
49536SOL     OW48631   8.608  11.379   7.063
49536SOL    HW148632   8.608  11.443   7.140
49536SOL    HW248633   8.636  11.427   6.980
49537SOL     OW48634   7.456  12.498   5.786
49537SOL    HW148635   7.363  12.519   5.755
49537SOL    HW248636   7.466  12.399   5.799
49538SOL     OW48637   7.952  12.740   6.496
49538SOL    HW148638   8.018  12.814   6.505
49538SOL    HW248639   7.996  12.661   6.454
49539SOL     OW48640   8.450  11.968   6.824
49539SOL    HW148641   8.491  11.936   6.910
49539SOL    HW248642   8.354  11.941   6.821
49540SOL     OW48643   7.488  11.716   6.700
49540SOL    HW148644   7.573  11.683   6.659
49540SOL    HW248645   7.501  11.731   6.798
49541SOL     OW48646   7.637  11.692   7.308
49541SOL    HW148647   7.696  11.652   7.238
49541SOL    HW248648   7.579  11.763   7.267
49542SOL     OW48649   8.817  12.122   7.246
49542SOL    HW148650   8.856  12.211   7.266
49542SOL    HW248651   8.827  12.102   7.149
49543SOL     OW48652   8.263  11.744   5.911
49543SOL    HW148653   8.270  11.655   5.865
49543SOL    HW248654   8.169  11.778   5.903
49544SOL     OW48655   9.105  11.776   6.792
49544SOL    HW148656   9.067  11.707   6.854
49544SOL    HW248657   9.187  11.740   6.748
49545SOL     OW48658   7.700  12.736   7.330
49545SOL    HW148659   7.670  12.793   7.406
49545SOL    HW248660   7.693  12.639   7.356
49546SOL     OW48661   8.119  11.636   6.855
49546SOL    HW148662   8.085  11.547   6.825
49546SOL    HW248663   8.145  11.690   6.775
49547SOL     OW48664   7.921  11.672   5.777
49547SOL    HW148665   7.982  11.752   5.781
49547SOL    HW248666   7.826  11.703   5.784
49548SOL     OW48667   7.607  12.309   7.052
49548SOL    HW148668   7.629  12.248   7.128
49548SOL    HW248669   7.617  12.260   6.966
49549SOL     OW48670   8.795  12.231   6.820
49549SOL    HW148671   8.819  12.168   6.746
49549SOL    HW248672   8.705  12.271   6.802
49550SOL     OW48673   8.750  12.027   5.895
49550SOL    HW148674   8.664  11.996   5.937
49550SOL    HW248675   8.746  12.013   5.796
49551SOL     OW48676   8.700  12.903   6.714
49551SOL    HW148677   8.784  12.908   6.660
49551SOL    HW248678   8.677  12.807   6.732
49552SOL     OW48679   7.531  12.430   6.608
49552SOL    HW148680   7.526  12.429   6.708
49552SOL    HW248681   7.448  12.389   6.570
49553SOL     OW48682   9.174  11.307   6.109
49553SOL    HW148683   9.247  11.290   6.042
49553SOL    HW248684   9.143  11.220   6.147
49554SOL     OW48685   7.578  12.966   7.437
49554SOL    HW148686   7.537  12.892   7.490
49554SOL    HW248687   7.642  13.017   7.495
49555SOL     OW48688   8.728  12.099   6.258
49555SOL    HW148689   8.788  12.018   6.260
49555SOL    HW248690   8.768  12.168   6.198
49556SOL     OW48691   8.278  12.445   7.008
49556SOL    HW148692   8.273  12.478   7.103
49556SOL    HW248693   8.192  12.464   6.962
49557SOL     OW48694   8.120  12.788   5.740
49557SOL    HW148695   8.129  12.798   5.641
49557SOL    HW248696   8.080  12.699   5.761
49558SOL     OW48697   9.289  11.347   6.549
49558SOL    HW148698   9.328  11.262   6.513
49558SOL    HW248699   9.191  11.349   6.530
49559SOL     OW48700   7.711  11.498   6.306
49559SOL    HW148701   7.632  11.549   6.272
49559SOL    HW248702   7.702  11.483   6.404
49560SOL     OW48703   8.642  12.784   5.617
49560SOL    HW148704   8.648  12.691   5.654
49560SOL    HW248705   8.583  12.784   5.537
49561SOL     OW48706   8.270  12.174   6.958
49561SOL    HW148707   8.310  12.173   6.866
49561SOL    HW248708   8.280  12.266   6.998
49562SOL     OW48709   8.364  12.082   5.877
49562SOL    HW148710   8.427  12.120   5.809
49562SOL    HW248711   8.404  11.999   5.916
49563SOL     OW48712   7.820  12.460   7.076
49563SOL    HW148713   7.807  12.553   7.042
49563SOL    HW248714   7.736  12.408   7.063
49564SOL     OW48715   9.062  12.464   6.875
49564SOL    HW148716   9.122  12.467   6.955
49564SOL    HW248717   8.987  12.528   6.888
49565SOL     OW48718   8.487  12.270   6.282
49565SOL    HW148719   8.417  12.223   6.336
49565SOL    HW248720   8.546  12.202   6.239
49566SOL     OW48721   8.462  11.408   6.557
49566SOL    HW148722   8.454  11.372   6.464
49566SOL    HW248723   8.460  11.332   6.622
49567SOL     OW48724   8.038  12.659   6.077
49567SOL    HW148725   8.080  12.601   6.007
49567SOL    HW248726   7.994  12.738   6.033
49568SOL     OW48727   9.157  11.557   6.967
49568SOL    HW148728   9.230  11.626   6.971
49568SOL    HW248729   9.185  11.482   6.908
49569SOL     OW48730   7.703  12.520   5.876
49569SOL    HW148731   7.607  12.521   5.849
49569SOL    HW248732   7.715  12.573   5.960
49570SOL     OW48733   7.553  12.185   7.312
49570SOL    HW148734   7.476  12.152   7.366
49570SOL    HW248735   7.638  12.155   7.354
49571SOL     OW48736   8.120  11.375   7.075
49571SOL    HW148737   8.210  11.359   7.035
49571SOL    HW248738   8.128  11.380   7.174
49572SOL     OW48739   7.523  11.517   5.619
49572SOL    HW148740   7.431  11.489   5.590
49572SOL    HW248741   7.554  11.594   5.563
49573SOL     OW48742   8.888  12.028   6.984
49573SOL    HW148743   8.831  12.080   6.921
49573SOL    HW248744   8.984  12.040   6.960
49574SOL     OW48745   7.520  11.338   5.904
49574SOL    HW148746   7.503  11.421   5.850
49574SOL    HW248747   7.610  11.301   5.882
49575SOL     OW48748   8.631  12.507   5.705
49575SOL    HW148749   8.532  12.496   5.707
49575SOL    HW248750   8.665  12.522   5.798
49576SOL     OW48751   8.061  12.014   7.017
49576SOL    HW148752   8.117  12.095   7.000
49576SOL    HW248753   8.120  11.934   7.020
49577SOL     OW48754   8.164  11.737   7.294
49577SOL    HW148755   8.183  11.802   7.368
49577SOL    HW248756   8.224  11.657   7.303
49578SOL     OW48757   8.898  12.392   7.219
49578SOL    HW148758   8.889  12.382   7.318
49578SOL    HW248759   8.994  12.385   7.193
49579SOL     OW48760   9.122  12.055   6.840
49579SOL    HW148761   9.095  11.966   6.803
49579SOL    HW248762   9.123  12.123   6.767
49580SOL     OW48763   8.673  11.497   6.035
49580SOL    HW148764   8.738  11.423   6.024
49580SOL    HW248765   8.693  11.547   6.119
49581SOL     OW48766   8.042  11.917   6.238
49581SOL    HW148767   8.092  12.002   6.219
49581SOL    HW248768   7.954  11.919   6.190
49582SOL     OW48769   9.225  11.514   7.228
49582SOL    HW148770   9.208  11.545   7.134
49582SOL    HW248771   9.141  11.477   7.266
49583SOL     OW48772   9.178  12.106   7.103
49583SOL    HW148773   9.216  12.197   7.118
49583SOL    HW248774   9.170  12.089   7.004
49584SOL     OW48775   8.307  12.546   5.602
49584SOL    HW148776   8.261  12.561   5.690
49584SOL    HW248777   8.351  12.631   5.572
49585SOL     OW48778   8.307  12.128   6.447
49585SOL    HW148779   8.361  12.059   6.495
49585SOL    HW248780   8.275  12.197   6.513
49586SOL     OW48781   8.531  12.156   5.673
49586SOL    HW148782   8.508  12.209   5.591
49586SOL    HW248783   8.612  12.100   5.654
49587SOL     OW48784   9.309  12.741   6.437
49587SOL    HW148785   9.238  12.729   6.367
49587SOL    HW248786   9.310  12.662   6.497
49588SOL     OW48787   7.669  12.486   7.430
49588SOL    HW148788   7.604  12.413   7.409
49588SOL    HW248789   7.673  12.500   7.528
49589SOL     OW48790   7.527  12.412   6.239
49589SOL    HW148791   7.526  12.365   6.327
49589SOL    HW248792   7.609  12.384   6.188
49590SOL     OW48793   8.120  12.563   7.210
49590SOL    HW148794   8.042  12.513   7.248
49590SOL    HW248795   8.117  12.658   7.241
49591SOL     OW48796   9.272  11.364   6.813
49591SOL    HW148797   9.268  11.274   6.857
49591SOL    HW248798   9.275  11.353   6.714
49592SOL     OW48799   7.876  11.596   6.106
49592SOL    HW148800   7.906  11.524   6.044
49592SOL    HW248801   7.837  11.556   6.189
49593SOL     OW48802   9.153  12.659   6.690
49593SOL    HW148803   9.060  12.634   6.663
49593SOL    HW248804   9.179  12.609   6.772
49594SOL     OW48805   7.765  11.719   6.866
49594SOL    HW148806   7.803  11.660   6.938
49594SOL    HW248807   7.805  11.693   6.778
49595SOL     OW48808   8.872  11.386   6.698
49595SOL    HW148809   8.924  11.321   6.753
49595SOL    HW248810   8.823  11.449   6.759
49596SOL     OW48811   8.449  11.206   6.740
49596SOL    HW148812   8.386  11.134   6.709
49596SOL    HW248813   8.542  11.170   6.740
49597SOL     OW48814   8.218  12.502   5.887
49597SOL    HW148815   8.172  12.415   5.904
49597SOL    HW248816   8.309  12.499   5.928
49598SOL     OW48817   8.066  12.739   6.870
49598SOL    HW148818   8.061  12.821   6.927
49598SOL    HW248819   8.155  12.736   6.825
49599SOL     OW48820   8.800  11.224   5.754
49599SOL    HW148821   8.835  11.183   5.670
49599SOL    HW248822   8.710  11.186   5.774
49600SOL     OW48823   8.748  11.625   6.277
49600SOL    HW148824   8.689  11.705   6.281
49600SOL    HW248825   8.763  11.590   6.370
49601SOL     OW48826   9.041  11.393   6.468
49601SOL    HW148827   8.957  11.392   6.522
49601SOL    HW248828   9.043  11.476   6.412
49602SOL     OW48829   7.487  12.249   5.886
49602SOL    HW148830   7.586  12.238   5.877
49602SOL    HW248831   7.447  12.163   5.918
49603SOL     OW48832   7.678  11.800   7.561
49603SOL    HW148833   7.585  11.798   7.598
49603SOL    HW248834   7.679  11.761   7.469
49604SOL     OW48835   7.673  11.447   8.444
49604SOL    HW148836   7.708  11.430   8.536
49604SOL    HW248837   7.585  11.402   8.432
49605SOL     OW48838   7.467  11.540   8.095
49605SOL    HW148839   7.385  11.583   8.134
49605SOL    HW248840   7.439  11.467   8.032
49606SOL     OW48841   8.017  12.447   8.613
49606SOL    HW148842   7.924  12.440   8.576
49606SOL    HW248843   8.028  12.536   8.657
49607SOL     OW48844   9.003  12.683   8.151
49607SOL    HW148845   8.946  12.667   8.232
49607SOL    HW248846   8.944  12.693   8.071
49608SOL     OW48847   8.583  11.875   8.165
49608SOL    HW148848   8.640  11.953   8.140
49608SOL    HW248849   8.523  11.901   8.241
49609SOL     OW48850   9.203  11.779   7.679
49609SOL    HW148851   9.191  11.766   7.580
49609SOL    HW248852   9.173  11.698   7.728
49610SOL     OW48853   8.216  12.316   8.471
49610SOL    HW148854   8.138  12.333   8.531
49610SOL    HW248855   8.250  12.403   8.435
49611SOL     OW48856   8.298  11.970   9.271
49611SOL    HW148857   8.294  12.046   9.336
49611SOL    HW248858   8.320  12.006   9.180
49612SOL     OW48859   8.133  12.184   8.113
49612SOL    HW148860   8.202  12.168   8.183
49612SOL    HW248861   8.060  12.241   8.151
49613SOL     OW48862   8.134  12.333   9.251
49613SOL    HW148863   8.194  12.412   9.265
49613SOL    HW248864   8.048  12.364   9.210
49614SOL     OW48865   7.783  12.607   8.509
49614SOL    HW148866   7.705  12.576   8.456
49614SOL    HW248867   7.841  12.665   8.452
49615SOL     OW48868   8.908  12.677   8.787
49615SOL    HW148869   8.932  12.771   8.813
49615SOL    HW248870   8.892  12.623   8.869
49616SOL     OW48871   7.886  11.564   8.947
49616SOL    HW148872   7.968  11.508   8.956
49616SOL    HW248873   7.805  11.506   8.951
49617SOL     OW48874   9.051  11.619   8.185
49617SOL    HW148875   8.977  11.665   8.135
49617SOL    HW248876   9.102  11.687   8.238
49618SOL     OW48877   8.575  12.513   9.138
49618SOL    HW148878   8.622  12.513   9.226
49618SOL    HW248879   8.527  12.426   9.127
49619SOL     OW48880   7.678  12.606   7.986
49619SOL    HW148881   7.652  12.702   7.986
49619SOL    HW248882   7.607  12.552   8.031
49620SOL     OW48883   7.688  12.263   8.334
49620SOL    HW148884   7.702  12.179   8.386
49620SOL    HW248885   7.633  12.327   8.389
49621SOL     OW48886   8.054  12.136   7.571
49621SOL    HW148887   8.061  12.220   7.517
49621SOL    HW248888   8.100  12.149   7.659
49622SOL     OW48889   9.042  11.286   8.928
49622SOL    HW148890   9.024  11.353   8.856
49622SOL    HW248891   9.039  11.332   9.017
49623SOL     OW48892   7.570  11.815   8.011
49623SOL    HW148893   7.525  11.727   8.028
49623SOL    HW248894   7.569  11.869   8.095
49624SOL     OW48895   7.475  12.768   7.565
49624SOL    HW148896   7.456  12.672   7.586
49624SOL    HW248897   7.442  12.826   7.640
49625SOL     OW48898   9.137  12.094   8.060
49625SOL    HW148899   9.232  12.065   8.068
49625SOL    HW248900   9.129  12.159   7.985
49626SOL     OW48901   9.089  12.280   7.880
49626SOL    HW148902   9.175  12.282   7.828
49626SOL    HW248903   9.103  12.327   7.968
49627SOL     OW48904   7.561  11.909   9.045
49627SOL    HW148905   7.649  11.896   9.090
49627SOL    HW248906   7.548  12.006   9.023
49628SOL     OW48907   8.061  12.537   8.174
49628SOL    HW148908   8.012  12.450   8.183
49628SOL    HW248909   8.038  12.580   8.087
49629SOL     OW48910   8.741  12.400   8.871
49629SOL    HW148911   8.778  12.327   8.813
49629SOL    HW248912   8.793  12.405   8.956
49630SOL     OW48913   8.257  11.176   7.950
49630SOL    HW148914   8.297  11.267   7.941
49630SOL    HW248915   8.157  11.184   7.956
49631SOL     OW48916   7.645  12.148   8.712
49631SOL    HW148917   7.734  12.103   8.698
49631SOL    HW248918   7.572  12.083   8.693
49632SOL     OW48919   8.973  12.171   7.638
49632SOL    HW148920   8.910  12.095   7.651
49632SOL    HW248921   9.021  12.189   7.724
49633SOL     OW48922   7.765  11.423   9.249
49633SOL    HW148923   7.836  11.494   9.255
49633SOL    HW248924   7.677  11.462   9.277
49634SOL     OW48925   8.914  12.589   8.401
49634SOL    HW148926   8.855  12.595   8.481
49634SOL    HW248927   8.899  12.501   8.355
49635SOL     OW48928   8.046  11.901   7.718
49635SOL    HW148929   8.070  11.970   7.650
49635SOL    HW248930   7.968  11.934   7.772
49636SOL     OW48931   8.729  11.517   8.392
49636SOL    HW148932   8.643  11.467   8.379
49636SOL    HW248933   8.791  11.463   8.448
49637SOL     OW48934   9.024  12.834   7.755
49637SOL    HW148935   9.113  12.880   7.758
49637SOL    HW248936   9.003  12.810   7.660
49638SOL     OW48937   8.255  11.777   8.913
49638SOL    HW148938   8.208  11.774   9.002
49638SOL    HW248939   8.204  11.722   8.847
49639SOL     OW48940   8.842  11.641   9.122
49639SOL    HW148941   8.822  11.684   9.210
49639SOL    HW248942   8.920  11.579   9.131
49640SOL     OW48943   8.421  12.062   9.020
49640SOL    HW148944   8.467  11.978   8.991
49640SOL    HW248945   8.365  12.096   8.945
49641SOL     OW48946   8.439  11.582   8.690
49641SOL    HW148947   8.362  11.616   8.744
49641SOL    HW248948   8.405  11.531   8.611
49642SOL     OW48949   8.489  11.873   7.877
49642SOL    HW148950   8.515  11.869   7.973
49642SOL    HW248951   8.404  11.822   7.863
49643SOL     OW48952   7.524  11.983   8.237
49643SOL    HW148953   7.623  11.971   8.246
49643SOL    HW248954   7.500  12.078   8.258
49644SOL     OW48955   8.313  11.520   7.643
49644SOL    HW148956   8.372  11.583   7.594
49644SOL    HW248957   8.332  11.426   7.614
49645SOL     OW48958   9.167  11.757   9.279
49645SOL    HW148959   9.141  11.846   9.243
49645SOL    HW248960   9.165  11.689   9.206
49646SOL     OW48961   8.810  12.316   7.993
49646SOL    HW148962   8.893  12.287   7.945
49646SOL    HW248963   8.761  12.383   7.937
49647SOL     OW48964   7.998  11.368   8.333
49647SOL    HW148965   7.993  11.363   8.433
49647SOL    HW248966   8.000  11.464   8.304
49648SOL     OW48967   8.456  12.628   7.925
49648SOL    HW148968   8.410  12.700   7.873
49648SOL    HW248969   8.452  12.648   8.023
49649SOL     OW48970   9.243  12.238   8.321
49649SOL    HW148971   9.181  12.223   8.245
49649SOL    HW248972   9.191  12.249   8.406
49650SOL     OW48973   8.675  12.722   8.954
49650SOL    HW148974   8.681  12.645   9.018
49650SOL    HW248975   8.623  12.696   8.874
49651SOL     OW48976   7.769  12.115   7.690
49651SOL    HW148977   7.851  12.154   7.648
49651SOL    HW248978   7.742  12.033   7.641
49652SOL     OW48979   8.906  11.907   8.176
49652SOL    HW148980   8.901  11.842   8.251
49652SOL    HW248981   8.986  11.966   8.189
49653SOL     OW48982   7.909  12.438   9.175
49653SOL    HW148983   7.859  12.439   9.089
49653SOL    HW248984   7.846  12.420   9.251
49654SOL     OW48985   7.650  11.457   8.946
49654SOL    HW148986   7.570  11.517   8.933
49654SOL    HW248987   7.640  11.408   9.032
49655SOL     OW48988   9.080  12.549   7.529
49655SOL    HW148989   9.048  12.643   7.519
49655SOL    HW248990   9.004  12.486   7.517
49656SOL     OW48991   8.848  11.279   7.874
49656SOL    HW148992   8.824  11.242   7.784
49656SOL    HW248993   8.947  11.295   7.878
49657SOL     OW48994   7.830  11.872   7.928
49657SOL    HW148995   7.875  11.782   7.925
49657SOL    HW248996   7.736  11.861   7.961
49658SOL     OW48997   8.995  11.394   9.177
49658SOL    HW148998   8.990  11.431   9.269
49658SOL    HW248999   8.923  11.325   9.165
49659SOL     OW49000   8.062  11.294   7.565
49659SOL    HW149001   8.160  11.272   7.572
49659SOL    HW249002   8.031  11.277   7.472
49660SOL     OW49003   8.229  11.436   9.197
49660SOL    HW149004   8.296  11.375   9.240
49660SOL    HW249005   8.156  11.455   9.262
49661SOL     OW49006   8.799  11.762   8.881
49661SOL    HW149007   8.827  11.719   8.966
49661SOL    HW249008   8.824  11.858   8.882
49662SOL     OW49009   8.251  12.574   8.372
49662SOL    HW149010   8.341  12.588   8.330
49662SOL    HW249011   8.180  12.576   8.301
49663SOL     OW49012   8.370  11.675   8.347
49663SOL    HW149013   8.345  11.666   8.251
49663SOL    HW249014   8.418  11.593   8.378
49664SOL     OW49015   7.987  11.236   7.960
49664SOL    HW149016   7.906  11.237   8.018
49664SOL    HW249017   7.990  11.319   7.905
49665SOL     OW49018   8.882  12.360   7.489
49665SOL    HW149019   8.914  12.284   7.546
49665SOL    HW249020   8.790  12.387   7.519
49666SOL     OW49021   7.745  11.207   7.619
49666SOL    HW149022   7.794  11.291   7.598
49666SOL    HW249023   7.807  11.142   7.664
49667SOL     OW49024   8.383  11.408   7.928
49667SOL    HW149025   8.335  11.449   7.850
49667SOL    HW249026   8.482  11.406   7.909
49668SOL     OW49027   8.524  11.855   8.912
49668SOL    HW149028   8.444  11.794   8.915
49668SOL    HW249029   8.605  11.802   8.888
49669SOL     OW49030   8.675  12.742   8.241
49669SOL    HW149031   8.696  12.816   8.176
49669SOL    HW249032   8.743  12.742   8.314
49670SOL     OW49033   7.907  12.324   8.189
49670SOL    HW149034   7.836  12.297   8.254
49670SOL    HW249035   7.881  12.296   8.096
49671SOL     OW49036   8.480  11.721   7.464
49671SOL    HW149037   8.439  11.803   7.425
49671SOL    HW249038   8.544  11.747   7.537
49672SOL     OW49039   7.526  11.728   8.834
49672SOL    HW149040   7.618  11.727   8.793
49672SOL    HW249041   7.520  11.802   8.901
49673SOL     OW49042   8.009  11.394   8.595
49673SOL    HW149043   8.047  11.310   8.632
49673SOL    HW249044   7.921  11.413   8.639
49674SOL     OW49045   8.314  11.626   8.090
49674SOL    HW149046   8.282  11.698   8.028
49674SOL    HW249047   8.338  11.545   8.037
49675SOL     OW49048   8.465  11.211   8.201
49675SOL    HW149049   8.393  11.216   8.132
49675SOL    HW249050   8.441  11.142   8.270
49676SOL     OW49051   8.877  12.345   8.315
49676SOL    HW149052   8.822  12.261   8.308
49676SOL    HW249053   8.903  12.374   8.223
49677SOL     OW49054   8.914  11.762   8.440
49677SOL    HW149055   8.884  11.667   8.447
49677SOL    HW249056   8.987  11.778   8.506
49678SOL     OW49057   9.305  12.005   7.825
49678SOL    HW149058   9.347  11.941   7.889
49678SOL    HW249059   9.267  11.954   7.747
49679SOL     OW49060   7.936  12.557   7.622
49679SOL    HW149061   7.849  12.542   7.669
49679SOL    HW249062   7.919  12.583   7.527
49680SOL     OW49063   9.112  12.452   8.105
49680SOL    HW149064   9.211  12.460   8.119
49680SOL    HW249065   9.067  12.536   8.136
49681SOL     OW49066   8.838  11.747   7.526
49681SOL    HW149067   8.784  11.726   7.607
49681SOL    HW249068   8.929  11.706   7.535
49682SOL     OW49069   7.975  11.428   7.776
49682SOL    HW149070   8.002  11.369   7.701
49682SOL    HW249071   7.975  11.523   7.745
49683SOL     OW49072   9.202  12.395   9.036
49683SOL    HW149073   9.293  12.356   9.023
49683SOL    HW249074   9.210  12.491   9.060
49684SOL     OW49075   8.512  12.519   8.788
49684SOL    HW149076   8.432  12.496   8.843
49684SOL    HW249077   8.595  12.493   8.837
49685SOL     OW49078   8.559  12.367   8.548
49685SOL    HW149079   8.519  12.411   8.629
49685SOL    HW249080   8.518  12.404   8.465
49686SOL     OW49081   9.086  12.271   8.527
49686SOL    HW149082   9.091  12.352   8.586
49686SOL    HW249083   9.000  12.273   8.476
49687SOL     OW49084   8.363  11.261   8.850
49687SOL    HW149085   8.388  11.241   8.755
49687SOL    HW249086   8.435  11.317   8.892
49688SOL     OW49087   8.428  12.288   9.167
49688SOL    HW149088   8.329  12.294   9.177
49688SOL    HW249089   8.451  12.208   9.111
49689SOL     OW49090   8.153  12.222   7.816
49689SOL    HW149091   8.139  12.229   7.915
49689SOL    HW249092   8.237  12.171   7.798
49690SOL     OW49093   7.858  11.985   8.699
49690SOL    HW149094   7.944  11.997   8.749
49690SOL    HW249095   7.816  11.898   8.726
49691SOL     OW49096   8.722  11.558   8.710
49691SOL    HW149097   8.743  11.632   8.774
49691SOL    HW249098   8.633  11.575   8.667
49692SOL     OW49099   7.512  12.736   8.779
49692SOL    HW149100   7.466  12.818   8.745
49692SOL    HW249101   7.610  12.755   8.788
49693SOL     OW49102   7.815  12.272   7.949
49693SOL    HW149103   7.808  12.355   7.893
49693SOL    HW249104   7.819  12.192   7.889
49694SOL     OW49105   8.014  11.709   8.313
49694SOL    HW149106   8.026  11.775   8.239
49694SOL    HW249107   8.060  11.743   8.396
49695SOL     OW49108   8.700  12.520   7.836
49695SOL    HW149109   8.750  12.597   7.876
49695SOL    HW249110   8.605  12.522   7.868
49696SOL     OW49111   8.720  12.617   8.590
49696SOL    HW149112   8.767  12.630   8.677
49696SOL    HW249113   8.654  12.543   8.599
49697SOL     OW49114   9.030  11.811   7.920
49697SOL    HW149115   8.999  11.872   7.993
49697SOL    HW249116   9.080  11.863   7.851
49698SOL     OW49117   7.802  12.682   8.777
49698SOL    HW149118   7.781  12.638   8.690
49698SOL    HW249119   7.899  12.708   8.780
49699SOL     OW49120   7.850  11.923   9.046
49699SOL    HW149121   7.918  11.978   8.999
49699SOL    HW249122   7.890  11.835   9.073
49700SOL     OW49123   9.035  11.951   9.118
49700SOL    HW149124   8.943  11.989   9.113
49700SOL    HW249125   9.095  11.998   9.053
49701SOL     OW49126   8.461  11.277   9.218
49701SOL    HW149127   8.467  11.362   9.166
49701SOL    HW249128   8.493  11.201   9.161
49702SOL     OW49129   7.952  11.222   9.188
49702SOL    HW149130   7.910  11.165   9.118
49702SOL    HW249131   7.886  11.291   9.220
49703SOL     OW49132   8.021  12.042   8.477
49703SOL    HW149133   8.065  12.131   8.468
49703SOL    HW249134   7.958  12.042   8.554
49704SOL     OW49135   8.808  12.034   8.493
49704SOL    HW149136   8.733  12.034   8.427
49704SOL    HW249137   8.845  11.942   8.502
49705SOL     OW49138   8.657  11.697   7.723
49705SOL    HW149139   8.670  11.613   7.777
49705SOL    HW249140   8.628  11.771   7.783
49706SOL     OW49141   7.755  11.385   8.679
49706SOL    HW149142   7.732  11.422   8.769
49706SOL    HW249143   7.725  11.290   8.673
49707SOL     OW49144   7.485  12.482   8.730
49707SOL    HW149145   7.538  12.433   8.798
49707SOL    HW249146   7.507  12.580   8.735
49708SOL     OW49147   8.180  11.806   8.512
49708SOL    HW149148   8.239  11.780   8.436
49708SOL    HW249149   8.152  11.902   8.501
49709SOL     OW49150   9.176  12.107   9.302
49709SOL    HW149151   9.130  12.100   9.213
49709SOL    HW249152   9.114  12.151   9.368
49710SOL     OW49153   7.755  11.235   8.066
49710SOL    HW149154   7.744  11.329   8.099
49710SOL    HW249155   7.750  11.172   8.143
49711SOL     OW49156   9.070  11.539   7.822
49711SOL    HW149157   9.072  11.463   7.886
49711SOL    HW249158   9.022  11.616   7.862
49712SOL     OW49159   8.471  11.938   8.414
49712SOL    HW149160   8.486  11.959   8.510
49712SOL    HW249161   8.441  11.843   8.405
49713SOL     OW49162   9.307  12.690   9.053
49713SOL    HW149163   9.321  12.717   8.958
49713SOL    HW249164   9.390  12.712   9.106
49714SOL     OW49165   7.798  12.070   9.252
49714SOL    HW149166   7.874  12.114   9.300
49714SOL    HW249167   7.833  12.023   9.170
49715SOL     OW49168   8.988  11.446   7.573
49715SOL    HW149169   8.927  11.371   7.596
49715SOL    HW249170   9.010  11.498   7.656
49716SOL     OW49171   8.751  12.010   7.490
49716SOL    HW149172   8.785  11.917   7.505
49716SOL    HW249173   8.769  12.037   7.395
49717SOL     OW49174   8.516  12.505   8.297
49717SOL    HW149175   8.523  12.421   8.242
49717SOL    HW249176   8.578  12.574   8.261
49718SOL     OW49177   7.767  11.982   8.397
49718SOL    HW149178   7.860  12.018   8.402
49718SOL    HW249179   7.761  11.897   8.449
49719SOL     OW49180   7.787  11.681   8.454
49719SOL    HW149181   7.735  11.598   8.437
49719SOL    HW249182   7.864  11.686   8.390
49720SOL     OW49183   8.586  11.552   9.126
49720SOL    HW149184   8.541  11.615   9.190
49720SOL    HW249185   8.679  11.583   9.109
49721SOL     OW49186   8.608  11.379   8.925
49721SOL    HW149187   8.608  11.443   9.002
49721SOL    HW249188   8.636  11.427   8.842
49722SOL     OW49189   7.456  12.498   7.648
49722SOL    HW149190   7.363  12.519   7.617
49722SOL    HW249191   7.466  12.399   7.661
49723SOL     OW49192   7.952  12.740   8.358
49723SOL    HW149193   8.018  12.814   8.367
49723SOL    HW249194   7.996  12.661   8.316
49724SOL     OW49195   8.450  11.968   8.686
49724SOL    HW149196   8.491  11.936   8.772
49724SOL    HW249197   8.354  11.941   8.683
49725SOL     OW49198   7.488  11.716   8.562
49725SOL    HW149199   7.573  11.683   8.521
49725SOL    HW249200   7.501  11.731   8.660
49726SOL     OW49201   7.637  11.692   9.170
49726SOL    HW149202   7.696  11.652   9.100
49726SOL    HW249203   7.579  11.763   9.129
49727SOL     OW49204   8.817  12.122   9.108
49727SOL    HW149205   8.856  12.211   9.128
49727SOL    HW249206   8.827  12.102   9.011
49728SOL     OW49207   8.263  11.744   7.773
49728SOL    HW149208   8.270  11.655   7.727
49728SOL    HW249209   8.169  11.778   7.765
49729SOL     OW49210   9.105  11.776   8.654
49729SOL    HW149211   9.067  11.707   8.716
49729SOL    HW249212   9.187  11.740   8.610
49730SOL     OW49213   7.700  12.736   9.192
49730SOL    HW149214   7.670  12.793   9.268
49730SOL    HW249215   7.693  12.639   9.218
49731SOL     OW49216   8.119  11.636   8.717
49731SOL    HW149217   8.085  11.547   8.687
49731SOL    HW249218   8.145  11.690   8.637
49732SOL     OW49219   7.921  11.672   7.639
49732SOL    HW149220   7.982  11.752   7.643
49732SOL    HW249221   7.826  11.703   7.646
49733SOL     OW49222   7.607  12.309   8.914
49733SOL    HW149223   7.629  12.248   8.990
49733SOL    HW249224   7.617  12.260   8.828
49734SOL     OW49225   8.795  12.231   8.682
49734SOL    HW149226   8.819  12.168   8.608
49734SOL    HW249227   8.705  12.271   8.664
49735SOL     OW49228   8.750  12.027   7.757
49735SOL    HW149229   8.664  11.996   7.799
49735SOL    HW249230   8.746  12.013   7.658
49736SOL     OW49231   8.700  12.903   8.576
49736SOL    HW149232   8.784  12.908   8.522
49736SOL    HW249233   8.677  12.807   8.594
49737SOL     OW49234   7.531  12.430   8.470
49737SOL    HW149235   7.526  12.429   8.570
49737SOL    HW249236   7.448  12.389   8.432
49738SOL     OW49237   9.174  11.307   7.971
49738SOL    HW149238   9.247  11.290   7.904
49738SOL    HW249239   9.143  11.220   8.009
49739SOL     OW49240   7.578  12.966   9.299
49739SOL    HW149241   7.537  12.892   9.352
49739SOL    HW249242   7.642  13.017   9.357
49740SOL     OW49243   8.728  12.099   8.120
49740SOL    HW149244   8.788  12.018   8.122
49740SOL    HW249245   8.768  12.168   8.060
49741SOL     OW49246   8.278  12.445   8.870
49741SOL    HW149247   8.273  12.478   8.965
49741SOL    HW249248   8.192  12.464   8.824
49742SOL     OW49249   8.120  12.788   7.602
49742SOL    HW149250   8.129  12.798   7.503
49742SOL    HW249251   8.080  12.699   7.623
49743SOL     OW49252   9.289  11.347   8.411
49743SOL    HW149253   9.328  11.262   8.375
49743SOL    HW249254   9.191  11.349   8.392
49744SOL     OW49255   7.711  11.498   8.168
49744SOL    HW149256   7.632  11.549   8.134
49744SOL    HW249257   7.702  11.483   8.266
49745SOL     OW49258   8.642  12.784   7.479
49745SOL    HW149259   8.648  12.691   7.516
49745SOL    HW249260   8.583  12.784   7.399
49746SOL     OW49261   8.270  12.174   8.820
49746SOL    HW149262   8.310  12.173   8.728
49746SOL    HW249263   8.280  12.266   8.860
49747SOL     OW49264   8.364  12.082   7.739
49747SOL    HW149265   8.427  12.120   7.671
49747SOL    HW249266   8.404  11.999   7.778
49748SOL     OW49267   7.820  12.460   8.938
49748SOL    HW149268   7.807  12.553   8.904
49748SOL    HW249269   7.736  12.408   8.925
49749SOL     OW49270   9.062  12.464   8.737
49749SOL    HW149271   9.122  12.467   8.817
49749SOL    HW249272   8.987  12.528   8.750
49750SOL     OW49273   8.487  12.270   8.144
49750SOL    HW149274   8.417  12.223   8.198
49750SOL    HW249275   8.546  12.202   8.101
49751SOL     OW49276   8.462  11.408   8.419
49751SOL    HW149277   8.454  11.372   8.326
49751SOL    HW249278   8.460  11.332   8.484
49752SOL     OW49279   8.038  12.659   7.939
49752SOL    HW149280   8.080  12.601   7.869
49752SOL    HW249281   7.994  12.738   7.895
49753SOL     OW49282   9.157  11.557   8.829
49753SOL    HW149283   9.230  11.626   8.833
49753SOL    HW249284   9.185  11.482   8.770
49754SOL     OW49285   7.703  12.520   7.738
49754SOL    HW149286   7.607  12.521   7.711
49754SOL    HW249287   7.715  12.573   7.822
49755SOL     OW49288   7.553  12.185   9.174
49755SOL    HW149289   7.476  12.152   9.228
49755SOL    HW249290   7.638  12.155   9.216
49756SOL     OW49291   8.120  11.375   8.937
49756SOL    HW149292   8.210  11.359   8.897
49756SOL    HW249293   8.128  11.380   9.036
49757SOL     OW49294   7.523  11.517   7.481
49757SOL    HW149295   7.431  11.489   7.452
49757SOL    HW249296   7.554  11.594   7.425
49758SOL     OW49297   8.888  12.028   8.846
49758SOL    HW149298   8.831  12.080   8.783
49758SOL    HW249299   8.984  12.040   8.822
49759SOL     OW49300   7.520  11.338   7.766
49759SOL    HW149301   7.503  11.421   7.712
49759SOL    HW249302   7.610  11.301   7.744
49760SOL     OW49303   8.631  12.507   7.567
49760SOL    HW149304   8.532  12.496   7.569
49760SOL    HW249305   8.665  12.522   7.660
49761SOL     OW49306   8.061  12.014   8.879
49761SOL    HW149307   8.117  12.095   8.862
49761SOL    HW249308   8.120  11.934   8.882
49762SOL     OW49309   8.164  11.737   9.156
49762SOL    HW149310   8.183  11.802   9.230
49762SOL    HW249311   8.224  11.657   9.165
49763SOL     OW49312   8.898  12.392   9.081
49763SOL    HW149313   8.889  12.382   9.180
49763SOL    HW249314   8.994  12.385   9.055
49764SOL     OW49315   9.122  12.055   8.702
49764SOL    HW149316   9.095  11.966   8.665
49764SOL    HW249317   9.123  12.123   8.629
49765SOL     OW49318   8.673  11.497   7.897
49765SOL    HW149319   8.738  11.423   7.886
49765SOL    HW249320   8.693  11.547   7.981
49766SOL     OW49321   8.042  11.917   8.100
49766SOL    HW149322   8.092  12.002   8.081
49766SOL    HW249323   7.954  11.919   8.052
49767SOL     OW49324   9.225  11.514   9.090
49767SOL    HW149325   9.208  11.545   8.996
49767SOL    HW249326   9.141  11.477   9.128
49768SOL     OW49327   9.178  12.106   8.965
49768SOL    HW149328   9.216  12.197   8.980
49768SOL    HW249329   9.170  12.089   8.866
49769SOL     OW49330   8.307  12.546   7.464
49769SOL    HW149331   8.261  12.561   7.552
49769SOL    HW249332   8.351  12.631   7.434
49770SOL     OW49333   8.307  12.128   8.309
49770SOL    HW149334   8.361  12.059   8.357
49770SOL    HW249335   8.275  12.197   8.375
49771SOL     OW49336   8.531  12.156   7.535
49771SOL    HW149337   8.508  12.209   7.453
49771SOL    HW249338   8.612  12.100   7.516
49772SOL     OW49339   9.309  12.741   8.299
49772SOL    HW149340   9.238  12.729   8.229
49772SOL    HW249341   9.310  12.662   8.359
49773SOL     OW49342   7.669  12.486   9.292
49773SOL    HW149343   7.604  12.413   9.271
49773SOL    HW249344   7.673  12.500   9.390
49774SOL     OW49345   7.527  12.412   8.101
49774SOL    HW149346   7.526  12.365   8.189
49774SOL    HW249347   7.609  12.384   8.050
49775SOL     OW49348   8.120  12.563   9.072
49775SOL    HW149349   8.042  12.513   9.110
49775SOL    HW249350   8.117  12.658   9.103
49776SOL     OW49351   9.272  11.364   8.675
49776SOL    HW149352   9.268  11.274   8.719
49776SOL    HW249353   9.275  11.353   8.576
49777SOL     OW49354   7.876  11.596   7.968
49777SOL    HW149355   7.906  11.524   7.906
49777SOL    HW249356   7.837  11.556   8.051
49778SOL     OW49357   9.153  12.659   8.552
49778SOL    HW149358   9.060  12.634   8.525
49778SOL    HW249359   9.179  12.609   8.634
49779SOL     OW49360   7.765  11.719   8.728
49779SOL    HW149361   7.803  11.660   8.800
49779SOL    HW249362   7.805  11.693   8.640
49780SOL     OW49363   8.872  11.386   8.560
49780SOL    HW149364   8.924  11.321   8.615
49780SOL    HW249365   8.823  11.449   8.621
49781SOL     OW49366   8.449  11.206   8.602
49781SOL    HW149367   8.386  11.134   8.571
49781SOL    HW249368   8.542  11.170   8.602
49782SOL     OW49369   8.218  12.502   7.749
49782SOL    HW149370   8.172  12.415   7.766
49782SOL    HW249371   8.309  12.499   7.790
49783SOL     OW49372   8.066  12.739   8.732
49783SOL    HW149373   8.061  12.821   8.789
49783SOL    HW249374   8.155  12.736   8.687
49784SOL     OW49375   8.800  11.224   7.616
49784SOL    HW149376   8.835  11.183   7.532
49784SOL    HW249377   8.710  11.186   7.636
49785SOL     OW49378   8.748  11.625   8.139
49785SOL    HW149379   8.689  11.705   8.143
49785SOL    HW249380   8.763  11.590   8.232
49786SOL     OW49381   9.041  11.393   8.330
49786SOL    HW149382   8.957  11.392   8.384
49786SOL    HW249383   9.043  11.476   8.274
49787SOL     OW49384   7.487  12.249   7.748
49787SOL    HW149385   7.586  12.238   7.739
49787SOL    HW249386   7.447  12.163   7.780
49788SOL     OW49387   7.678  11.800   9.423
49788SOL    HW149388   7.585  11.798   9.460
49788SOL    HW249389   7.679  11.761   9.331
49789SOL     OW49390   7.673  11.447  10.306
49789SOL    HW149391   7.708  11.430  10.398
49789SOL    HW249392   7.585  11.402  10.294
49790SOL     OW49393   7.467  11.540   9.957
49790SOL    HW149394   7.385  11.583   9.996
49790SOL    HW249395   7.439  11.467   9.894
49791SOL     OW49396   8.017  12.447  10.475
49791SOL    HW149397   7.924  12.440  10.438
49791SOL    HW249398   8.028  12.536  10.519
49792SOL     OW49399   9.003  12.683  10.013
49792SOL    HW149400   8.946  12.667  10.094
49792SOL    HW249401   8.944  12.693   9.933
49793SOL     OW49402   8.583  11.875  10.027
49793SOL    HW149403   8.640  11.953  10.002
49793SOL    HW249404   8.523  11.901  10.103
49794SOL     OW49405   9.203  11.779   9.541
49794SOL    HW149406   9.191  11.766   9.442
49794SOL    HW249407   9.173  11.698   9.590
49795SOL     OW49408   8.216  12.316  10.333
49795SOL    HW149409   8.138  12.333  10.393
49795SOL    HW249410   8.250  12.403  10.297
49796SOL     OW49411   8.298  11.970  11.133
49796SOL    HW149412   8.294  12.046  11.198
49796SOL    HW249413   8.320  12.006  11.042
49797SOL     OW49414   8.133  12.184   9.975
49797SOL    HW149415   8.202  12.168  10.045
49797SOL    HW249416   8.060  12.241  10.013
49798SOL     OW49417   8.134  12.333  11.113
49798SOL    HW149418   8.194  12.412  11.127
49798SOL    HW249419   8.048  12.364  11.072
49799SOL     OW49420   7.783  12.607  10.371
49799SOL    HW149421   7.705  12.576  10.318
49799SOL    HW249422   7.841  12.665  10.314
49800SOL     OW49423   8.908  12.677  10.649
49800SOL    HW149424   8.932  12.771  10.675
49800SOL    HW249425   8.892  12.623  10.731
49801SOL     OW49426   7.886  11.564  10.809
49801SOL    HW149427   7.968  11.508  10.818
49801SOL    HW249428   7.805  11.506  10.813
49802SOL     OW49429   9.051  11.619  10.047
49802SOL    HW149430   8.977  11.665   9.997
49802SOL    HW249431   9.102  11.687  10.100
49803SOL     OW49432   8.575  12.513  11.000
49803SOL    HW149433   8.622  12.513  11.088
49803SOL    HW249434   8.527  12.426  10.989
49804SOL     OW49435   7.678  12.606   9.848
49804SOL    HW149436   7.652  12.702   9.848
49804SOL    HW249437   7.607  12.552   9.893
49805SOL     OW49438   7.688  12.263  10.196
49805SOL    HW149439   7.702  12.179  10.248
49805SOL    HW249440   7.633  12.327  10.251
49806SOL     OW49441   8.054  12.136   9.433
49806SOL    HW149442   8.061  12.220   9.379
49806SOL    HW249443   8.100  12.149   9.521
49807SOL     OW49444   9.042  11.286  10.790
49807SOL    HW149445   9.024  11.353  10.718
49807SOL    HW249446   9.039  11.332  10.879
49808SOL     OW49447   7.570  11.815   9.873
49808SOL    HW149448   7.525  11.727   9.890
49808SOL    HW249449   7.569  11.869   9.957
49809SOL     OW49450   7.475  12.768   9.427
49809SOL    HW149451   7.456  12.672   9.448
49809SOL    HW249452   7.442  12.826   9.502
49810SOL     OW49453   9.137  12.094   9.922
49810SOL    HW149454   9.232  12.065   9.930
49810SOL    HW249455   9.129  12.159   9.847
49811SOL     OW49456   9.089  12.280   9.742
49811SOL    HW149457   9.175  12.282   9.690
49811SOL    HW249458   9.103  12.327   9.830
49812SOL     OW49459   7.561  11.909  10.907
49812SOL    HW149460   7.649  11.896  10.952
49812SOL    HW249461   7.548  12.006  10.885
49813SOL     OW49462   8.061  12.537  10.036
49813SOL    HW149463   8.012  12.450  10.045
49813SOL    HW249464   8.038  12.580   9.949
49814SOL     OW49465   8.741  12.400  10.733
49814SOL    HW149466   8.778  12.327  10.675
49814SOL    HW249467   8.793  12.405  10.818
49815SOL     OW49468   8.257  11.176   9.812
49815SOL    HW149469   8.297  11.267   9.803
49815SOL    HW249470   8.157  11.184   9.818
49816SOL     OW49471   7.645  12.148  10.574
49816SOL    HW149472   7.734  12.103  10.560
49816SOL    HW249473   7.572  12.083  10.555
49817SOL     OW49474   8.973  12.171   9.500
49817SOL    HW149475   8.910  12.095   9.513
49817SOL    HW249476   9.021  12.189   9.586
49818SOL     OW49477   7.765  11.423  11.111
49818SOL    HW149478   7.836  11.494  11.117
49818SOL    HW249479   7.677  11.462  11.139
49819SOL     OW49480   8.914  12.589  10.263
49819SOL    HW149481   8.855  12.595  10.343
49819SOL    HW249482   8.899  12.501  10.217
49820SOL     OW49483   8.046  11.901   9.580
49820SOL    HW149484   8.070  11.970   9.512
49820SOL    HW249485   7.968  11.934   9.634
49821SOL     OW49486   8.729  11.517  10.254
49821SOL    HW149487   8.643  11.467  10.241
49821SOL    HW249488   8.791  11.463  10.310
49822SOL     OW49489   9.024  12.834   9.617
49822SOL    HW149490   9.113  12.880   9.620
49822SOL    HW249491   9.003  12.810   9.522
49823SOL     OW49492   8.255  11.777  10.775
49823SOL    HW149493   8.208  11.774  10.864
49823SOL    HW249494   8.204  11.722  10.709
49824SOL     OW49495   8.842  11.641  10.984
49824SOL    HW149496   8.822  11.684  11.072
49824SOL    HW249497   8.920  11.579  10.993
49825SOL     OW49498   8.421  12.062  10.882
49825SOL    HW149499   8.467  11.978  10.853
49825SOL    HW249500   8.365  12.096  10.807
49826SOL     OW49501   8.439  11.582  10.552
49826SOL    HW149502   8.362  11.616  10.606
49826SOL    HW249503   8.405  11.531  10.473
49827SOL     OW49504   8.489  11.873   9.739
49827SOL    HW149505   8.515  11.869   9.835
49827SOL    HW249506   8.404  11.822   9.725
49828SOL     OW49507   7.524  11.983  10.099
49828SOL    HW149508   7.623  11.971  10.108
49828SOL    HW249509   7.500  12.078  10.120
49829SOL     OW49510   8.313  11.520   9.505
49829SOL    HW149511   8.372  11.583   9.456
49829SOL    HW249512   8.332  11.426   9.476
49830SOL     OW49513   9.167  11.757  11.141
49830SOL    HW149514   9.141  11.846  11.105
49830SOL    HW249515   9.165  11.689  11.068
49831SOL     OW49516   8.810  12.316   9.855
49831SOL    HW149517   8.893  12.287   9.807
49831SOL    HW249518   8.761  12.383   9.799
49832SOL     OW49519   7.998  11.368  10.195
49832SOL    HW149520   7.993  11.363  10.295
49832SOL    HW249521   8.000  11.464  10.166
49833SOL     OW49522   8.456  12.628   9.787
49833SOL    HW149523   8.410  12.700   9.735
49833SOL    HW249524   8.452  12.648   9.885
49834SOL     OW49525   9.243  12.238  10.183
49834SOL    HW149526   9.181  12.223  10.107
49834SOL    HW249527   9.191  12.249  10.268
49835SOL     OW49528   8.675  12.722  10.816
49835SOL    HW149529   8.681  12.645  10.880
49835SOL    HW249530   8.623  12.696  10.736
49836SOL     OW49531   7.769  12.115   9.552
49836SOL    HW149532   7.851  12.154   9.510
49836SOL    HW249533   7.742  12.033   9.503
49837SOL     OW49534   8.906  11.907  10.038
49837SOL    HW149535   8.901  11.842  10.113
49837SOL    HW249536   8.986  11.966  10.051
49838SOL     OW49537   7.909  12.438  11.037
49838SOL    HW149538   7.859  12.439  10.951
49838SOL    HW249539   7.846  12.420  11.113
49839SOL     OW49540   7.650  11.457  10.808
49839SOL    HW149541   7.570  11.517  10.795
49839SOL    HW249542   7.640  11.408  10.894
49840SOL     OW49543   9.080  12.549   9.391
49840SOL    HW149544   9.048  12.643   9.381
49840SOL    HW249545   9.004  12.486   9.379
49841SOL     OW49546   8.848  11.279   9.736
49841SOL    HW149547   8.824  11.242   9.646
49841SOL    HW249548   8.947  11.295   9.740
49842SOL     OW49549   7.830  11.872   9.790
49842SOL    HW149550   7.875  11.782   9.787
49842SOL    HW249551   7.736  11.861   9.823
49843SOL     OW49552   8.995  11.394  11.039
49843SOL    HW149553   8.990  11.431  11.131
49843SOL    HW249554   8.923  11.325  11.027
49844SOL     OW49555   8.062  11.294   9.427
49844SOL    HW149556   8.160  11.272   9.434
49844SOL    HW249557   8.031  11.277   9.334
49845SOL     OW49558   8.229  11.436  11.059
49845SOL    HW149559   8.296  11.375  11.102
49845SOL    HW249560   8.156  11.455  11.124
49846SOL     OW49561   8.799  11.762  10.743
49846SOL    HW149562   8.827  11.719  10.828
49846SOL    HW249563   8.824  11.858  10.744
49847SOL     OW49564   8.251  12.574  10.234
49847SOL    HW149565   8.341  12.588  10.192
49847SOL    HW249566   8.180  12.576  10.163
49848SOL     OW49567   8.370  11.675  10.209
49848SOL    HW149568   8.345  11.666  10.113
49848SOL    HW249569   8.418  11.593  10.240
49849SOL     OW49570   7.987  11.236   9.822
49849SOL    HW149571   7.906  11.237   9.880
49849SOL    HW249572   7.990  11.319   9.767
49850SOL     OW49573   8.882  12.360   9.351
49850SOL    HW149574   8.914  12.284   9.408
49850SOL    HW249575   8.790  12.387   9.381
49851SOL     OW49576   7.745  11.207   9.481
49851SOL    HW149577   7.794  11.291   9.460
49851SOL    HW249578   7.807  11.142   9.526
49852SOL     OW49579   8.383  11.408   9.790
49852SOL    HW149580   8.335  11.449   9.712
49852SOL    HW249581   8.482  11.406   9.771
49853SOL     OW49582   8.524  11.855  10.774
49853SOL    HW149583   8.444  11.794  10.777
49853SOL    HW249584   8.605  11.802  10.750
49854SOL     OW49585   8.675  12.742  10.103
49854SOL    HW149586   8.696  12.816  10.038
49854SOL    HW249587   8.743  12.742  10.176
49855SOL     OW49588   7.907  12.324  10.051
49855SOL    HW149589   7.836  12.297  10.116
49855SOL    HW249590   7.881  12.296   9.958
49856SOL     OW49591   8.480  11.721   9.326
49856SOL    HW149592   8.439  11.803   9.287
49856SOL    HW249593   8.544  11.747   9.399
49857SOL     OW49594   7.526  11.728  10.696
49857SOL    HW149595   7.618  11.727  10.655
49857SOL    HW249596   7.520  11.802  10.763
49858SOL     OW49597   8.009  11.394  10.457
49858SOL    HW149598   8.047  11.310  10.494
49858SOL    HW249599   7.921  11.413  10.501
49859SOL     OW49600   8.314  11.626   9.952
49859SOL    HW149601   8.282  11.698   9.890
49859SOL    HW249602   8.338  11.545   9.899
49860SOL     OW49603   8.465  11.211  10.063
49860SOL    HW149604   8.393  11.216   9.994
49860SOL    HW249605   8.441  11.142  10.132
49861SOL     OW49606   8.877  12.345  10.177
49861SOL    HW149607   8.822  12.261  10.170
49861SOL    HW249608   8.903  12.374  10.085
49862SOL     OW49609   8.914  11.762  10.302
49862SOL    HW149610   8.884  11.667  10.309
49862SOL    HW249611   8.987  11.778  10.368
49863SOL     OW49612   9.305  12.005   9.687
49863SOL    HW149613   9.347  11.941   9.751
49863SOL    HW249614   9.267  11.954   9.609
49864SOL     OW49615   7.936  12.557   9.484
49864SOL    HW149616   7.849  12.542   9.531
49864SOL    HW249617   7.919  12.583   9.389
49865SOL     OW49618   9.112  12.452   9.967
49865SOL    HW149619   9.211  12.460   9.981
49865SOL    HW249620   9.067  12.536   9.998
49866SOL     OW49621   8.838  11.747   9.388
49866SOL    HW149622   8.784  11.726   9.469
49866SOL    HW249623   8.929  11.706   9.397
49867SOL     OW49624   7.975  11.428   9.638
49867SOL    HW149625   8.002  11.369   9.563
49867SOL    HW249626   7.975  11.523   9.607
49868SOL     OW49627   9.202  12.395  10.898
49868SOL    HW149628   9.293  12.356  10.885
49868SOL    HW249629   9.210  12.491  10.922
49869SOL     OW49630   8.512  12.519  10.650
49869SOL    HW149631   8.432  12.496  10.705
49869SOL    HW249632   8.595  12.493  10.699
49870SOL     OW49633   8.559  12.367  10.410
49870SOL    HW149634   8.519  12.411  10.491
49870SOL    HW249635   8.518  12.404  10.327
49871SOL     OW49636   9.086  12.271  10.389
49871SOL    HW149637   9.091  12.352  10.448
49871SOL    HW249638   9.000  12.273  10.338
49872SOL     OW49639   8.363  11.261  10.712
49872SOL    HW149640   8.388  11.241  10.617
49872SOL    HW249641   8.435  11.317  10.754
49873SOL     OW49642   8.428  12.288  11.029
49873SOL    HW149643   8.329  12.294  11.039
49873SOL    HW249644   8.451  12.208  10.973
49874SOL     OW49645   8.153  12.222   9.678
49874SOL    HW149646   8.139  12.229   9.777
49874SOL    HW249647   8.237  12.171   9.660
49875SOL     OW49648   7.858  11.985  10.561
49875SOL    HW149649   7.944  11.997  10.611
49875SOL    HW249650   7.816  11.898  10.588
49876SOL     OW49651   8.722  11.558  10.572
49876SOL    HW149652   8.743  11.632  10.636
49876SOL    HW249653   8.633  11.575  10.529
49877SOL     OW49654   7.512  12.736  10.641
49877SOL    HW149655   7.466  12.818  10.607
49877SOL    HW249656   7.610  12.755  10.650
49878SOL     OW49657   7.815  12.272   9.811
49878SOL    HW149658   7.808  12.355   9.755
49878SOL    HW249659   7.819  12.192   9.751
49879SOL     OW49660   8.014  11.709  10.175
49879SOL    HW149661   8.026  11.775  10.101
49879SOL    HW249662   8.060  11.743  10.258
49880SOL     OW49663   8.700  12.520   9.698
49880SOL    HW149664   8.750  12.597   9.738
49880SOL    HW249665   8.605  12.522   9.730
49881SOL     OW49666   8.720  12.617  10.452
49881SOL    HW149667   8.767  12.630  10.539
49881SOL    HW249668   8.654  12.543  10.461
49882SOL     OW49669   9.030  11.811   9.782
49882SOL    HW149670   8.999  11.872   9.855
49882SOL    HW249671   9.080  11.863   9.713
49883SOL     OW49672   7.802  12.682  10.639
49883SOL    HW149673   7.781  12.638  10.552
49883SOL    HW249674   7.899  12.708  10.642
49884SOL     OW49675   7.850  11.923  10.908
49884SOL    HW149676   7.918  11.978  10.861
49884SOL    HW249677   7.890  11.835  10.935
49885SOL     OW49678   9.035  11.951  10.980
49885SOL    HW149679   8.943  11.989  10.975
49885SOL    HW249680   9.095  11.998  10.915
49886SOL     OW49681   8.461  11.277  11.080
49886SOL    HW149682   8.467  11.362  11.028
49886SOL    HW249683   8.493  11.201  11.023
49887SOL     OW49684   7.952  11.222  11.050
49887SOL    HW149685   7.910  11.165  10.980
49887SOL    HW249686   7.886  11.291  11.082
49888SOL     OW49687   8.021  12.042  10.339
49888SOL    HW149688   8.065  12.131  10.330
49888SOL    HW249689   7.958  12.042  10.416
49889SOL     OW49690   8.808  12.034  10.355
49889SOL    HW149691   8.733  12.034  10.289
49889SOL    HW249692   8.845  11.942  10.364
49890SOL     OW49693   8.657  11.697   9.585
49890SOL    HW149694   8.670  11.613   9.639
49890SOL    HW249695   8.628  11.771   9.645
49891SOL     OW49696   7.755  11.385  10.541
49891SOL    HW149697   7.732  11.422  10.631
49891SOL    HW249698   7.725  11.290  10.535
49892SOL     OW49699   7.485  12.482  10.592
49892SOL    HW149700   7.538  12.433  10.660
49892SOL    HW249701   7.507  12.580  10.597
49893SOL     OW49702   8.180  11.806  10.374
49893SOL    HW149703   8.239  11.780  10.298
49893SOL    HW249704   8.152  11.902  10.363
49894SOL     OW49705   9.176  12.107  11.164
49894SOL    HW149706   9.130  12.100  11.075
49894SOL    HW249707   9.114  12.151  11.230
49895SOL     OW49708   7.755  11.235   9.928
49895SOL    HW149709   7.744  11.329   9.961
49895SOL    HW249710   7.750  11.172  10.005
49896SOL     OW49711   9.070  11.539   9.684
49896SOL    HW149712   9.072  11.463   9.748
49896SOL    HW249713   9.022  11.616   9.724
49897SOL     OW49714   8.471  11.938  10.276
49897SOL    HW149715   8.486  11.959  10.372
49897SOL    HW249716   8.441  11.843  10.267
49898SOL     OW49717   9.307  12.690  10.915
49898SOL    HW149718   9.321  12.717  10.820
49898SOL    HW249719   9.390  12.712  10.968
49899SOL     OW49720   7.798  12.070  11.114
49899SOL    HW149721   7.874  12.114  11.162
49899SOL    HW249722   7.833  12.023  11.032
49900SOL     OW49723   8.988  11.446   9.435
49900SOL    HW149724   8.927  11.371   9.458
49900SOL    HW249725   9.010  11.498   9.518
49901SOL     OW49726   8.751  12.010   9.352
49901SOL    HW149727   8.785  11.917   9.367
49901SOL    HW249728   8.769  12.037   9.257
49902SOL     OW49729   8.516  12.505  10.159
49902SOL    HW149730   8.523  12.421  10.104
49902SOL    HW249731   8.578  12.574  10.123
49903SOL     OW49732   7.767  11.982  10.259
49903SOL    HW149733   7.860  12.018  10.264
49903SOL    HW249734   7.761  11.897  10.311
49904SOL     OW49735   7.787  11.681  10.316
49904SOL    HW149736   7.735  11.598  10.299
49904SOL    HW249737   7.864  11.686  10.252
49905SOL     OW49738   8.586  11.552  10.988
49905SOL    HW149739   8.541  11.615  11.052
49905SOL    HW249740   8.679  11.583  10.971
49906SOL     OW49741   8.608  11.379  10.787
49906SOL    HW149742   8.608  11.443  10.864
49906SOL    HW249743   8.636  11.427  10.704
49907SOL     OW49744   7.456  12.498   9.510
49907SOL    HW149745   7.363  12.519   9.479
49907SOL    HW249746   7.466  12.399   9.523
49908SOL     OW49747   7.952  12.740  10.220
49908SOL    HW149748   8.018  12.814  10.229
49908SOL    HW249749   7.996  12.661  10.178
49909SOL     OW49750   8.450  11.968  10.548
49909SOL    HW149751   8.491  11.936  10.634
49909SOL    HW249752   8.354  11.941  10.545
49910SOL     OW49753   7.488  11.716  10.424
49910SOL    HW149754   7.573  11.683  10.383
49910SOL    HW249755   7.501  11.731  10.522
49911SOL     OW49756   7.637  11.692  11.032
49911SOL    HW149757   7.696  11.652  10.962
49911SOL    HW249758   7.579  11.763  10.991
49912SOL     OW49759   8.817  12.122  10.970
49912SOL    HW149760   8.856  12.211  10.990
49912SOL    HW249761   8.827  12.102  10.873
49913SOL     OW49762   8.263  11.744   9.635
49913SOL    HW149763   8.270  11.655   9.589
49913SOL    HW249764   8.169  11.778   9.627
49914SOL     OW49765   9.105  11.776  10.516
49914SOL    HW149766   9.067  11.707  10.578
49914SOL    HW249767   9.187  11.740  10.472
49915SOL     OW49768   7.700  12.736  11.054
49915SOL    HW149769   7.670  12.793  11.130
49915SOL    HW249770   7.693  12.639  11.080
49916SOL     OW49771   8.119  11.636  10.579
49916SOL    HW149772   8.085  11.547  10.549
49916SOL    HW249773   8.145  11.690  10.499
49917SOL     OW49774   7.921  11.672   9.501
49917SOL    HW149775   7.982  11.752   9.505
49917SOL    HW249776   7.826  11.703   9.508
49918SOL     OW49777   7.607  12.309  10.776
49918SOL    HW149778   7.629  12.248  10.852
49918SOL    HW249779   7.617  12.260  10.690
49919SOL     OW49780   8.795  12.231  10.544
49919SOL    HW149781   8.819  12.168  10.470
49919SOL    HW249782   8.705  12.271  10.526
49920SOL     OW49783   8.750  12.027   9.619
49920SOL    HW149784   8.664  11.996   9.661
49920SOL    HW249785   8.746  12.013   9.520
49921SOL     OW49786   8.700  12.903  10.438
49921SOL    HW149787   8.784  12.908  10.384
49921SOL    HW249788   8.677  12.807  10.456
49922SOL     OW49789   7.531  12.430  10.332
49922SOL    HW149790   7.526  12.429  10.432
49922SOL    HW249791   7.448  12.389  10.294
49923SOL     OW49792   9.174  11.307   9.833
49923SOL    HW149793   9.247  11.290   9.766
49923SOL    HW249794   9.143  11.220   9.871
49924SOL     OW49795   7.578  12.966  11.161
49924SOL    HW149796   7.537  12.892  11.214
49924SOL    HW249797   7.642  13.017  11.219
49925SOL     OW49798   8.728  12.099   9.982
49925SOL    HW149799   8.788  12.018   9.984
49925SOL    HW249800   8.768  12.168   9.922
49926SOL     OW49801   8.278  12.445  10.732
49926SOL    HW149802   8.273  12.478  10.827
49926SOL    HW249803   8.192  12.464  10.686
49927SOL     OW49804   8.120  12.788   9.464
49927SOL    HW149805   8.129  12.798   9.365
49927SOL    HW249806   8.080  12.699   9.485
49928SOL     OW49807   9.289  11.347  10.273
49928SOL    HW149808   9.328  11.262  10.237
49928SOL    HW249809   9.191  11.349  10.254
49929SOL     OW49810   7.711  11.498  10.030
49929SOL    HW149811   7.632  11.549   9.996
49929SOL    HW249812   7.702  11.483  10.128
49930SOL     OW49813   8.642  12.784   9.341
49930SOL    HW149814   8.648  12.691   9.378
49930SOL    HW249815   8.583  12.784   9.261
49931SOL     OW49816   8.270  12.174  10.682
49931SOL    HW149817   8.310  12.173  10.590
49931SOL    HW249818   8.280  12.266  10.722
49932SOL     OW49819   8.364  12.082   9.601
49932SOL    HW149820   8.427  12.120   9.533
49932SOL    HW249821   8.404  11.999   9.640
49933SOL     OW49822   7.820  12.460  10.800
49933SOL    HW149823   7.807  12.553  10.766
49933SOL    HW249824   7.736  12.408  10.787
49934SOL     OW49825   9.062  12.464  10.599
49934SOL    HW149826   9.122  12.467  10.679
49934SOL    HW249827   8.987  12.528  10.612
49935SOL     OW49828   8.487  12.270  10.006
49935SOL    HW149829   8.417  12.223  10.060
49935SOL    HW249830   8.546  12.202   9.963
49936SOL     OW49831   8.462  11.408  10.281
49936SOL    HW149832   8.454  11.372  10.188
49936SOL    HW249833   8.460  11.332  10.346
49937SOL     OW49834   8.038  12.659   9.801
49937SOL    HW149835   8.080  12.601   9.731
49937SOL    HW249836   7.994  12.738   9.757
49938SOL     OW49837   9.157  11.557  10.691
49938SOL    HW149838   9.230  11.626  10.695
49938SOL    HW249839   9.185  11.482  10.632
49939SOL     OW49840   7.703  12.520   9.600
49939SOL    HW149841   7.607  12.521   9.573
49939SOL    HW249842   7.715  12.573   9.684
49940SOL     OW49843   7.553  12.185  11.036
49940SOL    HW149844   7.476  12.152  11.090
49940SOL    HW249845   7.638  12.155  11.078
49941SOL     OW49846   8.120  11.375  10.799
49941SOL    HW149847   8.210  11.359  10.759
49941SOL    HW249848   8.128  11.380  10.898
49942SOL     OW49849   7.523  11.517   9.343
49942SOL    HW149850   7.431  11.489   9.314
49942SOL    HW249851   7.554  11.594   9.287
49943SOL     OW49852   8.888  12.028  10.708
49943SOL    HW149853   8.831  12.080  10.645
49943SOL    HW249854   8.984  12.040  10.684
49944SOL     OW49855   7.520  11.338   9.628
49944SOL    HW149856   7.503  11.421   9.574
49944SOL    HW249857   7.610  11.301   9.606
49945SOL     OW49858   8.631  12.507   9.429
49945SOL    HW149859   8.532  12.496   9.431
49945SOL    HW249860   8.665  12.522   9.522
49946SOL     OW49861   8.061  12.014  10.741
49946SOL    HW149862   8.117  12.095  10.724
49946SOL    HW249863   8.120  11.934  10.744
49947SOL     OW49864   8.164  11.737  11.018
49947SOL    HW149865   8.183  11.802  11.092
49947SOL    HW249866   8.224  11.657  11.027
49948SOL     OW49867   8.898  12.392  10.943
49948SOL    HW149868   8.889  12.382  11.042
49948SOL    HW249869   8.994  12.385  10.917
49949SOL     OW49870   9.122  12.055  10.564
49949SOL    HW149871   9.095  11.966  10.527
49949SOL    HW249872   9.123  12.123  10.491
49950SOL     OW49873   8.673  11.497   9.759
49950SOL    HW149874   8.738  11.423   9.748
49950SOL    HW249875   8.693  11.547   9.843
49951SOL     OW49876   8.042  11.917   9.962
49951SOL    HW149877   8.092  12.002   9.943
49951SOL    HW249878   7.954  11.919   9.914
49952SOL     OW49879   9.225  11.514  10.952
49952SOL    HW149880   9.208  11.545  10.858
49952SOL    HW249881   9.141  11.477  10.990
49953SOL     OW49882   9.178  12.106  10.827
49953SOL    HW149883   9.216  12.197  10.842
49953SOL    HW249884   9.170  12.089  10.728
49954SOL     OW49885   8.307  12.546   9.326
49954SOL    HW149886   8.261  12.561   9.414
49954SOL    HW249887   8.351  12.631   9.296
49955SOL     OW49888   8.307  12.128  10.171
49955SOL    HW149889   8.361  12.059  10.219
49955SOL    HW249890   8.275  12.197  10.237
49956SOL     OW49891   8.531  12.156   9.397
49956SOL    HW149892   8.508  12.209   9.315
49956SOL    HW249893   8.612  12.100   9.378
49957SOL     OW49894   9.309  12.741  10.161
49957SOL    HW149895   9.238  12.729  10.091
49957SOL    HW249896   9.310  12.662  10.221
49958SOL     OW49897   7.669  12.486  11.154
49958SOL    HW149898   7.604  12.413  11.133
49958SOL    HW249899   7.673  12.500  11.252
49959SOL     OW49900   7.527  12.412   9.963
49959SOL    HW149901   7.526  12.365  10.051
49959SOL    HW249902   7.609  12.384   9.912
49960SOL     OW49903   8.120  12.563  10.934
49960SOL    HW149904   8.042  12.513  10.972
49960SOL    HW249905   8.117  12.658  10.965
49961SOL     OW49906   9.272  11.364  10.537
49961SOL    HW149907   9.268  11.274  10.581
49961SOL    HW249908   9.275  11.353  10.438
49962SOL     OW49909   7.876  11.596   9.830
49962SOL    HW149910   7.906  11.524   9.768
49962SOL    HW249911   7.837  11.556   9.913
49963SOL     OW49912   9.153  12.659  10.414
49963SOL    HW149913   9.060  12.634  10.387
49963SOL    HW249914   9.179  12.609  10.496
49964SOL     OW49915   7.765  11.719  10.590
49964SOL    HW149916   7.803  11.660  10.662
49964SOL    HW249917   7.805  11.693  10.502
49965SOL     OW49918   8.872  11.386  10.422
49965SOL    HW149919   8.924  11.321  10.477
49965SOL    HW249920   8.823  11.449  10.483
49966SOL     OW49921   8.449  11.206  10.464
49966SOL    HW149922   8.386  11.134  10.433
49966SOL    HW249923   8.542  11.170  10.464
49967SOL     OW49924   8.218  12.502   9.611
49967SOL    HW149925   8.172  12.415   9.628
49967SOL    HW249926   8.309  12.499   9.652
49968SOL     OW49927   8.066  12.739  10.594
49968SOL    HW149928   8.061  12.821  10.651
49968SOL    HW249929   8.155  12.736  10.549
49969SOL     OW49930   8.800  11.224   9.478
49969SOL    HW149931   8.835  11.183   9.394
49969SOL    HW249932   8.710  11.186   9.498
49970SOL     OW49933   8.748  11.625  10.001
49970SOL    HW149934   8.689  11.705  10.005
49970SOL    HW249935   8.763  11.590  10.094
49971SOL     OW49936   9.041  11.393  10.192
49971SOL    HW149937   8.957  11.392  10.246
49971SOL    HW249938   9.043  11.476  10.136
49972SOL     OW49939   7.487  12.249   9.610
49972SOL    HW149940   7.586  12.238   9.601
49972SOL    HW249941   7.447  12.163   9.642
49973SOL     OW49942   7.678  11.800  11.285
49973SOL    HW149943   7.585  11.798  11.322
49973SOL    HW249944   7.679  11.761  11.193
49974SOL     OW49945   7.673  11.447  12.168
49974SOL    HW149946   7.708  11.430  12.260
49974SOL    HW249947   7.585  11.402  12.156
49975SOL     OW49948   7.467  11.540  11.819
49975SOL    HW149949   7.385  11.583  11.858
49975SOL    HW249950   7.439  11.467  11.756
49976SOL     OW49951   8.017  12.447  12.337
49976SOL    HW149952   7.924  12.440  12.300
49976SOL    HW249953   8.028  12.536  12.381
49977SOL     OW49954   9.003  12.683  11.875
49977SOL    HW149955   8.946  12.667  11.956
49977SOL    HW249956   8.944  12.693  11.795
49978SOL     OW49957   8.583  11.875  11.889
49978SOL    HW149958   8.640  11.953  11.864
49978SOL    HW249959   8.523  11.901  11.965
49979SOL     OW49960   9.203  11.779  11.403
49979SOL    HW149961   9.191  11.766  11.304
49979SOL    HW249962   9.173  11.698  11.452
49980SOL     OW49963   8.216  12.316  12.195
49980SOL    HW149964   8.138  12.333  12.255
49980SOL    HW249965   8.250  12.403  12.159
49981SOL     OW49966   8.133  12.184  11.837
49981SOL    HW149967   8.202  12.168  11.907
49981SOL    HW249968   8.060  12.241  11.875
49982SOL     OW49969   7.783  12.607  12.233
49982SOL    HW149970   7.705  12.576  12.180
49982SOL    HW249971   7.841  12.665  12.176
49983SOL     OW49972   8.908  12.677  12.511
49983SOL    HW149973   8.932  12.771  12.537
49983SOL    HW249974   8.892  12.623  12.593
49984SOL     OW49975   7.886  11.564  12.671
49984SOL    HW149976   7.968  11.508  12.680
49984SOL    HW249977   7.805  11.506  12.675
49985SOL     OW49978   9.051  11.619  11.909
49985SOL    HW149979   8.977  11.665  11.859
49985SOL    HW249980   9.102  11.687  11.962
49986SOL     OW49981   7.678  12.606  11.710
49986SOL    HW149982   7.652  12.702  11.710
49986SOL    HW249983   7.607  12.552  11.755
49987SOL     OW49984   7.688  12.263  12.058
49987SOL    HW149985   7.702  12.179  12.110
49987SOL    HW249986   7.633  12.327  12.113
49988SOL     OW49987   8.054  12.136  11.295
49988SOL    HW149988   8.061  12.220  11.241
49988SOL    HW249989   8.100  12.149  11.383
49989SOL     OW49990   9.042  11.286  12.652
49989SOL    HW149991   9.024  11.353  12.580
49989SOL    HW249992   9.039  11.332  12.741
49990SOL     OW49993   7.570  11.815  11.735
49990SOL    HW149994   7.525  11.727  11.752
49990SOL    HW249995   7.569  11.869  11.819
49991SOL     OW49996   7.475  12.768  11.289
49991SOL    HW149997   7.456  12.672  11.310
49991SOL    HW249998   7.442  12.826  11.364
49992SOL     OW49999   9.137  12.094  11.784
49992SOL    HW150000   9.232  12.065  11.792
49992SOL    HW250001   9.129  12.159  11.709
49993SOL     OW50002   9.089  12.280  11.604
49993SOL    HW150003   9.175  12.282  11.552
49993SOL    HW250004   9.103  12.327  11.692
49994SOL     OW50005   7.561  11.909  12.769
49994SOL    HW150006   7.649  11.896  12.814
49994SOL    HW250007   7.548  12.006  12.747
49995SOL     OW50008   8.061  12.537  11.898
49995SOL    HW150009   8.012  12.450  11.907
49995SOL    HW250010   8.038  12.580  11.811
49996SOL     OW50011   8.741  12.400  12.595
49996SOL    HW150012   8.778  12.327  12.537
49996SOL    HW250013   8.793  12.405  12.680
49997SOL     OW50014   8.257  11.176  11.674
49997SOL    HW150015   8.297  11.267  11.665
49997SOL    HW250016   8.157  11.184  11.680
49998SOL     OW50017   7.645  12.148  12.436
49998SOL    HW150018   7.734  12.103  12.422
49998SOL    HW250019   7.572  12.083  12.417
49999SOL     OW50020   8.973  12.171  11.362
49999SOL    HW150021   8.910  12.095  11.375
49999SOL    HW250022   9.021  12.189  11.448
50000SOL     OW50023   8.914  12.589  12.125
50000SOL    HW150024   8.855  12.595  12.205
50000SOL    HW250025   8.899  12.501  12.079
50001SOL     OW50026   8.046  11.901  11.442
50001SOL    HW150027   8.070  11.970  11.374
50001SOL    HW250028   7.968  11.934  11.496
50002SOL     OW50029   8.729  11.517  12.116
50002SOL    HW150030   8.643  11.467  12.103
50002SOL    HW250031   8.791  11.463  12.172
50003SOL     OW50032   9.024  12.834  11.479
50003SOL    HW150033   9.113  12.880  11.482
50003SOL    HW250034   9.003  12.810  11.384
50004SOL     OW50035   8.255  11.777  12.637
50004SOL    HW150036   8.208  11.774  12.726
50004SOL    HW250037   8.204  11.722  12.571
50005SOL     OW50038   8.421  12.062  12.744
50005SOL    HW150039   8.467  11.978  12.715
50005SOL    HW250040   8.365  12.096  12.669
50006SOL     OW50041   8.439  11.582  12.414
50006SOL    HW150042   8.362  11.616  12.468
50006SOL    HW250043   8.405  11.531  12.335
50007SOL     OW50044   8.489  11.873  11.601
50007SOL    HW150045   8.515  11.869  11.697
50007SOL    HW250046   8.404  11.822  11.587
50008SOL     OW50047   7.524  11.983  11.961
50008SOL    HW150048   7.623  11.971  11.970
50008SOL    HW250049   7.500  12.078  11.982
50009SOL     OW50050   8.313  11.520  11.367
50009SOL    HW150051   8.372  11.583  11.318
50009SOL    HW250052   8.332  11.426  11.338
50010SOL     OW50053   8.810  12.316  11.717
50010SOL    HW150054   8.893  12.287  11.669
50010SOL    HW250055   8.761  12.383  11.661
50011SOL     OW50056   7.998  11.368  12.057
50011SOL    HW150057   7.993  11.363  12.157
50011SOL    HW250058   8.000  11.464  12.028
50012SOL     OW50059   8.456  12.628  11.649
50012SOL    HW150060   8.410  12.700  11.597
50012SOL    HW250061   8.452  12.648  11.747
50013SOL     OW50062   9.243  12.238  12.045
50013SOL    HW150063   9.181  12.223  11.969
50013SOL    HW250064   9.191  12.249  12.130
50014SOL     OW50065   8.675  12.722  12.678
50014SOL    HW150066   8.681  12.645  12.742
50014SOL    HW250067   8.623  12.696  12.598
50015SOL     OW50068   7.769  12.115  11.414
50015SOL    HW150069   7.851  12.154  11.372
50015SOL    HW250070   7.742  12.033  11.365
50016SOL     OW50071   8.906  11.907  11.900
50016SOL    HW150072   8.901  11.842  11.975
50016SOL    HW250073   8.986  11.966  11.913
50017SOL     OW50074   7.650  11.457  12.670
50017SOL    HW150075   7.570  11.517  12.657
50017SOL    HW250076   7.640  11.408  12.756
50018SOL     OW50077   9.080  12.549  11.253
50018SOL    HW150078   9.048  12.643  11.243
50018SOL    HW250079   9.004  12.486  11.241
50019SOL     OW50080   8.848  11.279  11.598
50019SOL    HW150081   8.824  11.242  11.508
50019SOL    HW250082   8.947  11.295  11.602
50020SOL     OW50083   7.830  11.872  11.652
50020SOL    HW150084   7.875  11.782  11.649
50020SOL    HW250085   7.736  11.861  11.685
50021SOL     OW50086   8.062  11.294  11.289
50021SOL    HW150087   8.160  11.272  11.296
50021SOL    HW250088   8.031  11.277  11.196
50022SOL     OW50089   8.799  11.762  12.605
50022SOL    HW150090   8.827  11.719  12.690
50022SOL    HW250091   8.824  11.858  12.606
50023SOL     OW50092   8.251  12.574  12.096
50023SOL    HW150093   8.341  12.588  12.054
50023SOL    HW250094   8.180  12.576  12.025
50024SOL     OW50095   8.370  11.675  12.071
50024SOL    HW150096   8.345  11.666  11.975
50024SOL    HW250097   8.418  11.593  12.102
50025SOL     OW50098   7.987  11.236  11.684
50025SOL    HW150099   7.906  11.237  11.742
50025SOL    HW250100   7.990  11.319  11.629
50026SOL     OW50101   8.882  12.360  11.213
50026SOL    HW150102   8.914  12.284  11.270
50026SOL    HW250103   8.790  12.387  11.243
50027SOL     OW50104   7.745  11.207  11.343
50027SOL    HW150105   7.794  11.291  11.322
50027SOL    HW250106   7.807  11.142  11.388
50028SOL     OW50107   8.383  11.408  11.652
50028SOL    HW150108   8.335  11.449  11.574
50028SOL    HW250109   8.482  11.406  11.633
50029SOL     OW50110   8.524  11.855  12.636
50029SOL    HW150111   8.444  11.794  12.639
50029SOL    HW250112   8.605  11.802  12.612
50030SOL     OW50113   8.675  12.742  11.965
50030SOL    HW150114   8.696  12.816  11.900
50030SOL    HW250115   8.743  12.742  12.038
50031SOL     OW50116   7.907  12.324  11.913
50031SOL    HW150117   7.836  12.297  11.978
50031SOL    HW250118   7.881  12.296  11.820
50032SOL     OW50119   8.480  11.721  11.188
50032SOL    HW150120   8.439  11.803  11.149
50032SOL    HW250121   8.544  11.747  11.261
50033SOL     OW50122   7.526  11.728  12.558
50033SOL    HW150123   7.618  11.727  12.517
50033SOL    HW250124   7.520  11.802  12.625
50034SOL     OW50125   8.009  11.394  12.319
50034SOL    HW150126   8.047  11.310  12.356
50034SOL    HW250127   7.921  11.413  12.363
50035SOL     OW50128   8.314  11.626  11.814
50035SOL    HW150129   8.282  11.698  11.752
50035SOL    HW250130   8.338  11.545  11.761
50036SOL     OW50131   8.465  11.211  11.925
50036SOL    HW150132   8.393  11.216  11.856
50036SOL    HW250133   8.441  11.142  11.994
50037SOL     OW50134   8.877  12.345  12.039
50037SOL    HW150135   8.822  12.261  12.032
50037SOL    HW250136   8.903  12.374  11.947
50038SOL     OW50137   8.914  11.762  12.164
50038SOL    HW150138   8.884  11.667  12.171
50038SOL    HW250139   8.987  11.778  12.230
50039SOL     OW50140   9.305  12.005  11.549
50039SOL    HW150141   9.347  11.941  11.613
50039SOL    HW250142   9.267  11.954  11.471
50040SOL     OW50143   7.936  12.557  11.346
50040SOL    HW150144   7.849  12.542  11.393
50040SOL    HW250145   7.919  12.583  11.251
50041SOL     OW50146   9.112  12.452  11.829
50041SOL    HW150147   9.211  12.460  11.843
50041SOL    HW250148   9.067  12.536  11.860
50042SOL     OW50149   8.838  11.747  11.250
50042SOL    HW150150   8.784  11.726  11.331
50042SOL    HW250151   8.929  11.706  11.259
50043SOL     OW50152   7.975  11.428  11.500
50043SOL    HW150153   8.002  11.369  11.425
50043SOL    HW250154   7.975  11.523  11.469
50044SOL     OW50155   9.202  12.395  12.760
50044SOL    HW150156   9.293  12.356  12.747
50044SOL    HW250157   9.210  12.491  12.784
50045SOL     OW50158   8.512  12.519  12.512
50045SOL    HW150159   8.432  12.496  12.567
50045SOL    HW250160   8.595  12.493  12.561
50046SOL     OW50161   8.559  12.367  12.272
50046SOL    HW150162   8.519  12.411  12.353
50046SOL    HW250163   8.518  12.404  12.189
50047SOL     OW50164   9.086  12.271  12.251
50047SOL    HW150165   9.091  12.352  12.310
50047SOL    HW250166   9.000  12.273  12.200
50048SOL     OW50167   8.363  11.261  12.574
50048SOL    HW150168   8.388  11.241  12.479
50048SOL    HW250169   8.435  11.317  12.616
50049SOL     OW50170   8.153  12.222  11.540
50049SOL    HW150171   8.139  12.229  11.639
50049SOL    HW250172   8.237  12.171  11.522
50050SOL     OW50173   7.858  11.985  12.423
50050SOL    HW150174   7.944  11.997  12.473
50050SOL    HW250175   7.816  11.898  12.450
50051SOL     OW50176   8.722  11.558  12.434
50051SOL    HW150177   8.743  11.632  12.498
50051SOL    HW250178   8.633  11.575  12.391
50052SOL     OW50179   7.512  12.736  12.503
50052SOL    HW150180   7.466  12.818  12.469
50052SOL    HW250181   7.610  12.755  12.512
50053SOL     OW50182   7.815  12.272  11.673
50053SOL    HW150183   7.808  12.355  11.617
50053SOL    HW250184   7.819  12.192  11.613
50054SOL     OW50185   8.014  11.709  12.037
50054SOL    HW150186   8.026  11.775  11.963
50054SOL    HW250187   8.060  11.743  12.120
50055SOL     OW50188   8.700  12.520  11.560
50055SOL    HW150189   8.750  12.597  11.600
50055SOL    HW250190   8.605  12.522  11.592
50056SOL     OW50191   8.720  12.617  12.314
50056SOL    HW150192   8.767  12.630  12.401
50056SOL    HW250193   8.654  12.543  12.323
50057SOL     OW50194   9.030  11.811  11.644
50057SOL    HW150195   8.999  11.872  11.717
50057SOL    HW250196   9.080  11.863  11.575
50058SOL     OW50197   7.802  12.682  12.501
50058SOL    HW150198   7.781  12.638  12.414
50058SOL    HW250199   7.899  12.708  12.504
50059SOL     OW50200   7.850  11.923  12.770
50059SOL    HW150201   7.918  11.978  12.723
50059SOL    HW250202   7.890  11.835  12.797
50060SOL     OW50203   9.035  11.951  12.842
50060SOL    HW150204   8.943  11.989  12.837
50060SOL    HW250205   9.095  11.998  12.777
50061SOL     OW50206   8.021  12.042  12.201
50061SOL    HW150207   8.065  12.131  12.192
50061SOL    HW250208   7.958  12.042  12.278
50062SOL     OW50209   8.808  12.034  12.217
50062SOL    HW150210   8.733  12.034  12.151
50062SOL    HW250211   8.845  11.942  12.226
50063SOL     OW50212   8.657  11.697  11.447
50063SOL    HW150213   8.670  11.613  11.501
50063SOL    HW250214   8.628  11.771  11.507
50064SOL     OW50215   7.755  11.385  12.403
50064SOL    HW150216   7.732  11.422  12.493
50064SOL    HW250217   7.725  11.290  12.397
50065SOL     OW50218   7.485  12.482  12.454
50065SOL    HW150219   7.538  12.433  12.522
50065SOL    HW250220   7.507  12.580  12.459
50066SOL     OW50221   8.180  11.806  12.236
50066SOL    HW150222   8.239  11.780  12.160
50066SOL    HW250223   8.152  11.902  12.225
50067SOL     OW50224   7.755  11.235  11.790
50067SOL    HW150225   7.744  11.329  11.823
50067SOL    HW250226   7.750  11.172  11.867
50068SOL     OW50227   9.070  11.539  11.546
50068SOL    HW150228   9.072  11.463  11.610
50068SOL    HW250229   9.022  11.616  11.586
50069SOL     OW50230   8.471  11.938  12.138
50069SOL    HW150231   8.486  11.959  12.234
50069SOL    HW250232   8.441  11.843  12.129
50070SOL     OW50233   8.988  11.446  11.297
50070SOL    HW150234   8.927  11.371  11.320
50070SOL    HW250235   9.010  11.498  11.380
50071SOL     OW50236   8.751  12.010  11.214
50071SOL    HW150237   8.785  11.917  11.229
50071SOL    HW250238   8.769  12.037  11.119
50072SOL     OW50239   8.516  12.505  12.021
50072SOL    HW150240   8.523  12.421  11.966
50072SOL    HW250241   8.578  12.574  11.985
50073SOL     OW50242   7.767  11.982  12.121
50073SOL    HW150243   7.860  12.018  12.126
50073SOL    HW250244   7.761  11.897  12.173
50074SOL     OW50245   7.787  11.681  12.178
50074SOL    HW150246   7.735  11.598  12.161
50074SOL    HW250247   7.864  11.686  12.114
50075SOL     OW50248   8.608  11.379  12.649
50075SOL    HW150249   8.608  11.443  12.726
50075SOL    HW250250   8.636  11.427  12.566
50076SOL     OW50251   7.456  12.498  11.372
50076SOL    HW150252   7.363  12.519  11.341
50076SOL    HW250253   7.466  12.399  11.385
50077SOL     OW50254   7.952  12.740  12.082
50077SOL    HW150255   8.018  12.814  12.091
50077SOL    HW250256   7.996  12.661  12.040
50078SOL     OW50257   8.450  11.968  12.410
50078SOL    HW150258   8.491  11.936  12.496
50078SOL    HW250259   8.354  11.941  12.407
50079SOL     OW50260   7.488  11.716  12.286
50079SOL    HW150261   7.573  11.683  12.245
50079SOL    HW250262   7.501  11.731  12.384
50080SOL     OW50263   8.263  11.744  11.497
50080SOL    HW150264   8.270  11.655  11.451
50080SOL    HW250265   8.169  11.778  11.489
50081SOL     OW50266   9.105  11.776  12.378
50081SOL    HW150267   9.067  11.707  12.440
50081SOL    HW250268   9.187  11.740  12.334
50082SOL     OW50269   8.119  11.636  12.441
50082SOL    HW150270   8.085  11.547  12.411
50082SOL    HW250271   8.145  11.690  12.361
50083SOL     OW50272   7.921  11.672  11.363
50083SOL    HW150273   7.982  11.752  11.367
50083SOL    HW250274   7.826  11.703  11.370
50084SOL     OW50275   7.607  12.309  12.638
50084SOL    HW150276   7.629  12.248  12.714
50084SOL    HW250277   7.617  12.260  12.552
50085SOL     OW50278   8.795  12.231  12.406
50085SOL    HW150279   8.819  12.168  12.332
50085SOL    HW250280   8.705  12.271  12.388
50086SOL     OW50281   8.750  12.027  11.481
50086SOL    HW150282   8.664  11.996  11.523
50086SOL    HW250283   8.746  12.013  11.382
50087SOL     OW50284   8.700  12.903  12.300
50087SOL    HW150285   8.784  12.908  12.246
50087SOL    HW250286   8.677  12.807  12.318
50088SOL     OW50287   7.531  12.430  12.194
50088SOL    HW150288   7.526  12.429  12.294
50088SOL    HW250289   7.448  12.389  12.156
50089SOL     OW50290   9.174  11.307  11.695
50089SOL    HW150291   9.247  11.290  11.628
50089SOL    HW250292   9.143  11.220  11.733
50090SOL     OW50293   8.728  12.099  11.844
50090SOL    HW150294   8.788  12.018  11.846
50090SOL    HW250295   8.768  12.168  11.784
50091SOL     OW50296   8.278  12.445  12.594
50091SOL    HW150297   8.273  12.478  12.689
50091SOL    HW250298   8.192  12.464  12.548
50092SOL     OW50299   8.120  12.788  11.326
50092SOL    HW150300   8.129  12.798  11.227
50092SOL    HW250301   8.080  12.699  11.347
50093SOL     OW50302   9.289  11.347  12.135
50093SOL    HW150303   9.328  11.262  12.099
50093SOL    HW250304   9.191  11.349  12.116
50094SOL     OW50305   7.711  11.498  11.892
50094SOL    HW150306   7.632  11.549  11.858
50094SOL    HW250307   7.702  11.483  11.990
50095SOL     OW50308   8.642  12.784  11.203
50095SOL    HW150309   8.648  12.691  11.240
50095SOL    HW250310   8.583  12.784  11.123
50096SOL     OW50311   8.270  12.174  12.544
50096SOL    HW150312   8.310  12.173  12.452
50096SOL    HW250313   8.280  12.266  12.584
50097SOL     OW50314   8.364  12.082  11.463
50097SOL    HW150315   8.427  12.120  11.395
50097SOL    HW250316   8.404  11.999  11.502
50098SOL     OW50317   7.820  12.460  12.662
50098SOL    HW150318   7.807  12.553  12.628
50098SOL    HW250319   7.736  12.408  12.649
50099SOL     OW50320   9.062  12.464  12.461
50099SOL    HW150321   9.122  12.467  12.541
50099SOL    HW250322   8.987  12.528  12.474
50100SOL     OW50323   8.487  12.270  11.868
50100SOL    HW150324   8.417  12.223  11.922
50100SOL    HW250325   8.546  12.202  11.825
50101SOL     OW50326   8.462  11.408  12.143
50101SOL    HW150327   8.454  11.372  12.050
50101SOL    HW250328   8.460  11.332  12.208
50102SOL     OW50329   8.038  12.659  11.663
50102SOL    HW150330   8.080  12.601  11.593
50102SOL    HW250331   7.994  12.738  11.619
50103SOL     OW50332   9.157  11.557  12.553
50103SOL    HW150333   9.230  11.626  12.557
50103SOL    HW250334   9.185  11.482  12.494
50104SOL     OW50335   7.703  12.520  11.462
50104SOL    HW150336   7.607  12.521  11.435
50104SOL    HW250337   7.715  12.573  11.546
50105SOL     OW50338   7.553  12.185  12.898
50105SOL    HW150339   7.476  12.152  12.952
50105SOL    HW250340   7.638  12.155  12.940
50106SOL     OW50341   8.120  11.375  12.661
50106SOL    HW150342   8.210  11.359  12.621
50106SOL    HW250343   8.128  11.380  12.760
50107SOL     OW50344   7.523  11.517  11.205
50107SOL    HW150345   7.431  11.489  11.176
50107SOL    HW250346   7.554  11.594  11.149
50108SOL     OW50347   8.888  12.028  12.570
50108SOL    HW150348   8.831  12.080  12.507
50108SOL    HW250349   8.984  12.040  12.546
50109SOL     OW50350   7.520  11.338  11.490
50109SOL    HW150351   7.503  11.421  11.436
50109SOL    HW250352   7.610  11.301  11.468
50110SOL     OW50353   8.631  12.507  11.291
50110SOL    HW150354   8.532  12.496  11.293
50110SOL    HW250355   8.665  12.522  11.384
50111SOL     OW50356   8.061  12.014  12.603
50111SOL    HW150357   8.117  12.095  12.586
50111SOL    HW250358   8.120  11.934  12.606
50112SOL     OW50359   8.164  11.737  12.880
50112SOL    HW150360   8.183  11.802  12.954
50112SOL    HW250361   8.224  11.657  12.889
50113SOL     OW50362   7.838  12.913  12.732
50113SOL    HW150363   7.747  12.954  12.730
50113SOL    HW250364   7.831  12.819  12.764
50114SOL     OW50365   9.122  12.055  12.426
50114SOL    HW150366   9.095  11.966  12.389
50114SOL    HW250367   9.123  12.123  12.353
50115SOL     OW50368   8.673  11.497  11.621
50115SOL    HW150369   8.738  11.423  11.610
50115SOL    HW250370   8.693  11.547  11.705
50116SOL     OW50371   8.042  11.917  11.824
50116SOL    HW150372   8.092  12.002  11.805
50116SOL    HW250373   7.954  11.919  11.776
50117SOL     OW50374   9.225  11.514  12.814
50117SOL    HW150375   9.208  11.545  12.720
50117SOL    HW250376   9.141  11.477  12.852
50118SOL     OW50377   9.178  12.106  12.689
50118SOL    HW150378   9.216  12.197  12.704
50118SOL    HW250379   9.170  12.089  12.590
50119SOL     OW50380   8.307  12.546  11.188
50119SOL    HW150381   8.261  12.561  11.276
50119SOL    HW250382   8.351  12.631  11.158
50120SOL     OW50383   8.307  12.128  12.033
50120SOL    HW150384   8.361  12.059  12.081
50120SOL    HW250385   8.275  12.197  12.099
50121SOL     OW50386   8.531  12.156  11.259
50121SOL    HW150387   8.508  12.209  11.177
50121SOL    HW250388   8.612  12.100  11.240
50122SOL     OW50389   9.309  12.741  12.023
50122SOL    HW150390   9.238  12.729  11.953
50122SOL    HW250391   9.310  12.662  12.083
50123SOL     OW50392   7.527  12.412  11.825
50123SOL    HW150393   7.526  12.365  11.913
50123SOL    HW250394   7.609  12.384  11.774
50124SOL     OW50395   8.120  12.563  12.796
50124SOL    HW150396   8.042  12.513  12.834
50124SOL    HW250397   8.117  12.658  12.827
50125SOL     OW50398   9.272  11.364  12.399
50125SOL    HW150399   9.268  11.274  12.443
50125SOL    HW250400   9.275  11.353  12.300
50126SOL     OW50401   7.876  11.596  11.692
50126SOL    HW150402   7.906  11.524  11.630
50126SOL    HW250403   7.837  11.556  11.775
50127SOL     OW50404   9.153  12.659  12.276
50127SOL    HW150405   9.060  12.634  12.249
50127SOL    HW250406   9.179  12.609  12.358
50128SOL     OW50407   7.765  11.719  12.452
50128SOL    HW150408   7.803  11.660  12.524
50128SOL    HW250409   7.805  11.693  12.364
50129SOL     OW50410   8.872  11.386  12.284
50129SOL    HW150411   8.924  11.321  12.339
50129SOL    HW250412   8.823  11.449  12.345
50130SOL     OW50413   8.449  11.206  12.326
50130SOL    HW150414   8.386  11.134  12.295
50130SOL    HW250415   8.542  11.170  12.326
50131SOL     OW50416   8.218  12.502  11.473
50131SOL    HW150417   8.172  12.415  11.490
50131SOL    HW250418   8.309  12.499  11.514
50132SOL     OW50419   8.066  12.739  12.456
50132SOL    HW150420   8.061  12.821  12.513
50132SOL    HW250421   8.155  12.736  12.411
50133SOL     OW50422   8.800  11.224  11.340
50133SOL    HW150423   8.835  11.183  11.256
50133SOL    HW250424   8.710  11.186  11.360
50134SOL     OW50425   8.748  11.625  11.863
50134SOL    HW150426   8.689  11.705  11.867
50134SOL    HW250427   8.763  11.590  11.956
50135SOL     OW50428   9.041  11.393  12.054
50135SOL    HW150429   8.957  11.392  12.108
50135SOL    HW250430   9.043  11.476  11.998
50136SOL     OW50431   7.487  12.249  11.472
50136SOL    HW150432   7.586  12.238  11.463
50136SOL    HW250433   7.447  12.163  11.504
50137SOL     OW50434   9.540   0.628   0.113
50137SOL    HW150435   9.447   0.626   0.150
50137SOL    HW250436   9.541   0.589   0.021
50138SOL     OW50437   9.535   0.275   0.996
50138SOL    HW150438   9.570   0.258   1.088
50138SOL    HW250439   9.447   0.230   0.984
50139SOL     OW50440   9.329   0.368   0.647
50139SOL    HW150441   9.247   0.411   0.686
50139SOL    HW250442   9.301   0.295   0.584
50140SOL     OW50443   9.879   1.275   1.165
50140SOL    HW150444   9.786   1.268   1.128
50140SOL    HW250445   9.890   1.364   1.209
50141SOL     OW50446  10.865   1.511   0.703
50141SOL    HW150447  10.808   1.495   0.784
50141SOL    HW250448  10.806   1.521   0.623
50142SOL     OW50449  10.445   0.703   0.717
50142SOL    HW150450  10.502   0.781   0.692
50142SOL    HW250451  10.385   0.729   0.793
50143SOL     OW50452  11.065   0.607   0.231
50143SOL    HW150453  11.053   0.594   0.132
50143SOL    HW250454  11.035   0.526   0.280
50144SOL     OW50455  10.078   1.144   1.023
50144SOL    HW150456  10.000   1.161   1.083
50144SOL    HW250457  10.112   1.231   0.987
50145SOL     OW50458  10.160   0.798   1.823
50145SOL    HW150459  10.156   0.874   1.888
50145SOL    HW250460  10.182   0.834   1.732
50146SOL     OW50461   9.995   1.012   0.665
50146SOL    HW150462  10.064   0.996   0.735
50146SOL    HW250463   9.922   1.069   0.703
50147SOL     OW50464   9.996   1.161   1.803
50147SOL    HW150465  10.056   1.240   1.817
50147SOL    HW250466   9.910   1.192   1.762
50148SOL     OW50467   9.645   1.435   1.061
50148SOL    HW150468   9.567   1.404   1.008
50148SOL    HW250469   9.703   1.493   1.004
50149SOL     OW50470  10.770   1.505   1.339
50149SOL    HW150471  10.794   1.599   1.365
50149SOL    HW250472  10.754   1.451   1.421
50150SOL     OW50473   9.748   0.392   1.499
50150SOL    HW150474   9.830   0.336   1.508
50150SOL    HW250475   9.667   0.334   1.503
50151SOL     OW50476  10.913   0.447   0.737
50151SOL    HW150477  10.839   0.493   0.687
50151SOL    HW250478  10.964   0.515   0.790
50152SOL     OW50479   9.541   1.713   0.483
50152SOL    HW150480   9.575   1.790   0.537
50152SOL    HW250481   9.585   1.713   0.393
50153SOL     OW50482  10.437   1.341   1.690
50153SOL    HW150483  10.484   1.341   1.778
50153SOL    HW250484  10.389   1.254   1.679
50154SOL     OW50485   9.540   1.434   0.538
50154SOL    HW150486   9.514   1.530   0.538
50154SOL    HW250487   9.469   1.380   0.583
50155SOL     OW50488   9.550   1.091   0.886
50155SOL    HW150489   9.564   1.007   0.938
50155SOL    HW250490   9.495   1.155   0.941
50156SOL     OW50491   9.930   1.786   1.439
50156SOL    HW150492   9.838   1.769   1.474
50156SOL    HW250493   9.958   1.878   1.465
50157SOL     OW50494   9.916   0.964   0.123
50157SOL    HW150495   9.923   1.048   0.069
50157SOL    HW250496   9.962   0.977   0.211
50158SOL     OW50497  10.904   0.114   1.480
50158SOL    HW150498  10.886   0.181   1.408
50158SOL    HW250499  10.901   0.160   1.569
50159SOL     OW50500   9.432   0.643   0.563
50159SOL    HW150501   9.387   0.555   0.580
50159SOL    HW250502   9.431   0.697   0.647
50160SOL     OW50503  11.152   1.767   0.359
50160SOL    HW150504  11.206   1.738   0.439
50160SOL    HW250505  11.182   1.857   0.330
50161SOL     OW50506   9.337   1.596   0.117
50161SOL    HW150507   9.318   1.500   0.138
50161SOL    HW250508   9.304   1.654   0.192
50162SOL     OW50509  10.999   0.922   0.612
50162SOL    HW150510  11.094   0.893   0.620
50162SOL    HW250511  10.991   0.987   0.537
50163SOL     OW50512  10.951   1.108   0.432
50163SOL    HW150513  11.037   1.110   0.380
50163SOL    HW250514  10.965   1.155   0.520
50164SOL     OW50515   9.423   0.737   1.597
50164SOL    HW150516   9.511   0.724   1.642
50164SOL    HW250517   9.410   0.834   1.575
50165SOL     OW50518   9.923   1.365   0.726
50165SOL    HW150519   9.874   1.278   0.735
50165SOL    HW250520   9.900   1.408   0.639
50166SOL     OW50521  10.603   1.228   1.423
50166SOL    HW150522  10.640   1.155   1.365
50166SOL    HW250523  10.655   1.233   1.508
50167SOL     OW50524  10.119   0.004   0.502
50167SOL    HW150525  10.159   0.095   0.493
50167SOL    HW250526  10.019   0.012   0.508
50168SOL     OW50527   9.507   0.976   1.264
50168SOL    HW150528   9.596   0.931   1.250
50168SOL    HW250529   9.434   0.911   1.245
50169SOL     OW50530  10.835   0.999   0.190
50169SOL    HW150531  10.772   0.923   0.203
50169SOL    HW250532  10.883   1.017   0.276
50170SOL     OW50533  10.497   1.792   1.616
50170SOL    HW150534  10.521   1.852   1.540
50170SOL    HW250535  10.504   1.697   1.586
50171SOL     OW50536   9.627   0.251   1.801
50171SOL    HW150537   9.698   0.322   1.807
50171SOL    HW250538   9.539   0.290   1.829
50172SOL     OW50539  10.776   1.417   0.953
50172SOL    HW150540  10.717   1.423   1.033
50172SOL    HW250541  10.761   1.329   0.907
50173SOL     OW50542  10.977   1.714   0.572
50173SOL    HW150543  10.936   1.691   0.484
50173SOL    HW250544  10.959   1.640   0.637
50174SOL     OW50545   9.908   0.729   0.270
50174SOL    HW150546   9.932   0.798   0.202
50174SOL    HW250547   9.830   0.762   0.324
50175SOL     OW50548  10.591   0.345   0.944
50175SOL    HW150549  10.505   0.295   0.931
50175SOL    HW250550  10.653   0.291   1.000
50176SOL     OW50551  10.886   1.662   0.307
50176SOL    HW150552  10.975   1.708   0.310
50176SOL    HW250553  10.865   1.638   0.212
50177SOL     OW50554  10.117   0.605   1.465
50177SOL    HW150555  10.070   0.602   1.554
50177SOL    HW250556  10.066   0.550   1.399
50178SOL     OW50557  10.704   0.469   1.674
50178SOL    HW150558  10.684   0.512   1.762
50178SOL    HW250559  10.782   0.407   1.683
50179SOL     OW50560  10.283   0.890   1.572
50179SOL    HW150561  10.329   0.806   1.543
50179SOL    HW250562  10.227   0.924   1.497
50180SOL     OW50563  10.301   0.410   1.242
50180SOL    HW150564  10.224   0.444   1.296
50180SOL    HW250565  10.267   0.359   1.163
50181SOL     OW50566  10.351   0.701   0.429
50181SOL    HW150567  10.377   0.697   0.525
50181SOL    HW250568  10.266   0.650   0.415
50182SOL     OW50569   9.386   0.811   0.789
50182SOL    HW150570   9.485   0.799   0.798
50182SOL    HW250571   9.362   0.906   0.810
50183SOL     OW50572   9.440   1.821   1.571
50183SOL    HW150573   9.430   1.806   1.670
50183SOL    HW250574   9.354   1.857   1.535
50184SOL     OW50575  10.175   0.348   0.195
50184SOL    HW150576  10.234   0.411   0.146
50184SOL    HW250577  10.194   0.254   0.166
50185SOL     OW50578  11.029   0.585   1.831
50185SOL    HW150579  11.003   0.674   1.795
50185SOL    HW250580  11.027   0.517   1.758
50186SOL     OW50581  10.672   1.144   0.545
50186SOL    HW150582  10.755   1.115   0.497
50186SOL    HW250583  10.623   1.211   0.489
50187SOL     OW50584   9.860   0.196   0.885
50187SOL    HW150585   9.855   0.191   0.985
50187SOL    HW250586   9.862   0.292   0.856
50188SOL     OW50587  10.318   1.456   0.477
50188SOL    HW150588  10.272   1.528   0.425
50188SOL    HW250589  10.314   1.476   0.575
50189SOL     OW50590   9.661   1.801   0.853
50189SOL    HW150591   9.711   1.715   0.859
50189SOL    HW250592   9.726   1.878   0.850
50190SOL     OW50593  11.105   1.066   0.873
50190SOL    HW150594  11.043   1.051   0.797
50190SOL    HW250595  11.053   1.077   0.958
50191SOL     OW50596  10.537   1.550   1.506
50191SOL    HW150597  10.543   1.473   1.570
50191SOL    HW250598  10.485   1.524   1.426
50192SOL     OW50599   9.631   0.943   0.242
50192SOL    HW150600   9.713   0.982   0.200
50192SOL    HW250601   9.604   0.861   0.193
50193SOL     OW50602  10.768   0.735   0.728
50193SOL    HW150603  10.763   0.670   0.803
50193SOL    HW250604  10.848   0.794   0.741
50194SOL     OW50605   9.771   1.266   1.727
50194SOL    HW150606   9.721   1.267   1.641
50194SOL    HW250607   9.708   1.248   1.803
50195SOL     OW50608  10.421   1.776   0.237
50195SOL    HW150609  10.361   1.714   0.287
50195SOL    HW250610  10.452   1.732   0.152
50196SOL     OW50611   9.512   0.285   1.498
50196SOL    HW150612   9.432   0.345   1.485
50196SOL    HW250613   9.502   0.236   1.584
50197SOL     OW50614  10.942   1.377   0.081
50197SOL    HW150615  10.910   1.471   0.071
50197SOL    HW250616  10.866   1.314   0.069
50198SOL     OW50617   9.774   1.743   0.323
50198SOL    HW150618   9.807   1.782   0.409
50198SOL    HW250619   9.850   1.736   0.258
50199SOL     OW50620  10.710   0.107   0.426
50199SOL    HW150621  10.686   0.070   0.336
50199SOL    HW250622  10.809   0.123   0.430
50200SOL     OW50623   9.559   1.785   1.241
50200SOL    HW150624   9.616   1.720   1.291
50200SOL    HW250625   9.543   1.752   1.148
50201SOL     OW50626  10.250   1.698   0.904
50201SOL    HW150627  10.330   1.641   0.925
50201SOL    HW250628  10.201   1.658   0.827
50202SOL     OW50629   9.692   0.700   0.480
50202SOL    HW150630   9.737   0.610   0.477
50202SOL    HW250631   9.598   0.689   0.513
50203SOL     OW50632  10.857   0.222   1.729
50203SOL    HW150633  10.852   0.259   1.821
50203SOL    HW250634  10.785   0.153   1.717
50204SOL     OW50635   9.924   0.122   0.117
50204SOL    HW150636  10.022   0.100   0.124
50204SOL    HW250637   9.893   0.105   0.024
50205SOL     OW50638  10.091   0.264   1.749
50205SOL    HW150639  10.158   0.203   1.792
50205SOL    HW250640  10.018   0.283   1.814
50206SOL     OW50641  10.198   1.514   1.195
50206SOL    HW150642  10.175   1.489   1.101
50206SOL    HW250643  10.259   1.445   1.234
50207SOL     OW50644  10.661   0.590   1.433
50207SOL    HW150645  10.689   0.547   1.518
50207SOL    HW250646  10.686   0.686   1.434
50208SOL     OW50647  10.113   1.402   0.924
50208SOL    HW150648  10.203   1.416   0.882
50208SOL    HW250649  10.042   1.404   0.853
50209SOL     OW50650  10.232   0.503   0.899
50209SOL    HW150651  10.207   0.494   0.803
50209SOL    HW250652  10.280   0.421   0.930
50210SOL     OW50653   9.849   0.064   0.512
50210SOL    HW150654   9.768   0.065   0.570
50210SOL    HW250655   9.852   0.147   0.457
50211SOL     OW50656  10.744   1.188   0.041
50211SOL    HW150657  10.776   1.112   0.098
50211SOL    HW250658  10.652   1.215   0.071
50212SOL     OW50659   9.607   0.035   0.171
50212SOL    HW150660   9.656   0.119   0.150
50212SOL    HW250661   9.669  -0.030   0.216
50213SOL     OW50662  10.245   0.236   0.480
50213SOL    HW150663  10.197   0.277   0.402
50213SOL    HW250664  10.344   0.234   0.461
50214SOL     OW50665  10.386   0.683   1.464
50214SOL    HW150666  10.306   0.622   1.467
50214SOL    HW250667  10.467   0.630   1.440
50215SOL     OW50668  10.537   1.570   0.793
50215SOL    HW150669  10.558   1.644   0.728
50215SOL    HW250670  10.605   1.570   0.866
50216SOL     OW50671   9.769   1.152   0.741
50216SOL    HW150672   9.698   1.125   0.806
50216SOL    HW250673   9.743   1.124   0.648
50217SOL     OW50674  10.581   1.797   0.591
50217SOL    HW150675  10.625   1.861   0.527
50217SOL    HW250676  10.531   1.849   0.661
50218SOL     OW50677  10.342   0.549   0.016
50218SOL    HW150678  10.301   0.631  -0.023
50218SOL    HW250679  10.406   0.575   0.089
50219SOL     OW50680   9.388   0.556   1.386
50219SOL    HW150681   9.480   0.555   1.345
50219SOL    HW250682   9.382   0.630   1.453
50220SOL     OW50683   9.871   0.222   1.147
50220SOL    HW150684   9.909   0.138   1.184
50220SOL    HW250685   9.783   0.241   1.191
50221SOL     OW50686  10.176   0.454   0.642
50221SOL    HW150687  10.144   0.526   0.580
50221SOL    HW250688  10.200   0.373   0.589
50222SOL     OW50689  10.327   0.039   0.753
50222SOL    HW150690  10.255   0.044   0.684
50222SOL    HW250691  10.303  -0.030   0.822
50223SOL     OW50692  10.739   1.173   0.867
50223SOL    HW150693  10.684   1.089   0.860
50223SOL    HW250694  10.765   1.202   0.775
50224SOL     OW50695  10.776   0.590   0.992
50224SOL    HW150696  10.746   0.495   0.999
50224SOL    HW250697  10.849   0.606   1.058
50225SOL     OW50698  11.167   0.833   0.377
50225SOL    HW150699  11.209   0.769   0.441
50225SOL    HW250700  11.129   0.782   0.299
50226SOL     OW50701   9.798   1.385   0.174
50226SOL    HW150702   9.711   1.370   0.221
50226SOL    HW250703   9.781   1.411   0.079
50227SOL     OW50704  10.974   1.280   0.657
50227SOL    HW150705  11.073   1.288   0.671
50227SOL    HW250706  10.929   1.364   0.688
50228SOL     OW50707  10.700   0.575   0.078
50228SOL    HW150708  10.646   0.554   0.159
50228SOL    HW250709  10.791   0.534   0.087
50229SOL     OW50710   9.837   0.256   0.328
50229SOL    HW150711   9.864   0.197   0.253
50229SOL    HW250712   9.837   0.351   0.297
50230SOL     OW50713  11.064   1.223   1.588
50230SOL    HW150714  11.155   1.184   1.575
50230SOL    HW250715  11.072   1.319   1.612
50231SOL     OW50716  10.374   1.347   1.340
50231SOL    HW150717  10.294   1.324   1.395
50231SOL    HW250718  10.457   1.321   1.389
50232SOL     OW50719  10.902   1.629   1.625
50232SOL    HW150720  10.929   1.663   1.535
50232SOL    HW250721  10.981   1.591   1.671
50233SOL     OW50722  10.421   1.195   1.100
50233SOL    HW150723  10.381   1.239   1.181
50233SOL    HW250724  10.380   1.232   1.017
50234SOL     OW50725  10.948   1.099   1.079
50234SOL    HW150726  10.953   1.180   1.138
50234SOL    HW250727  10.862   1.101   1.028
50235SOL     OW50728  10.225   0.089   1.402
50235SOL    HW150729  10.250   0.069   1.307
50235SOL    HW250730  10.297   0.145   1.444
50236SOL     OW50731  10.290   1.116   1.719
50236SOL    HW150732  10.191   1.122   1.729
50236SOL    HW250733  10.313   1.036   1.663
50237SOL     OW50734  10.015   1.050   0.368
50237SOL    HW150735  10.001   1.057   0.467
50237SOL    HW250736  10.099   0.999   0.350
50238SOL     OW50737   9.720   0.813   1.251
50238SOL    HW150738   9.806   0.825   1.301
50238SOL    HW250739   9.678   0.726   1.278
50239SOL     OW50740  10.584   0.386   1.262
50239SOL    HW150741  10.605   0.460   1.326
50239SOL    HW250742  10.495   0.403   1.219
50240SOL     OW50743   9.374   1.564   1.331
50240SOL    HW150744   9.328   1.646   1.297
50240SOL    HW250745   9.472   1.583   1.340
50241SOL     OW50746   9.677   1.100   0.501
50241SOL    HW150747   9.670   1.183   0.445
50241SOL    HW250748   9.681   1.020   0.441
50242SOL     OW50749   9.876   0.537   0.865
50242SOL    HW150750   9.888   0.603   0.791
50242SOL    HW250751   9.922   0.571   0.948
50243SOL     OW50752  10.562   1.348   0.388
50243SOL    HW150753  10.612   1.425   0.428
50243SOL    HW250754  10.467   1.350   0.420
50244SOL     OW50755  10.582   1.445   1.142
50244SOL    HW150756  10.629   1.458   1.229
50244SOL    HW250757  10.516   1.371   1.151
50245SOL     OW50758  10.892   0.639   0.472
50245SOL    HW150759  10.861   0.700   0.545
50245SOL    HW250760  10.942   0.691   0.403
50246SOL     OW50761   9.664   1.510   1.329
50246SOL    HW150762   9.643   1.466   1.242
50246SOL    HW250763   9.761   1.536   1.332
50247SOL     OW50764   9.712   0.751   1.598
50247SOL    HW150765   9.780   0.806   1.551
50247SOL    HW250766   9.752   0.663   1.625
50248SOL     OW50767  10.897   0.779   1.670
50248SOL    HW150768  10.805   0.817   1.665
50248SOL    HW250769  10.957   0.826   1.605
50249SOL     OW50770  10.323   0.105   1.770
50249SOL    HW150771  10.329   0.190   1.718
50249SOL    HW250772  10.355   0.029   1.713
50250SOL     OW50773   9.814   0.050   1.740
50250SOL    HW150774   9.772  -0.007   1.670
50250SOL    HW250775   9.748   0.119   1.772
50251SOL     OW50776   9.883   0.870   1.029
50251SOL    HW150777   9.927   0.959   1.020
50251SOL    HW250778   9.820   0.870   1.106
50252SOL     OW50779  10.670   0.862   1.045
50252SOL    HW150780  10.595   0.862   0.979
50252SOL    HW250781  10.707   0.770   1.054
50253SOL     OW50782  10.519   0.525   0.275
50253SOL    HW150783  10.532   0.441   0.329
50253SOL    HW250784  10.490   0.599   0.335
50254SOL     OW50785   9.617   0.213   1.231
50254SOL    HW150786   9.594   0.250   1.321
50254SOL    HW250787   9.587   0.118   1.225
50255SOL     OW50788   9.347   1.310   1.282
50255SOL    HW150789   9.400   1.261   1.350
50255SOL    HW250790   9.369   1.408   1.287
50256SOL     OW50791  10.042   0.634   1.064
50256SOL    HW150792  10.101   0.608   0.988
50256SOL    HW250793  10.014   0.730   1.053
50257SOL     OW50794  11.038   0.935   1.854
50257SOL    HW150795  10.992   0.928   1.765
50257SOL    HW250796  10.976   0.979   1.920
50258SOL     OW50797   9.617   0.063   0.618
50258SOL    HW150798   9.606   0.157   0.651
50258SOL    HW250799   9.612   0.000   0.695
50259SOL     OW50800  10.932   0.367   0.374
50259SOL    HW150801  10.934   0.291   0.438
50259SOL    HW250802  10.884   0.444   0.414
50260SOL     OW50803  10.333   0.766   0.966
50260SOL    HW150804  10.348   0.787   1.062
50260SOL    HW250805  10.303   0.671   0.957
50261SOL     OW50806  10.290   1.573   1.700
50261SOL    HW150807  10.270   1.617   1.612
50261SOL    HW250808  10.329   1.482   1.684
50262SOL     OW50809  11.169   1.518   1.605
50262SOL    HW150810  11.183   1.545   1.510
50262SOL    HW250811  11.252   1.540   1.658
50263SOL     OW50812   9.660   0.898   1.804
50263SOL    HW150813   9.736   0.942   1.852
50263SOL    HW250814   9.695   0.851   1.722
50264SOL     OW50815  10.850   0.274   0.125
50264SOL    HW150816  10.789   0.199   0.148
50264SOL    HW250817  10.872   0.326   0.208
50265SOL     OW50818  10.613   0.838   0.042
50265SOL    HW150819  10.647   0.745   0.057
50265SOL    HW250820  10.631   0.865  -0.053
50266SOL     OW50821  10.378   1.333   0.849
50266SOL    HW150822  10.385   1.249   0.794
50266SOL    HW250823  10.440   1.402   0.813
50267SOL     OW50824   9.629   0.810   0.949
50267SOL    HW150825   9.722   0.846   0.954
50267SOL    HW250826   9.623   0.725   1.001
50268SOL     OW50827   9.649   0.509   1.006
50268SOL    HW150828   9.597   0.426   0.989
50268SOL    HW250829   9.726   0.514   0.942
50269SOL     OW50830  10.448   0.380   1.678
50269SOL    HW150831  10.403   0.443   1.742
50269SOL    HW250832  10.541   0.411   1.661
50270SOL     OW50833  10.470   0.207   1.477
50270SOL    HW150834  10.470   0.271   1.554
50270SOL    HW250835  10.498   0.255   1.394
50271SOL     OW50836   9.318   1.326   0.200
50271SOL    HW150837   9.225   1.347   0.169
50271SOL    HW250838   9.328   1.227   0.213
50272SOL     OW50839   9.398   1.801   0.927
50272SOL    HW150840   9.356   1.715   0.900
50272SOL    HW250841   9.492   1.804   0.893
50273SOL     OW50842   9.814   1.568   0.910
50273SOL    HW150843   9.880   1.642   0.919
50273SOL    HW250844   9.858   1.489   0.868
50274SOL     OW50845  10.312   0.796   1.238
50274SOL    HW150846  10.353   0.764   1.324
50274SOL    HW250847  10.216   0.769   1.235
50275SOL     OW50848   9.350   0.544   1.114
50275SOL    HW150849   9.435   0.511   1.073
50275SOL    HW250850   9.363   0.559   1.212
50276SOL     OW50851   9.499   0.520   1.722
50276SOL    HW150852   9.558   0.480   1.652
50276SOL    HW250853   9.441   0.591   1.681
50277SOL     OW50854  10.679   0.950   1.660
50277SOL    HW150855  10.718   1.039   1.680
50277SOL    HW250856  10.689   0.930   1.563
50278SOL     OW50857  10.125   0.572   0.325
50278SOL    HW150858  10.132   0.483   0.279
50278SOL    HW250859  10.031   0.606   0.317
50279SOL     OW50860  10.967   0.604   1.206
50279SOL    HW150861  10.929   0.535   1.268
50279SOL    HW250862  11.049   0.568   1.162
50280SOL     OW50863   9.562   1.564   1.744
50280SOL    HW150864   9.532   1.621   1.820
50280SOL    HW250865   9.555   1.467   1.770
50281SOL     OW50866   9.981   0.464   1.269
50281SOL    HW150867   9.947   0.375   1.239
50281SOL    HW250868  10.007   0.518   1.189
50282SOL     OW50869  10.240   1.678   1.465
50282SOL    HW150870  10.216   1.660   1.370
50282SOL    HW250871  10.270   1.772   1.475
50283SOL     OW50872   9.783   0.500   0.191
50283SOL    HW150873   9.844   0.580   0.195
50283SOL    HW250874   9.688   0.531   0.198
50284SOL     OW50875   9.469   1.137   1.466
50284SOL    HW150876   9.491   1.076   1.542
50284SOL    HW250877   9.479   1.088   1.380
50285SOL     OW50878  10.657   1.059   1.234
50285SOL    HW150879  10.681   0.996   1.160
50285SOL    HW250880  10.567   1.099   1.216
50286SOL     OW50881  10.612   0.855   0.309
50286SOL    HW150882  10.526   0.824   0.351
50286SOL    HW250883  10.608   0.841   0.210
50287SOL     OW50884  11.069   1.747   1.154
50287SOL    HW150885  11.130   1.777   1.081
50287SOL    HW250886  11.031   1.658   1.132
50288SOL     OW50887  10.562   1.731   1.128
50288SOL    HW150888  10.646   1.736   1.074
50288SOL    HW250889  10.539   1.635   1.146
50289SOL     OW50890   9.393   1.258   1.022
50289SOL    HW150891   9.388   1.257   1.122
50289SOL    HW250892   9.310   1.217   0.984
50290SOL     OW50893   9.998   1.662   1.716
50290SOL    HW150894   9.942   1.743   1.725
50290SOL    HW250895  10.050   1.666   1.630
50291SOL     OW50896  10.213   0.086   0.133
50291SOL    HW150897  10.264   0.087   0.047
50291SOL    HW250898  10.269   0.044   0.204
50292SOL     OW50899  11.036   0.135   0.523
50292SOL    HW150900  11.109   0.118   0.456
50292SOL    HW250901  11.005   0.048   0.561
50293SOL     OW50902  10.698   1.573   0.477
50293SOL    HW150903  10.765   1.585   0.403
50293SOL    HW250904  10.658   1.662   0.500
50294SOL     OW50905   9.440   1.794   1.851
50294SOL    HW150906   9.399   1.720   1.904
50294SOL    HW250907   9.504   1.845   1.909
50295SOL     OW50908  10.590   0.927   0.672
50295SOL    HW150909  10.650   0.846   0.674
50295SOL    HW250910  10.630   0.996   0.612
50296SOL     OW50911  10.140   1.273   1.422
50296SOL    HW150912  10.135   1.306   1.517
50296SOL    HW250913  10.054   1.292   1.376
50297SOL     OW50914   9.982   1.616   0.154
50297SOL    HW150915   9.991   1.626   0.055
50297SOL    HW250916   9.942   1.527   0.175
50298SOL     OW50917  10.960   1.720   1.394
50298SOL    HW150918  11.013   1.730   1.310
50298SOL    HW250919  10.933   1.810   1.428
50299SOL     OW50920  11.151   0.175   0.963
50299SOL    HW150921  11.190   0.090   0.927
50299SOL    HW250922  11.053   0.177   0.944
50300SOL     OW50923   9.573   0.326   0.720
50300SOL    HW150924   9.494   0.377   0.686
50300SOL    HW250925   9.564   0.311   0.818
50301SOL     OW50926  10.504   1.612   0.031
50301SOL    HW150927  10.510   1.519   0.068
50301SOL    HW250928  10.445   1.612  -0.049
50302SOL     OW50929  10.132   1.002   1.372
50302SOL    HW150930  10.172   1.001   1.280
50302SOL    HW250931  10.142   1.094   1.412
50303SOL     OW50932  10.226   0.910   0.291
50303SOL    HW150933  10.289   0.948   0.223
50303SOL    HW250934  10.266   0.827   0.330
50304SOL     OW50935  10.814   1.607   0.044
50304SOL    HW150936  10.722   1.644   0.051
50304SOL    HW250937  10.852   1.627  -0.046
50305SOL     OW50938   9.682   1.288   1.490
50305SOL    HW150939   9.669   1.381   1.456
50305SOL    HW250940   9.598   1.236   1.477
50306SOL     OW50941  10.924   1.292   1.289
50306SOL    HW150942  10.984   1.295   1.369
50306SOL    HW250943  10.849   1.356   1.302
50307SOL     OW50944  10.349   1.098   0.696
50307SOL    HW150945  10.279   1.051   0.750
50307SOL    HW250946  10.408   1.030   0.653
50308SOL     OW50947  10.324   0.236   0.971
50308SOL    HW150948  10.316   0.200   0.878
50308SOL    HW250949  10.322   0.160   1.036
50309SOL     OW50950   9.900   1.487   0.491
50309SOL    HW150951   9.942   1.429   0.421
50309SOL    HW250952   9.856   1.566   0.447
50310SOL     OW50953  11.019   0.385   1.381
50310SOL    HW150954  11.092   0.454   1.385
50310SOL    HW250955  11.047   0.310   1.322
50311SOL     OW50956   9.565   1.348   0.290
50311SOL    HW150957   9.469   1.349   0.263
50311SOL    HW250958   9.577   1.401   0.374
50312SOL     OW50959   9.415   1.013   1.726
50312SOL    HW150960   9.338   0.980   1.780
50312SOL    HW250961   9.500   0.983   1.768
50313SOL     OW50962   9.982   0.203   1.489
50313SOL    HW150963  10.072   0.187   1.449
50313SOL    HW250964   9.990   0.208   1.588
50314SOL     OW50965  10.750   0.856   1.398
50314SOL    HW150966  10.693   0.908   1.335
50314SOL    HW250967  10.846   0.868   1.374
50315SOL     OW50968   9.382   0.166   0.318
50315SOL    HW150969   9.365   0.249   0.264
50315SOL    HW250970   9.472   0.129   0.296
50316SOL     OW50971  10.493   1.335   0.119
50316SOL    HW150972  10.394   1.324   0.121
50316SOL    HW250973  10.527   1.350   0.212
50317SOL     OW50974   9.923   0.842   1.431
50317SOL    HW150975   9.979   0.923   1.414
50317SOL    HW250976   9.982   0.762   1.434
50318SOL     OW50977  10.803   1.767   0.959
50318SOL    HW150978  10.836   1.831   0.890
50318SOL    HW250979  10.869   1.761   1.034
50319SOL     OW50980  10.026   0.565   1.708
50319SOL    HW150981  10.045   0.630   1.782
50319SOL    HW250982  10.086   0.485   1.717
50320SOL     OW50983  10.760   1.220   1.633
50320SOL    HW150984  10.751   1.210   1.732
50320SOL    HW250985  10.856   1.213   1.607
50321SOL     OW50986   9.700   1.741   1.560
50321SOL    HW150987   9.609   1.782   1.558
50321SOL    HW250988   9.693   1.647   1.592
50322SOL     OW50989  10.984   0.883   1.254
50322SOL    HW150990  10.957   0.794   1.217
50322SOL    HW250991  10.985   0.951   1.181
50323SOL     OW50992  10.535   0.325   0.449
50323SOL    HW150993  10.600   0.251   0.438
50323SOL    HW250994  10.555   0.375   0.533
50324SOL     OW50995   9.904   0.745   0.652
50324SOL    HW150996   9.954   0.830   0.633
50324SOL    HW250997   9.816   0.747   0.604
50325SOL     OW50998  11.087   0.342   1.642
50325SOL    HW150999  11.070   0.373   1.548
50325SOL    HW251000  11.003   0.305   1.680
50326SOL     OW51001  11.040   0.934   1.517
50326SOL    HW151002  11.078   1.025   1.532
50326SOL    HW251003  11.032   0.917   1.418
50327SOL     OW51004  10.169   1.374   0.016
50327SOL    HW151005  10.123   1.389   0.104
50327SOL    HW251006  10.213   1.459  -0.014
50328SOL     OW51007   9.971   1.790   0.953
50328SOL    HW151008   9.925   1.878   0.940
50328SOL    HW251009  10.070   1.802   0.946
50329SOL     OW51010  10.169   0.956   0.861
50329SOL    HW151011  10.223   0.887   0.909
50329SOL    HW251012  10.137   1.025   0.927
50330SOL     OW51013  10.393   0.984   0.087
50330SOL    HW151014  10.370   1.037   0.005
50330SOL    HW251015  10.474   0.928   0.068
50331SOL     OW51016  11.171   1.569   0.851
50331SOL    HW151017  11.100   1.557   0.781
50331SOL    HW251018  11.172   1.490   0.911
50332SOL     OW51019   9.531   1.314   1.844
50332SOL    HW151020   9.466   1.241   1.823
50332SOL    HW251021   9.535   1.328   1.942
50333SOL     OW51022   9.389   1.240   0.653
50333SOL    HW151023   9.388   1.193   0.741
50333SOL    HW251024   9.471   1.212   0.602
50334SOL     OW51025   9.982   1.391   1.624
50334SOL    HW151026   9.904   1.341   1.662
50334SOL    HW251027   9.979   1.486   1.655
50335SOL     OW51028  11.134   0.192   1.227
50335SOL    HW151029  11.130   0.102   1.271
50335SOL    HW251030  11.137   0.181   1.128
50336SOL     OW51031   9.738   0.424   0.520
50336SOL    HW151032   9.768   0.352   0.458
50336SOL    HW251033   9.699   0.384   0.603
50337SOL     OW51034  11.015   1.487   1.104
50337SOL    HW151035  10.922   1.462   1.077
50337SOL    HW251036  11.041   1.437   1.186
50338SOL     OW51037   9.627   0.547   1.280
50338SOL    HW151038   9.665   0.488   1.352
50338SOL    HW251039   9.667   0.521   1.192
50339SOL     OW51040  10.122   1.586   0.687
50339SOL    HW151041  10.154   1.596   0.593
50339SOL    HW251042  10.043   1.524   0.689
50340SOL     OW51043  10.734   0.214   1.112
50340SOL    HW151044  10.786   0.149   1.167
50340SOL    HW251045  10.685   0.277   1.173
50341SOL     OW51046  10.311   0.034   1.154
50341SOL    HW151047  10.248  -0.038   1.123
50341SOL    HW251048  10.404  -0.002   1.154
50342SOL     OW51049  10.080   1.330   0.301
50342SOL    HW151050  10.034   1.243   0.318
50342SOL    HW251051  10.171   1.327   0.342
50343SOL     OW51052   9.928   1.567   1.284
50343SOL    HW151053   9.923   1.649   1.341
50343SOL    HW251054  10.017   1.564   1.239
50344SOL     OW51055  10.662   0.052   0.168
50344SOL    HW151056  10.697   0.011   0.084
50344SOL    HW251057  10.572   0.014   0.188
50345SOL     OW51058  10.610   0.453   0.691
50345SOL    HW151059  10.551   0.533   0.695
50345SOL    HW251060  10.625   0.418   0.784
50346SOL     OW51061  10.903   0.221   0.882
50346SOL    HW151062  10.819   0.220   0.936
50346SOL    HW251063  10.905   0.304   0.826
50347SOL     OW51064   9.349   1.077   0.300
50347SOL    HW151065   9.448   1.066   0.291
50347SOL    HW251066   9.309   0.991   0.332
50348SOL     OW51067  10.185   1.646   0.337
50348SOL    HW151068  10.108   1.611   0.283
50348SOL    HW251069  10.153   1.717   0.399
50349SOL     OW51070   9.540   0.628   1.975
50349SOL    HW151071   9.447   0.626   2.012
50349SOL    HW251072   9.541   0.589   1.883
50350SOL     OW51073   9.535   0.275   2.858
50350SOL    HW151074   9.570   0.258   2.950
50350SOL    HW251075   9.447   0.230   2.846
50351SOL     OW51076   9.329   0.368   2.509
50351SOL    HW151077   9.247   0.411   2.548
50351SOL    HW251078   9.301   0.295   2.446
50352SOL     OW51079   9.879   1.275   3.027
50352SOL    HW151080   9.786   1.268   2.990
50352SOL    HW251081   9.890   1.364   3.071
50353SOL     OW51082  10.865   1.511   2.565
50353SOL    HW151083  10.808   1.495   2.646
50353SOL    HW251084  10.806   1.521   2.485
50354SOL     OW51085  10.445   0.703   2.579
50354SOL    HW151086  10.502   0.781   2.554
50354SOL    HW251087  10.385   0.729   2.655
50355SOL     OW51088  11.065   0.607   2.093
50355SOL    HW151089  11.053   0.594   1.994
50355SOL    HW251090  11.035   0.526   2.142
50356SOL     OW51091  10.078   1.144   2.885
50356SOL    HW151092  10.000   1.161   2.945
50356SOL    HW251093  10.112   1.231   2.849
50357SOL     OW51094  10.160   0.798   3.685
50357SOL    HW151095  10.156   0.874   3.750
50357SOL    HW251096  10.182   0.834   3.594
50358SOL     OW51097   9.995   1.012   2.527
50358SOL    HW151098  10.064   0.996   2.597
50358SOL    HW251099   9.922   1.069   2.565
50359SOL     OW51100   9.996   1.161   3.665
50359SOL    HW151101  10.056   1.240   3.679
50359SOL    HW251102   9.910   1.192   3.624
50360SOL     OW51103   9.645   1.435   2.923
50360SOL    HW151104   9.567   1.404   2.870
50360SOL    HW251105   9.703   1.493   2.866
50361SOL     OW51106  10.770   1.505   3.201
50361SOL    HW151107  10.794   1.599   3.227
50361SOL    HW251108  10.754   1.451   3.283
50362SOL     OW51109   9.748   0.392   3.361
50362SOL    HW151110   9.830   0.336   3.370
50362SOL    HW251111   9.667   0.334   3.365
50363SOL     OW51112  10.913   0.447   2.599
50363SOL    HW151113  10.839   0.493   2.549
50363SOL    HW251114  10.964   0.515   2.652
50364SOL     OW51115   9.541   1.713   2.345
50364SOL    HW151116   9.575   1.790   2.399
50364SOL    HW251117   9.585   1.713   2.255
50365SOL     OW51118  10.437   1.341   3.552
50365SOL    HW151119  10.484   1.341   3.640
50365SOL    HW251120  10.389   1.254   3.541
50366SOL     OW51121   9.540   1.434   2.400
50366SOL    HW151122   9.514   1.530   2.400
50366SOL    HW251123   9.469   1.380   2.445
50367SOL     OW51124   9.550   1.091   2.748
50367SOL    HW151125   9.564   1.007   2.800
50367SOL    HW251126   9.495   1.155   2.803
50368SOL     OW51127   9.930   1.786   3.301
50368SOL    HW151128   9.838   1.769   3.336
50368SOL    HW251129   9.958   1.878   3.327
50369SOL     OW51130   9.916   0.964   1.985
50369SOL    HW151131   9.923   1.048   1.931
50369SOL    HW251132   9.962   0.977   2.073
50370SOL     OW51133  10.904   0.114   3.342
50370SOL    HW151134  10.886   0.181   3.270
50370SOL    HW251135  10.901   0.160   3.431
50371SOL     OW51136   9.432   0.643   2.425
50371SOL    HW151137   9.387   0.555   2.442
50371SOL    HW251138   9.431   0.697   2.509
50372SOL     OW51139  11.152   1.767   2.221
50372SOL    HW151140  11.206   1.738   2.301
50372SOL    HW251141  11.182   1.857   2.192
50373SOL     OW51142   9.337   1.596   1.979
50373SOL    HW151143   9.318   1.500   2.000
50373SOL    HW251144   9.304   1.654   2.054
50374SOL     OW51145  10.999   0.922   2.474
50374SOL    HW151146  11.094   0.893   2.482
50374SOL    HW251147  10.991   0.987   2.399
50375SOL     OW51148  10.951   1.108   2.294
50375SOL    HW151149  11.037   1.110   2.242
50375SOL    HW251150  10.965   1.155   2.382
50376SOL     OW51151   9.423   0.737   3.459
50376SOL    HW151152   9.511   0.724   3.504
50376SOL    HW251153   9.410   0.834   3.437
50377SOL     OW51154   9.923   1.365   2.588
50377SOL    HW151155   9.874   1.278   2.597
50377SOL    HW251156   9.900   1.408   2.501
50378SOL     OW51157  10.603   1.228   3.285
50378SOL    HW151158  10.640   1.155   3.227
50378SOL    HW251159  10.655   1.233   3.370
50379SOL     OW51160  10.119   0.004   2.364
50379SOL    HW151161  10.159   0.095   2.355
50379SOL    HW251162  10.019   0.012   2.370
50380SOL     OW51163   9.507   0.976   3.126
50380SOL    HW151164   9.596   0.931   3.112
50380SOL    HW251165   9.434   0.911   3.107
50381SOL     OW51166  10.835   0.999   2.052
50381SOL    HW151167  10.772   0.923   2.065
50381SOL    HW251168  10.883   1.017   2.138
50382SOL     OW51169  10.497   1.792   3.478
50382SOL    HW151170  10.521   1.852   3.402
50382SOL    HW251171  10.504   1.697   3.448
50383SOL     OW51172   9.627   0.251   3.663
50383SOL    HW151173   9.698   0.322   3.669
50383SOL    HW251174   9.539   0.290   3.691
50384SOL     OW51175  10.776   1.417   2.815
50384SOL    HW151176  10.717   1.423   2.895
50384SOL    HW251177  10.761   1.329   2.769
50385SOL     OW51178  10.977   1.714   2.434
50385SOL    HW151179  10.936   1.691   2.346
50385SOL    HW251180  10.959   1.640   2.499
50386SOL     OW51181   9.908   0.729   2.132
50386SOL    HW151182   9.932   0.798   2.064
50386SOL    HW251183   9.830   0.762   2.186
50387SOL     OW51184  10.591   0.345   2.806
50387SOL    HW151185  10.505   0.295   2.793
50387SOL    HW251186  10.653   0.291   2.862
50388SOL     OW51187  10.886   1.662   2.169
50388SOL    HW151188  10.975   1.708   2.172
50388SOL    HW251189  10.865   1.638   2.074
50389SOL     OW51190  10.117   0.605   3.327
50389SOL    HW151191  10.070   0.602   3.416
50389SOL    HW251192  10.066   0.550   3.261
50390SOL     OW51193  10.704   0.469   3.536
50390SOL    HW151194  10.684   0.512   3.624
50390SOL    HW251195  10.782   0.407   3.545
50391SOL     OW51196  10.283   0.890   3.434
50391SOL    HW151197  10.329   0.806   3.405
50391SOL    HW251198  10.227   0.924   3.359
50392SOL     OW51199  10.301   0.410   3.104
50392SOL    HW151200  10.224   0.444   3.158
50392SOL    HW251201  10.267   0.359   3.025
50393SOL     OW51202  10.351   0.701   2.291
50393SOL    HW151203  10.377   0.697   2.387
50393SOL    HW251204  10.266   0.650   2.277
50394SOL     OW51205   9.386   0.811   2.651
50394SOL    HW151206   9.485   0.799   2.660
50394SOL    HW251207   9.362   0.906   2.672
50395SOL     OW51208   9.440   1.821   3.433
50395SOL    HW151209   9.430   1.806   3.532
50395SOL    HW251210   9.354   1.857   3.397
50396SOL     OW51211  10.175   0.348   2.057
50396SOL    HW151212  10.234   0.411   2.008
50396SOL    HW251213  10.194   0.254   2.028
50397SOL     OW51214  11.029   0.585   3.693
50397SOL    HW151215  11.003   0.674   3.657
50397SOL    HW251216  11.027   0.517   3.620
50398SOL     OW51217  10.672   1.144   2.407
50398SOL    HW151218  10.755   1.115   2.359
50398SOL    HW251219  10.623   1.211   2.351
50399SOL     OW51220   9.860   0.196   2.747
50399SOL    HW151221   9.855   0.191   2.847
50399SOL    HW251222   9.862   0.292   2.718
50400SOL     OW51223  10.318   1.456   2.339
50400SOL    HW151224  10.272   1.528   2.287
50400SOL    HW251225  10.314   1.476   2.437
50401SOL     OW51226   9.661   1.801   2.715
50401SOL    HW151227   9.711   1.715   2.721
50401SOL    HW251228   9.726   1.878   2.712
50402SOL     OW51229  11.105   1.066   2.735
50402SOL    HW151230  11.043   1.051   2.659
50402SOL    HW251231  11.053   1.077   2.820
50403SOL     OW51232  10.537   1.550   3.368
50403SOL    HW151233  10.543   1.473   3.432
50403SOL    HW251234  10.485   1.524   3.288
50404SOL     OW51235   9.631   0.943   2.104
50404SOL    HW151236   9.713   0.982   2.062
50404SOL    HW251237   9.604   0.861   2.055
50405SOL     OW51238  10.768   0.735   2.590
50405SOL    HW151239  10.763   0.670   2.665
50405SOL    HW251240  10.848   0.794   2.603
50406SOL     OW51241   9.771   1.266   3.589
50406SOL    HW151242   9.721   1.267   3.503
50406SOL    HW251243   9.708   1.248   3.665
50407SOL     OW51244  10.421   1.776   2.099
50407SOL    HW151245  10.361   1.714   2.149
50407SOL    HW251246  10.452   1.732   2.014
50408SOL     OW51247   9.512   0.285   3.360
50408SOL    HW151248   9.432   0.345   3.347
50408SOL    HW251249   9.502   0.236   3.446
50409SOL     OW51250  10.942   1.377   1.943
50409SOL    HW151251  10.910   1.471   1.933
50409SOL    HW251252  10.866   1.314   1.931
50410SOL     OW51253   9.774   1.743   2.185
50410SOL    HW151254   9.807   1.782   2.271
50410SOL    HW251255   9.850   1.736   2.120
50411SOL     OW51256  10.710   0.107   2.288
50411SOL    HW151257  10.686   0.070   2.198
50411SOL    HW251258  10.809   0.123   2.292
50412SOL     OW51259   9.559   1.785   3.103
50412SOL    HW151260   9.616   1.720   3.153
50412SOL    HW251261   9.543   1.752   3.010
50413SOL     OW51262  10.250   1.698   2.766
50413SOL    HW151263  10.330   1.641   2.787
50413SOL    HW251264  10.201   1.658   2.689
50414SOL     OW51265   9.692   0.700   2.342
50414SOL    HW151266   9.737   0.610   2.339
50414SOL    HW251267   9.598   0.689   2.375
50415SOL     OW51268  10.857   0.222   3.591
50415SOL    HW151269  10.852   0.259   3.683
50415SOL    HW251270  10.785   0.153   3.579
50416SOL     OW51271   9.924   0.122   1.979
50416SOL    HW151272  10.022   0.100   1.986
50416SOL    HW251273   9.893   0.105   1.886
50417SOL     OW51274  10.091   0.264   3.611
50417SOL    HW151275  10.158   0.203   3.654
50417SOL    HW251276  10.018   0.283   3.676
50418SOL     OW51277  10.198   1.514   3.057
50418SOL    HW151278  10.175   1.489   2.963
50418SOL    HW251279  10.259   1.445   3.096
50419SOL     OW51280  10.661   0.590   3.295
50419SOL    HW151281  10.689   0.547   3.380
50419SOL    HW251282  10.686   0.686   3.296
50420SOL     OW51283  10.113   1.402   2.786
50420SOL    HW151284  10.203   1.416   2.744
50420SOL    HW251285  10.042   1.404   2.715
50421SOL     OW51286  10.232   0.503   2.761
50421SOL    HW151287  10.207   0.494   2.665
50421SOL    HW251288  10.280   0.421   2.792
50422SOL     OW51289   9.849   0.064   2.374
50422SOL    HW151290   9.768   0.065   2.432
50422SOL    HW251291   9.852   0.147   2.319
50423SOL     OW51292  10.744   1.188   1.903
50423SOL    HW151293  10.776   1.112   1.960
50423SOL    HW251294  10.652   1.215   1.933
50424SOL     OW51295   9.607   0.035   2.033
50424SOL    HW151296   9.656   0.119   2.012
50424SOL    HW251297   9.669  -0.030   2.078
50425SOL     OW51298  10.245   0.236   2.342
50425SOL    HW151299  10.197   0.277   2.264
50425SOL    HW251300  10.344   0.234   2.323
50426SOL     OW51301  10.386   0.683   3.326
50426SOL    HW151302  10.306   0.622   3.329
50426SOL    HW251303  10.467   0.630   3.302
50427SOL     OW51304  10.537   1.570   2.655
50427SOL    HW151305  10.558   1.644   2.590
50427SOL    HW251306  10.605   1.570   2.728
50428SOL     OW51307   9.769   1.152   2.603
50428SOL    HW151308   9.698   1.125   2.668
50428SOL    HW251309   9.743   1.124   2.510
50429SOL     OW51310  10.581   1.797   2.453
50429SOL    HW151311  10.625   1.861   2.389
50429SOL    HW251312  10.531   1.849   2.523
50430SOL     OW51313  10.342   0.549   1.878
50430SOL    HW151314  10.301   0.631   1.839
50430SOL    HW251315  10.406   0.575   1.951
50431SOL     OW51316   9.388   0.556   3.248
50431SOL    HW151317   9.480   0.555   3.207
50431SOL    HW251318   9.382   0.630   3.315
50432SOL     OW51319   9.871   0.222   3.009
50432SOL    HW151320   9.909   0.138   3.046
50432SOL    HW251321   9.783   0.241   3.053
50433SOL     OW51322  10.176   0.454   2.504
50433SOL    HW151323  10.144   0.526   2.442
50433SOL    HW251324  10.200   0.373   2.451
50434SOL     OW51325  10.327   0.039   2.615
50434SOL    HW151326  10.255   0.044   2.546
50434SOL    HW251327  10.303  -0.030   2.684
50435SOL     OW51328  10.739   1.173   2.729
50435SOL    HW151329  10.684   1.089   2.722
50435SOL    HW251330  10.765   1.202   2.637
50436SOL     OW51331  10.776   0.590   2.854
50436SOL    HW151332  10.746   0.495   2.861
50436SOL    HW251333  10.849   0.606   2.920
50437SOL     OW51334  11.167   0.833   2.239
50437SOL    HW151335  11.209   0.769   2.303
50437SOL    HW251336  11.129   0.782   2.161
50438SOL     OW51337   9.798   1.385   2.036
50438SOL    HW151338   9.711   1.370   2.083
50438SOL    HW251339   9.781   1.411   1.941
50439SOL     OW51340  10.974   1.280   2.519
50439SOL    HW151341  11.073   1.288   2.533
50439SOL    HW251342  10.929   1.364   2.550
50440SOL     OW51343  10.700   0.575   1.940
50440SOL    HW151344  10.646   0.554   2.021
50440SOL    HW251345  10.791   0.534   1.949
50441SOL     OW51346   9.837   0.256   2.190
50441SOL    HW151347   9.864   0.197   2.115
50441SOL    HW251348   9.837   0.351   2.159
50442SOL     OW51349  11.064   1.223   3.450
50442SOL    HW151350  11.155   1.184   3.437
50442SOL    HW251351  11.072   1.319   3.474
50443SOL     OW51352  10.374   1.347   3.202
50443SOL    HW151353  10.294   1.324   3.257
50443SOL    HW251354  10.457   1.321   3.251
50444SOL     OW51355  10.902   1.629   3.487
50444SOL    HW151356  10.929   1.663   3.397
50444SOL    HW251357  10.981   1.591   3.533
50445SOL     OW51358  10.421   1.195   2.962
50445SOL    HW151359  10.381   1.239   3.043
50445SOL    HW251360  10.380   1.232   2.879
50446SOL     OW51361  10.948   1.099   2.941
50446SOL    HW151362  10.953   1.180   3.000
50446SOL    HW251363  10.862   1.101   2.890
50447SOL     OW51364  10.225   0.089   3.264
50447SOL    HW151365  10.250   0.069   3.169
50447SOL    HW251366  10.297   0.145   3.306
50448SOL     OW51367  10.290   1.116   3.581
50448SOL    HW151368  10.191   1.122   3.591
50448SOL    HW251369  10.313   1.036   3.525
50449SOL     OW51370  10.015   1.050   2.230
50449SOL    HW151371  10.001   1.057   2.329
50449SOL    HW251372  10.099   0.999   2.212
50450SOL     OW51373   9.720   0.813   3.113
50450SOL    HW151374   9.806   0.825   3.163
50450SOL    HW251375   9.678   0.726   3.140
50451SOL     OW51376  10.584   0.386   3.124
50451SOL    HW151377  10.605   0.460   3.188
50451SOL    HW251378  10.495   0.403   3.081
50452SOL     OW51379   9.374   1.564   3.193
50452SOL    HW151380   9.328   1.646   3.159
50452SOL    HW251381   9.472   1.583   3.202
50453SOL     OW51382   9.677   1.100   2.363
50453SOL    HW151383   9.670   1.183   2.307
50453SOL    HW251384   9.681   1.020   2.303
50454SOL     OW51385   9.876   0.537   2.727
50454SOL    HW151386   9.888   0.603   2.653
50454SOL    HW251387   9.922   0.571   2.810
50455SOL     OW51388  10.562   1.348   2.250
50455SOL    HW151389  10.612   1.425   2.290
50455SOL    HW251390  10.467   1.350   2.282
50456SOL     OW51391  10.582   1.445   3.004
50456SOL    HW151392  10.629   1.458   3.091
50456SOL    HW251393  10.516   1.371   3.013
50457SOL     OW51394  10.892   0.639   2.334
50457SOL    HW151395  10.861   0.700   2.407
50457SOL    HW251396  10.942   0.691   2.265
50458SOL     OW51397   9.664   1.510   3.191
50458SOL    HW151398   9.643   1.466   3.104
50458SOL    HW251399   9.761   1.536   3.194
50459SOL     OW51400   9.712   0.751   3.460
50459SOL    HW151401   9.780   0.806   3.413
50459SOL    HW251402   9.752   0.663   3.487
50460SOL     OW51403  10.897   0.779   3.532
50460SOL    HW151404  10.805   0.817   3.527
50460SOL    HW251405  10.957   0.826   3.467
50461SOL     OW51406  10.323   0.105   3.632
50461SOL    HW151407  10.329   0.190   3.580
50461SOL    HW251408  10.355   0.029   3.575
50462SOL     OW51409   9.814   0.050   3.602
50462SOL    HW151410   9.772  -0.007   3.532
50462SOL    HW251411   9.748   0.119   3.634
50463SOL     OW51412   9.883   0.870   2.891
50463SOL    HW151413   9.927   0.959   2.882
50463SOL    HW251414   9.820   0.870   2.968
50464SOL     OW51415  10.670   0.862   2.907
50464SOL    HW151416  10.595   0.862   2.841
50464SOL    HW251417  10.707   0.770   2.916
50465SOL     OW51418  10.519   0.525   2.137
50465SOL    HW151419  10.532   0.441   2.191
50465SOL    HW251420  10.490   0.599   2.197
50466SOL     OW51421   9.617   0.213   3.093
50466SOL    HW151422   9.594   0.250   3.183
50466SOL    HW251423   9.587   0.118   3.087
50467SOL     OW51424   9.347   1.310   3.144
50467SOL    HW151425   9.400   1.261   3.212
50467SOL    HW251426   9.369   1.408   3.149
50468SOL     OW51427  10.042   0.634   2.926
50468SOL    HW151428  10.101   0.608   2.850
50468SOL    HW251429  10.014   0.730   2.915
50469SOL     OW51430  11.038   0.935   3.716
50469SOL    HW151431  10.992   0.928   3.627
50469SOL    HW251432  10.976   0.979   3.782
50470SOL     OW51433   9.617   0.063   2.480
50470SOL    HW151434   9.606   0.157   2.513
50470SOL    HW251435   9.612   0.000   2.557
50471SOL     OW51436  10.932   0.367   2.236
50471SOL    HW151437  10.934   0.291   2.300
50471SOL    HW251438  10.884   0.444   2.276
50472SOL     OW51439  10.333   0.766   2.828
50472SOL    HW151440  10.348   0.787   2.924
50472SOL    HW251441  10.303   0.671   2.819
50473SOL     OW51442  10.290   1.573   3.562
50473SOL    HW151443  10.270   1.617   3.474
50473SOL    HW251444  10.329   1.482   3.546
50474SOL     OW51445  11.169   1.518   3.467
50474SOL    HW151446  11.183   1.545   3.372
50474SOL    HW251447  11.252   1.540   3.520
50475SOL     OW51448   9.660   0.898   3.666
50475SOL    HW151449   9.736   0.942   3.714
50475SOL    HW251450   9.695   0.851   3.584
50476SOL     OW51451  10.850   0.274   1.987
50476SOL    HW151452  10.789   0.199   2.010
50476SOL    HW251453  10.872   0.326   2.070
50477SOL     OW51454  10.613   0.838   1.904
50477SOL    HW151455  10.647   0.745   1.919
50477SOL    HW251456  10.631   0.865   1.809
50478SOL     OW51457  10.378   1.333   2.711
50478SOL    HW151458  10.385   1.249   2.656
50478SOL    HW251459  10.440   1.402   2.675
50479SOL     OW51460   9.629   0.810   2.811
50479SOL    HW151461   9.722   0.846   2.816
50479SOL    HW251462   9.623   0.725   2.863
50480SOL     OW51463   9.649   0.509   2.868
50480SOL    HW151464   9.597   0.426   2.851
50480SOL    HW251465   9.726   0.514   2.804
50481SOL     OW51466  10.448   0.380   3.540
50481SOL    HW151467  10.403   0.443   3.604
50481SOL    HW251468  10.541   0.411   3.523
50482SOL     OW51469  10.470   0.207   3.339
50482SOL    HW151470  10.470   0.271   3.416
50482SOL    HW251471  10.498   0.255   3.256
50483SOL     OW51472   9.318   1.326   2.062
50483SOL    HW151473   9.225   1.347   2.031
50483SOL    HW251474   9.328   1.227   2.075
50484SOL     OW51475   9.398   1.801   2.789
50484SOL    HW151476   9.356   1.715   2.762
50484SOL    HW251477   9.492   1.804   2.755
50485SOL     OW51478   9.814   1.568   2.772
50485SOL    HW151479   9.880   1.642   2.781
50485SOL    HW251480   9.858   1.489   2.730
50486SOL     OW51481  10.312   0.796   3.100
50486SOL    HW151482  10.353   0.764   3.186
50486SOL    HW251483  10.216   0.769   3.097
50487SOL     OW51484   9.350   0.544   2.976
50487SOL    HW151485   9.435   0.511   2.935
50487SOL    HW251486   9.363   0.559   3.074
50488SOL     OW51487   9.499   0.520   3.584
50488SOL    HW151488   9.558   0.480   3.514
50488SOL    HW251489   9.441   0.591   3.543
50489SOL     OW51490  10.679   0.950   3.522
50489SOL    HW151491  10.718   1.039   3.542
50489SOL    HW251492  10.689   0.930   3.425
50490SOL     OW51493  10.125   0.572   2.187
50490SOL    HW151494  10.132   0.483   2.141
50490SOL    HW251495  10.031   0.606   2.179
50491SOL     OW51496  10.967   0.604   3.068
50491SOL    HW151497  10.929   0.535   3.130
50491SOL    HW251498  11.049   0.568   3.024
50492SOL     OW51499   9.562   1.564   3.606
50492SOL    HW151500   9.532   1.621   3.682
50492SOL    HW251501   9.555   1.467   3.632
50493SOL     OW51502   9.981   0.464   3.131
50493SOL    HW151503   9.947   0.375   3.101
50493SOL    HW251504  10.007   0.518   3.051
50494SOL     OW51505  10.240   1.678   3.327
50494SOL    HW151506  10.216   1.660   3.232
50494SOL    HW251507  10.270   1.772   3.337
50495SOL     OW51508   9.783   0.500   2.053
50495SOL    HW151509   9.844   0.580   2.057
50495SOL    HW251510   9.688   0.531   2.060
50496SOL     OW51511   9.469   1.137   3.328
50496SOL    HW151512   9.491   1.076   3.404
50496SOL    HW251513   9.479   1.088   3.242
50497SOL     OW51514  10.657   1.059   3.096
50497SOL    HW151515  10.681   0.996   3.022
50497SOL    HW251516  10.567   1.099   3.078
50498SOL     OW51517  10.612   0.855   2.171
50498SOL    HW151518  10.526   0.824   2.213
50498SOL    HW251519  10.608   0.841   2.072
50499SOL     OW51520  11.069   1.747   3.016
50499SOL    HW151521  11.130   1.777   2.943
50499SOL    HW251522  11.031   1.658   2.994
50500SOL     OW51523  10.562   1.731   2.990
50500SOL    HW151524  10.646   1.736   2.936
50500SOL    HW251525  10.539   1.635   3.008
50501SOL     OW51526   9.393   1.258   2.884
50501SOL    HW151527   9.388   1.257   2.984
50501SOL    HW251528   9.310   1.217   2.846
50502SOL     OW51529   9.998   1.662   3.578
50502SOL    HW151530   9.942   1.743   3.587
50502SOL    HW251531  10.050   1.666   3.492
50503SOL     OW51532  11.036   0.135   2.385
50503SOL    HW151533  11.109   0.118   2.318
50503SOL    HW251534  11.005   0.048   2.423
50504SOL     OW51535  10.698   1.573   2.339
50504SOL    HW151536  10.765   1.585   2.265
50504SOL    HW251537  10.658   1.662   2.362
50505SOL     OW51538   9.440   1.794   3.713
50505SOL    HW151539   9.399   1.720   3.766
50505SOL    HW251540   9.504   1.845   3.771
50506SOL     OW51541  10.590   0.927   2.534
50506SOL    HW151542  10.650   0.846   2.536
50506SOL    HW251543  10.630   0.996   2.474
50507SOL     OW51544  10.140   1.273   3.284
50507SOL    HW151545  10.135   1.306   3.379
50507SOL    HW251546  10.054   1.292   3.238
50508SOL     OW51547   9.982   1.616   2.016
50508SOL    HW151548   9.991   1.626   1.917
50508SOL    HW251549   9.942   1.527   2.037
50509SOL     OW51550  10.960   1.720   3.256
50509SOL    HW151551  11.013   1.730   3.172
50509SOL    HW251552  10.933   1.810   3.290
50510SOL     OW51553  11.151   0.175   2.825
50510SOL    HW151554  11.190   0.090   2.789
50510SOL    HW251555  11.053   0.177   2.806
50511SOL     OW51556   9.573   0.326   2.582
50511SOL    HW151557   9.494   0.377   2.548
50511SOL    HW251558   9.564   0.311   2.680
50512SOL     OW51559  10.504   1.612   1.893
50512SOL    HW151560  10.510   1.519   1.930
50512SOL    HW251561  10.445   1.612   1.813
50513SOL     OW51562  10.132   1.002   3.234
50513SOL    HW151563  10.172   1.001   3.142
50513SOL    HW251564  10.142   1.094   3.274
50514SOL     OW51565  10.226   0.910   2.153
50514SOL    HW151566  10.289   0.948   2.085
50514SOL    HW251567  10.266   0.827   2.192
50515SOL     OW51568  10.814   1.607   1.906
50515SOL    HW151569  10.722   1.644   1.913
50515SOL    HW251570  10.852   1.627   1.816
50516SOL     OW51571   9.682   1.288   3.352
50516SOL    HW151572   9.669   1.381   3.318
50516SOL    HW251573   9.598   1.236   3.339
50517SOL     OW51574  10.924   1.292   3.151
50517SOL    HW151575  10.984   1.295   3.231
50517SOL    HW251576  10.849   1.356   3.164
50518SOL     OW51577  10.349   1.098   2.558
50518SOL    HW151578  10.279   1.051   2.612
50518SOL    HW251579  10.408   1.030   2.515
50519SOL     OW51580  10.324   0.236   2.833
50519SOL    HW151581  10.316   0.200   2.740
50519SOL    HW251582  10.322   0.160   2.898
50520SOL     OW51583   9.900   1.487   2.353
50520SOL    HW151584   9.942   1.429   2.283
50520SOL    HW251585   9.856   1.566   2.309
50521SOL     OW51586  11.019   0.385   3.243
50521SOL    HW151587  11.092   0.454   3.247
50521SOL    HW251588  11.047   0.310   3.184
50522SOL     OW51589   9.565   1.348   2.152
50522SOL    HW151590   9.469   1.349   2.125
50522SOL    HW251591   9.577   1.401   2.236
50523SOL     OW51592   9.415   1.013   3.588
50523SOL    HW151593   9.338   0.980   3.642
50523SOL    HW251594   9.500   0.983   3.630
50524SOL     OW51595   9.982   0.203   3.351
50524SOL    HW151596  10.072   0.187   3.311
50524SOL    HW251597   9.990   0.208   3.450
50525SOL     OW51598   9.385   0.345   1.895
50525SOL    HW151599   9.293   0.317   1.866
50525SOL    HW251600   9.416   0.422   1.839
50526SOL     OW51601  10.750   0.856   3.260
50526SOL    HW151602  10.693   0.908   3.197
50526SOL    HW251603  10.846   0.868   3.236
50527SOL     OW51604   9.382   0.166   2.180
50527SOL    HW151605   9.365   0.249   2.126
50527SOL    HW251606   9.472   0.129   2.158
50528SOL     OW51607  10.493   1.335   1.981
50528SOL    HW151608  10.394   1.324   1.983
50528SOL    HW251609  10.527   1.350   2.074
50529SOL     OW51610   9.923   0.842   3.293
50529SOL    HW151611   9.979   0.923   3.276
50529SOL    HW251612   9.982   0.762   3.296
50530SOL     OW51613  10.803   1.767   2.821
50530SOL    HW151614  10.836   1.831   2.752
50530SOL    HW251615  10.869   1.761   2.896
50531SOL     OW51616  10.026   0.565   3.570
50531SOL    HW151617  10.045   0.630   3.644
50531SOL    HW251618  10.086   0.485   3.579
50532SOL     OW51619  10.760   1.220   3.495
50532SOL    HW151620  10.751   1.210   3.594
50532SOL    HW251621  10.856   1.213   3.469
50533SOL     OW51622   9.700   1.741   3.422
50533SOL    HW151623   9.609   1.782   3.420
50533SOL    HW251624   9.693   1.647   3.454
50534SOL     OW51625  10.984   0.883   3.116
50534SOL    HW151626  10.957   0.794   3.079
50534SOL    HW251627  10.985   0.951   3.043
50535SOL     OW51628  10.535   0.325   2.311
50535SOL    HW151629  10.600   0.251   2.300
50535SOL    HW251630  10.555   0.375   2.395
50536SOL     OW51631   9.904   0.745   2.514
50536SOL    HW151632   9.954   0.830   2.495
50536SOL    HW251633   9.816   0.747   2.466
50537SOL     OW51634  11.087   0.342   3.504
50537SOL    HW151635  11.070   0.373   3.410
50537SOL    HW251636  11.003   0.305   3.542
50538SOL     OW51637  11.040   0.934   3.379
50538SOL    HW151638  11.078   1.025   3.394
50538SOL    HW251639  11.032   0.917   3.280
50539SOL     OW51640  10.169   1.374   1.878
50539SOL    HW151641  10.123   1.389   1.966
50539SOL    HW251642  10.213   1.459   1.848
50540SOL     OW51643   9.971   1.790   2.815
50540SOL    HW151644   9.925   1.878   2.802
50540SOL    HW251645  10.070   1.802   2.808
50541SOL     OW51646  10.169   0.956   2.723
50541SOL    HW151647  10.223   0.887   2.771
50541SOL    HW251648  10.137   1.025   2.789
50542SOL     OW51649  10.393   0.984   1.949
50542SOL    HW151650  10.370   1.037   1.867
50542SOL    HW251651  10.474   0.928   1.930
50543SOL     OW51652  11.171   1.569   2.713
50543SOL    HW151653  11.100   1.557   2.643
50543SOL    HW251654  11.172   1.490   2.773
50544SOL     OW51655   9.531   1.314   3.706
50544SOL    HW151656   9.466   1.241   3.685
50544SOL    HW251657   9.535   1.328   3.804
50545SOL     OW51658   9.389   1.240   2.515
50545SOL    HW151659   9.388   1.193   2.603
50545SOL    HW251660   9.471   1.212   2.464
50546SOL     OW51661   9.982   1.391   3.486
50546SOL    HW151662   9.904   1.341   3.524
50546SOL    HW251663   9.979   1.486   3.517
50547SOL     OW51664  11.134   0.192   3.089
50547SOL    HW151665  11.130   0.102   3.133
50547SOL    HW251666  11.137   0.181   2.990
50548SOL     OW51667   9.738   0.424   2.382
50548SOL    HW151668   9.768   0.352   2.320
50548SOL    HW251669   9.699   0.384   2.465
50549SOL     OW51670  11.015   1.487   2.966
50549SOL    HW151671  10.922   1.462   2.939
50549SOL    HW251672  11.041   1.437   3.048
50550SOL     OW51673   9.627   0.547   3.142
50550SOL    HW151674   9.665   0.488   3.214
50550SOL    HW251675   9.667   0.521   3.054
50551SOL     OW51676  10.122   1.586   2.549
50551SOL    HW151677  10.154   1.596   2.455
50551SOL    HW251678  10.043   1.524   2.551
50552SOL     OW51679  10.734   0.214   2.974
50552SOL    HW151680  10.786   0.149   3.029
50552SOL    HW251681  10.685   0.277   3.035
50553SOL     OW51682  10.311   0.034   3.016
50553SOL    HW151683  10.248  -0.038   2.985
50553SOL    HW251684  10.404  -0.002   3.016
50554SOL     OW51685  10.080   1.330   2.163
50554SOL    HW151686  10.034   1.243   2.180
50554SOL    HW251687  10.171   1.327   2.204
50555SOL     OW51688   9.928   1.567   3.146
50555SOL    HW151689   9.923   1.649   3.203
50555SOL    HW251690  10.017   1.564   3.101
50556SOL     OW51691  10.662   0.052   2.030
50556SOL    HW151692  10.697   0.011   1.946
50556SOL    HW251693  10.572   0.014   2.050
50557SOL     OW51694  10.610   0.453   2.553
50557SOL    HW151695  10.551   0.533   2.557
50557SOL    HW251696  10.625   0.418   2.646
50558SOL     OW51697  10.903   0.221   2.744
50558SOL    HW151698  10.819   0.220   2.798
50558SOL    HW251699  10.905   0.304   2.688
50559SOL     OW51700   9.349   1.077   2.162
50559SOL    HW151701   9.448   1.066   2.153
50559SOL    HW251702   9.309   0.991   2.194
50560SOL     OW51703  10.185   1.646   2.199
50560SOL    HW151704  10.108   1.611   2.145
50560SOL    HW251705  10.153   1.717   2.261
50561SOL     OW51706   9.540   0.628   3.837
50561SOL    HW151707   9.447   0.626   3.874
50561SOL    HW251708   9.541   0.589   3.745
50562SOL     OW51709   9.535   0.275   4.720
50562SOL    HW151710   9.570   0.258   4.812
50562SOL    HW251711   9.447   0.230   4.708
50563SOL     OW51712   9.329   0.368   4.371
50563SOL    HW151713   9.247   0.411   4.410
50563SOL    HW251714   9.301   0.295   4.308
50564SOL     OW51715   9.879   1.275   4.889
50564SOL    HW151716   9.786   1.268   4.852
50564SOL    HW251717   9.890   1.364   4.933
50565SOL     OW51718  10.865   1.511   4.427
50565SOL    HW151719  10.808   1.495   4.508
50565SOL    HW251720  10.806   1.521   4.347
50566SOL     OW51721  10.445   0.703   4.441
50566SOL    HW151722  10.502   0.781   4.416
50566SOL    HW251723  10.385   0.729   4.517
50567SOL     OW51724  11.065   0.607   3.955
50567SOL    HW151725  11.053   0.594   3.856
50567SOL    HW251726  11.035   0.526   4.004
50568SOL     OW51727  10.078   1.144   4.747
50568SOL    HW151728  10.000   1.161   4.807
50568SOL    HW251729  10.112   1.231   4.711
50569SOL     OW51730  10.160   0.798   5.547
50569SOL    HW151731  10.156   0.874   5.612
50569SOL    HW251732  10.182   0.834   5.456
50570SOL     OW51733   9.995   1.012   4.389
50570SOL    HW151734  10.064   0.996   4.459
50570SOL    HW251735   9.922   1.069   4.427
50571SOL     OW51736   9.996   1.161   5.527
50571SOL    HW151737  10.056   1.240   5.541
50571SOL    HW251738   9.910   1.192   5.486
50572SOL     OW51739   9.645   1.435   4.785
50572SOL    HW151740   9.567   1.404   4.732
50572SOL    HW251741   9.703   1.493   4.728
50573SOL     OW51742  10.770   1.505   5.063
50573SOL    HW151743  10.794   1.599   5.089
50573SOL    HW251744  10.754   1.451   5.145
50574SOL     OW51745   9.748   0.392   5.223
50574SOL    HW151746   9.830   0.336   5.232
50574SOL    HW251747   9.667   0.334   5.227
50575SOL     OW51748  10.913   0.447   4.461
50575SOL    HW151749  10.839   0.493   4.411
50575SOL    HW251750  10.964   0.515   4.514
50576SOL     OW51751   9.541   1.713   4.207
50576SOL    HW151752   9.575   1.790   4.261
50576SOL    HW251753   9.585   1.713   4.117
50577SOL     OW51754  10.437   1.341   5.414
50577SOL    HW151755  10.484   1.341   5.502
50577SOL    HW251756  10.389   1.254   5.403
50578SOL     OW51757   9.540   1.434   4.262
50578SOL    HW151758   9.514   1.530   4.262
50578SOL    HW251759   9.469   1.380   4.307
50579SOL     OW51760   9.550   1.091   4.610
50579SOL    HW151761   9.564   1.007   4.662
50579SOL    HW251762   9.495   1.155   4.665
50580SOL     OW51763   9.930   1.786   5.163
50580SOL    HW151764   9.838   1.769   5.198
50580SOL    HW251765   9.958   1.878   5.189
50581SOL     OW51766   9.916   0.964   3.847
50581SOL    HW151767   9.923   1.048   3.793
50581SOL    HW251768   9.962   0.977   3.935
50582SOL     OW51769  10.904   0.114   5.204
50582SOL    HW151770  10.886   0.181   5.132
50582SOL    HW251771  10.901   0.160   5.293
50583SOL     OW51772   9.432   0.643   4.287
50583SOL    HW151773   9.387   0.555   4.304
50583SOL    HW251774   9.431   0.697   4.371
50584SOL     OW51775  11.152   1.767   4.083
50584SOL    HW151776  11.206   1.738   4.163
50584SOL    HW251777  11.182   1.857   4.054
50585SOL     OW51778   9.337   1.596   3.841
50585SOL    HW151779   9.318   1.500   3.862
50585SOL    HW251780   9.304   1.654   3.916
50586SOL     OW51781  10.999   0.922   4.336
50586SOL    HW151782  11.094   0.893   4.344
50586SOL    HW251783  10.991   0.987   4.261
50587SOL     OW51784  10.951   1.108   4.156
50587SOL    HW151785  11.037   1.110   4.104
50587SOL    HW251786  10.965   1.155   4.244
50588SOL     OW51787   9.423   0.737   5.321
50588SOL    HW151788   9.511   0.724   5.366
50588SOL    HW251789   9.410   0.834   5.299
50589SOL     OW51790   9.923   1.365   4.450
50589SOL    HW151791   9.874   1.278   4.459
50589SOL    HW251792   9.900   1.408   4.363
50590SOL     OW51793  10.603   1.228   5.147
50590SOL    HW151794  10.640   1.155   5.089
50590SOL    HW251795  10.655   1.233   5.232
50591SOL     OW51796  10.119   0.004   4.226
50591SOL    HW151797  10.159   0.095   4.217
50591SOL    HW251798  10.019   0.012   4.232
50592SOL     OW51799   9.507   0.976   4.988
50592SOL    HW151800   9.596   0.931   4.974
50592SOL    HW251801   9.434   0.911   4.969
50593SOL     OW51802  10.835   0.999   3.914
50593SOL    HW151803  10.772   0.923   3.927
50593SOL    HW251804  10.883   1.017   4.000
50594SOL     OW51805  10.497   1.792   5.340
50594SOL    HW151806  10.521   1.852   5.264
50594SOL    HW251807  10.504   1.697   5.310
50595SOL     OW51808   9.627   0.251   5.525
50595SOL    HW151809   9.698   0.322   5.531
50595SOL    HW251810   9.539   0.290   5.553
50596SOL     OW51811  10.776   1.417   4.677
50596SOL    HW151812  10.717   1.423   4.757
50596SOL    HW251813  10.761   1.329   4.631
50597SOL     OW51814  10.977   1.714   4.296
50597SOL    HW151815  10.936   1.691   4.208
50597SOL    HW251816  10.959   1.640   4.361
50598SOL     OW51817   9.908   0.729   3.994
50598SOL    HW151818   9.932   0.798   3.926
50598SOL    HW251819   9.830   0.762   4.048
50599SOL     OW51820  10.591   0.345   4.668
50599SOL    HW151821  10.505   0.295   4.655
50599SOL    HW251822  10.653   0.291   4.724
50600SOL     OW51823  10.886   1.662   4.031
50600SOL    HW151824  10.975   1.708   4.034
50600SOL    HW251825  10.865   1.638   3.936
50601SOL     OW51826  10.117   0.605   5.189
50601SOL    HW151827  10.070   0.602   5.278
50601SOL    HW251828  10.066   0.550   5.123
50602SOL     OW51829  10.704   0.469   5.398
50602SOL    HW151830  10.684   0.512   5.486
50602SOL    HW251831  10.782   0.407   5.407
50603SOL     OW51832  10.283   0.890   5.296
50603SOL    HW151833  10.329   0.806   5.267
50603SOL    HW251834  10.227   0.924   5.221
50604SOL     OW51835  10.301   0.410   4.966
50604SOL    HW151836  10.224   0.444   5.020
50604SOL    HW251837  10.267   0.359   4.887
50605SOL     OW51838  10.351   0.701   4.153
50605SOL    HW151839  10.377   0.697   4.249
50605SOL    HW251840  10.266   0.650   4.139
50606SOL     OW51841   9.386   0.811   4.513
50606SOL    HW151842   9.485   0.799   4.522
50606SOL    HW251843   9.362   0.906   4.534
50607SOL     OW51844   9.440   1.821   5.295
50607SOL    HW151845   9.430   1.806   5.394
50607SOL    HW251846   9.354   1.857   5.259
50608SOL     OW51847  10.175   0.348   3.919
50608SOL    HW151848  10.234   0.411   3.870
50608SOL    HW251849  10.194   0.254   3.890
50609SOL     OW51850  11.029   0.585   5.555
50609SOL    HW151851  11.003   0.674   5.519
50609SOL    HW251852  11.027   0.517   5.482
50610SOL     OW51853  10.672   1.144   4.269
50610SOL    HW151854  10.755   1.115   4.221
50610SOL    HW251855  10.623   1.211   4.213
50611SOL     OW51856   9.860   0.196   4.609
50611SOL    HW151857   9.855   0.191   4.709
50611SOL    HW251858   9.862   0.292   4.580
50612SOL     OW51859  10.318   1.456   4.201
50612SOL    HW151860  10.272   1.528   4.149
50612SOL    HW251861  10.314   1.476   4.299
50613SOL     OW51862   9.661   1.801   4.577
50613SOL    HW151863   9.711   1.715   4.583
50613SOL    HW251864   9.726   1.878   4.574
50614SOL     OW51865  11.105   1.066   4.597
50614SOL    HW151866  11.043   1.051   4.521
50614SOL    HW251867  11.053   1.077   4.682
50615SOL     OW51868  10.537   1.550   5.230
50615SOL    HW151869  10.543   1.473   5.294
50615SOL    HW251870  10.485   1.524   5.150
50616SOL     OW51871   9.631   0.943   3.966
50616SOL    HW151872   9.713   0.982   3.924
50616SOL    HW251873   9.604   0.861   3.917
50617SOL     OW51874  10.768   0.735   4.452
50617SOL    HW151875  10.763   0.670   4.527
50617SOL    HW251876  10.848   0.794   4.465
50618SOL     OW51877   9.771   1.266   5.451
50618SOL    HW151878   9.721   1.267   5.365
50618SOL    HW251879   9.708   1.248   5.527
50619SOL     OW51880  10.421   1.776   3.961
50619SOL    HW151881  10.361   1.714   4.011
50619SOL    HW251882  10.452   1.732   3.876
50620SOL     OW51883   9.512   0.285   5.222
50620SOL    HW151884   9.432   0.345   5.209
50620SOL    HW251885   9.502   0.236   5.308
50621SOL     OW51886  10.942   1.377   3.805
50621SOL    HW151887  10.910   1.471   3.795
50621SOL    HW251888  10.866   1.314   3.793
50622SOL     OW51889   9.774   1.743   4.047
50622SOL    HW151890   9.807   1.782   4.133
50622SOL    HW251891   9.850   1.736   3.982
50623SOL     OW51892  10.710   0.107   4.150
50623SOL    HW151893  10.686   0.070   4.060
50623SOL    HW251894  10.809   0.123   4.154
50624SOL     OW51895   9.559   1.785   4.965
50624SOL    HW151896   9.616   1.720   5.015
50624SOL    HW251897   9.543   1.752   4.872
50625SOL     OW51898  10.250   1.698   4.628
50625SOL    HW151899  10.330   1.641   4.649
50625SOL    HW251900  10.201   1.658   4.551
50626SOL     OW51901   9.692   0.700   4.204
50626SOL    HW151902   9.737   0.610   4.201
50626SOL    HW251903   9.598   0.689   4.237
50627SOL     OW51904  10.857   0.222   5.453
50627SOL    HW151905  10.852   0.259   5.545
50627SOL    HW251906  10.785   0.153   5.441
50628SOL     OW51907   9.924   0.122   3.841
50628SOL    HW151908  10.022   0.100   3.848
50628SOL    HW251909   9.893   0.105   3.748
50629SOL     OW51910  10.091   0.264   5.473
50629SOL    HW151911  10.158   0.203   5.516
50629SOL    HW251912  10.018   0.283   5.538
50630SOL     OW51913  10.198   1.514   4.919
50630SOL    HW151914  10.175   1.489   4.825
50630SOL    HW251915  10.259   1.445   4.958
50631SOL     OW51916  10.661   0.590   5.157
50631SOL    HW151917  10.689   0.547   5.242
50631SOL    HW251918  10.686   0.686   5.158
50632SOL     OW51919  10.113   1.402   4.648
50632SOL    HW151920  10.203   1.416   4.606
50632SOL    HW251921  10.042   1.404   4.577
50633SOL     OW51922  10.232   0.503   4.623
50633SOL    HW151923  10.207   0.494   4.527
50633SOL    HW251924  10.280   0.421   4.654
50634SOL     OW51925   9.849   0.064   4.236
50634SOL    HW151926   9.768   0.065   4.294
50634SOL    HW251927   9.852   0.147   4.181
50635SOL     OW51928  10.744   1.188   3.765
50635SOL    HW151929  10.776   1.112   3.822
50635SOL    HW251930  10.652   1.215   3.795
50636SOL     OW51931   9.607   0.035   3.895
50636SOL    HW151932   9.656   0.119   3.874
50636SOL    HW251933   9.669  -0.030   3.940
50637SOL     OW51934  10.245   0.236   4.204
50637SOL    HW151935  10.197   0.277   4.126
50637SOL    HW251936  10.344   0.234   4.185
50638SOL     OW51937  10.386   0.683   5.188
50638SOL    HW151938  10.306   0.622   5.191
50638SOL    HW251939  10.467   0.630   5.164
50639SOL     OW51940  10.537   1.570   4.517
50639SOL    HW151941  10.558   1.644   4.452
50639SOL    HW251942  10.605   1.570   4.590
50640SOL     OW51943   9.769   1.152   4.465
50640SOL    HW151944   9.698   1.125   4.530
50640SOL    HW251945   9.743   1.124   4.372
50641SOL     OW51946  10.581   1.797   4.315
50641SOL    HW151947  10.625   1.861   4.251
50641SOL    HW251948  10.531   1.849   4.385
50642SOL     OW51949  10.342   0.549   3.740
50642SOL    HW151950  10.301   0.631   3.701
50642SOL    HW251951  10.406   0.575   3.813
50643SOL     OW51952   9.388   0.556   5.110
50643SOL    HW151953   9.480   0.555   5.069
50643SOL    HW251954   9.382   0.630   5.177
50644SOL     OW51955   9.871   0.222   4.871
50644SOL    HW151956   9.909   0.138   4.908
50644SOL    HW251957   9.783   0.241   4.915
50645SOL     OW51958  10.176   0.454   4.366
50645SOL    HW151959  10.144   0.526   4.304
50645SOL    HW251960  10.200   0.373   4.313
50646SOL     OW51961  10.327   0.039   4.477
50646SOL    HW151962  10.255   0.044   4.408
50646SOL    HW251963  10.303  -0.030   4.546
50647SOL     OW51964  10.739   1.173   4.591
50647SOL    HW151965  10.684   1.089   4.584
50647SOL    HW251966  10.765   1.202   4.499
50648SOL     OW51967  10.776   0.590   4.716
50648SOL    HW151968  10.746   0.495   4.723
50648SOL    HW251969  10.849   0.606   4.782
50649SOL     OW51970  11.167   0.833   4.101
50649SOL    HW151971  11.209   0.769   4.165
50649SOL    HW251972  11.129   0.782   4.023
50650SOL     OW51973   9.798   1.385   3.898
50650SOL    HW151974   9.711   1.370   3.945
50650SOL    HW251975   9.781   1.411   3.803
50651SOL     OW51976  10.974   1.280   4.381
50651SOL    HW151977  11.073   1.288   4.395
50651SOL    HW251978  10.929   1.364   4.412
50652SOL     OW51979  10.700   0.575   3.802
50652SOL    HW151980  10.646   0.554   3.883
50652SOL    HW251981  10.791   0.534   3.811
50653SOL     OW51982   9.837   0.256   4.052
50653SOL    HW151983   9.864   0.197   3.977
50653SOL    HW251984   9.837   0.351   4.021
50654SOL     OW51985  11.064   1.223   5.312
50654SOL    HW151986  11.155   1.184   5.299
50654SOL    HW251987  11.072   1.319   5.336
50655SOL     OW51988  10.374   1.347   5.064
50655SOL    HW151989  10.294   1.324   5.119
50655SOL    HW251990  10.457   1.321   5.113
50656SOL     OW51991  10.902   1.629   5.349
50656SOL    HW151992  10.929   1.663   5.259
50656SOL    HW251993  10.981   1.591   5.395
50657SOL     OW51994  10.421   1.195   4.824
50657SOL    HW151995  10.381   1.239   4.905
50657SOL    HW251996  10.380   1.232   4.741
50658SOL     OW51997  10.948   1.099   4.803
50658SOL    HW151998  10.953   1.180   4.862
50658SOL    HW251999  10.862   1.101   4.752
50659SOL     OW52000  10.225   0.089   5.126
50659SOL    HW152001  10.250   0.069   5.031
50659SOL    HW252002  10.297   0.145   5.168
50660SOL     OW52003  10.290   1.116   5.443
50660SOL    HW152004  10.191   1.122   5.453
50660SOL    HW252005  10.313   1.036   5.387
50661SOL     OW52006  10.015   1.050   4.092
50661SOL    HW152007  10.001   1.057   4.191
50661SOL    HW252008  10.099   0.999   4.074
50662SOL     OW52009   9.720   0.813   4.975
50662SOL    HW152010   9.806   0.825   5.025
50662SOL    HW252011   9.678   0.726   5.002
50663SOL     OW52012  10.584   0.386   4.986
50663SOL    HW152013  10.605   0.460   5.050
50663SOL    HW252014  10.495   0.403   4.943
50664SOL     OW52015   9.374   1.564   5.055
50664SOL    HW152016   9.328   1.646   5.021
50664SOL    HW252017   9.472   1.583   5.064
50665SOL     OW52018   9.677   1.100   4.225
50665SOL    HW152019   9.670   1.183   4.169
50665SOL    HW252020   9.681   1.020   4.165
50666SOL     OW52021   9.876   0.537   4.589
50666SOL    HW152022   9.888   0.603   4.515
50666SOL    HW252023   9.922   0.571   4.672
50667SOL     OW52024  10.562   1.348   4.112
50667SOL    HW152025  10.612   1.425   4.152
50667SOL    HW252026  10.467   1.350   4.144
50668SOL     OW52027  10.582   1.445   4.866
50668SOL    HW152028  10.629   1.458   4.953
50668SOL    HW252029  10.516   1.371   4.875
50669SOL     OW52030  10.892   0.639   4.196
50669SOL    HW152031  10.861   0.700   4.269
50669SOL    HW252032  10.942   0.691   4.127
50670SOL     OW52033   9.664   1.510   5.053
50670SOL    HW152034   9.643   1.466   4.966
50670SOL    HW252035   9.761   1.536   5.056
50671SOL     OW52036   9.712   0.751   5.322
50671SOL    HW152037   9.780   0.806   5.275
50671SOL    HW252038   9.752   0.663   5.349
50672SOL     OW52039  10.897   0.779   5.394
50672SOL    HW152040  10.805   0.817   5.389
50672SOL    HW252041  10.957   0.826   5.329
50673SOL     OW52042  10.323   0.105   5.494
50673SOL    HW152043  10.329   0.190   5.442
50673SOL    HW252044  10.355   0.029   5.437
50674SOL     OW52045   9.814   0.050   5.464
50674SOL    HW152046   9.772  -0.007   5.394
50674SOL    HW252047   9.748   0.119   5.496
50675SOL     OW52048   9.883   0.870   4.753
50675SOL    HW152049   9.927   0.959   4.744
50675SOL    HW252050   9.820   0.870   4.830
50676SOL     OW52051  10.670   0.862   4.769
50676SOL    HW152052  10.595   0.862   4.703
50676SOL    HW252053  10.707   0.770   4.778
50677SOL     OW52054  10.519   0.525   3.999
50677SOL    HW152055  10.532   0.441   4.053
50677SOL    HW252056  10.490   0.599   4.059
50678SOL     OW52057   9.617   0.213   4.955
50678SOL    HW152058   9.594   0.250   5.045
50678SOL    HW252059   9.587   0.118   4.949
50679SOL     OW52060   9.347   1.310   5.006
50679SOL    HW152061   9.400   1.261   5.074
50679SOL    HW252062   9.369   1.408   5.011
50680SOL     OW52063  10.042   0.634   4.788
50680SOL    HW152064  10.101   0.608   4.712
50680SOL    HW252065  10.014   0.730   4.777
50681SOL     OW52066  11.038   0.935   5.578
50681SOL    HW152067  10.992   0.928   5.489
50681SOL    HW252068  10.976   0.979   5.644
50682SOL     OW52069   9.617   0.063   4.342
50682SOL    HW152070   9.606   0.157   4.375
50682SOL    HW252071   9.612   0.000   4.419
50683SOL     OW52072  10.932   0.367   4.098
50683SOL    HW152073  10.934   0.291   4.162
50683SOL    HW252074  10.884   0.444   4.138
50684SOL     OW52075  10.333   0.766   4.690
50684SOL    HW152076  10.348   0.787   4.786
50684SOL    HW252077  10.303   0.671   4.681
50685SOL     OW52078  10.290   1.573   5.424
50685SOL    HW152079  10.270   1.617   5.336
50685SOL    HW252080  10.329   1.482   5.408
50686SOL     OW52081  11.169   1.518   5.329
50686SOL    HW152082  11.183   1.545   5.234
50686SOL    HW252083  11.252   1.540   5.382
50687SOL     OW52084   9.660   0.898   5.528
50687SOL    HW152085   9.736   0.942   5.576
50687SOL    HW252086   9.695   0.851   5.446
50688SOL     OW52087  10.850   0.274   3.849
50688SOL    HW152088  10.789   0.199   3.872
50688SOL    HW252089  10.872   0.326   3.932
50689SOL     OW52090  10.613   0.838   3.766
50689SOL    HW152091  10.647   0.745   3.781
50689SOL    HW252092  10.631   0.865   3.671
50690SOL     OW52093  10.378   1.333   4.573
50690SOL    HW152094  10.385   1.249   4.518
50690SOL    HW252095  10.440   1.402   4.537
50691SOL     OW52096   9.629   0.810   4.673
50691SOL    HW152097   9.722   0.846   4.678
50691SOL    HW252098   9.623   0.725   4.725
50692SOL     OW52099   9.649   0.509   4.730
50692SOL    HW152100   9.597   0.426   4.713
50692SOL    HW252101   9.726   0.514   4.666
50693SOL     OW52102  10.448   0.380   5.402
50693SOL    HW152103  10.403   0.443   5.466
50693SOL    HW252104  10.541   0.411   5.385
50694SOL     OW52105  10.470   0.207   5.201
50694SOL    HW152106  10.470   0.271   5.278
50694SOL    HW252107  10.498   0.255   5.118
50695SOL     OW52108   9.318   1.326   3.924
50695SOL    HW152109   9.225   1.347   3.893
50695SOL    HW252110   9.328   1.227   3.937
50696SOL     OW52111   9.398   1.801   4.651
50696SOL    HW152112   9.356   1.715   4.624
50696SOL    HW252113   9.492   1.804   4.617
50697SOL     OW52114   9.814   1.568   4.634
50697SOL    HW152115   9.880   1.642   4.643
50697SOL    HW252116   9.858   1.489   4.592
50698SOL     OW52117  10.312   0.796   4.962
50698SOL    HW152118  10.353   0.764   5.048
50698SOL    HW252119  10.216   0.769   4.959
50699SOL     OW52120   9.350   0.544   4.838
50699SOL    HW152121   9.435   0.511   4.797
50699SOL    HW252122   9.363   0.559   4.936
50700SOL     OW52123   9.499   0.520   5.446
50700SOL    HW152124   9.558   0.480   5.376
50700SOL    HW252125   9.441   0.591   5.405
50701SOL     OW52126  10.679   0.950   5.384
50701SOL    HW152127  10.718   1.039   5.404
50701SOL    HW252128  10.689   0.930   5.287
50702SOL     OW52129  10.125   0.572   4.049
50702SOL    HW152130  10.132   0.483   4.003
50702SOL    HW252131  10.031   0.606   4.041
50703SOL     OW52132  10.967   0.604   4.930
50703SOL    HW152133  10.929   0.535   4.992
50703SOL    HW252134  11.049   0.568   4.886
50704SOL     OW52135   9.562   1.564   5.468
50704SOL    HW152136   9.532   1.621   5.544
50704SOL    HW252137   9.555   1.467   5.494
50705SOL     OW52138   9.981   0.464   4.993
50705SOL    HW152139   9.947   0.375   4.963
50705SOL    HW252140  10.007   0.518   4.913
50706SOL     OW52141  10.240   1.678   5.189
50706SOL    HW152142  10.216   1.660   5.094
50706SOL    HW252143  10.270   1.772   5.199
50707SOL     OW52144   9.783   0.500   3.915
50707SOL    HW152145   9.844   0.580   3.919
50707SOL    HW252146   9.688   0.531   3.922
50708SOL     OW52147   9.469   1.137   5.190
50708SOL    HW152148   9.491   1.076   5.266
50708SOL    HW252149   9.479   1.088   5.104
50709SOL     OW52150  10.657   1.059   4.958
50709SOL    HW152151  10.681   0.996   4.884
50709SOL    HW252152  10.567   1.099   4.940
50710SOL     OW52153  10.612   0.855   4.033
50710SOL    HW152154  10.526   0.824   4.075
50710SOL    HW252155  10.608   0.841   3.934
50711SOL     OW52156  11.069   1.747   4.878
50711SOL    HW152157  11.130   1.777   4.805
50711SOL    HW252158  11.031   1.658   4.856
50712SOL     OW52159  10.562   1.731   4.852
50712SOL    HW152160  10.646   1.736   4.798
50712SOL    HW252161  10.539   1.635   4.870
50713SOL     OW52162   9.393   1.258   4.746
50713SOL    HW152163   9.388   1.257   4.846
50713SOL    HW252164   9.310   1.217   4.708
50714SOL     OW52165   9.998   1.662   5.440
50714SOL    HW152166   9.942   1.743   5.449
50714SOL    HW252167  10.050   1.666   5.354
50715SOL     OW52168  11.036   0.135   4.247
50715SOL    HW152169  11.109   0.118   4.180
50715SOL    HW252170  11.005   0.048   4.285
50716SOL     OW52171  10.698   1.573   4.201
50716SOL    HW152172  10.765   1.585   4.127
50716SOL    HW252173  10.658   1.662   4.224
50717SOL     OW52174   9.440   1.794   5.575
50717SOL    HW152175   9.399   1.720   5.628
50717SOL    HW252176   9.504   1.845   5.633
50718SOL     OW52177  10.590   0.927   4.396
50718SOL    HW152178  10.650   0.846   4.398
50718SOL    HW252179  10.630   0.996   4.336
50719SOL     OW52180  10.140   1.273   5.146
50719SOL    HW152181  10.135   1.306   5.241
50719SOL    HW252182  10.054   1.292   5.100
50720SOL     OW52183   9.982   1.616   3.878
50720SOL    HW152184   9.991   1.626   3.779
50720SOL    HW252185   9.942   1.527   3.899
50721SOL     OW52186  10.960   1.720   5.118
50721SOL    HW152187  11.013   1.730   5.034
50721SOL    HW252188  10.933   1.810   5.152
50722SOL     OW52189  11.151   0.175   4.687
50722SOL    HW152190  11.190   0.090   4.651
50722SOL    HW252191  11.053   0.177   4.668
50723SOL     OW52192   9.573   0.326   4.444
50723SOL    HW152193   9.494   0.377   4.410
50723SOL    HW252194   9.564   0.311   4.542
50724SOL     OW52195  10.504   1.612   3.755
50724SOL    HW152196  10.510   1.519   3.792
50724SOL    HW252197  10.445   1.612   3.675
50725SOL     OW52198  10.132   1.002   5.096
50725SOL    HW152199  10.172   1.001   5.004
50725SOL    HW252200  10.142   1.094   5.136
50726SOL     OW52201  10.226   0.910   4.015
50726SOL    HW152202  10.289   0.948   3.947
50726SOL    HW252203  10.266   0.827   4.054
50727SOL     OW52204  10.814   1.607   3.768
50727SOL    HW152205  10.722   1.644   3.775
50727SOL    HW252206  10.852   1.627   3.678
50728SOL     OW52207   9.682   1.288   5.214
50728SOL    HW152208   9.669   1.381   5.180
50728SOL    HW252209   9.598   1.236   5.201
50729SOL     OW52210  10.924   1.292   5.013
50729SOL    HW152211  10.984   1.295   5.093
50729SOL    HW252212  10.849   1.356   5.026
50730SOL     OW52213  10.349   1.098   4.420
50730SOL    HW152214  10.279   1.051   4.474
50730SOL    HW252215  10.408   1.030   4.377
50731SOL     OW52216  10.324   0.236   4.695
50731SOL    HW152217  10.316   0.200   4.602
50731SOL    HW252218  10.322   0.160   4.760
50732SOL     OW52219   9.900   1.487   4.215
50732SOL    HW152220   9.942   1.429   4.145
50732SOL    HW252221   9.856   1.566   4.171
50733SOL     OW52222  11.019   0.385   5.105
50733SOL    HW152223  11.092   0.454   5.109
50733SOL    HW252224  11.047   0.310   5.046
50734SOL     OW52225   9.565   1.348   4.014
50734SOL    HW152226   9.469   1.349   3.987
50734SOL    HW252227   9.577   1.401   4.098
50735SOL     OW52228   9.415   1.013   5.450
50735SOL    HW152229   9.338   0.980   5.504
50735SOL    HW252230   9.500   0.983   5.492
50736SOL     OW52231   9.982   0.203   5.213
50736SOL    HW152232  10.072   0.187   5.173
50736SOL    HW252233   9.990   0.208   5.312
50737SOL     OW52234   9.385   0.345   3.757
50737SOL    HW152235   9.293   0.317   3.728
50737SOL    HW252236   9.416   0.422   3.701
50738SOL     OW52237  10.750   0.856   5.122
50738SOL    HW152238  10.693   0.908   5.059
50738SOL    HW252239  10.846   0.868   5.098
50739SOL     OW52240   9.382   0.166   4.042
50739SOL    HW152241   9.365   0.249   3.988
50739SOL    HW252242   9.472   0.129   4.020
50740SOL     OW52243  10.493   1.335   3.843
50740SOL    HW152244  10.394   1.324   3.845
50740SOL    HW252245  10.527   1.350   3.936
50741SOL     OW52246   9.923   0.842   5.155
50741SOL    HW152247   9.979   0.923   5.138
50741SOL    HW252248   9.982   0.762   5.158
50742SOL     OW52249  10.803   1.767   4.683
50742SOL    HW152250  10.836   1.831   4.614
50742SOL    HW252251  10.869   1.761   4.758
50743SOL     OW52252  10.026   0.565   5.432
50743SOL    HW152253  10.045   0.630   5.506
50743SOL    HW252254  10.086   0.485   5.441
50744SOL     OW52255  10.760   1.220   5.357
50744SOL    HW152256  10.751   1.210   5.456
50744SOL    HW252257  10.856   1.213   5.331
50745SOL     OW52258   9.700   1.741   5.284
50745SOL    HW152259   9.609   1.782   5.282
50745SOL    HW252260   9.693   1.647   5.316
50746SOL     OW52261  10.984   0.883   4.978
50746SOL    HW152262  10.957   0.794   4.941
50746SOL    HW252263  10.985   0.951   4.905
50747SOL     OW52264  10.535   0.325   4.173
50747SOL    HW152265  10.600   0.251   4.162
50747SOL    HW252266  10.555   0.375   4.257
50748SOL     OW52267   9.904   0.745   4.376
50748SOL    HW152268   9.954   0.830   4.357
50748SOL    HW252269   9.816   0.747   4.328
50749SOL     OW52270  11.087   0.342   5.366
50749SOL    HW152271  11.070   0.373   5.272
50749SOL    HW252272  11.003   0.305   5.404
50750SOL     OW52273  11.040   0.934   5.241
50750SOL    HW152274  11.078   1.025   5.256
50750SOL    HW252275  11.032   0.917   5.142
50751SOL     OW52276  10.169   1.374   3.740
50751SOL    HW152277  10.123   1.389   3.828
50751SOL    HW252278  10.213   1.459   3.710
50752SOL     OW52279   9.971   1.790   4.677
50752SOL    HW152280   9.925   1.878   4.664
50752SOL    HW252281  10.070   1.802   4.670
50753SOL     OW52282  10.169   0.956   4.585
50753SOL    HW152283  10.223   0.887   4.633
50753SOL    HW252284  10.137   1.025   4.651
50754SOL     OW52285  10.393   0.984   3.811
50754SOL    HW152286  10.370   1.037   3.729
50754SOL    HW252287  10.474   0.928   3.792
50755SOL     OW52288  11.171   1.569   4.575
50755SOL    HW152289  11.100   1.557   4.505
50755SOL    HW252290  11.172   1.490   4.635
50756SOL     OW52291   9.531   1.314   5.568
50756SOL    HW152292   9.466   1.241   5.547
50756SOL    HW252293   9.535   1.328   5.666
50757SOL     OW52294   9.389   1.240   4.377
50757SOL    HW152295   9.388   1.193   4.465
50757SOL    HW252296   9.471   1.212   4.326
50758SOL     OW52297   9.982   1.391   5.348
50758SOL    HW152298   9.904   1.341   5.386
50758SOL    HW252299   9.979   1.486   5.379
50759SOL     OW52300  11.134   0.192   4.951
50759SOL    HW152301  11.130   0.102   4.995
50759SOL    HW252302  11.137   0.181   4.852
50760SOL     OW52303   9.738   0.424   4.244
50760SOL    HW152304   9.768   0.352   4.182
50760SOL    HW252305   9.699   0.384   4.327
50761SOL     OW52306  11.015   1.487   4.828
50761SOL    HW152307  10.922   1.462   4.801
50761SOL    HW252308  11.041   1.437   4.910
50762SOL     OW52309   9.627   0.547   5.004
50762SOL    HW152310   9.665   0.488   5.076
50762SOL    HW252311   9.667   0.521   4.916
50763SOL     OW52312  10.122   1.586   4.411
50763SOL    HW152313  10.154   1.596   4.317
50763SOL    HW252314  10.043   1.524   4.413
50764SOL     OW52315  10.734   0.214   4.836
50764SOL    HW152316  10.786   0.149   4.891
50764SOL    HW252317  10.685   0.277   4.897
50765SOL     OW52318  10.311   0.034   4.878
50765SOL    HW152319  10.248  -0.038   4.847
50765SOL    HW252320  10.404  -0.002   4.878
50766SOL     OW52321  10.080   1.330   4.025
50766SOL    HW152322  10.034   1.243   4.042
50766SOL    HW252323  10.171   1.327   4.066
50767SOL     OW52324   9.928   1.567   5.008
50767SOL    HW152325   9.923   1.649   5.065
50767SOL    HW252326  10.017   1.564   4.963
50768SOL     OW52327  10.662   0.052   3.892
50768SOL    HW152328  10.697   0.011   3.808
50768SOL    HW252329  10.572   0.014   3.912
50769SOL     OW52330  10.610   0.453   4.415
50769SOL    HW152331  10.551   0.533   4.419
50769SOL    HW252332  10.625   0.418   4.508
50770SOL     OW52333  10.903   0.221   4.606
50770SOL    HW152334  10.819   0.220   4.660
50770SOL    HW252335  10.905   0.304   4.550
50771SOL     OW52336   9.349   1.077   4.024
50771SOL    HW152337   9.448   1.066   4.015
50771SOL    HW252338   9.309   0.991   4.056
50772SOL     OW52339  10.185   1.646   4.061
50772SOL    HW152340  10.108   1.611   4.007
50772SOL    HW252341  10.153   1.717   4.123
50773SOL     OW52342   9.540   0.628   5.699
50773SOL    HW152343   9.447   0.626   5.736
50773SOL    HW252344   9.541   0.589   5.607
50774SOL     OW52345   9.535   0.275   6.582
50774SOL    HW152346   9.570   0.258   6.674
50774SOL    HW252347   9.447   0.230   6.570
50775SOL     OW52348   9.329   0.368   6.233
50775SOL    HW152349   9.247   0.411   6.272
50775SOL    HW252350   9.301   0.295   6.170
50776SOL     OW52351   9.879   1.275   6.751
50776SOL    HW152352   9.786   1.268   6.714
50776SOL    HW252353   9.890   1.364   6.795
50777SOL     OW52354  10.865   1.511   6.289
50777SOL    HW152355  10.808   1.495   6.370
50777SOL    HW252356  10.806   1.521   6.209
50778SOL     OW52357  10.445   0.703   6.303
50778SOL    HW152358  10.502   0.781   6.278
50778SOL    HW252359  10.385   0.729   6.379
50779SOL     OW52360  11.065   0.607   5.817
50779SOL    HW152361  11.053   0.594   5.718
50779SOL    HW252362  11.035   0.526   5.866
50780SOL     OW52363  10.078   1.144   6.609
50780SOL    HW152364  10.000   1.161   6.669
50780SOL    HW252365  10.112   1.231   6.573
50781SOL     OW52366  10.160   0.798   7.409
50781SOL    HW152367  10.156   0.874   7.474
50781SOL    HW252368  10.182   0.834   7.318
50782SOL     OW52369   9.995   1.012   6.251
50782SOL    HW152370  10.064   0.996   6.321
50782SOL    HW252371   9.922   1.069   6.289
50783SOL     OW52372   9.996   1.161   7.389
50783SOL    HW152373  10.056   1.240   7.403
50783SOL    HW252374   9.910   1.192   7.348
50784SOL     OW52375   9.645   1.435   6.647
50784SOL    HW152376   9.567   1.404   6.594
50784SOL    HW252377   9.703   1.493   6.590
50785SOL     OW52378  10.770   1.505   6.925
50785SOL    HW152379  10.794   1.599   6.951
50785SOL    HW252380  10.754   1.451   7.007
50786SOL     OW52381   9.748   0.392   7.085
50786SOL    HW152382   9.830   0.336   7.094
50786SOL    HW252383   9.667   0.334   7.089
50787SOL     OW52384  10.913   0.447   6.323
50787SOL    HW152385  10.839   0.493   6.273
50787SOL    HW252386  10.964   0.515   6.376
50788SOL     OW52387   9.541   1.713   6.069
50788SOL    HW152388   9.575   1.790   6.123
50788SOL    HW252389   9.585   1.713   5.979
50789SOL     OW52390  10.437   1.341   7.276
50789SOL    HW152391  10.484   1.341   7.364
50789SOL    HW252392  10.389   1.254   7.265
50790SOL     OW52393   9.540   1.434   6.124
50790SOL    HW152394   9.514   1.530   6.124
50790SOL    HW252395   9.469   1.380   6.169
50791SOL     OW52396   9.550   1.091   6.472
50791SOL    HW152397   9.564   1.007   6.524
50791SOL    HW252398   9.495   1.155   6.527
50792SOL     OW52399   9.930   1.786   7.025
50792SOL    HW152400   9.838   1.769   7.060
50792SOL    HW252401   9.958   1.878   7.051
50793SOL     OW52402   9.916   0.964   5.709
50793SOL    HW152403   9.923   1.048   5.655
50793SOL    HW252404   9.962   0.977   5.797
50794SOL     OW52405  10.904   0.114   7.066
50794SOL    HW152406  10.886   0.181   6.994
50794SOL    HW252407  10.901   0.160   7.155
50795SOL     OW52408   9.432   0.643   6.149
50795SOL    HW152409   9.387   0.555   6.166
50795SOL    HW252410   9.431   0.697   6.233
50796SOL     OW52411  11.152   1.767   5.945
50796SOL    HW152412  11.206   1.738   6.025
50796SOL    HW252413  11.182   1.857   5.916
50797SOL     OW52414   9.337   1.596   5.703
50797SOL    HW152415   9.318   1.500   5.724
50797SOL    HW252416   9.304   1.654   5.778
50798SOL     OW52417  10.999   0.922   6.198
50798SOL    HW152418  11.094   0.893   6.206
50798SOL    HW252419  10.991   0.987   6.123
50799SOL     OW52420  10.951   1.108   6.018
50799SOL    HW152421  11.037   1.110   5.966
50799SOL    HW252422  10.965   1.155   6.106
50800SOL     OW52423   9.423   0.737   7.183
50800SOL    HW152424   9.511   0.724   7.228
50800SOL    HW252425   9.410   0.834   7.161
50801SOL     OW52426   9.923   1.365   6.312
50801SOL    HW152427   9.874   1.278   6.321
50801SOL    HW252428   9.900   1.408   6.225
50802SOL     OW52429  10.603   1.228   7.009
50802SOL    HW152430  10.640   1.155   6.951
50802SOL    HW252431  10.655   1.233   7.094
50803SOL     OW52432  10.119   0.004   6.088
50803SOL    HW152433  10.159   0.095   6.079
50803SOL    HW252434  10.019   0.012   6.094
50804SOL     OW52435   9.507   0.976   6.850
50804SOL    HW152436   9.596   0.931   6.836
50804SOL    HW252437   9.434   0.911   6.831
50805SOL     OW52438  10.835   0.999   5.776
50805SOL    HW152439  10.772   0.923   5.789
50805SOL    HW252440  10.883   1.017   5.862
50806SOL     OW52441  10.497   1.792   7.202
50806SOL    HW152442  10.521   1.852   7.126
50806SOL    HW252443  10.504   1.697   7.172
50807SOL     OW52444   9.627   0.251   7.387
50807SOL    HW152445   9.698   0.322   7.393
50807SOL    HW252446   9.539   0.290   7.415
50808SOL     OW52447  10.776   1.417   6.539
50808SOL    HW152448  10.717   1.423   6.619
50808SOL    HW252449  10.761   1.329   6.493
50809SOL     OW52450  10.977   1.714   6.158
50809SOL    HW152451  10.936   1.691   6.070
50809SOL    HW252452  10.959   1.640   6.223
50810SOL     OW52453   9.908   0.729   5.856
50810SOL    HW152454   9.932   0.798   5.788
50810SOL    HW252455   9.830   0.762   5.910
50811SOL     OW52456  10.591   0.345   6.530
50811SOL    HW152457  10.505   0.295   6.517
50811SOL    HW252458  10.653   0.291   6.586
50812SOL     OW52459  10.886   1.662   5.893
50812SOL    HW152460  10.975   1.708   5.896
50812SOL    HW252461  10.865   1.638   5.798
50813SOL     OW52462  10.117   0.605   7.051
50813SOL    HW152463  10.070   0.602   7.140
50813SOL    HW252464  10.066   0.550   6.985
50814SOL     OW52465  10.704   0.469   7.260
50814SOL    HW152466  10.684   0.512   7.348
50814SOL    HW252467  10.782   0.407   7.269
50815SOL     OW52468  10.283   0.890   7.158
50815SOL    HW152469  10.329   0.806   7.129
50815SOL    HW252470  10.227   0.924   7.083
50816SOL     OW52471  10.301   0.410   6.828
50816SOL    HW152472  10.224   0.444   6.882
50816SOL    HW252473  10.267   0.359   6.749
50817SOL     OW52474  10.351   0.701   6.015
50817SOL    HW152475  10.377   0.697   6.111
50817SOL    HW252476  10.266   0.650   6.001
50818SOL     OW52477   9.386   0.811   6.375
50818SOL    HW152478   9.485   0.799   6.384
50818SOL    HW252479   9.362   0.906   6.396
50819SOL     OW52480   9.440   1.821   7.157
50819SOL    HW152481   9.430   1.806   7.256
50819SOL    HW252482   9.354   1.857   7.121
50820SOL     OW52483  10.175   0.348   5.781
50820SOL    HW152484  10.234   0.411   5.732
50820SOL    HW252485  10.194   0.254   5.752
50821SOL     OW52486  11.029   0.585   7.417
50821SOL    HW152487  11.003   0.674   7.381
50821SOL    HW252488  11.027   0.517   7.344
50822SOL     OW52489  10.672   1.144   6.131
50822SOL    HW152490  10.755   1.115   6.083
50822SOL    HW252491  10.623   1.211   6.075
50823SOL     OW52492   9.860   0.196   6.471
50823SOL    HW152493   9.855   0.191   6.571
50823SOL    HW252494   9.862   0.292   6.442
50824SOL     OW52495  10.318   1.456   6.063
50824SOL    HW152496  10.272   1.528   6.011
50824SOL    HW252497  10.314   1.476   6.161
50825SOL     OW52498   9.661   1.801   6.439
50825SOL    HW152499   9.711   1.715   6.445
50825SOL    HW252500   9.726   1.878   6.436
50826SOL     OW52501  11.105   1.066   6.459
50826SOL    HW152502  11.043   1.051   6.383
50826SOL    HW252503  11.053   1.077   6.544
50827SOL     OW52504  10.537   1.550   7.092
50827SOL    HW152505  10.543   1.473   7.156
50827SOL    HW252506  10.485   1.524   7.012
50828SOL     OW52507   9.631   0.943   5.828
50828SOL    HW152508   9.713   0.982   5.786
50828SOL    HW252509   9.604   0.861   5.779
50829SOL     OW52510  10.768   0.735   6.314
50829SOL    HW152511  10.763   0.670   6.389
50829SOL    HW252512  10.848   0.794   6.327
50830SOL     OW52513   9.771   1.266   7.313
50830SOL    HW152514   9.721   1.267   7.227
50830SOL    HW252515   9.708   1.248   7.389
50831SOL     OW52516  10.421   1.776   5.823
50831SOL    HW152517  10.361   1.714   5.873
50831SOL    HW252518  10.452   1.732   5.738
50832SOL     OW52519   9.512   0.285   7.084
50832SOL    HW152520   9.432   0.345   7.071
50832SOL    HW252521   9.502   0.236   7.170
50833SOL     OW52522  10.942   1.377   5.667
50833SOL    HW152523  10.910   1.471   5.657
50833SOL    HW252524  10.866   1.314   5.655
50834SOL     OW52525   9.774   1.743   5.909
50834SOL    HW152526   9.807   1.782   5.995
50834SOL    HW252527   9.850   1.736   5.844
50835SOL     OW52528  10.710   0.107   6.012
50835SOL    HW152529  10.686   0.070   5.922
50835SOL    HW252530  10.809   0.123   6.016
50836SOL     OW52531   9.559   1.785   6.827
50836SOL    HW152532   9.616   1.720   6.877
50836SOL    HW252533   9.543   1.752   6.734
50837SOL     OW52534  10.250   1.698   6.490
50837SOL    HW152535  10.330   1.641   6.511
50837SOL    HW252536  10.201   1.658   6.413
50838SOL     OW52537   9.692   0.700   6.066
50838SOL    HW152538   9.737   0.610   6.063
50838SOL    HW252539   9.598   0.689   6.099
50839SOL     OW52540  10.857   0.222   7.315
50839SOL    HW152541  10.852   0.259   7.407
50839SOL    HW252542  10.785   0.153   7.303
50840SOL     OW52543   9.924   0.122   5.703
50840SOL    HW152544  10.022   0.100   5.710
50840SOL    HW252545   9.893   0.105   5.610
50841SOL     OW52546  10.091   0.264   7.335
50841SOL    HW152547  10.158   0.203   7.378
50841SOL    HW252548  10.018   0.283   7.400
50842SOL     OW52549  10.198   1.514   6.781
50842SOL    HW152550  10.175   1.489   6.687
50842SOL    HW252551  10.259   1.445   6.820
50843SOL     OW52552  10.661   0.590   7.019
50843SOL    HW152553  10.689   0.547   7.104
50843SOL    HW252554  10.686   0.686   7.020
50844SOL     OW52555  10.113   1.402   6.510
50844SOL    HW152556  10.203   1.416   6.468
50844SOL    HW252557  10.042   1.404   6.439
50845SOL     OW52558  10.232   0.503   6.485
50845SOL    HW152559  10.207   0.494   6.389
50845SOL    HW252560  10.280   0.421   6.516
50846SOL     OW52561   9.849   0.064   6.098
50846SOL    HW152562   9.768   0.065   6.156
50846SOL    HW252563   9.852   0.147   6.043
50847SOL     OW52564  10.744   1.188   5.627
50847SOL    HW152565  10.776   1.112   5.684
50847SOL    HW252566  10.652   1.215   5.657
50848SOL     OW52567   9.607   0.035   5.757
50848SOL    HW152568   9.656   0.119   5.736
50848SOL    HW252569   9.669  -0.030   5.802
50849SOL     OW52570  10.245   0.236   6.066
50849SOL    HW152571  10.197   0.277   5.988
50849SOL    HW252572  10.344   0.234   6.047
50850SOL     OW52573  10.386   0.683   7.050
50850SOL    HW152574  10.306   0.622   7.053
50850SOL    HW252575  10.467   0.630   7.026
50851SOL     OW52576  10.537   1.570   6.379
50851SOL    HW152577  10.558   1.644   6.314
50851SOL    HW252578  10.605   1.570   6.452
50852SOL     OW52579   9.769   1.152   6.327
50852SOL    HW152580   9.698   1.125   6.392
50852SOL    HW252581   9.743   1.124   6.234
50853SOL     OW52582  10.581   1.797   6.177
50853SOL    HW152583  10.625   1.861   6.113
50853SOL    HW252584  10.531   1.849   6.247
50854SOL     OW52585  10.342   0.549   5.602
50854SOL    HW152586  10.301   0.631   5.563
50854SOL    HW252587  10.406   0.575   5.675
50855SOL     OW52588   9.388   0.556   6.972
50855SOL    HW152589   9.480   0.555   6.931
50855SOL    HW252590   9.382   0.630   7.039
50856SOL     OW52591   9.871   0.222   6.733
50856SOL    HW152592   9.909   0.138   6.770
50856SOL    HW252593   9.783   0.241   6.777
50857SOL     OW52594  10.176   0.454   6.228
50857SOL    HW152595  10.144   0.526   6.166
50857SOL    HW252596  10.200   0.373   6.175
50858SOL     OW52597  10.327   0.039   6.339
50858SOL    HW152598  10.255   0.044   6.270
50858SOL    HW252599  10.303  -0.030   6.408
50859SOL     OW52600  10.739   1.173   6.453
50859SOL    HW152601  10.684   1.089   6.446
50859SOL    HW252602  10.765   1.202   6.361
50860SOL     OW52603  10.776   0.590   6.578
50860SOL    HW152604  10.746   0.495   6.585
50860SOL    HW252605  10.849   0.606   6.644
50861SOL     OW52606  11.167   0.833   5.963
50861SOL    HW152607  11.209   0.769   6.027
50861SOL    HW252608  11.129   0.782   5.885
50862SOL     OW52609   9.798   1.385   5.760
50862SOL    HW152610   9.711   1.370   5.807
50862SOL    HW252611   9.781   1.411   5.665
50863SOL     OW52612  10.974   1.280   6.243
50863SOL    HW152613  11.073   1.288   6.257
50863SOL    HW252614  10.929   1.364   6.274
50864SOL     OW52615  10.700   0.575   5.664
50864SOL    HW152616  10.646   0.554   5.745
50864SOL    HW252617  10.791   0.534   5.673
50865SOL     OW52618   9.837   0.256   5.914
50865SOL    HW152619   9.864   0.197   5.839
50865SOL    HW252620   9.837   0.351   5.883
50866SOL     OW52621  11.064   1.223   7.174
50866SOL    HW152622  11.155   1.184   7.161
50866SOL    HW252623  11.072   1.319   7.198
50867SOL     OW52624  10.374   1.347   6.926
50867SOL    HW152625  10.294   1.324   6.981
50867SOL    HW252626  10.457   1.321   6.975
50868SOL     OW52627  10.902   1.629   7.211
50868SOL    HW152628  10.929   1.663   7.121
50868SOL    HW252629  10.981   1.591   7.257
50869SOL     OW52630  10.421   1.195   6.686
50869SOL    HW152631  10.381   1.239   6.767
50869SOL    HW252632  10.380   1.232   6.603
50870SOL     OW52633  10.948   1.099   6.665
50870SOL    HW152634  10.953   1.180   6.724
50870SOL    HW252635  10.862   1.101   6.614
50871SOL     OW52636  10.225   0.089   6.988
50871SOL    HW152637  10.250   0.069   6.893
50871SOL    HW252638  10.297   0.145   7.030
50872SOL     OW52639  10.290   1.116   7.305
50872SOL    HW152640  10.191   1.122   7.315
50872SOL    HW252641  10.313   1.036   7.249
50873SOL     OW52642  10.015   1.050   5.954
50873SOL    HW152643  10.001   1.057   6.053
50873SOL    HW252644  10.099   0.999   5.936
50874SOL     OW52645   9.720   0.813   6.837
50874SOL    HW152646   9.806   0.825   6.887
50874SOL    HW252647   9.678   0.726   6.864
50875SOL     OW52648  10.584   0.386   6.848
50875SOL    HW152649  10.605   0.460   6.912
50875SOL    HW252650  10.495   0.403   6.805
50876SOL     OW52651   9.374   1.564   6.917
50876SOL    HW152652   9.328   1.646   6.883
50876SOL    HW252653   9.472   1.583   6.926
50877SOL     OW52654   9.677   1.100   6.087
50877SOL    HW152655   9.670   1.183   6.031
50877SOL    HW252656   9.681   1.020   6.027
50878SOL     OW52657   9.876   0.537   6.451
50878SOL    HW152658   9.888   0.603   6.377
50878SOL    HW252659   9.922   0.571   6.534
50879SOL     OW52660  10.562   1.348   5.974
50879SOL    HW152661  10.612   1.425   6.014
50879SOL    HW252662  10.467   1.350   6.006
50880SOL     OW52663  10.582   1.445   6.728
50880SOL    HW152664  10.629   1.458   6.815
50880SOL    HW252665  10.516   1.371   6.737
50881SOL     OW52666  10.892   0.639   6.058
50881SOL    HW152667  10.861   0.700   6.131
50881SOL    HW252668  10.942   0.691   5.989
50882SOL     OW52669   9.664   1.510   6.915
50882SOL    HW152670   9.643   1.466   6.828
50882SOL    HW252671   9.761   1.536   6.918
50883SOL     OW52672   9.712   0.751   7.184
50883SOL    HW152673   9.780   0.806   7.137
50883SOL    HW252674   9.752   0.663   7.211
50884SOL     OW52675  10.897   0.779   7.256
50884SOL    HW152676  10.805   0.817   7.251
50884SOL    HW252677  10.957   0.826   7.191
50885SOL     OW52678  10.323   0.105   7.356
50885SOL    HW152679  10.329   0.190   7.304
50885SOL    HW252680  10.355   0.029   7.299
50886SOL     OW52681   9.814   0.050   7.326
50886SOL    HW152682   9.772  -0.007   7.256
50886SOL    HW252683   9.748   0.119   7.358
50887SOL     OW52684   9.883   0.870   6.615
50887SOL    HW152685   9.927   0.959   6.606
50887SOL    HW252686   9.820   0.870   6.692
50888SOL     OW52687  10.670   0.862   6.631
50888SOL    HW152688  10.595   0.862   6.565
50888SOL    HW252689  10.707   0.770   6.640
50889SOL     OW52690  10.519   0.525   5.861
50889SOL    HW152691  10.532   0.441   5.915
50889SOL    HW252692  10.490   0.599   5.921
50890SOL     OW52693   9.617   0.213   6.817
50890SOL    HW152694   9.594   0.250   6.907
50890SOL    HW252695   9.587   0.118   6.811
50891SOL     OW52696   9.347   1.310   6.868
50891SOL    HW152697   9.400   1.261   6.936
50891SOL    HW252698   9.369   1.408   6.873
50892SOL     OW52699  10.042   0.634   6.650
50892SOL    HW152700  10.101   0.608   6.574
50892SOL    HW252701  10.014   0.730   6.639
50893SOL     OW52702  11.038   0.935   7.440
50893SOL    HW152703  10.992   0.928   7.351
50893SOL    HW252704  10.976   0.979   7.506
50894SOL     OW52705   9.617   0.063   6.204
50894SOL    HW152706   9.606   0.157   6.237
50894SOL    HW252707   9.612   0.000   6.281
50895SOL     OW52708  10.932   0.367   5.960
50895SOL    HW152709  10.934   0.291   6.024
50895SOL    HW252710  10.884   0.444   6.000
50896SOL     OW52711  10.333   0.766   6.552
50896SOL    HW152712  10.348   0.787   6.648
50896SOL    HW252713  10.303   0.671   6.543
50897SOL     OW52714  10.290   1.573   7.286
50897SOL    HW152715  10.270   1.617   7.198
50897SOL    HW252716  10.329   1.482   7.270
50898SOL     OW52717  11.169   1.518   7.191
50898SOL    HW152718  11.183   1.545   7.096
50898SOL    HW252719  11.252   1.540   7.244
50899SOL     OW52720   9.660   0.898   7.390
50899SOL    HW152721   9.736   0.942   7.438
50899SOL    HW252722   9.695   0.851   7.308
50900SOL     OW52723  10.850   0.274   5.711
50900SOL    HW152724  10.789   0.199   5.734
50900SOL    HW252725  10.872   0.326   5.794
50901SOL     OW52726  10.613   0.838   5.628
50901SOL    HW152727  10.647   0.745   5.643
50901SOL    HW252728  10.631   0.865   5.533
50902SOL     OW52729  10.378   1.333   6.435
50902SOL    HW152730  10.385   1.249   6.380
50902SOL    HW252731  10.440   1.402   6.399
50903SOL     OW52732   9.629   0.810   6.535
50903SOL    HW152733   9.722   0.846   6.540
50903SOL    HW252734   9.623   0.725   6.587
50904SOL     OW52735   9.649   0.509   6.592
50904SOL    HW152736   9.597   0.426   6.575
50904SOL    HW252737   9.726   0.514   6.528
50905SOL     OW52738  10.448   0.380   7.264
50905SOL    HW152739  10.403   0.443   7.328
50905SOL    HW252740  10.541   0.411   7.247
50906SOL     OW52741  10.470   0.207   7.063
50906SOL    HW152742  10.470   0.271   7.140
50906SOL    HW252743  10.498   0.255   6.980
50907SOL     OW52744   9.318   1.326   5.786
50907SOL    HW152745   9.225   1.347   5.755
50907SOL    HW252746   9.328   1.227   5.799
50908SOL     OW52747   9.398   1.801   6.513
50908SOL    HW152748   9.356   1.715   6.486
50908SOL    HW252749   9.492   1.804   6.479
50909SOL     OW52750   9.814   1.568   6.496
50909SOL    HW152751   9.880   1.642   6.505
50909SOL    HW252752   9.858   1.489   6.454
50910SOL     OW52753  10.312   0.796   6.824
50910SOL    HW152754  10.353   0.764   6.910
50910SOL    HW252755  10.216   0.769   6.821
50911SOL     OW52756   9.350   0.544   6.700
50911SOL    HW152757   9.435   0.511   6.659
50911SOL    HW252758   9.363   0.559   6.798
50912SOL     OW52759   9.499   0.520   7.308
50912SOL    HW152760   9.558   0.480   7.238
50912SOL    HW252761   9.441   0.591   7.267
50913SOL     OW52762  10.679   0.950   7.246
50913SOL    HW152763  10.718   1.039   7.266
50913SOL    HW252764  10.689   0.930   7.149
50914SOL     OW52765  10.125   0.572   5.911
50914SOL    HW152766  10.132   0.483   5.865
50914SOL    HW252767  10.031   0.606   5.903
50915SOL     OW52768  10.967   0.604   6.792
50915SOL    HW152769  10.929   0.535   6.854
50915SOL    HW252770  11.049   0.568   6.748
50916SOL     OW52771   9.562   1.564   7.330
50916SOL    HW152772   9.532   1.621   7.406
50916SOL    HW252773   9.555   1.467   7.356
50917SOL     OW52774   9.981   0.464   6.855
50917SOL    HW152775   9.947   0.375   6.825
50917SOL    HW252776  10.007   0.518   6.775
50918SOL     OW52777  10.240   1.678   7.051
50918SOL    HW152778  10.216   1.660   6.956
50918SOL    HW252779  10.270   1.772   7.061
50919SOL     OW52780   9.783   0.500   5.777
50919SOL    HW152781   9.844   0.580   5.781
50919SOL    HW252782   9.688   0.531   5.784
50920SOL     OW52783   9.469   1.137   7.052
50920SOL    HW152784   9.491   1.076   7.128
50920SOL    HW252785   9.479   1.088   6.966
50921SOL     OW52786  10.657   1.059   6.820
50921SOL    HW152787  10.681   0.996   6.746
50921SOL    HW252788  10.567   1.099   6.802
50922SOL     OW52789  10.612   0.855   5.895
50922SOL    HW152790  10.526   0.824   5.937
50922SOL    HW252791  10.608   0.841   5.796
50923SOL     OW52792  11.069   1.747   6.740
50923SOL    HW152793  11.130   1.777   6.667
50923SOL    HW252794  11.031   1.658   6.718
50924SOL     OW52795  10.562   1.731   6.714
50924SOL    HW152796  10.646   1.736   6.660
50924SOL    HW252797  10.539   1.635   6.732
50925SOL     OW52798   9.393   1.258   6.608
50925SOL    HW152799   9.388   1.257   6.708
50925SOL    HW252800   9.310   1.217   6.570
50926SOL     OW52801   9.998   1.662   7.302
50926SOL    HW152802   9.942   1.743   7.311
50926SOL    HW252803  10.050   1.666   7.216
50927SOL     OW52804  11.036   0.135   6.109
50927SOL    HW152805  11.109   0.118   6.042
50927SOL    HW252806  11.005   0.048   6.147
50928SOL     OW52807  10.698   1.573   6.063
50928SOL    HW152808  10.765   1.585   5.989
50928SOL    HW252809  10.658   1.662   6.086
50929SOL     OW52810   9.440   1.794   7.437
50929SOL    HW152811   9.399   1.720   7.490
50929SOL    HW252812   9.504   1.845   7.495
50930SOL     OW52813  10.590   0.927   6.258
50930SOL    HW152814  10.650   0.846   6.260
50930SOL    HW252815  10.630   0.996   6.198
50931SOL     OW52816  10.140   1.273   7.008
50931SOL    HW152817  10.135   1.306   7.103
50931SOL    HW252818  10.054   1.292   6.962
50932SOL     OW52819   9.982   1.616   5.740
50932SOL    HW152820   9.991   1.626   5.641
50932SOL    HW252821   9.942   1.527   5.761
50933SOL     OW52822  10.960   1.720   6.980
50933SOL    HW152823  11.013   1.730   6.896
50933SOL    HW252824  10.933   1.810   7.014
50934SOL     OW52825  11.151   0.175   6.549
50934SOL    HW152826  11.190   0.090   6.513
50934SOL    HW252827  11.053   0.177   6.530
50935SOL     OW52828   9.573   0.326   6.306
50935SOL    HW152829   9.494   0.377   6.272
50935SOL    HW252830   9.564   0.311   6.404
50936SOL     OW52831  10.504   1.612   5.617
50936SOL    HW152832  10.510   1.519   5.654
50936SOL    HW252833  10.445   1.612   5.537
50937SOL     OW52834  10.132   1.002   6.958
50937SOL    HW152835  10.172   1.001   6.866
50937SOL    HW252836  10.142   1.094   6.998
50938SOL     OW52837  10.226   0.910   5.877
50938SOL    HW152838  10.289   0.948   5.809
50938SOL    HW252839  10.266   0.827   5.916
50939SOL     OW52840  10.814   1.607   5.630
50939SOL    HW152841  10.722   1.644   5.637
50939SOL    HW252842  10.852   1.627   5.540
50940SOL     OW52843   9.682   1.288   7.076
50940SOL    HW152844   9.669   1.381   7.042
50940SOL    HW252845   9.598   1.236   7.063
50941SOL     OW52846  10.924   1.292   6.875
50941SOL    HW152847  10.984   1.295   6.955
50941SOL    HW252848  10.849   1.356   6.888
50942SOL     OW52849  10.349   1.098   6.282
50942SOL    HW152850  10.279   1.051   6.336
50942SOL    HW252851  10.408   1.030   6.239
50943SOL     OW52852  10.324   0.236   6.557
50943SOL    HW152853  10.316   0.200   6.464
50943SOL    HW252854  10.322   0.160   6.622
50944SOL     OW52855   9.900   1.487   6.077
50944SOL    HW152856   9.942   1.429   6.007
50944SOL    HW252857   9.856   1.566   6.033
50945SOL     OW52858  11.019   0.385   6.967
50945SOL    HW152859  11.092   0.454   6.971
50945SOL    HW252860  11.047   0.310   6.908
50946SOL     OW52861   9.565   1.348   5.876
50946SOL    HW152862   9.469   1.349   5.849
50946SOL    HW252863   9.577   1.401   5.960
50947SOL     OW52864   9.415   1.013   7.312
50947SOL    HW152865   9.338   0.980   7.366
50947SOL    HW252866   9.500   0.983   7.354
50948SOL     OW52867   9.982   0.203   7.075
50948SOL    HW152868  10.072   0.187   7.035
50948SOL    HW252869   9.990   0.208   7.174
50949SOL     OW52870   9.385   0.345   5.619
50949SOL    HW152871   9.293   0.317   5.590
50949SOL    HW252872   9.416   0.422   5.563
50950SOL     OW52873  10.750   0.856   6.984
50950SOL    HW152874  10.693   0.908   6.921
50950SOL    HW252875  10.846   0.868   6.960
50951SOL     OW52876   9.382   0.166   5.904
50951SOL    HW152877   9.365   0.249   5.850
50951SOL    HW252878   9.472   0.129   5.882
50952SOL     OW52879  10.493   1.335   5.705
50952SOL    HW152880  10.394   1.324   5.707
50952SOL    HW252881  10.527   1.350   5.798
50953SOL     OW52882   9.923   0.842   7.017
50953SOL    HW152883   9.979   0.923   7.000
50953SOL    HW252884   9.982   0.762   7.020
50954SOL     OW52885  10.803   1.767   6.545
50954SOL    HW152886  10.836   1.831   6.476
50954SOL    HW252887  10.869   1.761   6.620
50955SOL     OW52888  10.026   0.565   7.294
50955SOL    HW152889  10.045   0.630   7.368
50955SOL    HW252890  10.086   0.485   7.303
50956SOL     OW52891  10.760   1.220   7.219
50956SOL    HW152892  10.751   1.210   7.318
50956SOL    HW252893  10.856   1.213   7.193
50957SOL     OW52894   9.700   1.741   7.146
50957SOL    HW152895   9.609   1.782   7.144
50957SOL    HW252896   9.693   1.647   7.178
50958SOL     OW52897  10.984   0.883   6.840
50958SOL    HW152898  10.957   0.794   6.803
50958SOL    HW252899  10.985   0.951   6.767
50959SOL     OW52900  10.535   0.325   6.035
50959SOL    HW152901  10.600   0.251   6.024
50959SOL    HW252902  10.555   0.375   6.119
50960SOL     OW52903   9.904   0.745   6.238
50960SOL    HW152904   9.954   0.830   6.219
50960SOL    HW252905   9.816   0.747   6.190
50961SOL     OW52906  11.087   0.342   7.228
50961SOL    HW152907  11.070   0.373   7.134
50961SOL    HW252908  11.003   0.305   7.266
50962SOL     OW52909  11.040   0.934   7.103
50962SOL    HW152910  11.078   1.025   7.118
50962SOL    HW252911  11.032   0.917   7.004
50963SOL     OW52912  10.169   1.374   5.602
50963SOL    HW152913  10.123   1.389   5.690
50963SOL    HW252914  10.213   1.459   5.572
50964SOL     OW52915   9.971   1.790   6.539
50964SOL    HW152916   9.925   1.878   6.526
50964SOL    HW252917  10.070   1.802   6.532
50965SOL     OW52918  10.169   0.956   6.447
50965SOL    HW152919  10.223   0.887   6.495
50965SOL    HW252920  10.137   1.025   6.513
50966SOL     OW52921  10.393   0.984   5.673
50966SOL    HW152922  10.370   1.037   5.591
50966SOL    HW252923  10.474   0.928   5.654
50967SOL     OW52924  11.171   1.569   6.437
50967SOL    HW152925  11.100   1.557   6.367
50967SOL    HW252926  11.172   1.490   6.497
50968SOL     OW52927   9.531   1.314   7.430
50968SOL    HW152928   9.466   1.241   7.409
50968SOL    HW252929   9.535   1.328   7.528
50969SOL     OW52930   9.389   1.240   6.239
50969SOL    HW152931   9.388   1.193   6.327
50969SOL    HW252932   9.471   1.212   6.188
50970SOL     OW52933   9.982   1.391   7.210
50970SOL    HW152934   9.904   1.341   7.248
50970SOL    HW252935   9.979   1.486   7.241
50971SOL     OW52936  11.134   0.192   6.813
50971SOL    HW152937  11.130   0.102   6.857
50971SOL    HW252938  11.137   0.181   6.714
50972SOL     OW52939   9.738   0.424   6.106
50972SOL    HW152940   9.768   0.352   6.044
50972SOL    HW252941   9.699   0.384   6.189
50973SOL     OW52942  11.015   1.487   6.690
50973SOL    HW152943  10.922   1.462   6.663
50973SOL    HW252944  11.041   1.437   6.772
50974SOL     OW52945   9.627   0.547   6.866
50974SOL    HW152946   9.665   0.488   6.938
50974SOL    HW252947   9.667   0.521   6.778
50975SOL     OW52948  10.122   1.586   6.273
50975SOL    HW152949  10.154   1.596   6.179
50975SOL    HW252950  10.043   1.524   6.275
50976SOL     OW52951  10.734   0.214   6.698
50976SOL    HW152952  10.786   0.149   6.753
50976SOL    HW252953  10.685   0.277   6.759
50977SOL     OW52954  10.311   0.034   6.740
50977SOL    HW152955  10.248  -0.038   6.709
50977SOL    HW252956  10.404  -0.002   6.740
50978SOL     OW52957  10.080   1.330   5.887
50978SOL    HW152958  10.034   1.243   5.904
50978SOL    HW252959  10.171   1.327   5.928
50979SOL     OW52960   9.928   1.567   6.870
50979SOL    HW152961   9.923   1.649   6.927
50979SOL    HW252962  10.017   1.564   6.825
50980SOL     OW52963  10.662   0.052   5.754
50980SOL    HW152964  10.697   0.011   5.670
50980SOL    HW252965  10.572   0.014   5.774
50981SOL     OW52966  10.610   0.453   6.277
50981SOL    HW152967  10.551   0.533   6.281
50981SOL    HW252968  10.625   0.418   6.370
50982SOL     OW52969  10.903   0.221   6.468
50982SOL    HW152970  10.819   0.220   6.522
50982SOL    HW252971  10.905   0.304   6.412
50983SOL     OW52972   9.349   1.077   5.886
50983SOL    HW152973   9.448   1.066   5.877
50983SOL    HW252974   9.309   0.991   5.918
50984SOL     OW52975  10.185   1.646   5.923
50984SOL    HW152976  10.108   1.611   5.869
50984SOL    HW252977  10.153   1.717   5.985
50985SOL     OW52978   9.540   0.628   7.561
50985SOL    HW152979   9.447   0.626   7.598
50985SOL    HW252980   9.541   0.589   7.469
50986SOL     OW52981   9.535   0.275   8.444
50986SOL    HW152982   9.570   0.258   8.536
50986SOL    HW252983   9.447   0.230   8.432
50987SOL     OW52984   9.329   0.368   8.095
50987SOL    HW152985   9.247   0.411   8.134
50987SOL    HW252986   9.301   0.295   8.032
50988SOL     OW52987   9.879   1.275   8.613
50988SOL    HW152988   9.786   1.268   8.576
50988SOL    HW252989   9.890   1.364   8.657
50989SOL     OW52990  10.865   1.511   8.151
50989SOL    HW152991  10.808   1.495   8.232
50989SOL    HW252992  10.806   1.521   8.071
50990SOL     OW52993  10.445   0.703   8.165
50990SOL    HW152994  10.502   0.781   8.140
50990SOL    HW252995  10.385   0.729   8.241
50991SOL     OW52996  11.065   0.607   7.679
50991SOL    HW152997  11.053   0.594   7.580
50991SOL    HW252998  11.035   0.526   7.728
50992SOL     OW52999  10.078   1.144   8.471
50992SOL    HW153000  10.000   1.161   8.531
50992SOL    HW253001  10.112   1.231   8.435
50993SOL     OW53002  10.160   0.798   9.271
50993SOL    HW153003  10.156   0.874   9.336
50993SOL    HW253004  10.182   0.834   9.180
50994SOL     OW53005   9.995   1.012   8.113
50994SOL    HW153006  10.064   0.996   8.183
50994SOL    HW253007   9.922   1.069   8.151
50995SOL     OW53008   9.996   1.161   9.251
50995SOL    HW153009  10.056   1.240   9.265
50995SOL    HW253010   9.910   1.192   9.210
50996SOL     OW53011   9.645   1.435   8.509
50996SOL    HW153012   9.567   1.404   8.456
50996SOL    HW253013   9.703   1.493   8.452
50997SOL     OW53014  10.770   1.505   8.787
50997SOL    HW153015  10.794   1.599   8.813
50997SOL    HW253016  10.754   1.451   8.869
50998SOL     OW53017   9.748   0.392   8.947
50998SOL    HW153018   9.830   0.336   8.956
50998SOL    HW253019   9.667   0.334   8.951
50999SOL     OW53020  10.913   0.447   8.185
50999SOL    HW153021  10.839   0.493   8.135
50999SOL    HW253022  10.964   0.515   8.238
51000SOL     OW53023   9.541   1.713   7.931
51000SOL    HW153024   9.575   1.790   7.985
51000SOL    HW253025   9.585   1.713   7.841
51001SOL     OW53026  10.437   1.341   9.138
51001SOL    HW153027  10.484   1.341   9.226
51001SOL    HW253028  10.389   1.254   9.127
51002SOL     OW53029   9.540   1.434   7.986
51002SOL    HW153030   9.514   1.530   7.986
51002SOL    HW253031   9.469   1.380   8.031
51003SOL     OW53032   9.550   1.091   8.334
51003SOL    HW153033   9.564   1.007   8.386
51003SOL    HW253034   9.495   1.155   8.389
51004SOL     OW53035   9.930   1.786   8.887
51004SOL    HW153036   9.838   1.769   8.922
51004SOL    HW253037   9.958   1.878   8.913
51005SOL     OW53038   9.916   0.964   7.571
51005SOL    HW153039   9.923   1.048   7.517
51005SOL    HW253040   9.962   0.977   7.659
51006SOL     OW53041  10.904   0.114   8.928
51006SOL    HW153042  10.886   0.181   8.856
51006SOL    HW253043  10.901   0.160   9.017
51007SOL     OW53044   9.432   0.643   8.011
51007SOL    HW153045   9.387   0.555   8.028
51007SOL    HW253046   9.431   0.697   8.095
51008SOL     OW53047  11.152   1.767   7.807
51008SOL    HW153048  11.206   1.738   7.887
51008SOL    HW253049  11.182   1.857   7.778
51009SOL     OW53050   9.337   1.596   7.565
51009SOL    HW153051   9.318   1.500   7.586
51009SOL    HW253052   9.304   1.654   7.640
51010SOL     OW53053  10.999   0.922   8.060
51010SOL    HW153054  11.094   0.893   8.068
51010SOL    HW253055  10.991   0.987   7.985
51011SOL     OW53056  10.951   1.108   7.880
51011SOL    HW153057  11.037   1.110   7.828
51011SOL    HW253058  10.965   1.155   7.968
51012SOL     OW53059   9.423   0.737   9.045
51012SOL    HW153060   9.511   0.724   9.090
51012SOL    HW253061   9.410   0.834   9.023
51013SOL     OW53062   9.923   1.365   8.174
51013SOL    HW153063   9.874   1.278   8.183
51013SOL    HW253064   9.900   1.408   8.087
51014SOL     OW53065  10.603   1.228   8.871
51014SOL    HW153066  10.640   1.155   8.813
51014SOL    HW253067  10.655   1.233   8.956
51015SOL     OW53068  10.119   0.004   7.950
51015SOL    HW153069  10.159   0.095   7.941
51015SOL    HW253070  10.019   0.012   7.956
51016SOL     OW53071   9.507   0.976   8.712
51016SOL    HW153072   9.596   0.931   8.698
51016SOL    HW253073   9.434   0.911   8.693
51017SOL     OW53074  10.835   0.999   7.638
51017SOL    HW153075  10.772   0.923   7.651
51017SOL    HW253076  10.883   1.017   7.724
51018SOL     OW53077  10.497   1.792   9.064
51018SOL    HW153078  10.521   1.852   8.988
51018SOL    HW253079  10.504   1.697   9.034
51019SOL     OW53080   9.627   0.251   9.249
51019SOL    HW153081   9.698   0.322   9.255
51019SOL    HW253082   9.539   0.290   9.277
51020SOL     OW53083  10.776   1.417   8.401
51020SOL    HW153084  10.717   1.423   8.481
51020SOL    HW253085  10.761   1.329   8.355
51021SOL     OW53086  10.977   1.714   8.020
51021SOL    HW153087  10.936   1.691   7.932
51021SOL    HW253088  10.959   1.640   8.085
51022SOL     OW53089   9.908   0.729   7.718
51022SOL    HW153090   9.932   0.798   7.650
51022SOL    HW253091   9.830   0.762   7.772
51023SOL     OW53092  10.591   0.345   8.392
51023SOL    HW153093  10.505   0.295   8.379
51023SOL    HW253094  10.653   0.291   8.448
51024SOL     OW53095  10.886   1.662   7.755
51024SOL    HW153096  10.975   1.708   7.758
51024SOL    HW253097  10.865   1.638   7.660
51025SOL     OW53098  10.117   0.605   8.913
51025SOL    HW153099  10.070   0.602   9.002
51025SOL    HW253100  10.066   0.550   8.847
51026SOL     OW53101  10.704   0.469   9.122
51026SOL    HW153102  10.684   0.512   9.210
51026SOL    HW253103  10.782   0.407   9.131
51027SOL     OW53104  10.283   0.890   9.020
51027SOL    HW153105  10.329   0.806   8.991
51027SOL    HW253106  10.227   0.924   8.945
51028SOL     OW53107  10.301   0.410   8.690
51028SOL    HW153108  10.224   0.444   8.744
51028SOL    HW253109  10.267   0.359   8.611
51029SOL     OW53110  10.351   0.701   7.877
51029SOL    HW153111  10.377   0.697   7.973
51029SOL    HW253112  10.266   0.650   7.863
51030SOL     OW53113   9.386   0.811   8.237
51030SOL    HW153114   9.485   0.799   8.246
51030SOL    HW253115   9.362   0.906   8.258
51031SOL     OW53116   9.440   1.821   9.019
51031SOL    HW153117   9.430   1.806   9.118
51031SOL    HW253118   9.354   1.857   8.983
51032SOL     OW53119  10.175   0.348   7.643
51032SOL    HW153120  10.234   0.411   7.594
51032SOL    HW253121  10.194   0.254   7.614
51033SOL     OW53122  11.029   0.585   9.279
51033SOL    HW153123  11.003   0.674   9.243
51033SOL    HW253124  11.027   0.517   9.206
51034SOL     OW53125  10.672   1.144   7.993
51034SOL    HW153126  10.755   1.115   7.945
51034SOL    HW253127  10.623   1.211   7.937
51035SOL     OW53128   9.860   0.196   8.333
51035SOL    HW153129   9.855   0.191   8.433
51035SOL    HW253130   9.862   0.292   8.304
51036SOL     OW53131  10.318   1.456   7.925
51036SOL    HW153132  10.272   1.528   7.873
51036SOL    HW253133  10.314   1.476   8.023
51037SOL     OW53134   9.661   1.801   8.301
51037SOL    HW153135   9.711   1.715   8.307
51037SOL    HW253136   9.726   1.878   8.298
51038SOL     OW53137  11.105   1.066   8.321
51038SOL    HW153138  11.043   1.051   8.245
51038SOL    HW253139  11.053   1.077   8.406
51039SOL     OW53140  10.537   1.550   8.954
51039SOL    HW153141  10.543   1.473   9.018
51039SOL    HW253142  10.485   1.524   8.874
51040SOL     OW53143   9.631   0.943   7.690
51040SOL    HW153144   9.713   0.982   7.648
51040SOL    HW253145   9.604   0.861   7.641
51041SOL     OW53146  10.768   0.735   8.176
51041SOL    HW153147  10.763   0.670   8.251
51041SOL    HW253148  10.848   0.794   8.189
51042SOL     OW53149   9.771   1.266   9.175
51042SOL    HW153150   9.721   1.267   9.089
51042SOL    HW253151   9.708   1.248   9.251
51043SOL     OW53152  10.421   1.776   7.685
51043SOL    HW153153  10.361   1.714   7.735
51043SOL    HW253154  10.452   1.732   7.600
51044SOL     OW53155   9.512   0.285   8.946
51044SOL    HW153156   9.432   0.345   8.933
51044SOL    HW253157   9.502   0.236   9.032
51045SOL     OW53158  10.942   1.377   7.529
51045SOL    HW153159  10.910   1.471   7.519
51045SOL    HW253160  10.866   1.314   7.517
51046SOL     OW53161   9.774   1.743   7.771
51046SOL    HW153162   9.807   1.782   7.857
51046SOL    HW253163   9.850   1.736   7.706
51047SOL     OW53164  10.710   0.107   7.874
51047SOL    HW153165  10.686   0.070   7.784
51047SOL    HW253166  10.809   0.123   7.878
51048SOL     OW53167   9.559   1.785   8.689
51048SOL    HW153168   9.616   1.720   8.739
51048SOL    HW253169   9.543   1.752   8.596
51049SOL     OW53170  10.250   1.698   8.352
51049SOL    HW153171  10.330   1.641   8.373
51049SOL    HW253172  10.201   1.658   8.275
51050SOL     OW53173   9.692   0.700   7.928
51050SOL    HW153174   9.737   0.610   7.925
51050SOL    HW253175   9.598   0.689   7.961
51051SOL     OW53176  10.857   0.222   9.177
51051SOL    HW153177  10.852   0.259   9.269
51051SOL    HW253178  10.785   0.153   9.165
51052SOL     OW53179   9.924   0.122   7.565
51052SOL    HW153180  10.022   0.100   7.572
51052SOL    HW253181   9.893   0.105   7.472
51053SOL     OW53182  10.091   0.264   9.197
51053SOL    HW153183  10.158   0.203   9.240
51053SOL    HW253184  10.018   0.283   9.262
51054SOL     OW53185  10.198   1.514   8.643
51054SOL    HW153186  10.175   1.489   8.549
51054SOL    HW253187  10.259   1.445   8.682
51055SOL     OW53188  10.661   0.590   8.881
51055SOL    HW153189  10.689   0.547   8.966
51055SOL    HW253190  10.686   0.686   8.882
51056SOL     OW53191  10.113   1.402   8.372
51056SOL    HW153192  10.203   1.416   8.330
51056SOL    HW253193  10.042   1.404   8.301
51057SOL     OW53194  10.232   0.503   8.347
51057SOL    HW153195  10.207   0.494   8.251
51057SOL    HW253196  10.280   0.421   8.378
51058SOL     OW53197   9.849   0.064   7.960
51058SOL    HW153198   9.768   0.065   8.018
51058SOL    HW253199   9.852   0.147   7.905
51059SOL     OW53200  10.744   1.188   7.489
51059SOL    HW153201  10.776   1.112   7.546
51059SOL    HW253202  10.652   1.215   7.519
51060SOL     OW53203   9.607   0.035   7.619
51060SOL    HW153204   9.656   0.119   7.598
51060SOL    HW253205   9.669  -0.030   7.664
51061SOL     OW53206  10.245   0.236   7.928
51061SOL    HW153207  10.197   0.277   7.850
51061SOL    HW253208  10.344   0.234   7.909
51062SOL     OW53209  10.386   0.683   8.912
51062SOL    HW153210  10.306   0.622   8.915
51062SOL    HW253211  10.467   0.630   8.888
51063SOL     OW53212  10.537   1.570   8.241
51063SOL    HW153213  10.558   1.644   8.176
51063SOL    HW253214  10.605   1.570   8.314
51064SOL     OW53215   9.769   1.152   8.189
51064SOL    HW153216   9.698   1.125   8.254
51064SOL    HW253217   9.743   1.124   8.096
51065SOL     OW53218  10.581   1.797   8.039
51065SOL    HW153219  10.625   1.861   7.975
51065SOL    HW253220  10.531   1.849   8.109
51066SOL     OW53221  10.342   0.549   7.464
51066SOL    HW153222  10.301   0.631   7.425
51066SOL    HW253223  10.406   0.575   7.537
51067SOL     OW53224   9.388   0.556   8.834
51067SOL    HW153225   9.480   0.555   8.793
51067SOL    HW253226   9.382   0.630   8.901
51068SOL     OW53227   9.871   0.222   8.595
51068SOL    HW153228   9.909   0.138   8.632
51068SOL    HW253229   9.783   0.241   8.639
51069SOL     OW53230  10.176   0.454   8.090
51069SOL    HW153231  10.144   0.526   8.028
51069SOL    HW253232  10.200   0.373   8.037
51070SOL     OW53233  10.327   0.039   8.201
51070SOL    HW153234  10.255   0.044   8.132
51070SOL    HW253235  10.303  -0.030   8.270
51071SOL     OW53236  10.739   1.173   8.315
51071SOL    HW153237  10.684   1.089   8.308
51071SOL    HW253238  10.765   1.202   8.223
51072SOL     OW53239  10.776   0.590   8.440
51072SOL    HW153240  10.746   0.495   8.447
51072SOL    HW253241  10.849   0.606   8.506
51073SOL     OW53242  11.167   0.833   7.825
51073SOL    HW153243  11.209   0.769   7.889
51073SOL    HW253244  11.129   0.782   7.747
51074SOL     OW53245   9.798   1.385   7.622
51074SOL    HW153246   9.711   1.370   7.669
51074SOL    HW253247   9.781   1.411   7.527
51075SOL     OW53248  10.974   1.280   8.105
51075SOL    HW153249  11.073   1.288   8.119
51075SOL    HW253250  10.929   1.364   8.136
51076SOL     OW53251  10.700   0.575   7.526
51076SOL    HW153252  10.646   0.554   7.607
51076SOL    HW253253  10.791   0.534   7.535
51077SOL     OW53254   9.837   0.256   7.776
51077SOL    HW153255   9.864   0.197   7.701
51077SOL    HW253256   9.837   0.351   7.745
51078SOL     OW53257  11.064   1.223   9.036
51078SOL    HW153258  11.155   1.184   9.023
51078SOL    HW253259  11.072   1.319   9.060
51079SOL     OW53260  10.374   1.347   8.788
51079SOL    HW153261  10.294   1.324   8.843
51079SOL    HW253262  10.457   1.321   8.837
51080SOL     OW53263  10.902   1.629   9.073
51080SOL    HW153264  10.929   1.663   8.983
51080SOL    HW253265  10.981   1.591   9.119
51081SOL     OW53266  10.421   1.195   8.548
51081SOL    HW153267  10.381   1.239   8.629
51081SOL    HW253268  10.380   1.232   8.465
51082SOL     OW53269  10.948   1.099   8.527
51082SOL    HW153270  10.953   1.180   8.586
51082SOL    HW253271  10.862   1.101   8.476
51083SOL     OW53272  10.225   0.089   8.850
51083SOL    HW153273  10.250   0.069   8.755
51083SOL    HW253274  10.297   0.145   8.892
51084SOL     OW53275  10.290   1.116   9.167
51084SOL    HW153276  10.191   1.122   9.177
51084SOL    HW253277  10.313   1.036   9.111
51085SOL     OW53278  10.015   1.050   7.816
51085SOL    HW153279  10.001   1.057   7.915
51085SOL    HW253280  10.099   0.999   7.798
51086SOL     OW53281   9.720   0.813   8.699
51086SOL    HW153282   9.806   0.825   8.749
51086SOL    HW253283   9.678   0.726   8.726
51087SOL     OW53284  10.584   0.386   8.710
51087SOL    HW153285  10.605   0.460   8.774
51087SOL    HW253286  10.495   0.403   8.667
51088SOL     OW53287   9.374   1.564   8.779
51088SOL    HW153288   9.328   1.646   8.745
51088SOL    HW253289   9.472   1.583   8.788
51089SOL     OW53290   9.677   1.100   7.949
51089SOL    HW153291   9.670   1.183   7.893
51089SOL    HW253292   9.681   1.020   7.889
51090SOL     OW53293   9.876   0.537   8.313
51090SOL    HW153294   9.888   0.603   8.239
51090SOL    HW253295   9.922   0.571   8.396
51091SOL     OW53296  10.562   1.348   7.836
51091SOL    HW153297  10.612   1.425   7.876
51091SOL    HW253298  10.467   1.350   7.868
51092SOL     OW53299  10.582   1.445   8.590
51092SOL    HW153300  10.629   1.458   8.677
51092SOL    HW253301  10.516   1.371   8.599
51093SOL     OW53302  10.892   0.639   7.920
51093SOL    HW153303  10.861   0.700   7.993
51093SOL    HW253304  10.942   0.691   7.851
51094SOL     OW53305   9.664   1.510   8.777
51094SOL    HW153306   9.643   1.466   8.690
51094SOL    HW253307   9.761   1.536   8.780
51095SOL     OW53308   9.712   0.751   9.046
51095SOL    HW153309   9.780   0.806   8.999
51095SOL    HW253310   9.752   0.663   9.073
51096SOL     OW53311  10.897   0.779   9.118
51096SOL    HW153312  10.805   0.817   9.113
51096SOL    HW253313  10.957   0.826   9.053
51097SOL     OW53314  10.323   0.105   9.218
51097SOL    HW153315  10.329   0.190   9.166
51097SOL    HW253316  10.355   0.029   9.161
51098SOL     OW53317   9.814   0.050   9.188
51098SOL    HW153318   9.772  -0.007   9.118
51098SOL    HW253319   9.748   0.119   9.220
51099SOL     OW53320   9.883   0.870   8.477
51099SOL    HW153321   9.927   0.959   8.468
51099SOL    HW253322   9.820   0.870   8.554
51100SOL     OW53323  10.670   0.862   8.493
51100SOL    HW153324  10.595   0.862   8.427
51100SOL    HW253325  10.707   0.770   8.502
51101SOL     OW53326  10.519   0.525   7.723
51101SOL    HW153327  10.532   0.441   7.777
51101SOL    HW253328  10.490   0.599   7.783
51102SOL     OW53329   9.617   0.213   8.679
51102SOL    HW153330   9.594   0.250   8.769
51102SOL    HW253331   9.587   0.118   8.673
51103SOL     OW53332   9.347   1.310   8.730
51103SOL    HW153333   9.400   1.261   8.798
51103SOL    HW253334   9.369   1.408   8.735
51104SOL     OW53335  10.042   0.634   8.512
51104SOL    HW153336  10.101   0.608   8.436
51104SOL    HW253337  10.014   0.730   8.501
51105SOL     OW53338  11.038   0.935   9.302
51105SOL    HW153339  10.992   0.928   9.213
51105SOL    HW253340  10.976   0.979   9.368
51106SOL     OW53341   9.617   0.063   8.066
51106SOL    HW153342   9.606   0.157   8.099
51106SOL    HW253343   9.612   0.000   8.143
51107SOL     OW53344  10.932   0.367   7.822
51107SOL    HW153345  10.934   0.291   7.886
51107SOL    HW253346  10.884   0.444   7.862
51108SOL     OW53347  10.333   0.766   8.414
51108SOL    HW153348  10.348   0.787   8.510
51108SOL    HW253349  10.303   0.671   8.405
51109SOL     OW53350  10.290   1.573   9.148
51109SOL    HW153351  10.270   1.617   9.060
51109SOL    HW253352  10.329   1.482   9.132
51110SOL     OW53353  11.169   1.518   9.053
51110SOL    HW153354  11.183   1.545   8.958
51110SOL    HW253355  11.252   1.540   9.106
51111SOL     OW53356   9.660   0.898   9.252
51111SOL    HW153357   9.736   0.942   9.300
51111SOL    HW253358   9.695   0.851   9.170
51112SOL     OW53359  10.850   0.274   7.573
51112SOL    HW153360  10.789   0.199   7.596
51112SOL    HW253361  10.872   0.326   7.656
51113SOL     OW53362  10.613   0.838   7.490
51113SOL    HW153363  10.647   0.745   7.505
51113SOL    HW253364  10.631   0.865   7.395
51114SOL     OW53365  10.378   1.333   8.297
51114SOL    HW153366  10.385   1.249   8.242
51114SOL    HW253367  10.440   1.402   8.261
51115SOL     OW53368   9.629   0.810   8.397
51115SOL    HW153369   9.722   0.846   8.402
51115SOL    HW253370   9.623   0.725   8.449
51116SOL     OW53371   9.649   0.509   8.454
51116SOL    HW153372   9.597   0.426   8.437
51116SOL    HW253373   9.726   0.514   8.390
51117SOL     OW53374  10.448   0.380   9.126
51117SOL    HW153375  10.403   0.443   9.190
51117SOL    HW253376  10.541   0.411   9.109
51118SOL     OW53377  10.470   0.207   8.925
51118SOL    HW153378  10.470   0.271   9.002
51118SOL    HW253379  10.498   0.255   8.842
51119SOL     OW53380   9.318   1.326   7.648
51119SOL    HW153381   9.225   1.347   7.617
51119SOL    HW253382   9.328   1.227   7.661
51120SOL     OW53383   9.398   1.801   8.375
51120SOL    HW153384   9.356   1.715   8.348
51120SOL    HW253385   9.492   1.804   8.341
51121SOL     OW53386   9.814   1.568   8.358
51121SOL    HW153387   9.880   1.642   8.367
51121SOL    HW253388   9.858   1.489   8.316
51122SOL     OW53389  10.312   0.796   8.686
51122SOL    HW153390  10.353   0.764   8.772
51122SOL    HW253391  10.216   0.769   8.683
51123SOL     OW53392   9.350   0.544   8.562
51123SOL    HW153393   9.435   0.511   8.521
51123SOL    HW253394   9.363   0.559   8.660
51124SOL     OW53395   9.499   0.520   9.170
51124SOL    HW153396   9.558   0.480   9.100
51124SOL    HW253397   9.441   0.591   9.129
51125SOL     OW53398  10.679   0.950   9.108
51125SOL    HW153399  10.718   1.039   9.128
51125SOL    HW253400  10.689   0.930   9.011
51126SOL     OW53401  10.125   0.572   7.773
51126SOL    HW153402  10.132   0.483   7.727
51126SOL    HW253403  10.031   0.606   7.765
51127SOL     OW53404  10.967   0.604   8.654
51127SOL    HW153405  10.929   0.535   8.716
51127SOL    HW253406  11.049   0.568   8.610
51128SOL     OW53407   9.562   1.564   9.192
51128SOL    HW153408   9.532   1.621   9.268
51128SOL    HW253409   9.555   1.467   9.218
51129SOL     OW53410   9.981   0.464   8.717
51129SOL    HW153411   9.947   0.375   8.687
51129SOL    HW253412  10.007   0.518   8.637
51130SOL     OW53413  10.240   1.678   8.913
51130SOL    HW153414  10.216   1.660   8.818
51130SOL    HW253415  10.270   1.772   8.923
51131SOL     OW53416   9.783   0.500   7.639
51131SOL    HW153417   9.844   0.580   7.643
51131SOL    HW253418   9.688   0.531   7.646
51132SOL     OW53419   9.469   1.137   8.914
51132SOL    HW153420   9.491   1.076   8.990
51132SOL    HW253421   9.479   1.088   8.828
51133SOL     OW53422  10.657   1.059   8.682
51133SOL    HW153423  10.681   0.996   8.608
51133SOL    HW253424  10.567   1.099   8.664
51134SOL     OW53425  10.612   0.855   7.757
51134SOL    HW153426  10.526   0.824   7.799
51134SOL    HW253427  10.608   0.841   7.658
51135SOL     OW53428  11.069   1.747   8.602
51135SOL    HW153429  11.130   1.777   8.529
51135SOL    HW253430  11.031   1.658   8.580
51136SOL     OW53431  10.562   1.731   8.576
51136SOL    HW153432  10.646   1.736   8.522
51136SOL    HW253433  10.539   1.635   8.594
51137SOL     OW53434   9.393   1.258   8.470
51137SOL    HW153435   9.388   1.257   8.570
51137SOL    HW253436   9.310   1.217   8.432
51138SOL     OW53437   9.998   1.662   9.164
51138SOL    HW153438   9.942   1.743   9.173
51138SOL    HW253439  10.050   1.666   9.078
51139SOL     OW53440  11.036   0.135   7.971
51139SOL    HW153441  11.109   0.118   7.904
51139SOL    HW253442  11.005   0.048   8.009
51140SOL     OW53443  10.698   1.573   7.925
51140SOL    HW153444  10.765   1.585   7.851
51140SOL    HW253445  10.658   1.662   7.948
51141SOL     OW53446   9.440   1.794   9.299
51141SOL    HW153447   9.399   1.720   9.352
51141SOL    HW253448   9.504   1.845   9.357
51142SOL     OW53449  10.590   0.927   8.120
51142SOL    HW153450  10.650   0.846   8.122
51142SOL    HW253451  10.630   0.996   8.060
51143SOL     OW53452  10.140   1.273   8.870
51143SOL    HW153453  10.135   1.306   8.965
51143SOL    HW253454  10.054   1.292   8.824
51144SOL     OW53455   9.982   1.616   7.602
51144SOL    HW153456   9.991   1.626   7.503
51144SOL    HW253457   9.942   1.527   7.623
51145SOL     OW53458  10.960   1.720   8.842
51145SOL    HW153459  11.013   1.730   8.758
51145SOL    HW253460  10.933   1.810   8.876
51146SOL     OW53461  11.151   0.175   8.411
51146SOL    HW153462  11.190   0.090   8.375
51146SOL    HW253463  11.053   0.177   8.392
51147SOL     OW53464   9.573   0.326   8.168
51147SOL    HW153465   9.494   0.377   8.134
51147SOL    HW253466   9.564   0.311   8.266
51148SOL     OW53467  10.504   1.612   7.479
51148SOL    HW153468  10.510   1.519   7.516
51148SOL    HW253469  10.445   1.612   7.399
51149SOL     OW53470  10.132   1.002   8.820
51149SOL    HW153471  10.172   1.001   8.728
51149SOL    HW253472  10.142   1.094   8.860
51150SOL     OW53473  10.226   0.910   7.739
51150SOL    HW153474  10.289   0.948   7.671
51150SOL    HW253475  10.266   0.827   7.778
51151SOL     OW53476  10.814   1.607   7.492
51151SOL    HW153477  10.722   1.644   7.499
51151SOL    HW253478  10.852   1.627   7.402
51152SOL     OW53479   9.682   1.288   8.938
51152SOL    HW153480   9.669   1.381   8.904
51152SOL    HW253481   9.598   1.236   8.925
51153SOL     OW53482  10.924   1.292   8.737
51153SOL    HW153483  10.984   1.295   8.817
51153SOL    HW253484  10.849   1.356   8.750
51154SOL     OW53485  10.349   1.098   8.144
51154SOL    HW153486  10.279   1.051   8.198
51154SOL    HW253487  10.408   1.030   8.101
51155SOL     OW53488  10.324   0.236   8.419
51155SOL    HW153489  10.316   0.200   8.326
51155SOL    HW253490  10.322   0.160   8.484
51156SOL     OW53491   9.900   1.487   7.939
51156SOL    HW153492   9.942   1.429   7.869
51156SOL    HW253493   9.856   1.566   7.895
51157SOL     OW53494  11.019   0.385   8.829
51157SOL    HW153495  11.092   0.454   8.833
51157SOL    HW253496  11.047   0.310   8.770
51158SOL     OW53497   9.565   1.348   7.738
51158SOL    HW153498   9.469   1.349   7.711
51158SOL    HW253499   9.577   1.401   7.822
51159SOL     OW53500   9.415   1.013   9.174
51159SOL    HW153501   9.338   0.980   9.228
51159SOL    HW253502   9.500   0.983   9.216
51160SOL     OW53503   9.982   0.203   8.937
51160SOL    HW153504  10.072   0.187   8.897
51160SOL    HW253505   9.990   0.208   9.036
51161SOL     OW53506   9.385   0.345   7.481
51161SOL    HW153507   9.293   0.317   7.452
51161SOL    HW253508   9.416   0.422   7.425
51162SOL     OW53509  10.750   0.856   8.846
51162SOL    HW153510  10.693   0.908   8.783
51162SOL    HW253511  10.846   0.868   8.822
51163SOL     OW53512   9.382   0.166   7.766
51163SOL    HW153513   9.365   0.249   7.712
51163SOL    HW253514   9.472   0.129   7.744
51164SOL     OW53515  10.493   1.335   7.567
51164SOL    HW153516  10.394   1.324   7.569
51164SOL    HW253517  10.527   1.350   7.660
51165SOL     OW53518   9.923   0.842   8.879
51165SOL    HW153519   9.979   0.923   8.862
51165SOL    HW253520   9.982   0.762   8.882
51166SOL     OW53521  10.803   1.767   8.407
51166SOL    HW153522  10.836   1.831   8.338
51166SOL    HW253523  10.869   1.761   8.482
51167SOL     OW53524  10.026   0.565   9.156
51167SOL    HW153525  10.045   0.630   9.230
51167SOL    HW253526  10.086   0.485   9.165
51168SOL     OW53527  10.760   1.220   9.081
51168SOL    HW153528  10.751   1.210   9.180
51168SOL    HW253529  10.856   1.213   9.055
51169SOL     OW53530   9.700   1.741   9.008
51169SOL    HW153531   9.609   1.782   9.006
51169SOL    HW253532   9.693   1.647   9.040
51170SOL     OW53533  10.984   0.883   8.702
51170SOL    HW153534  10.957   0.794   8.665
51170SOL    HW253535  10.985   0.951   8.629
51171SOL     OW53536  10.535   0.325   7.897
51171SOL    HW153537  10.600   0.251   7.886
51171SOL    HW253538  10.555   0.375   7.981
51172SOL     OW53539   9.904   0.745   8.100
51172SOL    HW153540   9.954   0.830   8.081
51172SOL    HW253541   9.816   0.747   8.052
51173SOL     OW53542  11.087   0.342   9.090
51173SOL    HW153543  11.070   0.373   8.996
51173SOL    HW253544  11.003   0.305   9.128
51174SOL     OW53545  11.040   0.934   8.965
51174SOL    HW153546  11.078   1.025   8.980
51174SOL    HW253547  11.032   0.917   8.866
51175SOL     OW53548  10.169   1.374   7.464
51175SOL    HW153549  10.123   1.389   7.552
51175SOL    HW253550  10.213   1.459   7.434
51176SOL     OW53551   9.971   1.790   8.401
51176SOL    HW153552   9.925   1.878   8.388
51176SOL    HW253553  10.070   1.802   8.394
51177SOL     OW53554  10.169   0.956   8.309
51177SOL    HW153555  10.223   0.887   8.357
51177SOL    HW253556  10.137   1.025   8.375
51178SOL     OW53557  10.393   0.984   7.535
51178SOL    HW153558  10.370   1.037   7.453
51178SOL    HW253559  10.474   0.928   7.516
51179SOL     OW53560  11.171   1.569   8.299
51179SOL    HW153561  11.100   1.557   8.229
51179SOL    HW253562  11.172   1.490   8.359
51180SOL     OW53563   9.531   1.314   9.292
51180SOL    HW153564   9.466   1.241   9.271
51180SOL    HW253565   9.535   1.328   9.390
51181SOL     OW53566   9.389   1.240   8.101
51181SOL    HW153567   9.388   1.193   8.189
51181SOL    HW253568   9.471   1.212   8.050
51182SOL     OW53569   9.982   1.391   9.072
51182SOL    HW153570   9.904   1.341   9.110
51182SOL    HW253571   9.979   1.486   9.103
51183SOL     OW53572  11.134   0.192   8.675
51183SOL    HW153573  11.130   0.102   8.719
51183SOL    HW253574  11.137   0.181   8.576
51184SOL     OW53575   9.738   0.424   7.968
51184SOL    HW153576   9.768   0.352   7.906
51184SOL    HW253577   9.699   0.384   8.051
51185SOL     OW53578  11.015   1.487   8.552
51185SOL    HW153579  10.922   1.462   8.525
51185SOL    HW253580  11.041   1.437   8.634
51186SOL     OW53581   9.627   0.547   8.728
51186SOL    HW153582   9.665   0.488   8.800
51186SOL    HW253583   9.667   0.521   8.640
51187SOL     OW53584  10.122   1.586   8.135
51187SOL    HW153585  10.154   1.596   8.041
51187SOL    HW253586  10.043   1.524   8.137
51188SOL     OW53587  10.734   0.214   8.560
51188SOL    HW153588  10.786   0.149   8.615
51188SOL    HW253589  10.685   0.277   8.621
51189SOL     OW53590  10.311   0.034   8.602
51189SOL    HW153591  10.248  -0.038   8.571
51189SOL    HW253592  10.404  -0.002   8.602
51190SOL     OW53593  10.080   1.330   7.749
51190SOL    HW153594  10.034   1.243   7.766
51190SOL    HW253595  10.171   1.327   7.790
51191SOL     OW53596   9.928   1.567   8.732
51191SOL    HW153597   9.923   1.649   8.789
51191SOL    HW253598  10.017   1.564   8.687
51192SOL     OW53599  10.662   0.052   7.616
51192SOL    HW153600  10.697   0.011   7.532
51192SOL    HW253601  10.572   0.014   7.636
51193SOL     OW53602  10.610   0.453   8.139
51193SOL    HW153603  10.551   0.533   8.143
51193SOL    HW253604  10.625   0.418   8.232
51194SOL     OW53605  10.903   0.221   8.330
51194SOL    HW153606  10.819   0.220   8.384
51194SOL    HW253607  10.905   0.304   8.274
51195SOL     OW53608   9.349   1.077   7.748
51195SOL    HW153609   9.448   1.066   7.739
51195SOL    HW253610   9.309   0.991   7.780
51196SOL     OW53611  10.185   1.646   7.785
51196SOL    HW153612  10.108   1.611   7.731
51196SOL    HW253613  10.153   1.717   7.847
51197SOL     OW53614   9.540   0.628   9.423
51197SOL    HW153615   9.447   0.626   9.460
51197SOL    HW253616   9.541   0.589   9.331
51198SOL     OW53617   9.535   0.275  10.306
51198SOL    HW153618   9.570   0.258  10.398
51198SOL    HW253619   9.447   0.230  10.294
51199SOL     OW53620   9.329   0.368   9.957
51199SOL    HW153621   9.247   0.411   9.996
51199SOL    HW253622   9.301   0.295   9.894
51200SOL     OW53623   9.879   1.275  10.475
51200SOL    HW153624   9.786   1.268  10.438
51200SOL    HW253625   9.890   1.364  10.519
51201SOL     OW53626  10.865   1.511  10.013
51201SOL    HW153627  10.808   1.495  10.094
51201SOL    HW253628  10.806   1.521   9.933
51202SOL     OW53629  10.445   0.703  10.027
51202SOL    HW153630  10.502   0.781  10.002
51202SOL    HW253631  10.385   0.729  10.103
51203SOL     OW53632  11.065   0.607   9.541
51203SOL    HW153633  11.053   0.594   9.442
51203SOL    HW253634  11.035   0.526   9.590
51204SOL     OW53635  10.078   1.144  10.333
51204SOL    HW153636  10.000   1.161  10.393
51204SOL    HW253637  10.112   1.231  10.297
51205SOL     OW53638  10.160   0.798  11.133
51205SOL    HW153639  10.156   0.874  11.198
51205SOL    HW253640  10.182   0.834  11.042
51206SOL     OW53641   9.995   1.012   9.975
51206SOL    HW153642  10.064   0.996  10.045
51206SOL    HW253643   9.922   1.069  10.013
51207SOL     OW53644   9.996   1.161  11.113
51207SOL    HW153645  10.056   1.240  11.127
51207SOL    HW253646   9.910   1.192  11.072
51208SOL     OW53647   9.645   1.435  10.371
51208SOL    HW153648   9.567   1.404  10.318
51208SOL    HW253649   9.703   1.493  10.314
51209SOL     OW53650  10.770   1.505  10.649
51209SOL    HW153651  10.794   1.599  10.675
51209SOL    HW253652  10.754   1.451  10.731
51210SOL     OW53653   9.748   0.392  10.809
51210SOL    HW153654   9.830   0.336  10.818
51210SOL    HW253655   9.667   0.334  10.813
51211SOL     OW53656  10.913   0.447  10.047
51211SOL    HW153657  10.839   0.493   9.997
51211SOL    HW253658  10.964   0.515  10.100
51212SOL     OW53659   9.541   1.713   9.793
51212SOL    HW153660   9.575   1.790   9.847
51212SOL    HW253661   9.585   1.713   9.703
51213SOL     OW53662  10.437   1.341  11.000
51213SOL    HW153663  10.484   1.341  11.088
51213SOL    HW253664  10.389   1.254  10.989
51214SOL     OW53665   9.540   1.434   9.848
51214SOL    HW153666   9.514   1.530   9.848
51214SOL    HW253667   9.469   1.380   9.893
51215SOL     OW53668   9.550   1.091  10.196
51215SOL    HW153669   9.564   1.007  10.248
51215SOL    HW253670   9.495   1.155  10.251
51216SOL     OW53671   9.930   1.786  10.749
51216SOL    HW153672   9.838   1.769  10.784
51216SOL    HW253673   9.958   1.878  10.775
51217SOL     OW53674   9.916   0.964   9.433
51217SOL    HW153675   9.923   1.048   9.379
51217SOL    HW253676   9.962   0.977   9.521
51218SOL     OW53677  10.904   0.114  10.790
51218SOL    HW153678  10.886   0.181  10.718
51218SOL    HW253679  10.901   0.160  10.879
51219SOL     OW53680   9.432   0.643   9.873
51219SOL    HW153681   9.387   0.555   9.890
51219SOL    HW253682   9.431   0.697   9.957
51220SOL     OW53683  11.152   1.767   9.669
51220SOL    HW153684  11.206   1.738   9.749
51220SOL    HW253685  11.182   1.857   9.640
51221SOL     OW53686   9.337   1.596   9.427
51221SOL    HW153687   9.318   1.500   9.448
51221SOL    HW253688   9.304   1.654   9.502
51222SOL     OW53689  10.999   0.922   9.922
51222SOL    HW153690  11.094   0.893   9.930
51222SOL    HW253691  10.991   0.987   9.847
51223SOL     OW53692  10.951   1.108   9.742
51223SOL    HW153693  11.037   1.110   9.690
51223SOL    HW253694  10.965   1.155   9.830
51224SOL     OW53695   9.423   0.737  10.907
51224SOL    HW153696   9.511   0.724  10.952
51224SOL    HW253697   9.410   0.834  10.885
51225SOL     OW53698   9.923   1.365  10.036
51225SOL    HW153699   9.874   1.278  10.045
51225SOL    HW253700   9.900   1.408   9.949
51226SOL     OW53701  10.603   1.228  10.733
51226SOL    HW153702  10.640   1.155  10.675
51226SOL    HW253703  10.655   1.233  10.818
51227SOL     OW53704  10.119   0.004   9.812
51227SOL    HW153705  10.159   0.095   9.803
51227SOL    HW253706  10.019   0.012   9.818
51228SOL     OW53707   9.507   0.976  10.574
51228SOL    HW153708   9.596   0.931  10.560
51228SOL    HW253709   9.434   0.911  10.555
51229SOL     OW53710  10.835   0.999   9.500
51229SOL    HW153711  10.772   0.923   9.513
51229SOL    HW253712  10.883   1.017   9.586
51230SOL     OW53713  10.497   1.792  10.926
51230SOL    HW153714  10.521   1.852  10.850
51230SOL    HW253715  10.504   1.697  10.896
51231SOL     OW53716   9.627   0.251  11.111
51231SOL    HW153717   9.698   0.322  11.117
51231SOL    HW253718   9.539   0.290  11.139
51232SOL     OW53719  10.776   1.417  10.263
51232SOL    HW153720  10.717   1.423  10.343
51232SOL    HW253721  10.761   1.329  10.217
51233SOL     OW53722  10.977   1.714   9.882
51233SOL    HW153723  10.936   1.691   9.794
51233SOL    HW253724  10.959   1.640   9.947
51234SOL     OW53725   9.908   0.729   9.580
51234SOL    HW153726   9.932   0.798   9.512
51234SOL    HW253727   9.830   0.762   9.634
51235SOL     OW53728  10.591   0.345  10.254
51235SOL    HW153729  10.505   0.295  10.241
51235SOL    HW253730  10.653   0.291  10.310
51236SOL     OW53731  10.886   1.662   9.617
51236SOL    HW153732  10.975   1.708   9.620
51236SOL    HW253733  10.865   1.638   9.522
51237SOL     OW53734  10.117   0.605  10.775
51237SOL    HW153735  10.070   0.602  10.864
51237SOL    HW253736  10.066   0.550  10.709
51238SOL     OW53737  10.704   0.469  10.984
51238SOL    HW153738  10.684   0.512  11.072
51238SOL    HW253739  10.782   0.407  10.993
51239SOL     OW53740  10.283   0.890  10.882
51239SOL    HW153741  10.329   0.806  10.853
51239SOL    HW253742  10.227   0.924  10.807
51240SOL     OW53743  10.301   0.410  10.552
51240SOL    HW153744  10.224   0.444  10.606
51240SOL    HW253745  10.267   0.359  10.473
51241SOL     OW53746  10.351   0.701   9.739
51241SOL    HW153747  10.377   0.697   9.835
51241SOL    HW253748  10.266   0.650   9.725
51242SOL     OW53749   9.386   0.811  10.099
51242SOL    HW153750   9.485   0.799  10.108
51242SOL    HW253751   9.362   0.906  10.120
51243SOL     OW53752   9.440   1.821  10.881
51243SOL    HW153753   9.430   1.806  10.980
51243SOL    HW253754   9.354   1.857  10.845
51244SOL     OW53755  10.175   0.348   9.505
51244SOL    HW153756  10.234   0.411   9.456
51244SOL    HW253757  10.194   0.254   9.476
51245SOL     OW53758  11.029   0.585  11.141
51245SOL    HW153759  11.003   0.674  11.105
51245SOL    HW253760  11.027   0.517  11.068
51246SOL     OW53761  10.672   1.144   9.855
51246SOL    HW153762  10.755   1.115   9.807
51246SOL    HW253763  10.623   1.211   9.799
51247SOL     OW53764   9.860   0.196  10.195
51247SOL    HW153765   9.855   0.191  10.295
51247SOL    HW253766   9.862   0.292  10.166
51248SOL     OW53767  10.318   1.456   9.787
51248SOL    HW153768  10.272   1.528   9.735
51248SOL    HW253769  10.314   1.476   9.885
51249SOL     OW53770   9.661   1.801  10.163
51249SOL    HW153771   9.711   1.715  10.169
51249SOL    HW253772   9.726   1.878  10.160
51250SOL     OW53773  11.105   1.066  10.183
51250SOL    HW153774  11.043   1.051  10.107
51250SOL    HW253775  11.053   1.077  10.268
51251SOL     OW53776  10.537   1.550  10.816
51251SOL    HW153777  10.543   1.473  10.880
51251SOL    HW253778  10.485   1.524  10.736
51252SOL     OW53779   9.631   0.943   9.552
51252SOL    HW153780   9.713   0.982   9.510
51252SOL    HW253781   9.604   0.861   9.503
51253SOL     OW53782  10.768   0.735  10.038
51253SOL    HW153783  10.763   0.670  10.113
51253SOL    HW253784  10.848   0.794  10.051
51254SOL     OW53785   9.771   1.266  11.037
51254SOL    HW153786   9.721   1.267  10.951
51254SOL    HW253787   9.708   1.248  11.113
51255SOL     OW53788  10.421   1.776   9.547
51255SOL    HW153789  10.361   1.714   9.597
51255SOL    HW253790  10.452   1.732   9.462
51256SOL     OW53791   9.512   0.285  10.808
51256SOL    HW153792   9.432   0.345  10.795
51256SOL    HW253793   9.502   0.236  10.894
51257SOL     OW53794  10.942   1.377   9.391
51257SOL    HW153795  10.910   1.471   9.381
51257SOL    HW253796  10.866   1.314   9.379
51258SOL     OW53797   9.774   1.743   9.633
51258SOL    HW153798   9.807   1.782   9.719
51258SOL    HW253799   9.850   1.736   9.568
51259SOL     OW53800  10.710   0.107   9.736
51259SOL    HW153801  10.686   0.070   9.646
51259SOL    HW253802  10.809   0.123   9.740
51260SOL     OW53803   9.559   1.785  10.551
51260SOL    HW153804   9.616   1.720  10.601
51260SOL    HW253805   9.543   1.752  10.458
51261SOL     OW53806  10.250   1.698  10.214
51261SOL    HW153807  10.330   1.641  10.235
51261SOL    HW253808  10.201   1.658  10.137
51262SOL     OW53809   9.692   0.700   9.790
51262SOL    HW153810   9.737   0.610   9.787
51262SOL    HW253811   9.598   0.689   9.823
51263SOL     OW53812  10.857   0.222  11.039
51263SOL    HW153813  10.852   0.259  11.131
51263SOL    HW253814  10.785   0.153  11.027
51264SOL     OW53815   9.924   0.122   9.427
51264SOL    HW153816  10.022   0.100   9.434
51264SOL    HW253817   9.893   0.105   9.334
51265SOL     OW53818  10.091   0.264  11.059
51265SOL    HW153819  10.158   0.203  11.102
51265SOL    HW253820  10.018   0.283  11.124
51266SOL     OW53821  10.198   1.514  10.505
51266SOL    HW153822  10.175   1.489  10.411
51266SOL    HW253823  10.259   1.445  10.544
51267SOL     OW53824  10.661   0.590  10.743
51267SOL    HW153825  10.689   0.547  10.828
51267SOL    HW253826  10.686   0.686  10.744
51268SOL     OW53827  10.113   1.402  10.234
51268SOL    HW153828  10.203   1.416  10.192
51268SOL    HW253829  10.042   1.404  10.163
51269SOL     OW53830  10.232   0.503  10.209
51269SOL    HW153831  10.207   0.494  10.113
51269SOL    HW253832  10.280   0.421  10.240
51270SOL     OW53833   9.849   0.064   9.822
51270SOL    HW153834   9.768   0.065   9.880
51270SOL    HW253835   9.852   0.147   9.767
51271SOL     OW53836  10.744   1.188   9.351
51271SOL    HW153837  10.776   1.112   9.408
51271SOL    HW253838  10.652   1.215   9.381
51272SOL     OW53839   9.607   0.035   9.481
51272SOL    HW153840   9.656   0.119   9.460
51272SOL    HW253841   9.669  -0.030   9.526
51273SOL     OW53842  10.245   0.236   9.790
51273SOL    HW153843  10.197   0.277   9.712
51273SOL    HW253844  10.344   0.234   9.771
51274SOL     OW53845  10.386   0.683  10.774
51274SOL    HW153846  10.306   0.622  10.777
51274SOL    HW253847  10.467   0.630  10.750
51275SOL     OW53848  10.537   1.570  10.103
51275SOL    HW153849  10.558   1.644  10.038
51275SOL    HW253850  10.605   1.570  10.176
51276SOL     OW53851   9.769   1.152  10.051
51276SOL    HW153852   9.698   1.125  10.116
51276SOL    HW253853   9.743   1.124   9.958
51277SOL     OW53854  10.581   1.797   9.901
51277SOL    HW153855  10.625   1.861   9.837
51277SOL    HW253856  10.531   1.849   9.971
51278SOL     OW53857  10.342   0.549   9.326
51278SOL    HW153858  10.301   0.631   9.287
51278SOL    HW253859  10.406   0.575   9.399
51279SOL     OW53860   9.388   0.556  10.696
51279SOL    HW153861   9.480   0.555  10.655
51279SOL    HW253862   9.382   0.630  10.763
51280SOL     OW53863   9.871   0.222  10.457
51280SOL    HW153864   9.909   0.138  10.494
51280SOL    HW253865   9.783   0.241  10.501
51281SOL     OW53866  10.176   0.454   9.952
51281SOL    HW153867  10.144   0.526   9.890
51281SOL    HW253868  10.200   0.373   9.899
51282SOL     OW53869  10.327   0.039  10.063
51282SOL    HW153870  10.255   0.044   9.994
51282SOL    HW253871  10.303  -0.030  10.132
51283SOL     OW53872  10.739   1.173  10.177
51283SOL    HW153873  10.684   1.089  10.170
51283SOL    HW253874  10.765   1.202  10.085
51284SOL     OW53875  10.776   0.590  10.302
51284SOL    HW153876  10.746   0.495  10.309
51284SOL    HW253877  10.849   0.606  10.368
51285SOL     OW53878  11.167   0.833   9.687
51285SOL    HW153879  11.209   0.769   9.751
51285SOL    HW253880  11.129   0.782   9.609
51286SOL     OW53881   9.798   1.385   9.484
51286SOL    HW153882   9.711   1.370   9.531
51286SOL    HW253883   9.781   1.411   9.389
51287SOL     OW53884  10.974   1.280   9.967
51287SOL    HW153885  11.073   1.288   9.981
51287SOL    HW253886  10.929   1.364   9.998
51288SOL     OW53887  10.700   0.575   9.388
51288SOL    HW153888  10.646   0.554   9.469
51288SOL    HW253889  10.791   0.534   9.397
51289SOL     OW53890   9.837   0.256   9.638
51289SOL    HW153891   9.864   0.197   9.563
51289SOL    HW253892   9.837   0.351   9.607
51290SOL     OW53893  11.064   1.223  10.898
51290SOL    HW153894  11.155   1.184  10.885
51290SOL    HW253895  11.072   1.319  10.922
51291SOL     OW53896  10.374   1.347  10.650
51291SOL    HW153897  10.294   1.324  10.705
51291SOL    HW253898  10.457   1.321  10.699
51292SOL     OW53899  10.902   1.629  10.935
51292SOL    HW153900  10.929   1.663  10.845
51292SOL    HW253901  10.981   1.591  10.981
51293SOL     OW53902  10.421   1.195  10.410
51293SOL    HW153903  10.381   1.239  10.491
51293SOL    HW253904  10.380   1.232  10.327
51294SOL     OW53905  10.948   1.099  10.389
51294SOL    HW153906  10.953   1.180  10.448
51294SOL    HW253907  10.862   1.101  10.338
51295SOL     OW53908  10.225   0.089  10.712
51295SOL    HW153909  10.250   0.069  10.617
51295SOL    HW253910  10.297   0.145  10.754
51296SOL     OW53911  10.290   1.116  11.029
51296SOL    HW153912  10.191   1.122  11.039
51296SOL    HW253913  10.313   1.036  10.973
51297SOL     OW53914  10.015   1.050   9.678
51297SOL    HW153915  10.001   1.057   9.777
51297SOL    HW253916  10.099   0.999   9.660
51298SOL     OW53917   9.720   0.813  10.561
51298SOL    HW153918   9.806   0.825  10.611
51298SOL    HW253919   9.678   0.726  10.588
51299SOL     OW53920  10.584   0.386  10.572
51299SOL    HW153921  10.605   0.460  10.636
51299SOL    HW253922  10.495   0.403  10.529
51300SOL     OW53923   9.374   1.564  10.641
51300SOL    HW153924   9.328   1.646  10.607
51300SOL    HW253925   9.472   1.583  10.650
51301SOL     OW53926   9.677   1.100   9.811
51301SOL    HW153927   9.670   1.183   9.755
51301SOL    HW253928   9.681   1.020   9.751
51302SOL     OW53929   9.876   0.537  10.175
51302SOL    HW153930   9.888   0.603  10.101
51302SOL    HW253931   9.922   0.571  10.258
51303SOL     OW53932  10.562   1.348   9.698
51303SOL    HW153933  10.612   1.425   9.738
51303SOL    HW253934  10.467   1.350   9.730
51304SOL     OW53935  10.582   1.445  10.452
51304SOL    HW153936  10.629   1.458  10.539
51304SOL    HW253937  10.516   1.371  10.461
51305SOL     OW53938  10.892   0.639   9.782
51305SOL    HW153939  10.861   0.700   9.855
51305SOL    HW253940  10.942   0.691   9.713
51306SOL     OW53941   9.664   1.510  10.639
51306SOL    HW153942   9.643   1.466  10.552
51306SOL    HW253943   9.761   1.536  10.642
51307SOL     OW53944   9.712   0.751  10.908
51307SOL    HW153945   9.780   0.806  10.861
51307SOL    HW253946   9.752   0.663  10.935
51308SOL     OW53947  10.897   0.779  10.980
51308SOL    HW153948  10.805   0.817  10.975
51308SOL    HW253949  10.957   0.826  10.915
51309SOL     OW53950  10.323   0.105  11.080
51309SOL    HW153951  10.329   0.190  11.028
51309SOL    HW253952  10.355   0.029  11.023
51310SOL     OW53953   9.814   0.050  11.050
51310SOL    HW153954   9.772  -0.007  10.980
51310SOL    HW253955   9.748   0.119  11.082
51311SOL     OW53956   9.883   0.870  10.339
51311SOL    HW153957   9.927   0.959  10.330
51311SOL    HW253958   9.820   0.870  10.416
51312SOL     OW53959  10.670   0.862  10.355
51312SOL    HW153960  10.595   0.862  10.289
51312SOL    HW253961  10.707   0.770  10.364
51313SOL     OW53962  10.519   0.525   9.585
51313SOL    HW153963  10.532   0.441   9.639
51313SOL    HW253964  10.490   0.599   9.645
51314SOL     OW53965   9.617   0.213  10.541
51314SOL    HW153966   9.594   0.250  10.631
51314SOL    HW253967   9.587   0.118  10.535
51315SOL     OW53968   9.347   1.310  10.592
51315SOL    HW153969   9.400   1.261  10.660
51315SOL    HW253970   9.369   1.408  10.597
51316SOL     OW53971  10.042   0.634  10.374
51316SOL    HW153972  10.101   0.608  10.298
51316SOL    HW253973  10.014   0.730  10.363
51317SOL     OW53974  11.038   0.935  11.164
51317SOL    HW153975  10.992   0.928  11.075
51317SOL    HW253976  10.976   0.979  11.230
51318SOL     OW53977   9.617   0.063   9.928
51318SOL    HW153978   9.606   0.157   9.961
51318SOL    HW253979   9.612   0.000  10.005
51319SOL     OW53980  10.932   0.367   9.684
51319SOL    HW153981  10.934   0.291   9.748
51319SOL    HW253982  10.884   0.444   9.724
51320SOL     OW53983  10.333   0.766  10.276
51320SOL    HW153984  10.348   0.787  10.372
51320SOL    HW253985  10.303   0.671  10.267
51321SOL     OW53986  10.290   1.573  11.010
51321SOL    HW153987  10.270   1.617  10.922
51321SOL    HW253988  10.329   1.482  10.994
51322SOL     OW53989  11.169   1.518  10.915
51322SOL    HW153990  11.183   1.545  10.820
51322SOL    HW253991  11.252   1.540  10.968
51323SOL     OW53992   9.660   0.898  11.114
51323SOL    HW153993   9.736   0.942  11.162
51323SOL    HW253994   9.695   0.851  11.032
51324SOL     OW53995  10.850   0.274   9.435
51324SOL    HW153996  10.789   0.199   9.458
51324SOL    HW253997  10.872   0.326   9.518
51325SOL     OW53998  10.613   0.838   9.352
51325SOL    HW153999  10.647   0.745   9.367
51325SOL    HW254000  10.631   0.865   9.257
51326SOL     OW54001  10.378   1.333  10.159
51326SOL    HW154002  10.385   1.249  10.104
51326SOL    HW254003  10.440   1.402  10.123
51327SOL     OW54004   9.629   0.810  10.259
51327SOL    HW154005   9.722   0.846  10.264
51327SOL    HW254006   9.623   0.725  10.311
51328SOL     OW54007   9.649   0.509  10.316
51328SOL    HW154008   9.597   0.426  10.299
51328SOL    HW254009   9.726   0.514  10.252
51329SOL     OW54010  10.448   0.380  10.988
51329SOL    HW154011  10.403   0.443  11.052
51329SOL    HW254012  10.541   0.411  10.971
51330SOL     OW54013  10.470   0.207  10.787
51330SOL    HW154014  10.470   0.271  10.864
51330SOL    HW254015  10.498   0.255  10.704
51331SOL     OW54016   9.318   1.326   9.510
51331SOL    HW154017   9.225   1.347   9.479
51331SOL    HW254018   9.328   1.227   9.523
51332SOL     OW54019   9.398   1.801  10.237
51332SOL    HW154020   9.356   1.715  10.210
51332SOL    HW254021   9.492   1.804  10.203
51333SOL     OW54022   9.814   1.568  10.220
51333SOL    HW154023   9.880   1.642  10.229
51333SOL    HW254024   9.858   1.489  10.178
51334SOL     OW54025  10.312   0.796  10.548
51334SOL    HW154026  10.353   0.764  10.634
51334SOL    HW254027  10.216   0.769  10.545
51335SOL     OW54028   9.350   0.544  10.424
51335SOL    HW154029   9.435   0.511  10.383
51335SOL    HW254030   9.363   0.559  10.522
51336SOL     OW54031   9.499   0.520  11.032
51336SOL    HW154032   9.558   0.480  10.962
51336SOL    HW254033   9.441   0.591  10.991
51337SOL     OW54034  10.679   0.950  10.970
51337SOL    HW154035  10.718   1.039  10.990
51337SOL    HW254036  10.689   0.930  10.873
51338SOL     OW54037  10.125   0.572   9.635
51338SOL    HW154038  10.132   0.483   9.589
51338SOL    HW254039  10.031   0.606   9.627
51339SOL     OW54040  10.967   0.604  10.516
51339SOL    HW154041  10.929   0.535  10.578
51339SOL    HW254042  11.049   0.568  10.472
51340SOL     OW54043   9.562   1.564  11.054
51340SOL    HW154044   9.532   1.621  11.130
51340SOL    HW254045   9.555   1.467  11.080
51341SOL     OW54046   9.981   0.464  10.579
51341SOL    HW154047   9.947   0.375  10.549
51341SOL    HW254048  10.007   0.518  10.499
51342SOL     OW54049  10.240   1.678  10.775
51342SOL    HW154050  10.216   1.660  10.680
51342SOL    HW254051  10.270   1.772  10.785
51343SOL     OW54052   9.783   0.500   9.501
51343SOL    HW154053   9.844   0.580   9.505
51343SOL    HW254054   9.688   0.531   9.508
51344SOL     OW54055   9.469   1.137  10.776
51344SOL    HW154056   9.491   1.076  10.852
51344SOL    HW254057   9.479   1.088  10.690
51345SOL     OW54058  10.657   1.059  10.544
51345SOL    HW154059  10.681   0.996  10.470
51345SOL    HW254060  10.567   1.099  10.526
51346SOL     OW54061  10.612   0.855   9.619
51346SOL    HW154062  10.526   0.824   9.661
51346SOL    HW254063  10.608   0.841   9.520
51347SOL     OW54064  11.069   1.747  10.464
51347SOL    HW154065  11.130   1.777  10.391
51347SOL    HW254066  11.031   1.658  10.442
51348SOL     OW54067  10.562   1.731  10.438
51348SOL    HW154068  10.646   1.736  10.384
51348SOL    HW254069  10.539   1.635  10.456
51349SOL     OW54070   9.393   1.258  10.332
51349SOL    HW154071   9.388   1.257  10.432
51349SOL    HW254072   9.310   1.217  10.294
51350SOL     OW54073   9.998   1.662  11.026
51350SOL    HW154074   9.942   1.743  11.035
51350SOL    HW254075  10.050   1.666  10.940
51351SOL     OW54076  11.036   0.135   9.833
51351SOL    HW154077  11.109   0.118   9.766
51351SOL    HW254078  11.005   0.048   9.871
51352SOL     OW54079  10.698   1.573   9.787
51352SOL    HW154080  10.765   1.585   9.713
51352SOL    HW254081  10.658   1.662   9.810
51353SOL     OW54082   9.440   1.794  11.161
51353SOL    HW154083   9.399   1.720  11.214
51353SOL    HW254084   9.504   1.845  11.219
51354SOL     OW54085  10.590   0.927   9.982
51354SOL    HW154086  10.650   0.846   9.984
51354SOL    HW254087  10.630   0.996   9.922
51355SOL     OW54088  10.140   1.273  10.732
51355SOL    HW154089  10.135   1.306  10.827
51355SOL    HW254090  10.054   1.292  10.686
51356SOL     OW54091   9.982   1.616   9.464
51356SOL    HW154092   9.991   1.626   9.365
51356SOL    HW254093   9.942   1.527   9.485
51357SOL     OW54094  10.960   1.720  10.704
51357SOL    HW154095  11.013   1.730  10.620
51357SOL    HW254096  10.933   1.810  10.738
51358SOL     OW54097  11.151   0.175  10.273
51358SOL    HW154098  11.190   0.090  10.237
51358SOL    HW254099  11.053   0.177  10.254
51359SOL     OW54100   9.573   0.326  10.030
51359SOL    HW154101   9.494   0.377   9.996
51359SOL    HW254102   9.564   0.311  10.128
51360SOL     OW54103  10.504   1.612   9.341
51360SOL    HW154104  10.510   1.519   9.378
51360SOL    HW254105  10.445   1.612   9.261
51361SOL     OW54106  10.132   1.002  10.682
51361SOL    HW154107  10.172   1.001  10.590
51361SOL    HW254108  10.142   1.094  10.722
51362SOL     OW54109  10.226   0.910   9.601
51362SOL    HW154110  10.289   0.948   9.533
51362SOL    HW254111  10.266   0.827   9.640
51363SOL     OW54112  10.814   1.607   9.354
51363SOL    HW154113  10.722   1.644   9.361
51363SOL    HW254114  10.852   1.627   9.264
51364SOL     OW54115   9.682   1.288  10.800
51364SOL    HW154116   9.669   1.381  10.766
51364SOL    HW254117   9.598   1.236  10.787
51365SOL     OW54118  10.924   1.292  10.599
51365SOL    HW154119  10.984   1.295  10.679
51365SOL    HW254120  10.849   1.356  10.612
51366SOL     OW54121  10.349   1.098  10.006
51366SOL    HW154122  10.279   1.051  10.060
51366SOL    HW254123  10.408   1.030   9.963
51367SOL     OW54124  10.324   0.236  10.281
51367SOL    HW154125  10.316   0.200  10.188
51367SOL    HW254126  10.322   0.160  10.346
51368SOL     OW54127   9.900   1.487   9.801
51368SOL    HW154128   9.942   1.429   9.731
51368SOL    HW254129   9.856   1.566   9.757
51369SOL     OW54130  11.019   0.385  10.691
51369SOL    HW154131  11.092   0.454  10.695
51369SOL    HW254132  11.047   0.310  10.632
51370SOL     OW54133   9.565   1.348   9.600
51370SOL    HW154134   9.469   1.349   9.573
51370SOL    HW254135   9.577   1.401   9.684
51371SOL     OW54136   9.415   1.013  11.036
51371SOL    HW154137   9.338   0.980  11.090
51371SOL    HW254138   9.500   0.983  11.078
51372SOL     OW54139   9.982   0.203  10.799
51372SOL    HW154140  10.072   0.187  10.759
51372SOL    HW254141   9.990   0.208  10.898
51373SOL     OW54142   9.385   0.345   9.343
51373SOL    HW154143   9.293   0.317   9.314
51373SOL    HW254144   9.416   0.422   9.287
51374SOL     OW54145  10.750   0.856  10.708
51374SOL    HW154146  10.693   0.908  10.645
51374SOL    HW254147  10.846   0.868  10.684
51375SOL     OW54148   9.382   0.166   9.628
51375SOL    HW154149   9.365   0.249   9.574
51375SOL    HW254150   9.472   0.129   9.606
51376SOL     OW54151  10.493   1.335   9.429
51376SOL    HW154152  10.394   1.324   9.431
51376SOL    HW254153  10.527   1.350   9.522
51377SOL     OW54154   9.923   0.842  10.741
51377SOL    HW154155   9.979   0.923  10.724
51377SOL    HW254156   9.982   0.762  10.744
51378SOL     OW54157  10.803   1.767  10.269
51378SOL    HW154158  10.836   1.831  10.200
51378SOL    HW254159  10.869   1.761  10.344
51379SOL     OW54160  10.026   0.565  11.018
51379SOL    HW154161  10.045   0.630  11.092
51379SOL    HW254162  10.086   0.485  11.027
51380SOL     OW54163  10.760   1.220  10.943
51380SOL    HW154164  10.751   1.210  11.042
51380SOL    HW254165  10.856   1.213  10.917
51381SOL     OW54166   9.700   1.741  10.870
51381SOL    HW154167   9.609   1.782  10.868
51381SOL    HW254168   9.693   1.647  10.902
51382SOL     OW54169  10.984   0.883  10.564
51382SOL    HW154170  10.957   0.794  10.527
51382SOL    HW254171  10.985   0.951  10.491
51383SOL     OW54172  10.535   0.325   9.759
51383SOL    HW154173  10.600   0.251   9.748
51383SOL    HW254174  10.555   0.375   9.843
51384SOL     OW54175   9.904   0.745   9.962
51384SOL    HW154176   9.954   0.830   9.943
51384SOL    HW254177   9.816   0.747   9.914
51385SOL     OW54178  11.087   0.342  10.952
51385SOL    HW154179  11.070   0.373  10.858
51385SOL    HW254180  11.003   0.305  10.990
51386SOL     OW54181  11.040   0.934  10.827
51386SOL    HW154182  11.078   1.025  10.842
51386SOL    HW254183  11.032   0.917  10.728
51387SOL     OW54184  10.169   1.374   9.326
51387SOL    HW154185  10.123   1.389   9.414
51387SOL    HW254186  10.213   1.459   9.296
51388SOL     OW54187   9.971   1.790  10.263
51388SOL    HW154188   9.925   1.878  10.250
51388SOL    HW254189  10.070   1.802  10.256
51389SOL     OW54190  10.169   0.956  10.171
51389SOL    HW154191  10.223   0.887  10.219
51389SOL    HW254192  10.137   1.025  10.237
51390SOL     OW54193  10.393   0.984   9.397
51390SOL    HW154194  10.370   1.037   9.315
51390SOL    HW254195  10.474   0.928   9.378
51391SOL     OW54196  11.171   1.569  10.161
51391SOL    HW154197  11.100   1.557  10.091
51391SOL    HW254198  11.172   1.490  10.221
51392SOL     OW54199   9.531   1.314  11.154
51392SOL    HW154200   9.466   1.241  11.133
51392SOL    HW254201   9.535   1.328  11.252
51393SOL     OW54202   9.389   1.240   9.963
51393SOL    HW154203   9.388   1.193  10.051
51393SOL    HW254204   9.471   1.212   9.912
51394SOL     OW54205   9.982   1.391  10.934
51394SOL    HW154206   9.904   1.341  10.972
51394SOL    HW254207   9.979   1.486  10.965
51395SOL     OW54208  11.134   0.192  10.537
51395SOL    HW154209  11.130   0.102  10.581
51395SOL    HW254210  11.137   0.181  10.438
51396SOL     OW54211   9.738   0.424   9.830
51396SOL    HW154212   9.768   0.352   9.768
51396SOL    HW254213   9.699   0.384   9.913
51397SOL     OW54214  11.015   1.487  10.414
51397SOL    HW154215  10.922   1.462  10.387
51397SOL    HW254216  11.041   1.437  10.496
51398SOL     OW54217   9.627   0.547  10.590
51398SOL    HW154218   9.665   0.488  10.662
51398SOL    HW254219   9.667   0.521  10.502
51399SOL     OW54220  10.122   1.586   9.997
51399SOL    HW154221  10.154   1.596   9.903
51399SOL    HW254222  10.043   1.524   9.999
51400SOL     OW54223  10.734   0.214  10.422
51400SOL    HW154224  10.786   0.149  10.477
51400SOL    HW254225  10.685   0.277  10.483
51401SOL     OW54226  10.311   0.034  10.464
51401SOL    HW154227  10.248  -0.038  10.433
51401SOL    HW254228  10.404  -0.002  10.464
51402SOL     OW54229  10.080   1.330   9.611
51402SOL    HW154230  10.034   1.243   9.628
51402SOL    HW254231  10.171   1.327   9.652
51403SOL     OW54232   9.928   1.567  10.594
51403SOL    HW154233   9.923   1.649  10.651
51403SOL    HW254234  10.017   1.564  10.549
51404SOL     OW54235  10.662   0.052   9.478
51404SOL    HW154236  10.697   0.011   9.394
51404SOL    HW254237  10.572   0.014   9.498
51405SOL     OW54238  10.610   0.453  10.001
51405SOL    HW154239  10.551   0.533  10.005
51405SOL    HW254240  10.625   0.418  10.094
51406SOL     OW54241  10.903   0.221  10.192
51406SOL    HW154242  10.819   0.220  10.246
51406SOL    HW254243  10.905   0.304  10.136
51407SOL     OW54244   9.349   1.077   9.610
51407SOL    HW154245   9.448   1.066   9.601
51407SOL    HW254246   9.309   0.991   9.642
51408SOL     OW54247  10.185   1.646   9.647
51408SOL    HW154248  10.108   1.611   9.593
51408SOL    HW254249  10.153   1.717   9.709
51409SOL     OW54250   9.540   0.628  11.285
51409SOL    HW154251   9.447   0.626  11.322
51409SOL    HW254252   9.541   0.589  11.193
51410SOL     OW54253   9.535   0.275  12.168
51410SOL    HW154254   9.570   0.258  12.260
51410SOL    HW254255   9.447   0.230  12.156
51411SOL     OW54256   9.329   0.368  11.819
51411SOL    HW154257   9.247   0.411  11.858
51411SOL    HW254258   9.301   0.295  11.756
51412SOL     OW54259   9.879   1.275  12.337
51412SOL    HW154260   9.786   1.268  12.300
51412SOL    HW254261   9.890   1.364  12.381
51413SOL     OW54262  10.865   1.511  11.875
51413SOL    HW154263  10.808   1.495  11.956
51413SOL    HW254264  10.806   1.521  11.795
51414SOL     OW54265  10.445   0.703  11.889
51414SOL    HW154266  10.502   0.781  11.864
51414SOL    HW254267  10.385   0.729  11.965
51415SOL     OW54268  11.065   0.607  11.403
51415SOL    HW154269  11.053   0.594  11.304
51415SOL    HW254270  11.035   0.526  11.452
51416SOL     OW54271  10.078   1.144  12.195
51416SOL    HW154272  10.000   1.161  12.255
51416SOL    HW254273  10.112   1.231  12.159
51417SOL     OW54274   9.995   1.012  11.837
51417SOL    HW154275  10.064   0.996  11.907
51417SOL    HW254276   9.922   1.069  11.875
51418SOL     OW54277   9.645   1.435  12.233
51418SOL    HW154278   9.567   1.404  12.180
51418SOL    HW254279   9.703   1.493  12.176
51419SOL     OW54280  10.770   1.505  12.511
51419SOL    HW154281  10.794   1.599  12.537
51419SOL    HW254282  10.754   1.451  12.593
51420SOL     OW54283   9.748   0.392  12.671
51420SOL    HW154284   9.830   0.336  12.680
51420SOL    HW254285   9.667   0.334  12.675
51421SOL     OW54286  10.913   0.447  11.909
51421SOL    HW154287  10.839   0.493  11.859
51421SOL    HW254288  10.964   0.515  11.962
51422SOL     OW54289   9.541   1.713  11.655
51422SOL    HW154290   9.575   1.790  11.709
51422SOL    HW254291   9.585   1.713  11.565
51423SOL     OW54292   9.540   1.434  11.710
51423SOL    HW154293   9.514   1.530  11.710
51423SOL    HW254294   9.469   1.380  11.755
51424SOL     OW54295   9.550   1.091  12.058
51424SOL    HW154296   9.564   1.007  12.110
51424SOL    HW254297   9.495   1.155  12.113
51425SOL     OW54298   9.930   1.786  12.611
51425SOL    HW154299   9.838   1.769  12.646
51425SOL    HW254300   9.958   1.878  12.637
51426SOL     OW54301   9.916   0.964  11.295
51426SOL    HW154302   9.923   1.048  11.241
51426SOL    HW254303   9.962   0.977  11.383
51427SOL     OW54304  10.904   0.114  12.652
51427SOL    HW154305  10.886   0.181  12.580
51427SOL    HW254306  10.901   0.160  12.741
51428SOL     OW54307   9.432   0.643  11.735
51428SOL    HW154308   9.387   0.555  11.752
51428SOL    HW254309   9.431   0.697  11.819
51429SOL     OW54310  11.152   1.767  11.531
51429SOL    HW154311  11.206   1.738  11.611
51429SOL    HW254312  11.182   1.857  11.502
51430SOL     OW54313   9.337   1.596  11.289
51430SOL    HW154314   9.318   1.500  11.310
51430SOL    HW254315   9.304   1.654  11.364
51431SOL     OW54316  10.999   0.922  11.784
51431SOL    HW154317  11.094   0.893  11.792
51431SOL    HW254318  10.991   0.987  11.709
51432SOL     OW54319  10.951   1.108  11.604
51432SOL    HW154320  11.037   1.110  11.552
51432SOL    HW254321  10.965   1.155  11.692
51433SOL     OW54322   9.423   0.737  12.769
51433SOL    HW154323   9.511   0.724  12.814
51433SOL    HW254324   9.410   0.834  12.747
51434SOL     OW54325   9.923   1.365  11.898
51434SOL    HW154326   9.874   1.278  11.907
51434SOL    HW254327   9.900   1.408  11.811
51435SOL     OW54328  10.603   1.228  12.595
51435SOL    HW154329  10.640   1.155  12.537
51435SOL    HW254330  10.655   1.233  12.680
51436SOL     OW54331  10.119   0.004  11.674
51436SOL    HW154332  10.159   0.095  11.665
51436SOL    HW254333  10.019   0.012  11.680
51437SOL     OW54334   9.507   0.976  12.436
51437SOL    HW154335   9.596   0.931  12.422
51437SOL    HW254336   9.434   0.911  12.417
51438SOL     OW54337  10.835   0.999  11.362
51438SOL    HW154338  10.772   0.923  11.375
51438SOL    HW254339  10.883   1.017  11.448
51439SOL     OW54340  10.776   1.417  12.125
51439SOL    HW154341  10.717   1.423  12.205
51439SOL    HW254342  10.761   1.329  12.079
51440SOL     OW54343  10.977   1.714  11.744
51440SOL    HW154344  10.936   1.691  11.656
51440SOL    HW254345  10.959   1.640  11.809
51441SOL     OW54346   9.908   0.729  11.442
51441SOL    HW154347   9.932   0.798  11.374
51441SOL    HW254348   9.830   0.762  11.496
51442SOL     OW54349  10.591   0.345  12.116
51442SOL    HW154350  10.505   0.295  12.103
51442SOL    HW254351  10.653   0.291  12.172
51443SOL     OW54352  10.886   1.662  11.479
51443SOL    HW154353  10.975   1.708  11.482
51443SOL    HW254354  10.865   1.638  11.384
51444SOL     OW54355  10.117   0.605  12.637
51444SOL    HW154356  10.070   0.602  12.726
51444SOL    HW254357  10.066   0.550  12.571
51445SOL     OW54358  10.283   0.890  12.744
51445SOL    HW154359  10.329   0.806  12.715
51445SOL    HW254360  10.227   0.924  12.669
51446SOL     OW54361  10.301   0.410  12.414
51446SOL    HW154362  10.224   0.444  12.468
51446SOL    HW254363  10.267   0.359  12.335
51447SOL     OW54364  10.351   0.701  11.601
51447SOL    HW154365  10.377   0.697  11.697
51447SOL    HW254366  10.266   0.650  11.587
51448SOL     OW54367   9.386   0.811  11.961
51448SOL    HW154368   9.485   0.799  11.970
51448SOL    HW254369   9.362   0.906  11.982
51449SOL     OW54370   9.440   1.821  12.743
51449SOL    HW154371   9.430   1.806  12.842
51449SOL    HW254372   9.354   1.857  12.707
51450SOL     OW54373  10.175   0.348  11.367
51450SOL    HW154374  10.234   0.411  11.318
51450SOL    HW254375  10.194   0.254  11.338
51451SOL     OW54376  10.672   1.144  11.717
51451SOL    HW154377  10.755   1.115  11.669
51451SOL    HW254378  10.623   1.211  11.661
51452SOL     OW54379   9.860   0.196  12.057
51452SOL    HW154380   9.855   0.191  12.157
51452SOL    HW254381   9.862   0.292  12.028
51453SOL     OW54382  10.318   1.456  11.649
51453SOL    HW154383  10.272   1.528  11.597
51453SOL    HW254384  10.314   1.476  11.747
51454SOL     OW54385   9.661   1.801  12.025
51454SOL    HW154386   9.711   1.715  12.031
51454SOL    HW254387   9.726   1.878  12.022
51455SOL     OW54388  11.105   1.066  12.045
51455SOL    HW154389  11.043   1.051  11.969
51455SOL    HW254390  11.053   1.077  12.130
51456SOL     OW54391  10.537   1.550  12.678
51456SOL    HW154392  10.543   1.473  12.742
51456SOL    HW254393  10.485   1.524  12.598
51457SOL     OW54394   9.631   0.943  11.414
51457SOL    HW154395   9.713   0.982  11.372
51457SOL    HW254396   9.604   0.861  11.365
51458SOL     OW54397  10.768   0.735  11.900
51458SOL    HW154398  10.763   0.670  11.975
51458SOL    HW254399  10.848   0.794  11.913
51459SOL     OW54400  10.421   1.776  11.409
51459SOL    HW154401  10.361   1.714  11.459
51459SOL    HW254402  10.452   1.732  11.324
51460SOL     OW54403   9.512   0.285  12.670
51460SOL    HW154404   9.432   0.345  12.657
51460SOL    HW254405   9.502   0.236  12.756
51461SOL     OW54406  10.942   1.377  11.253
51461SOL    HW154407  10.910   1.471  11.243
51461SOL    HW254408  10.866   1.314  11.241
51462SOL     OW54409   9.774   1.743  11.495
51462SOL    HW154410   9.807   1.782  11.581
51462SOL    HW254411   9.850   1.736  11.430
51463SOL     OW54412  10.710   0.107  11.598
51463SOL    HW154413  10.686   0.070  11.508
51463SOL    HW254414  10.809   0.123  11.602
51464SOL     OW54415   9.559   1.785  12.413
51464SOL    HW154416   9.616   1.720  12.463
51464SOL    HW254417   9.543   1.752  12.320
51465SOL     OW54418  10.250   1.698  12.076
51465SOL    HW154419  10.330   1.641  12.097
51465SOL    HW254420  10.201   1.658  11.999
51466SOL     OW54421   9.692   0.700  11.652
51466SOL    HW154422   9.737   0.610  11.649
51466SOL    HW254423   9.598   0.689  11.685
51467SOL     OW54424   9.924   0.122  11.289
51467SOL    HW154425  10.022   0.100  11.296
51467SOL    HW254426   9.893   0.105  11.196
51468SOL     OW54427  10.198   1.514  12.367
51468SOL    HW154428  10.175   1.489  12.273
51468SOL    HW254429  10.259   1.445  12.406
51469SOL     OW54430  10.661   0.590  12.605
51469SOL    HW154431  10.689   0.547  12.690
51469SOL    HW254432  10.686   0.686  12.606
51470SOL     OW54433  10.113   1.402  12.096
51470SOL    HW154434  10.203   1.416  12.054
51470SOL    HW254435  10.042   1.404  12.025
51471SOL     OW54436  10.232   0.503  12.071
51471SOL    HW154437  10.207   0.494  11.975
51471SOL    HW254438  10.280   0.421  12.102
51472SOL     OW54439   9.849   0.064  11.684
51472SOL    HW154440   9.768   0.065  11.742
51472SOL    HW254441   9.852   0.147  11.629
51473SOL     OW54442  10.744   1.188  11.213
51473SOL    HW154443  10.776   1.112  11.270
51473SOL    HW254444  10.652   1.215  11.243
51474SOL     OW54445   9.607   0.035  11.343
51474SOL    HW154446   9.656   0.119  11.322
51474SOL    HW254447   9.669  -0.030  11.388
51475SOL     OW54448  10.245   0.236  11.652
51475SOL    HW154449  10.197   0.277  11.574
51475SOL    HW254450  10.344   0.234  11.633
51476SOL     OW54451  10.386   0.683  12.636
51476SOL    HW154452  10.306   0.622  12.639
51476SOL    HW254453  10.467   0.630  12.612
51477SOL     OW54454  10.537   1.570  11.965
51477SOL    HW154455  10.558   1.644  11.900
51477SOL    HW254456  10.605   1.570  12.038
51478SOL     OW54457   9.769   1.152  11.913
51478SOL    HW154458   9.698   1.125  11.978
51478SOL    HW254459   9.743   1.124  11.820
51479SOL     OW54460  10.581   1.797  11.763
51479SOL    HW154461  10.625   1.861  11.699
51479SOL    HW254462  10.531   1.849  11.833
51480SOL     OW54463  10.342   0.549  11.188
51480SOL    HW154464  10.301   0.631  11.149
51480SOL    HW254465  10.406   0.575  11.261
51481SOL     OW54466   9.388   0.556  12.558
51481SOL    HW154467   9.480   0.555  12.517
51481SOL    HW254468   9.382   0.630  12.625
51482SOL     OW54469   9.871   0.222  12.319
51482SOL    HW154470   9.909   0.138  12.356
51482SOL    HW254471   9.783   0.241  12.363
51483SOL     OW54472  10.176   0.454  11.814
51483SOL    HW154473  10.144   0.526  11.752
51483SOL    HW254474  10.200   0.373  11.761
51484SOL     OW54475  10.327   0.039  11.925
51484SOL    HW154476  10.255   0.044  11.856
51484SOL    HW254477  10.303  -0.030  11.994
51485SOL     OW54478  10.739   1.173  12.039
51485SOL    HW154479  10.684   1.089  12.032
51485SOL    HW254480  10.765   1.202  11.947
51486SOL     OW54481  10.776   0.590  12.164
51486SOL    HW154482  10.746   0.495  12.171
51486SOL    HW254483  10.849   0.606  12.230
51487SOL     OW54484  11.167   0.833  11.549
51487SOL    HW154485  11.209   0.769  11.613
51487SOL    HW254486  11.129   0.782  11.471
51488SOL     OW54487   9.798   1.385  11.346
51488SOL    HW154488   9.711   1.370  11.393
51488SOL    HW254489   9.781   1.411  11.251
51489SOL     OW54490  10.974   1.280  11.829
51489SOL    HW154491  11.073   1.288  11.843
51489SOL    HW254492  10.929   1.364  11.860
51490SOL     OW54493  10.700   0.575  11.250
51490SOL    HW154494  10.646   0.554  11.331
51490SOL    HW254495  10.791   0.534  11.259
51491SOL     OW54496   9.837   0.256  11.500
51491SOL    HW154497   9.864   0.197  11.425
51491SOL    HW254498   9.837   0.351  11.469
51492SOL     OW54499  11.064   1.223  12.760
51492SOL    HW154500  11.155   1.184  12.747
51492SOL    HW254501  11.072   1.319  12.784
51493SOL     OW54502  10.374   1.347  12.512
51493SOL    HW154503  10.294   1.324  12.567
51493SOL    HW254504  10.457   1.321  12.561
51494SOL     OW54505  10.421   1.195  12.272
51494SOL    HW154506  10.381   1.239  12.353
51494SOL    HW254507  10.380   1.232  12.189
51495SOL     OW54508  10.948   1.099  12.251
51495SOL    HW154509  10.953   1.180  12.310
51495SOL    HW254510  10.862   1.101  12.200
51496SOL     OW54511  10.225   0.089  12.574
51496SOL    HW154512  10.250   0.069  12.479
51496SOL    HW254513  10.297   0.145  12.616
51497SOL     OW54514  10.015   1.050  11.540
51497SOL    HW154515  10.001   1.057  11.639
51497SOL    HW254516  10.099   0.999  11.522
51498SOL     OW54517   9.720   0.813  12.423
51498SOL    HW154518   9.806   0.825  12.473
51498SOL    HW254519   9.678   0.726  12.450
51499SOL     OW54520  10.584   0.386  12.434
51499SOL    HW154521  10.605   0.460  12.498
51499SOL    HW254522  10.495   0.403  12.391
51500SOL     OW54523   9.374   1.564  12.503
51500SOL    HW154524   9.328   1.646  12.469
51500SOL    HW254525   9.472   1.583  12.512
51501SOL     OW54526   9.677   1.100  11.673
51501SOL    HW154527   9.670   1.183  11.617
51501SOL    HW254528   9.681   1.020  11.613
51502SOL     OW54529   9.876   0.537  12.037
51502SOL    HW154530   9.888   0.603  11.963
51502SOL    HW254531   9.922   0.571  12.120
51503SOL     OW54532  10.562   1.348  11.560
51503SOL    HW154533  10.612   1.425  11.600
51503SOL    HW254534  10.467   1.350  11.592
51504SOL     OW54535  10.582   1.445  12.314
51504SOL    HW154536  10.629   1.458  12.401
51504SOL    HW254537  10.516   1.371  12.323
51505SOL     OW54538  10.892   0.639  11.644
51505SOL    HW154539  10.861   0.700  11.717
51505SOL    HW254540  10.942   0.691  11.575
51506SOL     OW54541   9.664   1.510  12.501
51506SOL    HW154542   9.643   1.466  12.414
51506SOL    HW254543   9.761   1.536  12.504
51507SOL     OW54544   9.712   0.751  12.770
51507SOL    HW154545   9.780   0.806  12.723
51507SOL    HW254546   9.752   0.663  12.797
51508SOL     OW54547  10.897   0.779  12.842
51508SOL    HW154548  10.805   0.817  12.837
51508SOL    HW254549  10.957   0.826  12.777
51509SOL     OW54550   9.883   0.870  12.201
51509SOL    HW154551   9.927   0.959  12.192
51509SOL    HW254552   9.820   0.870  12.278
51510SOL     OW54553  10.670   0.862  12.217
51510SOL    HW154554  10.595   0.862  12.151
51510SOL    HW254555  10.707   0.770  12.226
51511SOL     OW54556  10.519   0.525  11.447
51511SOL    HW154557  10.532   0.441  11.501
51511SOL    HW254558  10.490   0.599  11.507
51512SOL     OW54559   9.617   0.213  12.403
51512SOL    HW154560   9.594   0.250  12.493
51512SOL    HW254561   9.587   0.118  12.397
51513SOL     OW54562   9.347   1.310  12.454
51513SOL    HW154563   9.400   1.261  12.522
51513SOL    HW254564   9.369   1.408  12.459
51514SOL     OW54565  10.042   0.634  12.236
51514SOL    HW154566  10.101   0.608  12.160
51514SOL    HW254567  10.014   0.730  12.225
51515SOL     OW54568   9.617   0.063  11.790
51515SOL    HW154569   9.606   0.157  11.823
51515SOL    HW254570   9.612   0.000  11.867
51516SOL     OW54571  10.932   0.367  11.546
51516SOL    HW154572  10.934   0.291  11.610
51516SOL    HW254573  10.884   0.444  11.586
51517SOL     OW54574  10.333   0.766  12.138
51517SOL    HW154575  10.348   0.787  12.234
51517SOL    HW254576  10.303   0.671  12.129
51518SOL     OW54577  10.850   0.274  11.297
51518SOL    HW154578  10.789   0.199  11.320
51518SOL    HW254579  10.872   0.326  11.380
51519SOL     OW54580  10.613   0.838  11.214
51519SOL    HW154581  10.647   0.745  11.229
51519SOL    HW254582  10.631   0.865  11.119
51520SOL     OW54583  10.378   1.333  12.021
51520SOL    HW154584  10.385   1.249  11.966
51520SOL    HW254585  10.440   1.402  11.985
51521SOL     OW54586   9.629   0.810  12.121
51521SOL    HW154587   9.722   0.846  12.126
51521SOL    HW254588   9.623   0.725  12.173
51522SOL     OW54589   9.649   0.509  12.178
51522SOL    HW154590   9.597   0.426  12.161
51522SOL    HW254591   9.726   0.514  12.114
51523SOL     OW54592  10.470   0.207  12.649
51523SOL    HW154593  10.470   0.271  12.726
51523SOL    HW254594  10.498   0.255  12.566
51524SOL     OW54595   9.318   1.326  11.372
51524SOL    HW154596   9.225   1.347  11.341
51524SOL    HW254597   9.328   1.227  11.385
51525SOL     OW54598   9.398   1.801  12.099
51525SOL    HW154599   9.356   1.715  12.072
51525SOL    HW254600   9.492   1.804  12.065
51526SOL     OW54601   9.814   1.568  12.082
51526SOL    HW154602   9.880   1.642  12.091
51526SOL    HW254603   9.858   1.489  12.040
51527SOL     OW54604  10.312   0.796  12.410
51527SOL    HW154605  10.353   0.764  12.496
51527SOL    HW254606  10.216   0.769  12.407
51528SOL     OW54607   9.350   0.544  12.286
51528SOL    HW154608   9.435   0.511  12.245
51528SOL    HW254609   9.363   0.559  12.384
51529SOL     OW54610  10.125   0.572  11.497
51529SOL    HW154611  10.132   0.483  11.451
51529SOL    HW254612  10.031   0.606  11.489
51530SOL     OW54613  10.967   0.604  12.378
51530SOL    HW154614  10.929   0.535  12.440
51530SOL    HW254615  11.049   0.568  12.334
51531SOL     OW54616   9.562   1.564  12.916
51531SOL    HW154617   9.532   1.621  12.992
51531SOL    HW254618   9.555   1.467  12.942
51532SOL     OW54619   9.981   0.464  12.441
51532SOL    HW154620   9.947   0.375  12.411
51532SOL    HW254621  10.007   0.518  12.361
51533SOL     OW54622  10.240   1.678  12.637
51533SOL    HW154623  10.216   1.660  12.542
51533SOL    HW254624  10.270   1.772  12.647
51534SOL     OW54625   9.783   0.500  11.363
51534SOL    HW154626   9.844   0.580  11.367
51534SOL    HW254627   9.688   0.531  11.370
51535SOL     OW54628   9.469   1.137  12.638
51535SOL    HW154629   9.491   1.076  12.714
51535SOL    HW254630   9.479   1.088  12.552
51536SOL     OW54631  10.657   1.059  12.406
51536SOL    HW154632  10.681   0.996  12.332
51536SOL    HW254633  10.567   1.099  12.388
51537SOL     OW54634  10.612   0.855  11.481
51537SOL    HW154635  10.526   0.824  11.523
51537SOL    HW254636  10.608   0.841  11.382
51538SOL     OW54637  11.069   1.747  12.326
51538SOL    HW154638  11.130   1.777  12.253
51538SOL    HW254639  11.031   1.658  12.304
51539SOL     OW54640  10.562   1.731  12.300
51539SOL    HW154641  10.646   1.736  12.246
51539SOL    HW254642  10.539   1.635  12.318
51540SOL     OW54643   9.393   1.258  12.194
51540SOL    HW154644   9.388   1.257  12.294
51540SOL    HW254645   9.310   1.217  12.156
51541SOL     OW54646  11.036   0.135  11.695
51541SOL    HW154647  11.109   0.118  11.628
51541SOL    HW254648  11.005   0.048  11.733
51542SOL     OW54649  10.698   1.573  11.649
51542SOL    HW154650  10.765   1.585  11.575
51542SOL    HW254651  10.658   1.662  11.672
51543SOL     OW54652  10.590   0.927  11.844
51543SOL    HW154653  10.650   0.846  11.846
51543SOL    HW254654  10.630   0.996  11.784
51544SOL     OW54655  10.140   1.273  12.594
51544SOL    HW154656  10.135   1.306  12.689
51544SOL    HW254657  10.054   1.292  12.548
51545SOL     OW54658   9.982   1.616  11.326
51545SOL    HW154659   9.991   1.626  11.227
51545SOL    HW254660   9.942   1.527  11.347
51546SOL     OW54661  10.960   1.720  12.566
51546SOL    HW154662  11.013   1.730  12.482
51546SOL    HW254663  10.933   1.810  12.600
51547SOL     OW54664  11.151   0.175  12.135
51547SOL    HW154665  11.190   0.090  12.099
51547SOL    HW254666  11.053   0.177  12.116
51548SOL     OW54667   9.573   0.326  11.892
51548SOL    HW154668   9.494   0.377  11.858
51548SOL    HW254669   9.564   0.311  11.990
51549SOL     OW54670  10.504   1.612  11.203
51549SOL    HW154671  10.510   1.519  11.240
51549SOL    HW254672  10.445   1.612  11.123
51550SOL     OW54673  10.132   1.002  12.544
51550SOL    HW154674  10.172   1.001  12.452
51550SOL    HW254675  10.142   1.094  12.584
51551SOL     OW54676  10.226   0.910  11.463
51551SOL    HW154677  10.289   0.948  11.395
51551SOL    HW254678  10.266   0.827  11.502
51552SOL     OW54679  10.814   1.607  11.216
51552SOL    HW154680  10.722   1.644  11.223
51552SOL    HW254681  10.852   1.627  11.126
51553SOL     OW54682   9.682   1.288  12.662
51553SOL    HW154683   9.669   1.381  12.628
51553SOL    HW254684   9.598   1.236  12.649
51554SOL     OW54685  10.924   1.292  12.461
51554SOL    HW154686  10.984   1.295  12.541
51554SOL    HW254687  10.849   1.356  12.474
51555SOL     OW54688  10.349   1.098  11.868
51555SOL    HW154689  10.279   1.051  11.922
51555SOL    HW254690  10.408   1.030  11.825
51556SOL     OW54691  10.324   0.236  12.143
51556SOL    HW154692  10.316   0.200  12.050
51556SOL    HW254693  10.322   0.160  12.208
51557SOL     OW54694   9.900   1.487  11.663
51557SOL    HW154695   9.942   1.429  11.593
51557SOL    HW254696   9.856   1.566  11.619
51558SOL     OW54697  11.019   0.385  12.553
51558SOL    HW154698  11.092   0.454  12.557
51558SOL    HW254699  11.047   0.310  12.494
51559SOL     OW54700   9.565   1.348  11.462
51559SOL    HW154701   9.469   1.349  11.435
51559SOL    HW254702   9.577   1.401  11.546
51560SOL     OW54703   9.415   1.013  12.898
51560SOL    HW154704   9.338   0.980  12.952
51560SOL    HW254705   9.500   0.983  12.940
51561SOL     OW54706   9.982   0.203  12.661
51561SOL    HW154707  10.072   0.187  12.621
51561SOL    HW254708   9.990   0.208  12.760
51562SOL     OW54709   9.385   0.345  11.205
51562SOL    HW154710   9.293   0.317  11.176
51562SOL    HW254711   9.416   0.422  11.149
51563SOL     OW54712  10.750   0.856  12.570
51563SOL    HW154713  10.693   0.908  12.507
51563SOL    HW254714  10.846   0.868  12.546
51564SOL     OW54715   9.382   0.166  11.490
51564SOL    HW154716   9.365   0.249  11.436
51564SOL    HW254717   9.472   0.129  11.468
51565SOL     OW54718  10.493   1.335  11.291
51565SOL    HW154719  10.394   1.324  11.293
51565SOL    HW254720  10.527   1.350  11.384
51566SOL     OW54721   9.923   0.842  12.603
51566SOL    HW154722   9.979   0.923  12.586
51566SOL    HW254723   9.982   0.762  12.606
51567SOL     OW54724  10.803   1.767  12.131
51567SOL    HW154725  10.836   1.831  12.062
51567SOL    HW254726  10.869   1.761  12.206
51568SOL     OW54727  10.026   0.565  12.880
51568SOL    HW154728  10.045   0.630  12.954
51568SOL    HW254729  10.086   0.485  12.889
51569SOL     OW54730   9.700   1.741  12.732
51569SOL    HW154731   9.609   1.782  12.730
51569SOL    HW254732   9.693   1.647  12.764
51570SOL     OW54733  10.984   0.883  12.426
51570SOL    HW154734  10.957   0.794  12.389
51570SOL    HW254735  10.985   0.951  12.353
51571SOL     OW54736  10.535   0.325  11.621
51571SOL    HW154737  10.600   0.251  11.610
51571SOL    HW254738  10.555   0.375  11.705
51572SOL     OW54739   9.904   0.745  11.824
51572SOL    HW154740   9.954   0.830  11.805
51572SOL    HW254741   9.816   0.747  11.776
51573SOL     OW54742  11.087   0.342  12.814
51573SOL    HW154743  11.070   0.373  12.720
51573SOL    HW254744  11.003   0.305  12.852
51574SOL     OW54745  11.040   0.934  12.689
51574SOL    HW154746  11.078   1.025  12.704
51574SOL    HW254747  11.032   0.917  12.590
51575SOL     OW54748  10.169   1.374  11.188
51575SOL    HW154749  10.123   1.389  11.276
51575SOL    HW254750  10.213   1.459  11.158
51576SOL     OW54751   9.971   1.790  12.125
51576SOL    HW154752   9.925   1.878  12.112
51576SOL    HW254753  10.070   1.802  12.118
51577SOL     OW54754  10.169   0.956  12.033
51577SOL    HW154755  10.223   0.887  12.081
51577SOL    HW254756  10.137   1.025  12.099
51578SOL     OW54757  10.393   0.984  11.259
51578SOL    HW154758  10.370   1.037  11.177
51578SOL    HW254759  10.474   0.928  11.240
51579SOL     OW54760  11.171   1.569  12.023
51579SOL    HW154761  11.100   1.557  11.953
51579SOL    HW254762  11.172   1.490  12.083
51580SOL     OW54763   9.389   1.240  11.825
51580SOL    HW154764   9.388   1.193  11.913
51580SOL    HW254765   9.471   1.212  11.774
51581SOL     OW54766   9.982   1.391  12.796
51581SOL    HW154767   9.904   1.341  12.834
51581SOL    HW254768   9.979   1.486  12.827
51582SOL     OW54769  11.134   0.192  12.399
51582SOL    HW154770  11.130   0.102  12.443
51582SOL    HW254771  11.137   0.181  12.300
51583SOL     OW54772   9.738   0.424  11.692
51583SOL    HW154773   9.768   0.352  11.630
51583SOL    HW254774   9.699   0.384  11.775
51584SOL     OW54775  11.015   1.487  12.276
51584SOL    HW154776  10.922   1.462  12.249
51584SOL    HW254777  11.041   1.437  12.358
51585SOL     OW54778   9.627   0.547  12.452
51585SOL    HW154779   9.665   0.488  12.524
51585SOL    HW254780   9.667   0.521  12.364
51586SOL     OW54781  10.122   1.586  11.859
51586SOL    HW154782  10.154   1.596  11.765
51586SOL    HW254783  10.043   1.524  11.861
51587SOL     OW54784  10.734   0.214  12.284
51587SOL    HW154785  10.786   0.149  12.339
51587SOL    HW254786  10.685   0.277  12.345
51588SOL     OW54787  10.311   0.034  12.326
51588SOL    HW154788  10.248  -0.038  12.295
51588SOL    HW254789  10.404  -0.002  12.326
51589SOL     OW54790  10.080   1.330  11.473
51589SOL    HW154791  10.034   1.243  11.490
51589SOL    HW254792  10.171   1.327  11.514
51590SOL     OW54793   9.928   1.567  12.456
51590SOL    HW154794   9.923   1.649  12.513
51590SOL    HW254795  10.017   1.564  12.411
51591SOL     OW54796  10.662   0.052  11.340
51591SOL    HW154797  10.697   0.011  11.256
51591SOL    HW254798  10.572   0.014  11.360
51592SOL     OW54799  10.610   0.453  11.863
51592SOL    HW154800  10.551   0.533  11.867
51592SOL    HW254801  10.625   0.418  11.956
51593SOL     OW54802  10.903   0.221  12.054
51593SOL    HW154803  10.819   0.220  12.108
51593SOL    HW254804  10.905   0.304  11.998
51594SOL     OW54805   9.349   1.077  11.472
51594SOL    HW154806   9.448   1.066  11.463
51594SOL    HW254807   9.309   0.991  11.504
51595SOL     OW54808  10.185   1.646  11.509
51595SOL    HW154809  10.108   1.611  11.455
51595SOL    HW254810  10.153   1.717  11.571
51596SOL     OW54811   9.540   2.490   0.113
51596SOL    HW154812   9.447   2.488   0.150
51596SOL    HW254813   9.541   2.451   0.021
51597SOL     OW54814   9.535   2.137   0.996
51597SOL    HW154815   9.570   2.120   1.088
51597SOL    HW254816   9.447   2.092   0.984
51598SOL     OW54817   9.329   2.230   0.647
51598SOL    HW154818   9.247   2.273   0.686
51598SOL    HW254819   9.301   2.157   0.584
51599SOL     OW54820   9.879   3.137   1.165
51599SOL    HW154821   9.786   3.130   1.128
51599SOL    HW254822   9.890   3.226   1.209
51600SOL     OW54823  10.865   3.373   0.703
51600SOL    HW154824  10.808   3.357   0.784
51600SOL    HW254825  10.806   3.383   0.623
51601SOL     OW54826  10.445   2.565   0.717
51601SOL    HW154827  10.502   2.643   0.692
51601SOL    HW254828  10.385   2.591   0.793
51602SOL     OW54829  11.065   2.469   0.231
51602SOL    HW154830  11.053   2.456   0.132
51602SOL    HW254831  11.035   2.388   0.280
51603SOL     OW54832  10.078   3.006   1.023
51603SOL    HW154833  10.000   3.023   1.083
51603SOL    HW254834  10.112   3.093   0.987
51604SOL     OW54835  10.160   2.660   1.823
51604SOL    HW154836  10.156   2.736   1.888
51604SOL    HW254837  10.182   2.696   1.732
51605SOL     OW54838   9.995   2.874   0.665
51605SOL    HW154839  10.064   2.858   0.735
51605SOL    HW254840   9.922   2.931   0.703
51606SOL     OW54841   9.996   3.023   1.803
51606SOL    HW154842  10.056   3.102   1.817
51606SOL    HW254843   9.910   3.054   1.762
51607SOL     OW54844   9.645   3.297   1.061
51607SOL    HW154845   9.567   3.266   1.008
51607SOL    HW254846   9.703   3.355   1.004
51608SOL     OW54847  10.770   3.367   1.339
51608SOL    HW154848  10.794   3.461   1.365
51608SOL    HW254849  10.754   3.313   1.421
51609SOL     OW54850   9.748   2.254   1.499
51609SOL    HW154851   9.830   2.198   1.508
51609SOL    HW254852   9.667   2.196   1.503
51610SOL     OW54853  10.913   2.309   0.737
51610SOL    HW154854  10.839   2.355   0.687
51610SOL    HW254855  10.964   2.377   0.790
51611SOL     OW54856   9.541   3.575   0.483
51611SOL    HW154857   9.575   3.652   0.537
51611SOL    HW254858   9.585   3.575   0.393
51612SOL     OW54859  10.437   3.203   1.690
51612SOL    HW154860  10.484   3.203   1.778
51612SOL    HW254861  10.389   3.116   1.679
51613SOL     OW54862   9.540   3.296   0.538
51613SOL    HW154863   9.514   3.392   0.538
51613SOL    HW254864   9.469   3.242   0.583
51614SOL     OW54865   9.550   2.953   0.886
51614SOL    HW154866   9.564   2.869   0.938
51614SOL    HW254867   9.495   3.017   0.941
51615SOL     OW54868   9.930   3.648   1.439
51615SOL    HW154869   9.838   3.631   1.474
51615SOL    HW254870   9.958   3.740   1.465
51616SOL     OW54871   9.916   2.826   0.123
51616SOL    HW154872   9.923   2.910   0.069
51616SOL    HW254873   9.962   2.839   0.211
51617SOL     OW54874  10.904   1.976   1.480
51617SOL    HW154875  10.886   2.043   1.408
51617SOL    HW254876  10.901   2.022   1.569
51618SOL     OW54877   9.432   2.505   0.563
51618SOL    HW154878   9.387   2.417   0.580
51618SOL    HW254879   9.431   2.559   0.647
51619SOL     OW54880  11.152   3.629   0.359
51619SOL    HW154881  11.206   3.600   0.439
51619SOL    HW254882  11.182   3.719   0.330
51620SOL     OW54883   9.337   3.458   0.117
51620SOL    HW154884   9.318   3.362   0.138
51620SOL    HW254885   9.304   3.516   0.192
51621SOL     OW54886  10.999   2.784   0.612
51621SOL    HW154887  11.094   2.755   0.620
51621SOL    HW254888  10.991   2.849   0.537
51622SOL     OW54889  10.951   2.970   0.432
51622SOL    HW154890  11.037   2.972   0.380
51622SOL    HW254891  10.965   3.017   0.520
51623SOL     OW54892   9.423   2.599   1.597
51623SOL    HW154893   9.511   2.586   1.642
51623SOL    HW254894   9.410   2.696   1.575
51624SOL     OW54895   9.923   3.227   0.726
51624SOL    HW154896   9.874   3.140   0.735
51624SOL    HW254897   9.900   3.270   0.639
51625SOL     OW54898  10.603   3.090   1.423
51625SOL    HW154899  10.640   3.017   1.365
51625SOL    HW254900  10.655   3.095   1.508
51626SOL     OW54901  10.119   1.866   0.502
51626SOL    HW154902  10.159   1.957   0.493
51626SOL    HW254903  10.019   1.874   0.508
51627SOL     OW54904   9.507   2.838   1.264
51627SOL    HW154905   9.596   2.793   1.250
51627SOL    HW254906   9.434   2.773   1.245
51628SOL     OW54907  10.835   2.861   0.190
51628SOL    HW154908  10.772   2.785   0.203
51628SOL    HW254909  10.883   2.879   0.276
51629SOL     OW54910  10.497   3.654   1.616
51629SOL    HW154911  10.521   3.714   1.540
51629SOL    HW254912  10.504   3.559   1.586
51630SOL     OW54913   9.627   2.113   1.801
51630SOL    HW154914   9.698   2.184   1.807
51630SOL    HW254915   9.539   2.152   1.829
51631SOL     OW54916  10.776   3.279   0.953
51631SOL    HW154917  10.717   3.285   1.033
51631SOL    HW254918  10.761   3.191   0.907
51632SOL     OW54919  10.977   3.576   0.572
51632SOL    HW154920  10.936   3.553   0.484
51632SOL    HW254921  10.959   3.502   0.637
51633SOL     OW54922   9.908   2.591   0.270
51633SOL    HW154923   9.932   2.660   0.202
51633SOL    HW254924   9.830   2.624   0.324
51634SOL     OW54925  10.591   2.207   0.944
51634SOL    HW154926  10.505   2.157   0.931
51634SOL    HW254927  10.653   2.153   1.000
51635SOL     OW54928  10.886   3.524   0.307
51635SOL    HW154929  10.975   3.570   0.310
51635SOL    HW254930  10.865   3.500   0.212
51636SOL     OW54931  10.117   2.467   1.465
51636SOL    HW154932  10.070   2.464   1.554
51636SOL    HW254933  10.066   2.412   1.399
51637SOL     OW54934  10.704   2.331   1.674
51637SOL    HW154935  10.684   2.374   1.762
51637SOL    HW254936  10.782   2.269   1.683
51638SOL     OW54937  10.283   2.752   1.572
51638SOL    HW154938  10.329   2.668   1.543
51638SOL    HW254939  10.227   2.786   1.497
51639SOL     OW54940  10.301   2.272   1.242
51639SOL    HW154941  10.224   2.306   1.296
51639SOL    HW254942  10.267   2.221   1.163
51640SOL     OW54943  10.351   2.563   0.429
51640SOL    HW154944  10.377   2.559   0.525
51640SOL    HW254945  10.266   2.512   0.415
51641SOL     OW54946   9.386   2.673   0.789
51641SOL    HW154947   9.485   2.661   0.798
51641SOL    HW254948   9.362   2.768   0.810
51642SOL     OW54949   9.440   3.683   1.571
51642SOL    HW154950   9.430   3.668   1.670
51642SOL    HW254951   9.354   3.719   1.535
51643SOL     OW54952  10.175   2.210   0.195
51643SOL    HW154953  10.234   2.273   0.146
51643SOL    HW254954  10.194   2.116   0.166
51644SOL     OW54955  11.029   2.447   1.831
51644SOL    HW154956  11.003   2.536   1.795
51644SOL    HW254957  11.027   2.379   1.758
51645SOL     OW54958  10.672   3.006   0.545
51645SOL    HW154959  10.755   2.977   0.497
51645SOL    HW254960  10.623   3.073   0.489
51646SOL     OW54961   9.860   2.058   0.885
51646SOL    HW154962   9.855   2.053   0.985
51646SOL    HW254963   9.862   2.154   0.856
51647SOL     OW54964  10.318   3.318   0.477
51647SOL    HW154965  10.272   3.390   0.425
51647SOL    HW254966  10.314   3.338   0.575
51648SOL     OW54967   9.661   3.663   0.853
51648SOL    HW154968   9.711   3.577   0.859
51648SOL    HW254969   9.726   3.740   0.850
51649SOL     OW54970  11.105   2.928   0.873
51649SOL    HW154971  11.043   2.913   0.797
51649SOL    HW254972  11.053   2.939   0.958
51650SOL     OW54973  10.537   3.412   1.506
51650SOL    HW154974  10.543   3.335   1.570
51650SOL    HW254975  10.485   3.386   1.426
51651SOL     OW54976   9.631   2.805   0.242
51651SOL    HW154977   9.713   2.844   0.200
51651SOL    HW254978   9.604   2.723   0.193
51652SOL     OW54979  10.768   2.597   0.728
51652SOL    HW154980  10.763   2.532   0.803
51652SOL    HW254981  10.848   2.656   0.741
51653SOL     OW54982   9.771   3.128   1.727
51653SOL    HW154983   9.721   3.129   1.641
51653SOL    HW254984   9.708   3.110   1.803
51654SOL     OW54985  10.421   3.638   0.237
51654SOL    HW154986  10.361   3.576   0.287
51654SOL    HW254987  10.452   3.594   0.152
51655SOL     OW54988   9.512   2.147   1.498
51655SOL    HW154989   9.432   2.207   1.485
51655SOL    HW254990   9.502   2.098   1.584
51656SOL     OW54991  10.942   3.239   0.081
51656SOL    HW154992  10.910   3.333   0.071
51656SOL    HW254993  10.866   3.176   0.069
51657SOL     OW54994   9.774   3.605   0.323
51657SOL    HW154995   9.807   3.644   0.409
51657SOL    HW254996   9.850   3.598   0.258
51658SOL     OW54997  10.710   1.969   0.426
51658SOL    HW154998  10.686   1.932   0.336
51658SOL    HW254999  10.809   1.985   0.430
51659SOL     OW55000   9.559   3.647   1.241
51659SOL    HW155001   9.616   3.582   1.291
51659SOL    HW255002   9.543   3.614   1.148
51660SOL     OW55003  10.250   3.560   0.904
51660SOL    HW155004  10.330   3.503   0.925
51660SOL    HW255005  10.201   3.520   0.827
51661SOL     OW55006   9.692   2.562   0.480
51661SOL    HW155007   9.737   2.472   0.477
51661SOL    HW255008   9.598   2.551   0.513
51662SOL     OW55009  10.857   2.084   1.729
51662SOL    HW155010  10.852   2.121   1.821
51662SOL    HW255011  10.785   2.015   1.717
51663SOL     OW55012   9.924   1.984   0.117
51663SOL    HW155013  10.022   1.962   0.124
51663SOL    HW255014   9.893   1.967   0.024
51664SOL     OW55015  10.091   2.126   1.749
51664SOL    HW155016  10.158   2.065   1.792
51664SOL    HW255017  10.018   2.145   1.814
51665SOL     OW55018  10.198   3.376   1.195
51665SOL    HW155019  10.175   3.351   1.101
51665SOL    HW255020  10.259   3.307   1.234
51666SOL     OW55021  10.661   2.452   1.433
51666SOL    HW155022  10.689   2.409   1.518
51666SOL    HW255023  10.686   2.548   1.434
51667SOL     OW55024  10.113   3.264   0.924
51667SOL    HW155025  10.203   3.278   0.882
51667SOL    HW255026  10.042   3.266   0.853
51668SOL     OW55027  10.232   2.365   0.899
51668SOL    HW155028  10.207   2.356   0.803
51668SOL    HW255029  10.280   2.283   0.930
51669SOL     OW55030   9.849   1.926   0.512
51669SOL    HW155031   9.768   1.927   0.570
51669SOL    HW255032   9.852   2.009   0.457
51670SOL     OW55033  10.744   3.050   0.041
51670SOL    HW155034  10.776   2.974   0.098
51670SOL    HW255035  10.652   3.077   0.071
51671SOL     OW55036   9.607   1.897   0.171
51671SOL    HW155037   9.656   1.981   0.150
51671SOL    HW255038   9.669   1.832   0.216
51672SOL     OW55039  10.245   2.098   0.480
51672SOL    HW155040  10.197   2.139   0.402
51672SOL    HW255041  10.344   2.096   0.461
51673SOL     OW55042  10.386   2.545   1.464
51673SOL    HW155043  10.306   2.484   1.467
51673SOL    HW255044  10.467   2.492   1.440
51674SOL     OW55045  10.537   3.432   0.793
51674SOL    HW155046  10.558   3.506   0.728
51674SOL    HW255047  10.605   3.432   0.866
51675SOL     OW55048   9.769   3.014   0.741
51675SOL    HW155049   9.698   2.987   0.806
51675SOL    HW255050   9.743   2.986   0.648
51676SOL     OW55051  10.581   3.659   0.591
51676SOL    HW155052  10.625   3.723   0.527
51676SOL    HW255053  10.531   3.711   0.661
51677SOL     OW55054  10.342   2.411   0.016
51677SOL    HW155055  10.301   2.493  -0.023
51677SOL    HW255056  10.406   2.437   0.089
51678SOL     OW55057   9.388   2.418   1.386
51678SOL    HW155058   9.480   2.417   1.345
51678SOL    HW255059   9.382   2.492   1.453
51679SOL     OW55060   9.871   2.084   1.147
51679SOL    HW155061   9.909   2.000   1.184
51679SOL    HW255062   9.783   2.103   1.191
51680SOL     OW55063  10.176   2.316   0.642
51680SOL    HW155064  10.144   2.388   0.580
51680SOL    HW255065  10.200   2.235   0.589
51681SOL     OW55066  10.327   1.901   0.753
51681SOL    HW155067  10.255   1.906   0.684
51681SOL    HW255068  10.303   1.832   0.822
51682SOL     OW55069  10.739   3.035   0.867
51682SOL    HW155070  10.684   2.951   0.860
51682SOL    HW255071  10.765   3.064   0.775
51683SOL     OW55072  10.776   2.452   0.992
51683SOL    HW155073  10.746   2.357   0.999
51683SOL    HW255074  10.849   2.468   1.058
51684SOL     OW55075  11.167   2.695   0.377
51684SOL    HW155076  11.209   2.631   0.441
51684SOL    HW255077  11.129   2.644   0.299
51685SOL     OW55078   9.798   3.247   0.174
51685SOL    HW155079   9.711   3.232   0.221
51685SOL    HW255080   9.781   3.273   0.079
51686SOL     OW55081  10.974   3.142   0.657
51686SOL    HW155082  11.073   3.150   0.671
51686SOL    HW255083  10.929   3.226   0.688
51687SOL     OW55084  10.700   2.437   0.078
51687SOL    HW155085  10.646   2.416   0.159
51687SOL    HW255086  10.791   2.396   0.087
51688SOL     OW55087   9.837   2.118   0.328
51688SOL    HW155088   9.864   2.059   0.253
51688SOL    HW255089   9.837   2.213   0.297
51689SOL     OW55090  11.064   3.085   1.588
51689SOL    HW155091  11.155   3.046   1.575
51689SOL    HW255092  11.072   3.181   1.612
51690SOL     OW55093  10.374   3.209   1.340
51690SOL    HW155094  10.294   3.186   1.395
51690SOL    HW255095  10.457   3.183   1.389
51691SOL     OW55096  10.902   3.491   1.625
51691SOL    HW155097  10.929   3.525   1.535
51691SOL    HW255098  10.981   3.453   1.671
51692SOL     OW55099  10.421   3.057   1.100
51692SOL    HW155100  10.381   3.101   1.181
51692SOL    HW255101  10.380   3.094   1.017
51693SOL     OW55102  10.948   2.961   1.079
51693SOL    HW155103  10.953   3.042   1.138
51693SOL    HW255104  10.862   2.963   1.028
51694SOL     OW55105  10.225   1.951   1.402
51694SOL    HW155106  10.250   1.931   1.307
51694SOL    HW255107  10.297   2.007   1.444
51695SOL     OW55108  10.290   2.978   1.719
51695SOL    HW155109  10.191   2.984   1.729
51695SOL    HW255110  10.313   2.898   1.663
51696SOL     OW55111  10.015   2.912   0.368
51696SOL    HW155112  10.001   2.919   0.467
51696SOL    HW255113  10.099   2.861   0.350
51697SOL     OW55114   9.720   2.675   1.251
51697SOL    HW155115   9.806   2.687   1.301
51697SOL    HW255116   9.678   2.588   1.278
51698SOL     OW55117  10.584   2.248   1.262
51698SOL    HW155118  10.605   2.322   1.326
51698SOL    HW255119  10.495   2.265   1.219
51699SOL     OW55120   9.374   3.426   1.331
51699SOL    HW155121   9.328   3.508   1.297
51699SOL    HW255122   9.472   3.445   1.340
51700SOL     OW55123   9.677   2.962   0.501
51700SOL    HW155124   9.670   3.045   0.445
51700SOL    HW255125   9.681   2.882   0.441
51701SOL     OW55126   9.876   2.399   0.865
51701SOL    HW155127   9.888   2.465   0.791
51701SOL    HW255128   9.922   2.433   0.948
51702SOL     OW55129  10.562   3.210   0.388
51702SOL    HW155130  10.612   3.287   0.428
51702SOL    HW255131  10.467   3.212   0.420
51703SOL     OW55132  10.582   3.307   1.142
51703SOL    HW155133  10.629   3.320   1.229
51703SOL    HW255134  10.516   3.233   1.151
51704SOL     OW55135  10.892   2.501   0.472
51704SOL    HW155136  10.861   2.562   0.545
51704SOL    HW255137  10.942   2.553   0.403
51705SOL     OW55138   9.664   3.372   1.329
51705SOL    HW155139   9.643   3.328   1.242
51705SOL    HW255140   9.761   3.398   1.332
51706SOL     OW55141   9.712   2.613   1.598
51706SOL    HW155142   9.780   2.668   1.551
51706SOL    HW255143   9.752   2.525   1.625
51707SOL     OW55144  10.897   2.641   1.670
51707SOL    HW155145  10.805   2.679   1.665
51707SOL    HW255146  10.957   2.688   1.605
51708SOL     OW55147  10.323   1.967   1.770
51708SOL    HW155148  10.329   2.052   1.718
51708SOL    HW255149  10.355   1.891   1.713
51709SOL     OW55150   9.814   1.912   1.740
51709SOL    HW155151   9.772   1.855   1.670
51709SOL    HW255152   9.748   1.981   1.772
51710SOL     OW55153   9.883   2.732   1.029
51710SOL    HW155154   9.927   2.821   1.020
51710SOL    HW255155   9.820   2.732   1.106
51711SOL     OW55156  10.670   2.724   1.045
51711SOL    HW155157  10.595   2.724   0.979
51711SOL    HW255158  10.707   2.632   1.054
51712SOL     OW55159  10.519   2.387   0.275
51712SOL    HW155160  10.532   2.303   0.329
51712SOL    HW255161  10.490   2.461   0.335
51713SOL     OW55162   9.617   2.075   1.231
51713SOL    HW155163   9.594   2.112   1.321
51713SOL    HW255164   9.587   1.980   1.225
51714SOL     OW55165   9.347   3.172   1.282
51714SOL    HW155166   9.400   3.123   1.350
51714SOL    HW255167   9.369   3.270   1.287
51715SOL     OW55168  10.042   2.496   1.064
51715SOL    HW155169  10.101   2.470   0.988
51715SOL    HW255170  10.014   2.592   1.053
51716SOL     OW55171  11.038   2.797   1.854
51716SOL    HW155172  10.992   2.790   1.765
51716SOL    HW255173  10.976   2.841   1.920
51717SOL     OW55174   9.617   1.925   0.618
51717SOL    HW155175   9.606   2.019   0.651
51717SOL    HW255176   9.612   1.862   0.695
51718SOL     OW55177  10.932   2.229   0.374
51718SOL    HW155178  10.934   2.153   0.438
51718SOL    HW255179  10.884   2.306   0.414
51719SOL     OW55180  10.333   2.628   0.966
51719SOL    HW155181  10.348   2.649   1.062
51719SOL    HW255182  10.303   2.533   0.957
51720SOL     OW55183  10.290   3.435   1.700
51720SOL    HW155184  10.270   3.479   1.612
51720SOL    HW255185  10.329   3.344   1.684
51721SOL     OW55186  11.169   3.380   1.605
51721SOL    HW155187  11.183   3.407   1.510
51721SOL    HW255188  11.252   3.402   1.658
51722SOL     OW55189   9.660   2.760   1.804
51722SOL    HW155190   9.736   2.804   1.852
51722SOL    HW255191   9.695   2.713   1.722
51723SOL     OW55192  10.850   2.136   0.125
51723SOL    HW155193  10.789   2.061   0.148
51723SOL    HW255194  10.872   2.188   0.208
51724SOL     OW55195  10.613   2.700   0.042
51724SOL    HW155196  10.647   2.607   0.057
51724SOL    HW255197  10.631   2.727  -0.053
51725SOL     OW55198  10.378   3.195   0.849
51725SOL    HW155199  10.385   3.111   0.794
51725SOL    HW255200  10.440   3.264   0.813
51726SOL     OW55201   9.629   2.672   0.949
51726SOL    HW155202   9.722   2.708   0.954
51726SOL    HW255203   9.623   2.587   1.001
51727SOL     OW55204   9.649   2.371   1.006
51727SOL    HW155205   9.597   2.288   0.989
51727SOL    HW255206   9.726   2.376   0.942
51728SOL     OW55207  10.448   2.242   1.678
51728SOL    HW155208  10.403   2.305   1.742
51728SOL    HW255209  10.541   2.273   1.661
51729SOL     OW55210  10.470   2.069   1.477
51729SOL    HW155211  10.470   2.133   1.554
51729SOL    HW255212  10.498   2.117   1.394
51730SOL     OW55213   9.318   3.188   0.200
51730SOL    HW155214   9.225   3.209   0.169
51730SOL    HW255215   9.328   3.089   0.213
51731SOL     OW55216   9.398   3.663   0.927
51731SOL    HW155217   9.356   3.577   0.900
51731SOL    HW255218   9.492   3.666   0.893
51732SOL     OW55219   9.814   3.430   0.910
51732SOL    HW155220   9.880   3.504   0.919
51732SOL    HW255221   9.858   3.351   0.868
51733SOL     OW55222  10.312   2.658   1.238
51733SOL    HW155223  10.353   2.626   1.324
51733SOL    HW255224  10.216   2.631   1.235
51734SOL     OW55225   9.350   2.406   1.114
51734SOL    HW155226   9.435   2.373   1.073
51734SOL    HW255227   9.363   2.421   1.212
51735SOL     OW55228   9.499   2.382   1.722
51735SOL    HW155229   9.558   2.342   1.652
51735SOL    HW255230   9.441   2.453   1.681
51736SOL     OW55231  10.679   2.812   1.660
51736SOL    HW155232  10.718   2.901   1.680
51736SOL    HW255233  10.689   2.792   1.563
51737SOL     OW55234  10.125   2.434   0.325
51737SOL    HW155235  10.132   2.345   0.279
51737SOL    HW255236  10.031   2.468   0.317
51738SOL     OW55237  10.967   2.466   1.206
51738SOL    HW155238  10.929   2.397   1.268
51738SOL    HW255239  11.049   2.430   1.162
51739SOL     OW55240   9.562   3.426   1.744
51739SOL    HW155241   9.532   3.483   1.820
51739SOL    HW255242   9.555   3.329   1.770
51740SOL     OW55243   9.981   2.326   1.269
51740SOL    HW155244   9.947   2.237   1.239
51740SOL    HW255245  10.007   2.380   1.189
51741SOL     OW55246  10.240   3.540   1.465
51741SOL    HW155247  10.216   3.522   1.370
51741SOL    HW255248  10.270   3.634   1.475
51742SOL     OW55249   9.783   2.362   0.191
51742SOL    HW155250   9.844   2.442   0.195
51742SOL    HW255251   9.688   2.393   0.198
51743SOL     OW55252   9.469   2.999   1.466
51743SOL    HW155253   9.491   2.938   1.542
51743SOL    HW255254   9.479   2.950   1.380
51744SOL     OW55255  10.657   2.921   1.234
51744SOL    HW155256  10.681   2.858   1.160
51744SOL    HW255257  10.567   2.961   1.216
51745SOL     OW55258  10.612   2.717   0.309
51745SOL    HW155259  10.526   2.686   0.351
51745SOL    HW255260  10.608   2.703   0.210
51746SOL     OW55261  11.069   3.609   1.154
51746SOL    HW155262  11.130   3.639   1.081
51746SOL    HW255263  11.031   3.520   1.132
51747SOL     OW55264  10.562   3.593   1.128
51747SOL    HW155265  10.646   3.598   1.074
51747SOL    HW255266  10.539   3.497   1.146
51748SOL     OW55267   9.393   3.120   1.022
51748SOL    HW155268   9.388   3.119   1.122
51748SOL    HW255269   9.310   3.079   0.984
51749SOL     OW55270   9.998   3.524   1.716
51749SOL    HW155271   9.942   3.605   1.725
51749SOL    HW255272  10.050   3.528   1.630
51750SOL     OW55273  10.213   1.948   0.133
51750SOL    HW155274  10.264   1.949   0.047
51750SOL    HW255275  10.269   1.906   0.204
51751SOL     OW55276  11.036   1.997   0.523
51751SOL    HW155277  11.109   1.980   0.456
51751SOL    HW255278  11.005   1.910   0.561
51752SOL     OW55279  10.698   3.435   0.477
51752SOL    HW155280  10.765   3.447   0.403
51752SOL    HW255281  10.658   3.524   0.500
51753SOL     OW55282   9.440   3.656   1.851
51753SOL    HW155283   9.399   3.582   1.904
51753SOL    HW255284   9.504   3.707   1.909
51754SOL     OW55285  10.590   2.789   0.672
51754SOL    HW155286  10.650   2.708   0.674
51754SOL    HW255287  10.630   2.858   0.612
51755SOL     OW55288  10.140   3.135   1.422
51755SOL    HW155289  10.135   3.168   1.517
51755SOL    HW255290  10.054   3.154   1.376
51756SOL     OW55291   9.982   3.478   0.154
51756SOL    HW155292   9.991   3.488   0.055
51756SOL    HW255293   9.942   3.389   0.175
51757SOL     OW55294  10.960   3.582   1.394
51757SOL    HW155295  11.013   3.592   1.310
51757SOL    HW255296  10.933   3.672   1.428
51758SOL     OW55297  11.151   2.037   0.963
51758SOL    HW155298  11.190   1.952   0.927
51758SOL    HW255299  11.053   2.039   0.944
51759SOL     OW55300   9.573   2.188   0.720
51759SOL    HW155301   9.494   2.239   0.686
51759SOL    HW255302   9.564   2.173   0.818
51760SOL     OW55303  10.504   3.474   0.031
51760SOL    HW155304  10.510   3.381   0.068
51760SOL    HW255305  10.445   3.474  -0.049
51761SOL     OW55306  10.132   2.864   1.372
51761SOL    HW155307  10.172   2.863   1.280
51761SOL    HW255308  10.142   2.956   1.412
51762SOL     OW55309  10.226   2.772   0.291
51762SOL    HW155310  10.289   2.810   0.223
51762SOL    HW255311  10.266   2.689   0.330
51763SOL     OW55312  10.814   3.469   0.044
51763SOL    HW155313  10.722   3.506   0.051
51763SOL    HW255314  10.852   3.489  -0.046
51764SOL     OW55315   9.682   3.150   1.490
51764SOL    HW155316   9.669   3.243   1.456
51764SOL    HW255317   9.598   3.098   1.477
51765SOL     OW55318  10.924   3.154   1.289
51765SOL    HW155319  10.984   3.157   1.369
51765SOL    HW255320  10.849   3.218   1.302
51766SOL     OW55321  10.349   2.960   0.696
51766SOL    HW155322  10.279   2.913   0.750
51766SOL    HW255323  10.408   2.892   0.653
51767SOL     OW55324  10.324   2.098   0.971
51767SOL    HW155325  10.316   2.062   0.878
51767SOL    HW255326  10.322   2.022   1.036
51768SOL     OW55327   9.900   3.349   0.491
51768SOL    HW155328   9.942   3.291   0.421
51768SOL    HW255329   9.856   3.428   0.447
51769SOL     OW55330  11.019   2.247   1.381
51769SOL    HW155331  11.092   2.316   1.385
51769SOL    HW255332  11.047   2.172   1.322
51770SOL     OW55333   9.565   3.210   0.290
51770SOL    HW155334   9.469   3.211   0.263
51770SOL    HW255335   9.577   3.263   0.374
51771SOL     OW55336   9.415   2.875   1.726
51771SOL    HW155337   9.338   2.842   1.780
51771SOL    HW255338   9.500   2.845   1.768
51772SOL     OW55339   9.982   2.065   1.489
51772SOL    HW155340  10.072   2.049   1.449
51772SOL    HW255341   9.990   2.070   1.588
51773SOL     OW55342  10.750   2.718   1.398
51773SOL    HW155343  10.693   2.770   1.335
51773SOL    HW255344  10.846   2.730   1.374
51774SOL     OW55345   9.382   2.028   0.318
51774SOL    HW155346   9.365   2.111   0.264
51774SOL    HW255347   9.472   1.991   0.296
51775SOL     OW55348  10.493   3.197   0.119
51775SOL    HW155349  10.394   3.186   0.121
51775SOL    HW255350  10.527   3.212   0.212
51776SOL     OW55351   9.923   2.704   1.431
51776SOL    HW155352   9.979   2.785   1.414
51776SOL    HW255353   9.982   2.624   1.434
51777SOL     OW55354  10.803   3.629   0.959
51777SOL    HW155355  10.836   3.693   0.890
51777SOL    HW255356  10.869   3.623   1.034
51778SOL     OW55357  10.026   2.427   1.708
51778SOL    HW155358  10.045   2.492   1.782
51778SOL    HW255359  10.086   2.347   1.717
51779SOL     OW55360  10.760   3.082   1.633
51779SOL    HW155361  10.751   3.072   1.732
51779SOL    HW255362  10.856   3.075   1.607
51780SOL     OW55363   9.700   3.603   1.560
51780SOL    HW155364   9.609   3.644   1.558
51780SOL    HW255365   9.693   3.509   1.592
51781SOL     OW55366  10.984   2.745   1.254
51781SOL    HW155367  10.957   2.656   1.217
51781SOL    HW255368  10.985   2.813   1.181
51782SOL     OW55369  10.535   2.187   0.449
51782SOL    HW155370  10.600   2.113   0.438
51782SOL    HW255371  10.555   2.237   0.533
51783SOL     OW55372   9.904   2.607   0.652
51783SOL    HW155373   9.954   2.692   0.633
51783SOL    HW255374   9.816   2.609   0.604
51784SOL     OW55375  11.087   2.204   1.642
51784SOL    HW155376  11.070   2.235   1.548
51784SOL    HW255377  11.003   2.167   1.680
51785SOL     OW55378  11.040   2.796   1.517
51785SOL    HW155379  11.078   2.887   1.532
51785SOL    HW255380  11.032   2.779   1.418
51786SOL     OW55381  10.169   3.236   0.016
51786SOL    HW155382  10.123   3.251   0.104
51786SOL    HW255383  10.213   3.321  -0.014
51787SOL     OW55384   9.971   3.652   0.953
51787SOL    HW155385   9.925   3.740   0.940
51787SOL    HW255386  10.070   3.664   0.946
51788SOL     OW55387  10.169   2.818   0.861
51788SOL    HW155388  10.223   2.749   0.909
51788SOL    HW255389  10.137   2.887   0.927
51789SOL     OW55390  10.393   2.846   0.087
51789SOL    HW155391  10.370   2.899   0.005
51789SOL    HW255392  10.474   2.790   0.068
51790SOL     OW55393  11.171   3.431   0.851
51790SOL    HW155394  11.100   3.419   0.781
51790SOL    HW255395  11.172   3.352   0.911
51791SOL     OW55396   9.531   3.176   1.844
51791SOL    HW155397   9.466   3.103   1.823
51791SOL    HW255398   9.535   3.190   1.942
51792SOL     OW55399   9.389   3.102   0.653
51792SOL    HW155400   9.388   3.055   0.741
51792SOL    HW255401   9.471   3.074   0.602
51793SOL     OW55402   9.982   3.253   1.624
51793SOL    HW155403   9.904   3.203   1.662
51793SOL    HW255404   9.979   3.348   1.655
51794SOL     OW55405  11.134   2.054   1.227
51794SOL    HW155406  11.130   1.964   1.271
51794SOL    HW255407  11.137   2.043   1.128
51795SOL     OW55408   9.738   2.286   0.520
51795SOL    HW155409   9.768   2.214   0.458
51795SOL    HW255410   9.699   2.246   0.603
51796SOL     OW55411  11.015   3.349   1.104
51796SOL    HW155412  10.922   3.324   1.077
51796SOL    HW255413  11.041   3.299   1.186
51797SOL     OW55414   9.627   2.409   1.280
51797SOL    HW155415   9.665   2.350   1.352
51797SOL    HW255416   9.667   2.383   1.192
51798SOL     OW55417  10.122   3.448   0.687
51798SOL    HW155418  10.154   3.458   0.593
51798SOL    HW255419  10.043   3.386   0.689
51799SOL     OW55420  10.734   2.076   1.112
51799SOL    HW155421  10.786   2.011   1.167
51799SOL    HW255422  10.685   2.139   1.173
51800SOL     OW55423  10.311   1.896   1.154
51800SOL    HW155424  10.248   1.824   1.123
51800SOL    HW255425  10.404   1.860   1.154
51801SOL     OW55426  10.080   3.192   0.301
51801SOL    HW155427  10.034   3.105   0.318
51801SOL    HW255428  10.171   3.189   0.342
51802SOL     OW55429   9.928   3.429   1.284
51802SOL    HW155430   9.923   3.511   1.341
51802SOL    HW255431  10.017   3.426   1.239
51803SOL     OW55432  10.662   1.914   0.168
51803SOL    HW155433  10.697   1.873   0.084
51803SOL    HW255434  10.572   1.876   0.188
51804SOL     OW55435  10.610   2.315   0.691
51804SOL    HW155436  10.551   2.395   0.695
51804SOL    HW255437  10.625   2.280   0.784
51805SOL     OW55438  10.903   2.083   0.882
51805SOL    HW155439  10.819   2.082   0.936
51805SOL    HW255440  10.905   2.166   0.826
51806SOL     OW55441   9.349   2.939   0.300
51806SOL    HW155442   9.448   2.928   0.291
51806SOL    HW255443   9.309   2.853   0.332
51807SOL     OW55444  10.185   3.508   0.337
51807SOL    HW155445  10.108   3.473   0.283
51807SOL    HW255446  10.153   3.579   0.399
51808SOL     OW55447   9.540   2.490   1.975
51808SOL    HW155448   9.447   2.488   2.012
51808SOL    HW255449   9.541   2.451   1.883
51809SOL     OW55450   9.535   2.137   2.858
51809SOL    HW155451   9.570   2.120   2.950
51809SOL    HW255452   9.447   2.092   2.846
51810SOL     OW55453   9.329   2.230   2.509
51810SOL    HW155454   9.247   2.273   2.548
51810SOL    HW255455   9.301   2.157   2.446
51811SOL     OW55456   9.879   3.137   3.027
51811SOL    HW155457   9.786   3.130   2.990
51811SOL    HW255458   9.890   3.226   3.071
51812SOL     OW55459  10.865   3.373   2.565
51812SOL    HW155460  10.808   3.357   2.646
51812SOL    HW255461  10.806   3.383   2.485
51813SOL     OW55462  10.445   2.565   2.579
51813SOL    HW155463  10.502   2.643   2.554
51813SOL    HW255464  10.385   2.591   2.655
51814SOL     OW55465  11.065   2.469   2.093
51814SOL    HW155466  11.053   2.456   1.994
51814SOL    HW255467  11.035   2.388   2.142
51815SOL     OW55468  10.078   3.006   2.885
51815SOL    HW155469  10.000   3.023   2.945
51815SOL    HW255470  10.112   3.093   2.849
51816SOL     OW55471  10.160   2.660   3.685
51816SOL    HW155472  10.156   2.736   3.750
51816SOL    HW255473  10.182   2.696   3.594
51817SOL     OW55474   9.995   2.874   2.527
51817SOL    HW155475  10.064   2.858   2.597
51817SOL    HW255476   9.922   2.931   2.565
51818SOL     OW55477   9.996   3.023   3.665
51818SOL    HW155478  10.056   3.102   3.679
51818SOL    HW255479   9.910   3.054   3.624
51819SOL     OW55480   9.645   3.297   2.923
51819SOL    HW155481   9.567   3.266   2.870
51819SOL    HW255482   9.703   3.355   2.866
51820SOL     OW55483  10.770   3.367   3.201
51820SOL    HW155484  10.794   3.461   3.227
51820SOL    HW255485  10.754   3.313   3.283
51821SOL     OW55486   9.748   2.254   3.361
51821SOL    HW155487   9.830   2.198   3.370
51821SOL    HW255488   9.667   2.196   3.365
51822SOL     OW55489  10.913   2.309   2.599
51822SOL    HW155490  10.839   2.355   2.549
51822SOL    HW255491  10.964   2.377   2.652
51823SOL     OW55492   9.541   3.575   2.345
51823SOL    HW155493   9.575   3.652   2.399
51823SOL    HW255494   9.585   3.575   2.255
51824SOL     OW55495  10.437   3.203   3.552
51824SOL    HW155496  10.484   3.203   3.640
51824SOL    HW255497  10.389   3.116   3.541
51825SOL     OW55498   9.540   3.296   2.400
51825SOL    HW155499   9.514   3.392   2.400
51825SOL    HW255500   9.469   3.242   2.445
51826SOL     OW55501   9.550   2.953   2.748
51826SOL    HW155502   9.564   2.869   2.800
51826SOL    HW255503   9.495   3.017   2.803
51827SOL     OW55504   9.930   3.648   3.301
51827SOL    HW155505   9.838   3.631   3.336
51827SOL    HW255506   9.958   3.740   3.327
51828SOL     OW55507   9.916   2.826   1.985
51828SOL    HW155508   9.923   2.910   1.931
51828SOL    HW255509   9.962   2.839   2.073
51829SOL     OW55510  10.904   1.976   3.342
51829SOL    HW155511  10.886   2.043   3.270
51829SOL    HW255512  10.901   2.022   3.431
51830SOL     OW55513   9.432   2.505   2.425
51830SOL    HW155514   9.387   2.417   2.442
51830SOL    HW255515   9.431   2.559   2.509
51831SOL     OW55516  11.152   3.629   2.221
51831SOL    HW155517  11.206   3.600   2.301
51831SOL    HW255518  11.182   3.719   2.192
51832SOL     OW55519   9.337   3.458   1.979
51832SOL    HW155520   9.318   3.362   2.000
51832SOL    HW255521   9.304   3.516   2.054
51833SOL     OW55522  10.999   2.784   2.474
51833SOL    HW155523  11.094   2.755   2.482
51833SOL    HW255524  10.991   2.849   2.399
51834SOL     OW55525  10.951   2.970   2.294
51834SOL    HW155526  11.037   2.972   2.242
51834SOL    HW255527  10.965   3.017   2.382
51835SOL     OW55528   9.423   2.599   3.459
51835SOL    HW155529   9.511   2.586   3.504
51835SOL    HW255530   9.410   2.696   3.437
51836SOL     OW55531   9.923   3.227   2.588
51836SOL    HW155532   9.874   3.140   2.597
51836SOL    HW255533   9.900   3.270   2.501
51837SOL     OW55534  10.603   3.090   3.285
51837SOL    HW155535  10.640   3.017   3.227
51837SOL    HW255536  10.655   3.095   3.370
51838SOL     OW55537  10.119   1.866   2.364
51838SOL    HW155538  10.159   1.957   2.355
51838SOL    HW255539  10.019   1.874   2.370
51839SOL     OW55540   9.507   2.838   3.126
51839SOL    HW155541   9.596   2.793   3.112
51839SOL    HW255542   9.434   2.773   3.107
51840SOL     OW55543  10.835   2.861   2.052
51840SOL    HW155544  10.772   2.785   2.065
51840SOL    HW255545  10.883   2.879   2.138
51841SOL     OW55546  10.497   3.654   3.478
51841SOL    HW155547  10.521   3.714   3.402
51841SOL    HW255548  10.504   3.559   3.448
51842SOL     OW55549   9.627   2.113   3.663
51842SOL    HW155550   9.698   2.184   3.669
51842SOL    HW255551   9.539   2.152   3.691
51843SOL     OW55552  10.776   3.279   2.815
51843SOL    HW155553  10.717   3.285   2.895
51843SOL    HW255554  10.761   3.191   2.769
51844SOL     OW55555  10.977   3.576   2.434
51844SOL    HW155556  10.936   3.553   2.346
51844SOL    HW255557  10.959   3.502   2.499
51845SOL     OW55558   9.908   2.591   2.132
51845SOL    HW155559   9.932   2.660   2.064
51845SOL    HW255560   9.830   2.624   2.186
51846SOL     OW55561  10.591   2.207   2.806
51846SOL    HW155562  10.505   2.157   2.793
51846SOL    HW255563  10.653   2.153   2.862
51847SOL     OW55564  10.886   3.524   2.169
51847SOL    HW155565  10.975   3.570   2.172
51847SOL    HW255566  10.865   3.500   2.074
51848SOL     OW55567  10.117   2.467   3.327
51848SOL    HW155568  10.070   2.464   3.416
51848SOL    HW255569  10.066   2.412   3.261
51849SOL     OW55570  10.704   2.331   3.536
51849SOL    HW155571  10.684   2.374   3.624
51849SOL    HW255572  10.782   2.269   3.545
51850SOL     OW55573  10.283   2.752   3.434
51850SOL    HW155574  10.329   2.668   3.405
51850SOL    HW255575  10.227   2.786   3.359
51851SOL     OW55576  10.301   2.272   3.104
51851SOL    HW155577  10.224   2.306   3.158
51851SOL    HW255578  10.267   2.221   3.025
51852SOL     OW55579  10.351   2.563   2.291
51852SOL    HW155580  10.377   2.559   2.387
51852SOL    HW255581  10.266   2.512   2.277
51853SOL     OW55582   9.386   2.673   2.651
51853SOL    HW155583   9.485   2.661   2.660
51853SOL    HW255584   9.362   2.768   2.672
51854SOL     OW55585   9.440   3.683   3.433
51854SOL    HW155586   9.430   3.668   3.532
51854SOL    HW255587   9.354   3.719   3.397
51855SOL     OW55588  10.175   2.210   2.057
51855SOL    HW155589  10.234   2.273   2.008
51855SOL    HW255590  10.194   2.116   2.028
51856SOL     OW55591  11.029   2.447   3.693
51856SOL    HW155592  11.003   2.536   3.657
51856SOL    HW255593  11.027   2.379   3.620
51857SOL     OW55594  10.672   3.006   2.407
51857SOL    HW155595  10.755   2.977   2.359
51857SOL    HW255596  10.623   3.073   2.351
51858SOL     OW55597   9.860   2.058   2.747
51858SOL    HW155598   9.855   2.053   2.847
51858SOL    HW255599   9.862   2.154   2.718
51859SOL     OW55600  10.318   3.318   2.339
51859SOL    HW155601  10.272   3.390   2.287
51859SOL    HW255602  10.314   3.338   2.437
51860SOL     OW55603   9.661   3.663   2.715
51860SOL    HW155604   9.711   3.577   2.721
51860SOL    HW255605   9.726   3.740   2.712
51861SOL     OW55606  11.105   2.928   2.735
51861SOL    HW155607  11.043   2.913   2.659
51861SOL    HW255608  11.053   2.939   2.820
51862SOL     OW55609  10.537   3.412   3.368
51862SOL    HW155610  10.543   3.335   3.432
51862SOL    HW255611  10.485   3.386   3.288
51863SOL     OW55612   9.631   2.805   2.104
51863SOL    HW155613   9.713   2.844   2.062
51863SOL    HW255614   9.604   2.723   2.055
51864SOL     OW55615  10.768   2.597   2.590
51864SOL    HW155616  10.763   2.532   2.665
51864SOL    HW255617  10.848   2.656   2.603
51865SOL     OW55618   9.771   3.128   3.589
51865SOL    HW155619   9.721   3.129   3.503
51865SOL    HW255620   9.708   3.110   3.665
51866SOL     OW55621  10.421   3.638   2.099
51866SOL    HW155622  10.361   3.576   2.149
51866SOL    HW255623  10.452   3.594   2.014
51867SOL     OW55624   9.512   2.147   3.360
51867SOL    HW155625   9.432   2.207   3.347
51867SOL    HW255626   9.502   2.098   3.446
51868SOL     OW55627  10.942   3.239   1.943
51868SOL    HW155628  10.910   3.333   1.933
51868SOL    HW255629  10.866   3.176   1.931
51869SOL     OW55630   9.774   3.605   2.185
51869SOL    HW155631   9.807   3.644   2.271
51869SOL    HW255632   9.850   3.598   2.120
51870SOL     OW55633  10.710   1.969   2.288
51870SOL    HW155634  10.686   1.932   2.198
51870SOL    HW255635  10.809   1.985   2.292
51871SOL     OW55636   9.559   3.647   3.103
51871SOL    HW155637   9.616   3.582   3.153
51871SOL    HW255638   9.543   3.614   3.010
51872SOL     OW55639  10.250   3.560   2.766
51872SOL    HW155640  10.330   3.503   2.787
51872SOL    HW255641  10.201   3.520   2.689
51873SOL     OW55642   9.692   2.562   2.342
51873SOL    HW155643   9.737   2.472   2.339
51873SOL    HW255644   9.598   2.551   2.375
51874SOL     OW55645  10.857   2.084   3.591
51874SOL    HW155646  10.852   2.121   3.683
51874SOL    HW255647  10.785   2.015   3.579
51875SOL     OW55648   9.924   1.984   1.979
51875SOL    HW155649  10.022   1.962   1.986
51875SOL    HW255650   9.893   1.967   1.886
51876SOL     OW55651  10.091   2.126   3.611
51876SOL    HW155652  10.158   2.065   3.654
51876SOL    HW255653  10.018   2.145   3.676
51877SOL     OW55654  10.198   3.376   3.057
51877SOL    HW155655  10.175   3.351   2.963
51877SOL    HW255656  10.259   3.307   3.096
51878SOL     OW55657  10.661   2.452   3.295
51878SOL    HW155658  10.689   2.409   3.380
51878SOL    HW255659  10.686   2.548   3.296
51879SOL     OW55660  10.113   3.264   2.786
51879SOL    HW155661  10.203   3.278   2.744
51879SOL    HW255662  10.042   3.266   2.715
51880SOL     OW55663  10.232   2.365   2.761
51880SOL    HW155664  10.207   2.356   2.665
51880SOL    HW255665  10.280   2.283   2.792
51881SOL     OW55666   9.849   1.926   2.374
51881SOL    HW155667   9.768   1.927   2.432
51881SOL    HW255668   9.852   2.009   2.319
51882SOL     OW55669  10.744   3.050   1.903
51882SOL    HW155670  10.776   2.974   1.960
51882SOL    HW255671  10.652   3.077   1.933
51883SOL     OW55672   9.607   1.897   2.033
51883SOL    HW155673   9.656   1.981   2.012
51883SOL    HW255674   9.669   1.832   2.078
51884SOL     OW55675  10.245   2.098   2.342
51884SOL    HW155676  10.197   2.139   2.264
51884SOL    HW255677  10.344   2.096   2.323
51885SOL     OW55678  10.386   2.545   3.326
51885SOL    HW155679  10.306   2.484   3.329
51885SOL    HW255680  10.467   2.492   3.302
51886SOL     OW55681  10.537   3.432   2.655
51886SOL    HW155682  10.558   3.506   2.590
51886SOL    HW255683  10.605   3.432   2.728
51887SOL     OW55684   9.769   3.014   2.603
51887SOL    HW155685   9.698   2.987   2.668
51887SOL    HW255686   9.743   2.986   2.510
51888SOL     OW55687  10.581   3.659   2.453
51888SOL    HW155688  10.625   3.723   2.389
51888SOL    HW255689  10.531   3.711   2.523
51889SOL     OW55690  10.342   2.411   1.878
51889SOL    HW155691  10.301   2.493   1.839
51889SOL    HW255692  10.406   2.437   1.951
51890SOL     OW55693   9.388   2.418   3.248
51890SOL    HW155694   9.480   2.417   3.207
51890SOL    HW255695   9.382   2.492   3.315
51891SOL     OW55696   9.871   2.084   3.009
51891SOL    HW155697   9.909   2.000   3.046
51891SOL    HW255698   9.783   2.103   3.053
51892SOL     OW55699  10.176   2.316   2.504
51892SOL    HW155700  10.144   2.388   2.442
51892SOL    HW255701  10.200   2.235   2.451
51893SOL     OW55702  10.327   1.901   2.615
51893SOL    HW155703  10.255   1.906   2.546
51893SOL    HW255704  10.303   1.832   2.684
51894SOL     OW55705  10.739   3.035   2.729
51894SOL    HW155706  10.684   2.951   2.722
51894SOL    HW255707  10.765   3.064   2.637
51895SOL     OW55708  10.776   2.452   2.854
51895SOL    HW155709  10.746   2.357   2.861
51895SOL    HW255710  10.849   2.468   2.920
51896SOL     OW55711  11.167   2.695   2.239
51896SOL    HW155712  11.209   2.631   2.303
51896SOL    HW255713  11.129   2.644   2.161
51897SOL     OW55714   9.798   3.247   2.036
51897SOL    HW155715   9.711   3.232   2.083
51897SOL    HW255716   9.781   3.273   1.941
51898SOL     OW55717  10.974   3.142   2.519
51898SOL    HW155718  11.073   3.150   2.533
51898SOL    HW255719  10.929   3.226   2.550
51899SOL     OW55720  10.700   2.437   1.940
51899SOL    HW155721  10.646   2.416   2.021
51899SOL    HW255722  10.791   2.396   1.949
51900SOL     OW55723   9.837   2.118   2.190
51900SOL    HW155724   9.864   2.059   2.115
51900SOL    HW255725   9.837   2.213   2.159
51901SOL     OW55726  11.064   3.085   3.450
51901SOL    HW155727  11.155   3.046   3.437
51901SOL    HW255728  11.072   3.181   3.474
51902SOL     OW55729  10.374   3.209   3.202
51902SOL    HW155730  10.294   3.186   3.257
51902SOL    HW255731  10.457   3.183   3.251
51903SOL     OW55732  10.902   3.491   3.487
51903SOL    HW155733  10.929   3.525   3.397
51903SOL    HW255734  10.981   3.453   3.533
51904SOL     OW55735  10.421   3.057   2.962
51904SOL    HW155736  10.381   3.101   3.043
51904SOL    HW255737  10.380   3.094   2.879
51905SOL     OW55738  10.948   2.961   2.941
51905SOL    HW155739  10.953   3.042   3.000
51905SOL    HW255740  10.862   2.963   2.890
51906SOL     OW55741  10.225   1.951   3.264
51906SOL    HW155742  10.250   1.931   3.169
51906SOL    HW255743  10.297   2.007   3.306
51907SOL     OW55744  10.290   2.978   3.581
51907SOL    HW155745  10.191   2.984   3.591
51907SOL    HW255746  10.313   2.898   3.525
51908SOL     OW55747  10.015   2.912   2.230
51908SOL    HW155748  10.001   2.919   2.329
51908SOL    HW255749  10.099   2.861   2.212
51909SOL     OW55750   9.720   2.675   3.113
51909SOL    HW155751   9.806   2.687   3.163
51909SOL    HW255752   9.678   2.588   3.140
51910SOL     OW55753  10.584   2.248   3.124
51910SOL    HW155754  10.605   2.322   3.188
51910SOL    HW255755  10.495   2.265   3.081
51911SOL     OW55756   9.374   3.426   3.193
51911SOL    HW155757   9.328   3.508   3.159
51911SOL    HW255758   9.472   3.445   3.202
51912SOL     OW55759   9.677   2.962   2.363
51912SOL    HW155760   9.670   3.045   2.307
51912SOL    HW255761   9.681   2.882   2.303
51913SOL     OW55762   9.876   2.399   2.727
51913SOL    HW155763   9.888   2.465   2.653
51913SOL    HW255764   9.922   2.433   2.810
51914SOL     OW55765  10.562   3.210   2.250
51914SOL    HW155766  10.612   3.287   2.290
51914SOL    HW255767  10.467   3.212   2.282
51915SOL     OW55768  10.582   3.307   3.004
51915SOL    HW155769  10.629   3.320   3.091
51915SOL    HW255770  10.516   3.233   3.013
51916SOL     OW55771  10.892   2.501   2.334
51916SOL    HW155772  10.861   2.562   2.407
51916SOL    HW255773  10.942   2.553   2.265
51917SOL     OW55774   9.664   3.372   3.191
51917SOL    HW155775   9.643   3.328   3.104
51917SOL    HW255776   9.761   3.398   3.194
51918SOL     OW55777   9.712   2.613   3.460
51918SOL    HW155778   9.780   2.668   3.413
51918SOL    HW255779   9.752   2.525   3.487
51919SOL     OW55780  10.897   2.641   3.532
51919SOL    HW155781  10.805   2.679   3.527
51919SOL    HW255782  10.957   2.688   3.467
51920SOL     OW55783  10.323   1.967   3.632
51920SOL    HW155784  10.329   2.052   3.580
51920SOL    HW255785  10.355   1.891   3.575
51921SOL     OW55786   9.814   1.912   3.602
51921SOL    HW155787   9.772   1.855   3.532
51921SOL    HW255788   9.748   1.981   3.634
51922SOL     OW55789   9.883   2.732   2.891
51922SOL    HW155790   9.927   2.821   2.882
51922SOL    HW255791   9.820   2.732   2.968
51923SOL     OW55792  10.670   2.724   2.907
51923SOL    HW155793  10.595   2.724   2.841
51923SOL    HW255794  10.707   2.632   2.916
51924SOL     OW55795  10.519   2.387   2.137
51924SOL    HW155796  10.532   2.303   2.191
51924SOL    HW255797  10.490   2.461   2.197
51925SOL     OW55798   9.617   2.075   3.093
51925SOL    HW155799   9.594   2.112   3.183
51925SOL    HW255800   9.587   1.980   3.087
51926SOL     OW55801   9.347   3.172   3.144
51926SOL    HW155802   9.400   3.123   3.212
51926SOL    HW255803   9.369   3.270   3.149
51927SOL     OW55804  10.042   2.496   2.926
51927SOL    HW155805  10.101   2.470   2.850
51927SOL    HW255806  10.014   2.592   2.915
51928SOL     OW55807  11.038   2.797   3.716
51928SOL    HW155808  10.992   2.790   3.627
51928SOL    HW255809  10.976   2.841   3.782
51929SOL     OW55810   9.617   1.925   2.480
51929SOL    HW155811   9.606   2.019   2.513
51929SOL    HW255812   9.612   1.862   2.557
51930SOL     OW55813  10.932   2.229   2.236
51930SOL    HW155814  10.934   2.153   2.300
51930SOL    HW255815  10.884   2.306   2.276
51931SOL     OW55816  10.333   2.628   2.828
51931SOL    HW155817  10.348   2.649   2.924
51931SOL    HW255818  10.303   2.533   2.819
51932SOL     OW55819  10.290   3.435   3.562
51932SOL    HW155820  10.270   3.479   3.474
51932SOL    HW255821  10.329   3.344   3.546
51933SOL     OW55822  11.169   3.380   3.467
51933SOL    HW155823  11.183   3.407   3.372
51933SOL    HW255824  11.252   3.402   3.520
51934SOL     OW55825   9.660   2.760   3.666
51934SOL    HW155826   9.736   2.804   3.714
51934SOL    HW255827   9.695   2.713   3.584
51935SOL     OW55828  10.850   2.136   1.987
51935SOL    HW155829  10.789   2.061   2.010
51935SOL    HW255830  10.872   2.188   2.070
51936SOL     OW55831  10.613   2.700   1.904
51936SOL    HW155832  10.647   2.607   1.919
51936SOL    HW255833  10.631   2.727   1.809
51937SOL     OW55834  10.378   3.195   2.711
51937SOL    HW155835  10.385   3.111   2.656
51937SOL    HW255836  10.440   3.264   2.675
51938SOL     OW55837   9.629   2.672   2.811
51938SOL    HW155838   9.722   2.708   2.816
51938SOL    HW255839   9.623   2.587   2.863
51939SOL     OW55840   9.649   2.371   2.868
51939SOL    HW155841   9.597   2.288   2.851
51939SOL    HW255842   9.726   2.376   2.804
51940SOL     OW55843  10.448   2.242   3.540
51940SOL    HW155844  10.403   2.305   3.604
51940SOL    HW255845  10.541   2.273   3.523
51941SOL     OW55846  10.470   2.069   3.339
51941SOL    HW155847  10.470   2.133   3.416
51941SOL    HW255848  10.498   2.117   3.256
51942SOL     OW55849   9.318   3.188   2.062
51942SOL    HW155850   9.225   3.209   2.031
51942SOL    HW255851   9.328   3.089   2.075
51943SOL     OW55852   9.398   3.663   2.789
51943SOL    HW155853   9.356   3.577   2.762
51943SOL    HW255854   9.492   3.666   2.755
51944SOL     OW55855   9.814   3.430   2.772
51944SOL    HW155856   9.880   3.504   2.781
51944SOL    HW255857   9.858   3.351   2.730
51945SOL     OW55858  10.312   2.658   3.100
51945SOL    HW155859  10.353   2.626   3.186
51945SOL    HW255860  10.216   2.631   3.097
51946SOL     OW55861   9.350   2.406   2.976
51946SOL    HW155862   9.435   2.373   2.935
51946SOL    HW255863   9.363   2.421   3.074
51947SOL     OW55864   9.499   2.382   3.584
51947SOL    HW155865   9.558   2.342   3.514
51947SOL    HW255866   9.441   2.453   3.543
51948SOL     OW55867  10.679   2.812   3.522
51948SOL    HW155868  10.718   2.901   3.542
51948SOL    HW255869  10.689   2.792   3.425
51949SOL     OW55870  10.125   2.434   2.187
51949SOL    HW155871  10.132   2.345   2.141
51949SOL    HW255872  10.031   2.468   2.179
51950SOL     OW55873  10.967   2.466   3.068
51950SOL    HW155874  10.929   2.397   3.130
51950SOL    HW255875  11.049   2.430   3.024
51951SOL     OW55876   9.562   3.426   3.606
51951SOL    HW155877   9.532   3.483   3.682
51951SOL    HW255878   9.555   3.329   3.632
51952SOL     OW55879   9.981   2.326   3.131
51952SOL    HW155880   9.947   2.237   3.101
51952SOL    HW255881  10.007   2.380   3.051
51953SOL     OW55882  10.240   3.540   3.327
51953SOL    HW155883  10.216   3.522   3.232
51953SOL    HW255884  10.270   3.634   3.337
51954SOL     OW55885   9.783   2.362   2.053
51954SOL    HW155886   9.844   2.442   2.057
51954SOL    HW255887   9.688   2.393   2.060
51955SOL     OW55888   9.469   2.999   3.328
51955SOL    HW155889   9.491   2.938   3.404
51955SOL    HW255890   9.479   2.950   3.242
51956SOL     OW55891  10.657   2.921   3.096
51956SOL    HW155892  10.681   2.858   3.022
51956SOL    HW255893  10.567   2.961   3.078
51957SOL     OW55894  10.612   2.717   2.171
51957SOL    HW155895  10.526   2.686   2.213
51957SOL    HW255896  10.608   2.703   2.072
51958SOL     OW55897  11.069   3.609   3.016
51958SOL    HW155898  11.130   3.639   2.943
51958SOL    HW255899  11.031   3.520   2.994
51959SOL     OW55900  10.562   3.593   2.990
51959SOL    HW155901  10.646   3.598   2.936
51959SOL    HW255902  10.539   3.497   3.008
51960SOL     OW55903   9.393   3.120   2.884
51960SOL    HW155904   9.388   3.119   2.984
51960SOL    HW255905   9.310   3.079   2.846
51961SOL     OW55906   9.998   3.524   3.578
51961SOL    HW155907   9.942   3.605   3.587
51961SOL    HW255908  10.050   3.528   3.492
51962SOL     OW55909  11.036   1.997   2.385
51962SOL    HW155910  11.109   1.980   2.318
51962SOL    HW255911  11.005   1.910   2.423
51963SOL     OW55912  10.698   3.435   2.339
51963SOL    HW155913  10.765   3.447   2.265
51963SOL    HW255914  10.658   3.524   2.362
51964SOL     OW55915   9.440   3.656   3.713
51964SOL    HW155916   9.399   3.582   3.766
51964SOL    HW255917   9.504   3.707   3.771
51965SOL     OW55918  10.590   2.789   2.534
51965SOL    HW155919  10.650   2.708   2.536
51965SOL    HW255920  10.630   2.858   2.474
51966SOL     OW55921  10.140   3.135   3.284
51966SOL    HW155922  10.135   3.168   3.379
51966SOL    HW255923  10.054   3.154   3.238
51967SOL     OW55924   9.982   3.478   2.016
51967SOL    HW155925   9.991   3.488   1.917
51967SOL    HW255926   9.942   3.389   2.037
51968SOL     OW55927  10.960   3.582   3.256
51968SOL    HW155928  11.013   3.592   3.172
51968SOL    HW255929  10.933   3.672   3.290
51969SOL     OW55930  11.151   2.037   2.825
51969SOL    HW155931  11.190   1.952   2.789
51969SOL    HW255932  11.053   2.039   2.806
51970SOL     OW55933   9.573   2.188   2.582
51970SOL    HW155934   9.494   2.239   2.548
51970SOL    HW255935   9.564   2.173   2.680
51971SOL     OW55936  10.504   3.474   1.893
51971SOL    HW155937  10.510   3.381   1.930
51971SOL    HW255938  10.445   3.474   1.813
51972SOL     OW55939  10.132   2.864   3.234
51972SOL    HW155940  10.172   2.863   3.142
51972SOL    HW255941  10.142   2.956   3.274
51973SOL     OW55942  10.226   2.772   2.153
51973SOL    HW155943  10.289   2.810   2.085
51973SOL    HW255944  10.266   2.689   2.192
51974SOL     OW55945  10.814   3.469   1.906
51974SOL    HW155946  10.722   3.506   1.913
51974SOL    HW255947  10.852   3.489   1.816
51975SOL     OW55948   9.682   3.150   3.352
51975SOL    HW155949   9.669   3.243   3.318
51975SOL    HW255950   9.598   3.098   3.339
51976SOL     OW55951  10.924   3.154   3.151
51976SOL    HW155952  10.984   3.157   3.231
51976SOL    HW255953  10.849   3.218   3.164
51977SOL     OW55954  10.349   2.960   2.558
51977SOL    HW155955  10.279   2.913   2.612
51977SOL    HW255956  10.408   2.892   2.515
51978SOL     OW55957  10.324   2.098   2.833
51978SOL    HW155958  10.316   2.062   2.740
51978SOL    HW255959  10.322   2.022   2.898
51979SOL     OW55960   9.900   3.349   2.353
51979SOL    HW155961   9.942   3.291   2.283
51979SOL    HW255962   9.856   3.428   2.309
51980SOL     OW55963  11.019   2.247   3.243
51980SOL    HW155964  11.092   2.316   3.247
51980SOL    HW255965  11.047   2.172   3.184
51981SOL     OW55966   9.565   3.210   2.152
51981SOL    HW155967   9.469   3.211   2.125
51981SOL    HW255968   9.577   3.263   2.236
51982SOL     OW55969   9.415   2.875   3.588
51982SOL    HW155970   9.338   2.842   3.642
51982SOL    HW255971   9.500   2.845   3.630
51983SOL     OW55972   9.982   2.065   3.351
51983SOL    HW155973  10.072   2.049   3.311
51983SOL    HW255974   9.990   2.070   3.450
51984SOL     OW55975   9.385   2.207   1.895
51984SOL    HW155976   9.293   2.179   1.866
51984SOL    HW255977   9.416   2.284   1.839
51985SOL     OW55978  10.750   2.718   3.260
51985SOL    HW155979  10.693   2.770   3.197
51985SOL    HW255980  10.846   2.730   3.236
51986SOL     OW55981   9.382   2.028   2.180
51986SOL    HW155982   9.365   2.111   2.126
51986SOL    HW255983   9.472   1.991   2.158
51987SOL     OW55984  10.493   3.197   1.981
51987SOL    HW155985  10.394   3.186   1.983
51987SOL    HW255986  10.527   3.212   2.074
51988SOL     OW55987   9.923   2.704   3.293
51988SOL    HW155988   9.979   2.785   3.276
51988SOL    HW255989   9.982   2.624   3.296
51989SOL     OW55990  10.803   3.629   2.821
51989SOL    HW155991  10.836   3.693   2.752
51989SOL    HW255992  10.869   3.623   2.896
51990SOL     OW55993  10.026   2.427   3.570
51990SOL    HW155994  10.045   2.492   3.644
51990SOL    HW255995  10.086   2.347   3.579
51991SOL     OW55996  10.760   3.082   3.495
51991SOL    HW155997  10.751   3.072   3.594
51991SOL    HW255998  10.856   3.075   3.469
51992SOL     OW55999   9.700   3.603   3.422
51992SOL    HW156000   9.609   3.644   3.420
51992SOL    HW256001   9.693   3.509   3.454
51993SOL     OW56002  10.984   2.745   3.116
51993SOL    HW156003  10.957   2.656   3.079
51993SOL    HW256004  10.985   2.813   3.043
51994SOL     OW56005  10.535   2.187   2.311
51994SOL    HW156006  10.600   2.113   2.300
51994SOL    HW256007  10.555   2.237   2.395
51995SOL     OW56008   9.904   2.607   2.514
51995SOL    HW156009   9.954   2.692   2.495
51995SOL    HW256010   9.816   2.609   2.466
51996SOL     OW56011  11.087   2.204   3.504
51996SOL    HW156012  11.070   2.235   3.410
51996SOL    HW256013  11.003   2.167   3.542
51997SOL     OW56014  11.040   2.796   3.379
51997SOL    HW156015  11.078   2.887   3.394
51997SOL    HW256016  11.032   2.779   3.280
51998SOL     OW56017  10.169   3.236   1.878
51998SOL    HW156018  10.123   3.251   1.966
51998SOL    HW256019  10.213   3.321   1.848
51999SOL     OW56020   9.971   3.652   2.815
51999SOL    HW156021   9.925   3.740   2.802
51999SOL    HW256022  10.070   3.664   2.808
52000SOL     OW56023  10.169   2.818   2.723
52000SOL    HW156024  10.223   2.749   2.771
52000SOL    HW256025  10.137   2.887   2.789
52001SOL     OW56026  10.393   2.846   1.949
52001SOL    HW156027  10.370   2.899   1.867
52001SOL    HW256028  10.474   2.790   1.930
52002SOL     OW56029  11.171   3.431   2.713
52002SOL    HW156030  11.100   3.419   2.643
52002SOL    HW256031  11.172   3.352   2.773
52003SOL     OW56032   9.531   3.176   3.706
52003SOL    HW156033   9.466   3.103   3.685
52003SOL    HW256034   9.535   3.190   3.804
52004SOL     OW56035   9.389   3.102   2.515
52004SOL    HW156036   9.388   3.055   2.603
52004SOL    HW256037   9.471   3.074   2.464
52005SOL     OW56038   9.982   3.253   3.486
52005SOL    HW156039   9.904   3.203   3.524
52005SOL    HW256040   9.979   3.348   3.517
52006SOL     OW56041  11.134   2.054   3.089
52006SOL    HW156042  11.130   1.964   3.133
52006SOL    HW256043  11.137   2.043   2.990
52007SOL     OW56044   9.738   2.286   2.382
52007SOL    HW156045   9.768   2.214   2.320
52007SOL    HW256046   9.699   2.246   2.465
52008SOL     OW56047  11.015   3.349   2.966
52008SOL    HW156048  10.922   3.324   2.939
52008SOL    HW256049  11.041   3.299   3.048
52009SOL     OW56050   9.627   2.409   3.142
52009SOL    HW156051   9.665   2.350   3.214
52009SOL    HW256052   9.667   2.383   3.054
52010SOL     OW56053  10.122   3.448   2.549
52010SOL    HW156054  10.154   3.458   2.455
52010SOL    HW256055  10.043   3.386   2.551
52011SOL     OW56056  10.734   2.076   2.974
52011SOL    HW156057  10.786   2.011   3.029
52011SOL    HW256058  10.685   2.139   3.035
52012SOL     OW56059  10.311   1.896   3.016
52012SOL    HW156060  10.248   1.824   2.985
52012SOL    HW256061  10.404   1.860   3.016
52013SOL     OW56062  10.080   3.192   2.163
52013SOL    HW156063  10.034   3.105   2.180
52013SOL    HW256064  10.171   3.189   2.204
52014SOL     OW56065   9.928   3.429   3.146
52014SOL    HW156066   9.923   3.511   3.203
52014SOL    HW256067  10.017   3.426   3.101
52015SOL     OW56068  10.662   1.914   2.030
52015SOL    HW156069  10.697   1.873   1.946
52015SOL    HW256070  10.572   1.876   2.050
52016SOL     OW56071  10.610   2.315   2.553
52016SOL    HW156072  10.551   2.395   2.557
52016SOL    HW256073  10.625   2.280   2.646
52017SOL     OW56074  10.903   2.083   2.744
52017SOL    HW156075  10.819   2.082   2.798
52017SOL    HW256076  10.905   2.166   2.688
52018SOL     OW56077   9.349   2.939   2.162
52018SOL    HW156078   9.448   2.928   2.153
52018SOL    HW256079   9.309   2.853   2.194
52019SOL     OW56080  10.185   3.508   2.199
52019SOL    HW156081  10.108   3.473   2.145
52019SOL    HW256082  10.153   3.579   2.261
52020SOL     OW56083   9.540   2.490   3.837
52020SOL    HW156084   9.447   2.488   3.874
52020SOL    HW256085   9.541   2.451   3.745
52021SOL     OW56086   9.535   2.137   4.720
52021SOL    HW156087   9.570   2.120   4.812
52021SOL    HW256088   9.447   2.092   4.708
52022SOL     OW56089   9.329   2.230   4.371
52022SOL    HW156090   9.247   2.273   4.410
52022SOL    HW256091   9.301   2.157   4.308
52023SOL     OW56092   9.879   3.137   4.889
52023SOL    HW156093   9.786   3.130   4.852
52023SOL    HW256094   9.890   3.226   4.933
52024SOL     OW56095  10.865   3.373   4.427
52024SOL    HW156096  10.808   3.357   4.508
52024SOL    HW256097  10.806   3.383   4.347
52025SOL     OW56098  10.445   2.565   4.441
52025SOL    HW156099  10.502   2.643   4.416
52025SOL    HW256100  10.385   2.591   4.517
52026SOL     OW56101  11.065   2.469   3.955
52026SOL    HW156102  11.053   2.456   3.856
52026SOL    HW256103  11.035   2.388   4.004
52027SOL     OW56104  10.078   3.006   4.747
52027SOL    HW156105  10.000   3.023   4.807
52027SOL    HW256106  10.112   3.093   4.711
52028SOL     OW56107  10.160   2.660   5.547
52028SOL    HW156108  10.156   2.736   5.612
52028SOL    HW256109  10.182   2.696   5.456
52029SOL     OW56110   9.995   2.874   4.389
52029SOL    HW156111  10.064   2.858   4.459
52029SOL    HW256112   9.922   2.931   4.427
52030SOL     OW56113   9.996   3.023   5.527
52030SOL    HW156114  10.056   3.102   5.541
52030SOL    HW256115   9.910   3.054   5.486
52031SOL     OW56116   9.645   3.297   4.785
52031SOL    HW156117   9.567   3.266   4.732
52031SOL    HW256118   9.703   3.355   4.728
52032SOL     OW56119  10.770   3.367   5.063
52032SOL    HW156120  10.794   3.461   5.089
52032SOL    HW256121  10.754   3.313   5.145
52033SOL     OW56122   9.748   2.254   5.223
52033SOL    HW156123   9.830   2.198   5.232
52033SOL    HW256124   9.667   2.196   5.227
52034SOL     OW56125  10.913   2.309   4.461
52034SOL    HW156126  10.839   2.355   4.411
52034SOL    HW256127  10.964   2.377   4.514
52035SOL     OW56128   9.541   3.575   4.207
52035SOL    HW156129   9.575   3.652   4.261
52035SOL    HW256130   9.585   3.575   4.117
52036SOL     OW56131  10.437   3.203   5.414
52036SOL    HW156132  10.484   3.203   5.502
52036SOL    HW256133  10.389   3.116   5.403
52037SOL     OW56134   9.540   3.296   4.262
52037SOL    HW156135   9.514   3.392   4.262
52037SOL    HW256136   9.469   3.242   4.307
52038SOL     OW56137   9.550   2.953   4.610
52038SOL    HW156138   9.564   2.869   4.662
52038SOL    HW256139   9.495   3.017   4.665
52039SOL     OW56140   9.930   3.648   5.163
52039SOL    HW156141   9.838   3.631   5.198
52039SOL    HW256142   9.958   3.740   5.189
52040SOL     OW56143   9.916   2.826   3.847
52040SOL    HW156144   9.923   2.910   3.793
52040SOL    HW256145   9.962   2.839   3.935
52041SOL     OW56146  10.904   1.976   5.204
52041SOL    HW156147  10.886   2.043   5.132
52041SOL    HW256148  10.901   2.022   5.293
52042SOL     OW56149   9.432   2.505   4.287
52042SOL    HW156150   9.387   2.417   4.304
52042SOL    HW256151   9.431   2.559   4.371
52043SOL     OW56152  11.152   3.629   4.083
52043SOL    HW156153  11.206   3.600   4.163
52043SOL    HW256154  11.182   3.719   4.054
52044SOL     OW56155   9.337   3.458   3.841
52044SOL    HW156156   9.318   3.362   3.862
52044SOL    HW256157   9.304   3.516   3.916
52045SOL     OW56158  10.999   2.784   4.336
52045SOL    HW156159  11.094   2.755   4.344
52045SOL    HW256160  10.991   2.849   4.261
52046SOL     OW56161  10.951   2.970   4.156
52046SOL    HW156162  11.037   2.972   4.104
52046SOL    HW256163  10.965   3.017   4.244
52047SOL     OW56164   9.423   2.599   5.321
52047SOL    HW156165   9.511   2.586   5.366
52047SOL    HW256166   9.410   2.696   5.299
52048SOL     OW56167   9.923   3.227   4.450
52048SOL    HW156168   9.874   3.140   4.459
52048SOL    HW256169   9.900   3.270   4.363
52049SOL     OW56170  10.603   3.090   5.147
52049SOL    HW156171  10.640   3.017   5.089
52049SOL    HW256172  10.655   3.095   5.232
52050SOL     OW56173  10.119   1.866   4.226
52050SOL    HW156174  10.159   1.957   4.217
52050SOL    HW256175  10.019   1.874   4.232
52051SOL     OW56176   9.507   2.838   4.988
52051SOL    HW156177   9.596   2.793   4.974
52051SOL    HW256178   9.434   2.773   4.969
52052SOL     OW56179  10.835   2.861   3.914
52052SOL    HW156180  10.772   2.785   3.927
52052SOL    HW256181  10.883   2.879   4.000
52053SOL     OW56182  10.497   3.654   5.340
52053SOL    HW156183  10.521   3.714   5.264
52053SOL    HW256184  10.504   3.559   5.310
52054SOL     OW56185   9.627   2.113   5.525
52054SOL    HW156186   9.698   2.184   5.531
52054SOL    HW256187   9.539   2.152   5.553
52055SOL     OW56188  10.776   3.279   4.677
52055SOL    HW156189  10.717   3.285   4.757
52055SOL    HW256190  10.761   3.191   4.631
52056SOL     OW56191  10.977   3.576   4.296
52056SOL    HW156192  10.936   3.553   4.208
52056SOL    HW256193  10.959   3.502   4.361
52057SOL     OW56194   9.908   2.591   3.994
52057SOL    HW156195   9.932   2.660   3.926
52057SOL    HW256196   9.830   2.624   4.048
52058SOL     OW56197  10.591   2.207   4.668
52058SOL    HW156198  10.505   2.157   4.655
52058SOL    HW256199  10.653   2.153   4.724
52059SOL     OW56200  10.886   3.524   4.031
52059SOL    HW156201  10.975   3.570   4.034
52059SOL    HW256202  10.865   3.500   3.936
52060SOL     OW56203  10.117   2.467   5.189
52060SOL    HW156204  10.070   2.464   5.278
52060SOL    HW256205  10.066   2.412   5.123
52061SOL     OW56206  10.704   2.331   5.398
52061SOL    HW156207  10.684   2.374   5.486
52061SOL    HW256208  10.782   2.269   5.407
52062SOL     OW56209  10.283   2.752   5.296
52062SOL    HW156210  10.329   2.668   5.267
52062SOL    HW256211  10.227   2.786   5.221
52063SOL     OW56212  10.301   2.272   4.966
52063SOL    HW156213  10.224   2.306   5.020
52063SOL    HW256214  10.267   2.221   4.887
52064SOL     OW56215  10.351   2.563   4.153
52064SOL    HW156216  10.377   2.559   4.249
52064SOL    HW256217  10.266   2.512   4.139
52065SOL     OW56218   9.386   2.673   4.513
52065SOL    HW156219   9.485   2.661   4.522
52065SOL    HW256220   9.362   2.768   4.534
52066SOL     OW56221   9.440   3.683   5.295
52066SOL    HW156222   9.430   3.668   5.394
52066SOL    HW256223   9.354   3.719   5.259
52067SOL     OW56224  10.175   2.210   3.919
52067SOL    HW156225  10.234   2.273   3.870
52067SOL    HW256226  10.194   2.116   3.890
52068SOL     OW56227  11.029   2.447   5.555
52068SOL    HW156228  11.003   2.536   5.519
52068SOL    HW256229  11.027   2.379   5.482
52069SOL     OW56230  10.672   3.006   4.269
52069SOL    HW156231  10.755   2.977   4.221
52069SOL    HW256232  10.623   3.073   4.213
52070SOL     OW56233   9.860   2.058   4.609
52070SOL    HW156234   9.855   2.053   4.709
52070SOL    HW256235   9.862   2.154   4.580
52071SOL     OW56236  10.318   3.318   4.201
52071SOL    HW156237  10.272   3.390   4.149
52071SOL    HW256238  10.314   3.338   4.299
52072SOL     OW56239   9.661   3.663   4.577
52072SOL    HW156240   9.711   3.577   4.583
52072SOL    HW256241   9.726   3.740   4.574
52073SOL     OW56242  11.105   2.928   4.597
52073SOL    HW156243  11.043   2.913   4.521
52073SOL    HW256244  11.053   2.939   4.682
52074SOL     OW56245  10.537   3.412   5.230
52074SOL    HW156246  10.543   3.335   5.294
52074SOL    HW256247  10.485   3.386   5.150
52075SOL     OW56248   9.631   2.805   3.966
52075SOL    HW156249   9.713   2.844   3.924
52075SOL    HW256250   9.604   2.723   3.917
52076SOL     OW56251  10.768   2.597   4.452
52076SOL    HW156252  10.763   2.532   4.527
52076SOL    HW256253  10.848   2.656   4.465
52077SOL     OW56254   9.771   3.128   5.451
52077SOL    HW156255   9.721   3.129   5.365
52077SOL    HW256256   9.708   3.110   5.527
52078SOL     OW56257  10.421   3.638   3.961
52078SOL    HW156258  10.361   3.576   4.011
52078SOL    HW256259  10.452   3.594   3.876
52079SOL     OW56260   9.512   2.147   5.222
52079SOL    HW156261   9.432   2.207   5.209
52079SOL    HW256262   9.502   2.098   5.308
52080SOL     OW56263  10.942   3.239   3.805
52080SOL    HW156264  10.910   3.333   3.795
52080SOL    HW256265  10.866   3.176   3.793
52081SOL     OW56266   9.774   3.605   4.047
52081SOL    HW156267   9.807   3.644   4.133
52081SOL    HW256268   9.850   3.598   3.982
52082SOL     OW56269  10.710   1.969   4.150
52082SOL    HW156270  10.686   1.932   4.060
52082SOL    HW256271  10.809   1.985   4.154
52083SOL     OW56272   9.559   3.647   4.965
52083SOL    HW156273   9.616   3.582   5.015
52083SOL    HW256274   9.543   3.614   4.872
52084SOL     OW56275  10.250   3.560   4.628
52084SOL    HW156276  10.330   3.503   4.649
52084SOL    HW256277  10.201   3.520   4.551
52085SOL     OW56278   9.692   2.562   4.204
52085SOL    HW156279   9.737   2.472   4.201
52085SOL    HW256280   9.598   2.551   4.237
52086SOL     OW56281  10.857   2.084   5.453
52086SOL    HW156282  10.852   2.121   5.545
52086SOL    HW256283  10.785   2.015   5.441
52087SOL     OW56284   9.924   1.984   3.841
52087SOL    HW156285  10.022   1.962   3.848
52087SOL    HW256286   9.893   1.967   3.748
52088SOL     OW56287  10.091   2.126   5.473
52088SOL    HW156288  10.158   2.065   5.516
52088SOL    HW256289  10.018   2.145   5.538
52089SOL     OW56290  10.198   3.376   4.919
52089SOL    HW156291  10.175   3.351   4.825
52089SOL    HW256292  10.259   3.307   4.958
52090SOL     OW56293  10.661   2.452   5.157
52090SOL    HW156294  10.689   2.409   5.242
52090SOL    HW256295  10.686   2.548   5.158
52091SOL     OW56296  10.113   3.264   4.648
52091SOL    HW156297  10.203   3.278   4.606
52091SOL    HW256298  10.042   3.266   4.577
52092SOL     OW56299  10.232   2.365   4.623
52092SOL    HW156300  10.207   2.356   4.527
52092SOL    HW256301  10.280   2.283   4.654
52093SOL     OW56302   9.849   1.926   4.236
52093SOL    HW156303   9.768   1.927   4.294
52093SOL    HW256304   9.852   2.009   4.181
52094SOL     OW56305  10.744   3.050   3.765
52094SOL    HW156306  10.776   2.974   3.822
52094SOL    HW256307  10.652   3.077   3.795
52095SOL     OW56308   9.607   1.897   3.895
52095SOL    HW156309   9.656   1.981   3.874
52095SOL    HW256310   9.669   1.832   3.940
52096SOL     OW56311  10.245   2.098   4.204
52096SOL    HW156312  10.197   2.139   4.126
52096SOL    HW256313  10.344   2.096   4.185
52097SOL     OW56314  10.386   2.545   5.188
52097SOL    HW156315  10.306   2.484   5.191
52097SOL    HW256316  10.467   2.492   5.164
52098SOL     OW56317  10.537   3.432   4.517
52098SOL    HW156318  10.558   3.506   4.452
52098SOL    HW256319  10.605   3.432   4.590
52099SOL     OW56320   9.769   3.014   4.465
52099SOL    HW156321   9.698   2.987   4.530
52099SOL    HW256322   9.743   2.986   4.372
52100SOL     OW56323  10.581   3.659   4.315
52100SOL    HW156324  10.625   3.723   4.251
52100SOL    HW256325  10.531   3.711   4.385
52101SOL     OW56326  10.342   2.411   3.740
52101SOL    HW156327  10.301   2.493   3.701
52101SOL    HW256328  10.406   2.437   3.813
52102SOL     OW56329   9.388   2.418   5.110
52102SOL    HW156330   9.480   2.417   5.069
52102SOL    HW256331   9.382   2.492   5.177
52103SOL     OW56332   9.871   2.084   4.871
52103SOL    HW156333   9.909   2.000   4.908
52103SOL    HW256334   9.783   2.103   4.915
52104SOL     OW56335  10.176   2.316   4.366
52104SOL    HW156336  10.144   2.388   4.304
52104SOL    HW256337  10.200   2.235   4.313
52105SOL     OW56338  10.327   1.901   4.477
52105SOL    HW156339  10.255   1.906   4.408
52105SOL    HW256340  10.303   1.832   4.546
52106SOL     OW56341  10.739   3.035   4.591
52106SOL    HW156342  10.684   2.951   4.584
52106SOL    HW256343  10.765   3.064   4.499
52107SOL     OW56344  10.776   2.452   4.716
52107SOL    HW156345  10.746   2.357   4.723
52107SOL    HW256346  10.849   2.468   4.782
52108SOL     OW56347  11.167   2.695   4.101
52108SOL    HW156348  11.209   2.631   4.165
52108SOL    HW256349  11.129   2.644   4.023
52109SOL     OW56350   9.798   3.247   3.898
52109SOL    HW156351   9.711   3.232   3.945
52109SOL    HW256352   9.781   3.273   3.803
52110SOL     OW56353  10.974   3.142   4.381
52110SOL    HW156354  11.073   3.150   4.395
52110SOL    HW256355  10.929   3.226   4.412
52111SOL     OW56356  10.700   2.437   3.802
52111SOL    HW156357  10.646   2.416   3.883
52111SOL    HW256358  10.791   2.396   3.811
52112SOL     OW56359   9.837   2.118   4.052
52112SOL    HW156360   9.864   2.059   3.977
52112SOL    HW256361   9.837   2.213   4.021
52113SOL     OW56362  11.064   3.085   5.312
52113SOL    HW156363  11.155   3.046   5.299
52113SOL    HW256364  11.072   3.181   5.336
52114SOL     OW56365  10.374   3.209   5.064
52114SOL    HW156366  10.294   3.186   5.119
52114SOL    HW256367  10.457   3.183   5.113
52115SOL     OW56368  10.902   3.491   5.349
52115SOL    HW156369  10.929   3.525   5.259
52115SOL    HW256370  10.981   3.453   5.395
52116SOL     OW56371  10.421   3.057   4.824
52116SOL    HW156372  10.381   3.101   4.905
52116SOL    HW256373  10.380   3.094   4.741
52117SOL     OW56374  10.948   2.961   4.803
52117SOL    HW156375  10.953   3.042   4.862
52117SOL    HW256376  10.862   2.963   4.752
52118SOL     OW56377  10.225   1.951   5.126
52118SOL    HW156378  10.250   1.931   5.031
52118SOL    HW256379  10.297   2.007   5.168
52119SOL     OW56380  10.290   2.978   5.443
52119SOL    HW156381  10.191   2.984   5.453
52119SOL    HW256382  10.313   2.898   5.387
52120SOL     OW56383  10.015   2.912   4.092
52120SOL    HW156384  10.001   2.919   4.191
52120SOL    HW256385  10.099   2.861   4.074
52121SOL     OW56386   9.720   2.675   4.975
52121SOL    HW156387   9.806   2.687   5.025
52121SOL    HW256388   9.678   2.588   5.002
52122SOL     OW56389  10.584   2.248   4.986
52122SOL    HW156390  10.605   2.322   5.050
52122SOL    HW256391  10.495   2.265   4.943
52123SOL     OW56392   9.374   3.426   5.055
52123SOL    HW156393   9.328   3.508   5.021
52123SOL    HW256394   9.472   3.445   5.064
52124SOL     OW56395   9.677   2.962   4.225
52124SOL    HW156396   9.670   3.045   4.169
52124SOL    HW256397   9.681   2.882   4.165
52125SOL     OW56398   9.876   2.399   4.589
52125SOL    HW156399   9.888   2.465   4.515
52125SOL    HW256400   9.922   2.433   4.672
52126SOL     OW56401  10.562   3.210   4.112
52126SOL    HW156402  10.612   3.287   4.152
52126SOL    HW256403  10.467   3.212   4.144
52127SOL     OW56404  10.582   3.307   4.866
52127SOL    HW156405  10.629   3.320   4.953
52127SOL    HW256406  10.516   3.233   4.875
52128SOL     OW56407  10.892   2.501   4.196
52128SOL    HW156408  10.861   2.562   4.269
52128SOL    HW256409  10.942   2.553   4.127
52129SOL     OW56410   9.664   3.372   5.053
52129SOL    HW156411   9.643   3.328   4.966
52129SOL    HW256412   9.761   3.398   5.056
52130SOL     OW56413   9.712   2.613   5.322
52130SOL    HW156414   9.780   2.668   5.275
52130SOL    HW256415   9.752   2.525   5.349
52131SOL     OW56416  10.897   2.641   5.394
52131SOL    HW156417  10.805   2.679   5.389
52131SOL    HW256418  10.957   2.688   5.329
52132SOL     OW56419  10.323   1.967   5.494
52132SOL    HW156420  10.329   2.052   5.442
52132SOL    HW256421  10.355   1.891   5.437
52133SOL     OW56422   9.814   1.912   5.464
52133SOL    HW156423   9.772   1.855   5.394
52133SOL    HW256424   9.748   1.981   5.496
52134SOL     OW56425   9.883   2.732   4.753
52134SOL    HW156426   9.927   2.821   4.744
52134SOL    HW256427   9.820   2.732   4.830
52135SOL     OW56428  10.670   2.724   4.769
52135SOL    HW156429  10.595   2.724   4.703
52135SOL    HW256430  10.707   2.632   4.778
52136SOL     OW56431  10.519   2.387   3.999
52136SOL    HW156432  10.532   2.303   4.053
52136SOL    HW256433  10.490   2.461   4.059
52137SOL     OW56434   9.617   2.075   4.955
52137SOL    HW156435   9.594   2.112   5.045
52137SOL    HW256436   9.587   1.980   4.949
52138SOL     OW56437   9.347   3.172   5.006
52138SOL    HW156438   9.400   3.123   5.074
52138SOL    HW256439   9.369   3.270   5.011
52139SOL     OW56440  10.042   2.496   4.788
52139SOL    HW156441  10.101   2.470   4.712
52139SOL    HW256442  10.014   2.592   4.777
52140SOL     OW56443  11.038   2.797   5.578
52140SOL    HW156444  10.992   2.790   5.489
52140SOL    HW256445  10.976   2.841   5.644
52141SOL     OW56446   9.617   1.925   4.342
52141SOL    HW156447   9.606   2.019   4.375
52141SOL    HW256448   9.612   1.862   4.419
52142SOL     OW56449  10.932   2.229   4.098
52142SOL    HW156450  10.934   2.153   4.162
52142SOL    HW256451  10.884   2.306   4.138
52143SOL     OW56452  10.333   2.628   4.690
52143SOL    HW156453  10.348   2.649   4.786
52143SOL    HW256454  10.303   2.533   4.681
52144SOL     OW56455  10.290   3.435   5.424
52144SOL    HW156456  10.270   3.479   5.336
52144SOL    HW256457  10.329   3.344   5.408
52145SOL     OW56458  11.169   3.380   5.329
52145SOL    HW156459  11.183   3.407   5.234
52145SOL    HW256460  11.252   3.402   5.382
52146SOL     OW56461   9.660   2.760   5.528
52146SOL    HW156462   9.736   2.804   5.576
52146SOL    HW256463   9.695   2.713   5.446
52147SOL     OW56464  10.850   2.136   3.849
52147SOL    HW156465  10.789   2.061   3.872
52147SOL    HW256466  10.872   2.188   3.932
52148SOL     OW56467  10.613   2.700   3.766
52148SOL    HW156468  10.647   2.607   3.781
52148SOL    HW256469  10.631   2.727   3.671
52149SOL     OW56470  10.378   3.195   4.573
52149SOL    HW156471  10.385   3.111   4.518
52149SOL    HW256472  10.440   3.264   4.537
52150SOL     OW56473   9.629   2.672   4.673
52150SOL    HW156474   9.722   2.708   4.678
52150SOL    HW256475   9.623   2.587   4.725
52151SOL     OW56476   9.649   2.371   4.730
52151SOL    HW156477   9.597   2.288   4.713
52151SOL    HW256478   9.726   2.376   4.666
52152SOL     OW56479  10.448   2.242   5.402
52152SOL    HW156480  10.403   2.305   5.466
52152SOL    HW256481  10.541   2.273   5.385
52153SOL     OW56482  10.470   2.069   5.201
52153SOL    HW156483  10.470   2.133   5.278
52153SOL    HW256484  10.498   2.117   5.118
52154SOL     OW56485   9.318   3.188   3.924
52154SOL    HW156486   9.225   3.209   3.893
52154SOL    HW256487   9.328   3.089   3.937
52155SOL     OW56488   9.398   3.663   4.651
52155SOL    HW156489   9.356   3.577   4.624
52155SOL    HW256490   9.492   3.666   4.617
52156SOL     OW56491   9.814   3.430   4.634
52156SOL    HW156492   9.880   3.504   4.643
52156SOL    HW256493   9.858   3.351   4.592
52157SOL     OW56494  10.312   2.658   4.962
52157SOL    HW156495  10.353   2.626   5.048
52157SOL    HW256496  10.216   2.631   4.959
52158SOL     OW56497   9.350   2.406   4.838
52158SOL    HW156498   9.435   2.373   4.797
52158SOL    HW256499   9.363   2.421   4.936
52159SOL     OW56500   9.499   2.382   5.446
52159SOL    HW156501   9.558   2.342   5.376
52159SOL    HW256502   9.441   2.453   5.405
52160SOL     OW56503  10.679   2.812   5.384
52160SOL    HW156504  10.718   2.901   5.404
52160SOL    HW256505  10.689   2.792   5.287
52161SOL     OW56506  10.125   2.434   4.049
52161SOL    HW156507  10.132   2.345   4.003
52161SOL    HW256508  10.031   2.468   4.041
52162SOL     OW56509  10.967   2.466   4.930
52162SOL    HW156510  10.929   2.397   4.992
52162SOL    HW256511  11.049   2.430   4.886
52163SOL     OW56512   9.562   3.426   5.468
52163SOL    HW156513   9.532   3.483   5.544
52163SOL    HW256514   9.555   3.329   5.494
52164SOL     OW56515   9.981   2.326   4.993
52164SOL    HW156516   9.947   2.237   4.963
52164SOL    HW256517  10.007   2.380   4.913
52165SOL     OW56518  10.240   3.540   5.189
52165SOL    HW156519  10.216   3.522   5.094
52165SOL    HW256520  10.270   3.634   5.199
52166SOL     OW56521   9.783   2.362   3.915
52166SOL    HW156522   9.844   2.442   3.919
52166SOL    HW256523   9.688   2.393   3.922
52167SOL     OW56524   9.469   2.999   5.190
52167SOL    HW156525   9.491   2.938   5.266
52167SOL    HW256526   9.479   2.950   5.104
52168SOL     OW56527  10.657   2.921   4.958
52168SOL    HW156528  10.681   2.858   4.884
52168SOL    HW256529  10.567   2.961   4.940
52169SOL     OW56530  10.612   2.717   4.033
52169SOL    HW156531  10.526   2.686   4.075
52169SOL    HW256532  10.608   2.703   3.934
52170SOL     OW56533  11.069   3.609   4.878
52170SOL    HW156534  11.130   3.639   4.805
52170SOL    HW256535  11.031   3.520   4.856
52171SOL     OW56536  10.562   3.593   4.852
52171SOL    HW156537  10.646   3.598   4.798
52171SOL    HW256538  10.539   3.497   4.870
52172SOL     OW56539   9.393   3.120   4.746
52172SOL    HW156540   9.388   3.119   4.846
52172SOL    HW256541   9.310   3.079   4.708
52173SOL     OW56542   9.998   3.524   5.440
52173SOL    HW156543   9.942   3.605   5.449
52173SOL    HW256544  10.050   3.528   5.354
52174SOL     OW56545  11.036   1.997   4.247
52174SOL    HW156546  11.109   1.980   4.180
52174SOL    HW256547  11.005   1.910   4.285
52175SOL     OW56548  10.698   3.435   4.201
52175SOL    HW156549  10.765   3.447   4.127
52175SOL    HW256550  10.658   3.524   4.224
52176SOL     OW56551   9.440   3.656   5.575
52176SOL    HW156552   9.399   3.582   5.628
52176SOL    HW256553   9.504   3.707   5.633
52177SOL     OW56554  10.590   2.789   4.396
52177SOL    HW156555  10.650   2.708   4.398
52177SOL    HW256556  10.630   2.858   4.336
52178SOL     OW56557  10.140   3.135   5.146
52178SOL    HW156558  10.135   3.168   5.241
52178SOL    HW256559  10.054   3.154   5.100
52179SOL     OW56560   9.982   3.478   3.878
52179SOL    HW156561   9.991   3.488   3.779
52179SOL    HW256562   9.942   3.389   3.899
52180SOL     OW56563  10.960   3.582   5.118
52180SOL    HW156564  11.013   3.592   5.034
52180SOL    HW256565  10.933   3.672   5.152
52181SOL     OW56566  11.151   2.037   4.687
52181SOL    HW156567  11.190   1.952   4.651
52181SOL    HW256568  11.053   2.039   4.668
52182SOL     OW56569   9.573   2.188   4.444
52182SOL    HW156570   9.494   2.239   4.410
52182SOL    HW256571   9.564   2.173   4.542
52183SOL     OW56572  10.504   3.474   3.755
52183SOL    HW156573  10.510   3.381   3.792
52183SOL    HW256574  10.445   3.474   3.675
52184SOL     OW56575  10.132   2.864   5.096
52184SOL    HW156576  10.172   2.863   5.004
52184SOL    HW256577  10.142   2.956   5.136
52185SOL     OW56578  10.226   2.772   4.015
52185SOL    HW156579  10.289   2.810   3.947
52185SOL    HW256580  10.266   2.689   4.054
52186SOL     OW56581  10.814   3.469   3.768
52186SOL    HW156582  10.722   3.506   3.775
52186SOL    HW256583  10.852   3.489   3.678
52187SOL     OW56584   9.682   3.150   5.214
52187SOL    HW156585   9.669   3.243   5.180
52187SOL    HW256586   9.598   3.098   5.201
52188SOL     OW56587  10.924   3.154   5.013
52188SOL    HW156588  10.984   3.157   5.093
52188SOL    HW256589  10.849   3.218   5.026
52189SOL     OW56590  10.349   2.960   4.420
52189SOL    HW156591  10.279   2.913   4.474
52189SOL    HW256592  10.408   2.892   4.377
52190SOL     OW56593  10.324   2.098   4.695
52190SOL    HW156594  10.316   2.062   4.602
52190SOL    HW256595  10.322   2.022   4.760
52191SOL     OW56596   9.900   3.349   4.215
52191SOL    HW156597   9.942   3.291   4.145
52191SOL    HW256598   9.856   3.428   4.171
52192SOL     OW56599  11.019   2.247   5.105
52192SOL    HW156600  11.092   2.316   5.109
52192SOL    HW256601  11.047   2.172   5.046
52193SOL     OW56602   9.565   3.210   4.014
52193SOL    HW156603   9.469   3.211   3.987
52193SOL    HW256604   9.577   3.263   4.098
52194SOL     OW56605   9.415   2.875   5.450
52194SOL    HW156606   9.338   2.842   5.504
52194SOL    HW256607   9.500   2.845   5.492
52195SOL     OW56608   9.982   2.065   5.213
52195SOL    HW156609  10.072   2.049   5.173
52195SOL    HW256610   9.990   2.070   5.312
52196SOL     OW56611   9.385   2.207   3.757
52196SOL    HW156612   9.293   2.179   3.728
52196SOL    HW256613   9.416   2.284   3.701
52197SOL     OW56614  10.750   2.718   5.122
52197SOL    HW156615  10.693   2.770   5.059
52197SOL    HW256616  10.846   2.730   5.098
52198SOL     OW56617   9.382   2.028   4.042
52198SOL    HW156618   9.365   2.111   3.988
52198SOL    HW256619   9.472   1.991   4.020
52199SOL     OW56620  10.493   3.197   3.843
52199SOL    HW156621  10.394   3.186   3.845
52199SOL    HW256622  10.527   3.212   3.936
52200SOL     OW56623   9.923   2.704   5.155
52200SOL    HW156624   9.979   2.785   5.138
52200SOL    HW256625   9.982   2.624   5.158
52201SOL     OW56626  10.803   3.629   4.683
52201SOL    HW156627  10.836   3.693   4.614
52201SOL    HW256628  10.869   3.623   4.758
52202SOL     OW56629  10.026   2.427   5.432
52202SOL    HW156630  10.045   2.492   5.506
52202SOL    HW256631  10.086   2.347   5.441
52203SOL     OW56632  10.760   3.082   5.357
52203SOL    HW156633  10.751   3.072   5.456
52203SOL    HW256634  10.856   3.075   5.331
52204SOL     OW56635   9.700   3.603   5.284
52204SOL    HW156636   9.609   3.644   5.282
52204SOL    HW256637   9.693   3.509   5.316
52205SOL     OW56638  10.984   2.745   4.978
52205SOL    HW156639  10.957   2.656   4.941
52205SOL    HW256640  10.985   2.813   4.905
52206SOL     OW56641  10.535   2.187   4.173
52206SOL    HW156642  10.600   2.113   4.162
52206SOL    HW256643  10.555   2.237   4.257
52207SOL     OW56644   9.904   2.607   4.376
52207SOL    HW156645   9.954   2.692   4.357
52207SOL    HW256646   9.816   2.609   4.328
52208SOL     OW56647  11.087   2.204   5.366
52208SOL    HW156648  11.070   2.235   5.272
52208SOL    HW256649  11.003   2.167   5.404
52209SOL     OW56650  11.040   2.796   5.241
52209SOL    HW156651  11.078   2.887   5.256
52209SOL    HW256652  11.032   2.779   5.142
52210SOL     OW56653  10.169   3.236   3.740
52210SOL    HW156654  10.123   3.251   3.828
52210SOL    HW256655  10.213   3.321   3.710
52211SOL     OW56656   9.971   3.652   4.677
52211SOL    HW156657   9.925   3.740   4.664
52211SOL    HW256658  10.070   3.664   4.670
52212SOL     OW56659  10.169   2.818   4.585
52212SOL    HW156660  10.223   2.749   4.633
52212SOL    HW256661  10.137   2.887   4.651
52213SOL     OW56662  10.393   2.846   3.811
52213SOL    HW156663  10.370   2.899   3.729
52213SOL    HW256664  10.474   2.790   3.792
52214SOL     OW56665  11.171   3.431   4.575
52214SOL    HW156666  11.100   3.419   4.505
52214SOL    HW256667  11.172   3.352   4.635
52215SOL     OW56668   9.531   3.176   5.568
52215SOL    HW156669   9.466   3.103   5.547
52215SOL    HW256670   9.535   3.190   5.666
52216SOL     OW56671   9.389   3.102   4.377
52216SOL    HW156672   9.388   3.055   4.465
52216SOL    HW256673   9.471   3.074   4.326
52217SOL     OW56674   9.982   3.253   5.348
52217SOL    HW156675   9.904   3.203   5.386
52217SOL    HW256676   9.979   3.348   5.379
52218SOL     OW56677  11.134   2.054   4.951
52218SOL    HW156678  11.130   1.964   4.995
52218SOL    HW256679  11.137   2.043   4.852
52219SOL     OW56680   9.738   2.286   4.244
52219SOL    HW156681   9.768   2.214   4.182
52219SOL    HW256682   9.699   2.246   4.327
52220SOL     OW56683  11.015   3.349   4.828
52220SOL    HW156684  10.922   3.324   4.801
52220SOL    HW256685  11.041   3.299   4.910
52221SOL     OW56686   9.627   2.409   5.004
52221SOL    HW156687   9.665   2.350   5.076
52221SOL    HW256688   9.667   2.383   4.916
52222SOL     OW56689  10.122   3.448   4.411
52222SOL    HW156690  10.154   3.458   4.317
52222SOL    HW256691  10.043   3.386   4.413
52223SOL     OW56692  10.734   2.076   4.836
52223SOL    HW156693  10.786   2.011   4.891
52223SOL    HW256694  10.685   2.139   4.897
52224SOL     OW56695  10.311   1.896   4.878
52224SOL    HW156696  10.248   1.824   4.847
52224SOL    HW256697  10.404   1.860   4.878
52225SOL     OW56698  10.080   3.192   4.025
52225SOL    HW156699  10.034   3.105   4.042
52225SOL    HW256700  10.171   3.189   4.066
52226SOL     OW56701   9.928   3.429   5.008
52226SOL    HW156702   9.923   3.511   5.065
52226SOL    HW256703  10.017   3.426   4.963
52227SOL     OW56704  10.662   1.914   3.892
52227SOL    HW156705  10.697   1.873   3.808
52227SOL    HW256706  10.572   1.876   3.912
52228SOL     OW56707  10.610   2.315   4.415
52228SOL    HW156708  10.551   2.395   4.419
52228SOL    HW256709  10.625   2.280   4.508
52229SOL     OW56710  10.903   2.083   4.606
52229SOL    HW156711  10.819   2.082   4.660
52229SOL    HW256712  10.905   2.166   4.550
52230SOL     OW56713   9.349   2.939   4.024
52230SOL    HW156714   9.448   2.928   4.015
52230SOL    HW256715   9.309   2.853   4.056
52231SOL     OW56716  10.185   3.508   4.061
52231SOL    HW156717  10.108   3.473   4.007
52231SOL    HW256718  10.153   3.579   4.123
52232SOL     OW56719   9.540   2.490   5.699
52232SOL    HW156720   9.447   2.488   5.736
52232SOL    HW256721   9.541   2.451   5.607
52233SOL     OW56722   9.535   2.137   6.582
52233SOL    HW156723   9.570   2.120   6.674
52233SOL    HW256724   9.447   2.092   6.570
52234SOL     OW56725   9.329   2.230   6.233
52234SOL    HW156726   9.247   2.273   6.272
52234SOL    HW256727   9.301   2.157   6.170
52235SOL     OW56728   9.879   3.137   6.751
52235SOL    HW156729   9.786   3.130   6.714
52235SOL    HW256730   9.890   3.226   6.795
52236SOL     OW56731  10.865   3.373   6.289
52236SOL    HW156732  10.808   3.357   6.370
52236SOL    HW256733  10.806   3.383   6.209
52237SOL     OW56734  10.445   2.565   6.303
52237SOL    HW156735  10.502   2.643   6.278
52237SOL    HW256736  10.385   2.591   6.379
52238SOL     OW56737  11.065   2.469   5.817
52238SOL    HW156738  11.053   2.456   5.718
52238SOL    HW256739  11.035   2.388   5.866
52239SOL     OW56740  10.078   3.006   6.609
52239SOL    HW156741  10.000   3.023   6.669
52239SOL    HW256742  10.112   3.093   6.573
52240SOL     OW56743  10.160   2.660   7.409
52240SOL    HW156744  10.156   2.736   7.474
52240SOL    HW256745  10.182   2.696   7.318
52241SOL     OW56746   9.995   2.874   6.251
52241SOL    HW156747  10.064   2.858   6.321
52241SOL    HW256748   9.922   2.931   6.289
52242SOL     OW56749   9.996   3.023   7.389
52242SOL    HW156750  10.056   3.102   7.403
52242SOL    HW256751   9.910   3.054   7.348
52243SOL     OW56752   9.645   3.297   6.647
52243SOL    HW156753   9.567   3.266   6.594
52243SOL    HW256754   9.703   3.355   6.590
52244SOL     OW56755  10.770   3.367   6.925
52244SOL    HW156756  10.794   3.461   6.951
52244SOL    HW256757  10.754   3.313   7.007
52245SOL     OW56758   9.748   2.254   7.085
52245SOL    HW156759   9.830   2.198   7.094
52245SOL    HW256760   9.667   2.196   7.089
52246SOL     OW56761  10.913   2.309   6.323
52246SOL    HW156762  10.839   2.355   6.273
52246SOL    HW256763  10.964   2.377   6.376
52247SOL     OW56764   9.541   3.575   6.069
52247SOL    HW156765   9.575   3.652   6.123
52247SOL    HW256766   9.585   3.575   5.979
52248SOL     OW56767  10.437   3.203   7.276
52248SOL    HW156768  10.484   3.203   7.364
52248SOL    HW256769  10.389   3.116   7.265
52249SOL     OW56770   9.540   3.296   6.124
52249SOL    HW156771   9.514   3.392   6.124
52249SOL    HW256772   9.469   3.242   6.169
52250SOL     OW56773   9.550   2.953   6.472
52250SOL    HW156774   9.564   2.869   6.524
52250SOL    HW256775   9.495   3.017   6.527
52251SOL     OW56776   9.930   3.648   7.025
52251SOL    HW156777   9.838   3.631   7.060
52251SOL    HW256778   9.958   3.740   7.051
52252SOL     OW56779   9.916   2.826   5.709
52252SOL    HW156780   9.923   2.910   5.655
52252SOL    HW256781   9.962   2.839   5.797
52253SOL     OW56782  10.904   1.976   7.066
52253SOL    HW156783  10.886   2.043   6.994
52253SOL    HW256784  10.901   2.022   7.155
52254SOL     OW56785   9.432   2.505   6.149
52254SOL    HW156786   9.387   2.417   6.166
52254SOL    HW256787   9.431   2.559   6.233
52255SOL     OW56788  11.152   3.629   5.945
52255SOL    HW156789  11.206   3.600   6.025
52255SOL    HW256790  11.182   3.719   5.916
52256SOL     OW56791   9.337   3.458   5.703
52256SOL    HW156792   9.318   3.362   5.724
52256SOL    HW256793   9.304   3.516   5.778
52257SOL     OW56794  10.999   2.784   6.198
52257SOL    HW156795  11.094   2.755   6.206
52257SOL    HW256796  10.991   2.849   6.123
52258SOL     OW56797  10.951   2.970   6.018
52258SOL    HW156798  11.037   2.972   5.966
52258SOL    HW256799  10.965   3.017   6.106
52259SOL     OW56800   9.423   2.599   7.183
52259SOL    HW156801   9.511   2.586   7.228
52259SOL    HW256802   9.410   2.696   7.161
52260SOL     OW56803   9.923   3.227   6.312
52260SOL    HW156804   9.874   3.140   6.321
52260SOL    HW256805   9.900   3.270   6.225
52261SOL     OW56806  10.603   3.090   7.009
52261SOL    HW156807  10.640   3.017   6.951
52261SOL    HW256808  10.655   3.095   7.094
52262SOL     OW56809  10.119   1.866   6.088
52262SOL    HW156810  10.159   1.957   6.079
52262SOL    HW256811  10.019   1.874   6.094
52263SOL     OW56812   9.507   2.838   6.850
52263SOL    HW156813   9.596   2.793   6.836
52263SOL    HW256814   9.434   2.773   6.831
52264SOL     OW56815  10.835   2.861   5.776
52264SOL    HW156816  10.772   2.785   5.789
52264SOL    HW256817  10.883   2.879   5.862
52265SOL     OW56818  10.497   3.654   7.202
52265SOL    HW156819  10.521   3.714   7.126
52265SOL    HW256820  10.504   3.559   7.172
52266SOL     OW56821   9.627   2.113   7.387
52266SOL    HW156822   9.698   2.184   7.393
52266SOL    HW256823   9.539   2.152   7.415
52267SOL     OW56824  10.776   3.279   6.539
52267SOL    HW156825  10.717   3.285   6.619
52267SOL    HW256826  10.761   3.191   6.493
52268SOL     OW56827  10.977   3.576   6.158
52268SOL    HW156828  10.936   3.553   6.070
52268SOL    HW256829  10.959   3.502   6.223
52269SOL     OW56830   9.908   2.591   5.856
52269SOL    HW156831   9.932   2.660   5.788
52269SOL    HW256832   9.830   2.624   5.910
52270SOL     OW56833  10.591   2.207   6.530
52270SOL    HW156834  10.505   2.157   6.517
52270SOL    HW256835  10.653   2.153   6.586
52271SOL     OW56836  10.886   3.524   5.893
52271SOL    HW156837  10.975   3.570   5.896
52271SOL    HW256838  10.865   3.500   5.798
52272SOL     OW56839  10.117   2.467   7.051
52272SOL    HW156840  10.070   2.464   7.140
52272SOL    HW256841  10.066   2.412   6.985
52273SOL     OW56842  10.704   2.331   7.260
52273SOL    HW156843  10.684   2.374   7.348
52273SOL    HW256844  10.782   2.269   7.269
52274SOL     OW56845  10.283   2.752   7.158
52274SOL    HW156846  10.329   2.668   7.129
52274SOL    HW256847  10.227   2.786   7.083
52275SOL     OW56848  10.301   2.272   6.828
52275SOL    HW156849  10.224   2.306   6.882
52275SOL    HW256850  10.267   2.221   6.749
52276SOL     OW56851  10.351   2.563   6.015
52276SOL    HW156852  10.377   2.559   6.111
52276SOL    HW256853  10.266   2.512   6.001
52277SOL     OW56854   9.386   2.673   6.375
52277SOL    HW156855   9.485   2.661   6.384
52277SOL    HW256856   9.362   2.768   6.396
52278SOL     OW56857   9.440   3.683   7.157
52278SOL    HW156858   9.430   3.668   7.256
52278SOL    HW256859   9.354   3.719   7.121
52279SOL     OW56860  10.175   2.210   5.781
52279SOL    HW156861  10.234   2.273   5.732
52279SOL    HW256862  10.194   2.116   5.752
52280SOL     OW56863  11.029   2.447   7.417
52280SOL    HW156864  11.003   2.536   7.381
52280SOL    HW256865  11.027   2.379   7.344
52281SOL     OW56866  10.672   3.006   6.131
52281SOL    HW156867  10.755   2.977   6.083
52281SOL    HW256868  10.623   3.073   6.075
52282SOL     OW56869   9.860   2.058   6.471
52282SOL    HW156870   9.855   2.053   6.571
52282SOL    HW256871   9.862   2.154   6.442
52283SOL     OW56872  10.318   3.318   6.063
52283SOL    HW156873  10.272   3.390   6.011
52283SOL    HW256874  10.314   3.338   6.161
52284SOL     OW56875   9.661   3.663   6.439
52284SOL    HW156876   9.711   3.577   6.445
52284SOL    HW256877   9.726   3.740   6.436
52285SOL     OW56878  11.105   2.928   6.459
52285SOL    HW156879  11.043   2.913   6.383
52285SOL    HW256880  11.053   2.939   6.544
52286SOL     OW56881  10.537   3.412   7.092
52286SOL    HW156882  10.543   3.335   7.156
52286SOL    HW256883  10.485   3.386   7.012
52287SOL     OW56884   9.631   2.805   5.828
52287SOL    HW156885   9.713   2.844   5.786
52287SOL    HW256886   9.604   2.723   5.779
52288SOL     OW56887  10.768   2.597   6.314
52288SOL    HW156888  10.763   2.532   6.389
52288SOL    HW256889  10.848   2.656   6.327
52289SOL     OW56890   9.771   3.128   7.313
52289SOL    HW156891   9.721   3.129   7.227
52289SOL    HW256892   9.708   3.110   7.389
52290SOL     OW56893  10.421   3.638   5.823
52290SOL    HW156894  10.361   3.576   5.873
52290SOL    HW256895  10.452   3.594   5.738
52291SOL     OW56896   9.512   2.147   7.084
52291SOL    HW156897   9.432   2.207   7.071
52291SOL    HW256898   9.502   2.098   7.170
52292SOL     OW56899  10.942   3.239   5.667
52292SOL    HW156900  10.910   3.333   5.657
52292SOL    HW256901  10.866   3.176   5.655
52293SOL     OW56902   9.774   3.605   5.909
52293SOL    HW156903   9.807   3.644   5.995
52293SOL    HW256904   9.850   3.598   5.844
52294SOL     OW56905  10.710   1.969   6.012
52294SOL    HW156906  10.686   1.932   5.922
52294SOL    HW256907  10.809   1.985   6.016
52295SOL     OW56908   9.559   3.647   6.827
52295SOL    HW156909   9.616   3.582   6.877
52295SOL    HW256910   9.543   3.614   6.734
52296SOL     OW56911  10.250   3.560   6.490
52296SOL    HW156912  10.330   3.503   6.511
52296SOL    HW256913  10.201   3.520   6.413
52297SOL     OW56914   9.692   2.562   6.066
52297SOL    HW156915   9.737   2.472   6.063
52297SOL    HW256916   9.598   2.551   6.099
52298SOL     OW56917  10.857   2.084   7.315
52298SOL    HW156918  10.852   2.121   7.407
52298SOL    HW256919  10.785   2.015   7.303
52299SOL     OW56920   9.924   1.984   5.703
52299SOL    HW156921  10.022   1.962   5.710
52299SOL    HW256922   9.893   1.967   5.610
52300SOL     OW56923  10.091   2.126   7.335
52300SOL    HW156924  10.158   2.065   7.378
52300SOL    HW256925  10.018   2.145   7.400
52301SOL     OW56926  10.198   3.376   6.781
52301SOL    HW156927  10.175   3.351   6.687
52301SOL    HW256928  10.259   3.307   6.820
52302SOL     OW56929  10.661   2.452   7.019
52302SOL    HW156930  10.689   2.409   7.104
52302SOL    HW256931  10.686   2.548   7.020
52303SOL     OW56932  10.113   3.264   6.510
52303SOL    HW156933  10.203   3.278   6.468
52303SOL    HW256934  10.042   3.266   6.439
52304SOL     OW56935  10.232   2.365   6.485
52304SOL    HW156936  10.207   2.356   6.389
52304SOL    HW256937  10.280   2.283   6.516
52305SOL     OW56938   9.849   1.926   6.098
52305SOL    HW156939   9.768   1.927   6.156
52305SOL    HW256940   9.852   2.009   6.043
52306SOL     OW56941  10.744   3.050   5.627
52306SOL    HW156942  10.776   2.974   5.684
52306SOL    HW256943  10.652   3.077   5.657
52307SOL     OW56944   9.607   1.897   5.757
52307SOL    HW156945   9.656   1.981   5.736
52307SOL    HW256946   9.669   1.832   5.802
52308SOL     OW56947  10.245   2.098   6.066
52308SOL    HW156948  10.197   2.139   5.988
52308SOL    HW256949  10.344   2.096   6.047
52309SOL     OW56950  10.386   2.545   7.050
52309SOL    HW156951  10.306   2.484   7.053
52309SOL    HW256952  10.467   2.492   7.026
52310SOL     OW56953  10.537   3.432   6.379
52310SOL    HW156954  10.558   3.506   6.314
52310SOL    HW256955  10.605   3.432   6.452
52311SOL     OW56956   9.769   3.014   6.327
52311SOL    HW156957   9.698   2.987   6.392
52311SOL    HW256958   9.743   2.986   6.234
52312SOL     OW56959  10.581   3.659   6.177
52312SOL    HW156960  10.625   3.723   6.113
52312SOL    HW256961  10.531   3.711   6.247
52313SOL     OW56962  10.342   2.411   5.602
52313SOL    HW156963  10.301   2.493   5.563
52313SOL    HW256964  10.406   2.437   5.675
52314SOL     OW56965   9.388   2.418   6.972
52314SOL    HW156966   9.480   2.417   6.931
52314SOL    HW256967   9.382   2.492   7.039
52315SOL     OW56968   9.871   2.084   6.733
52315SOL    HW156969   9.909   2.000   6.770
52315SOL    HW256970   9.783   2.103   6.777
52316SOL     OW56971  10.176   2.316   6.228
52316SOL    HW156972  10.144   2.388   6.166
52316SOL    HW256973  10.200   2.235   6.175
52317SOL     OW56974  10.327   1.901   6.339
52317SOL    HW156975  10.255   1.906   6.270
52317SOL    HW256976  10.303   1.832   6.408
52318SOL     OW56977  10.739   3.035   6.453
52318SOL    HW156978  10.684   2.951   6.446
52318SOL    HW256979  10.765   3.064   6.361
52319SOL     OW56980  10.776   2.452   6.578
52319SOL    HW156981  10.746   2.357   6.585
52319SOL    HW256982  10.849   2.468   6.644
52320SOL     OW56983  11.167   2.695   5.963
52320SOL    HW156984  11.209   2.631   6.027
52320SOL    HW256985  11.129   2.644   5.885
52321SOL     OW56986   9.798   3.247   5.760
52321SOL    HW156987   9.711   3.232   5.807
52321SOL    HW256988   9.781   3.273   5.665
52322SOL     OW56989  10.974   3.142   6.243
52322SOL    HW156990  11.073   3.150   6.257
52322SOL    HW256991  10.929   3.226   6.274
52323SOL     OW56992  10.700   2.437   5.664
52323SOL    HW156993  10.646   2.416   5.745
52323SOL    HW256994  10.791   2.396   5.673
52324SOL     OW56995   9.837   2.118   5.914
52324SOL    HW156996   9.864   2.059   5.839
52324SOL    HW256997   9.837   2.213   5.883
52325SOL     OW56998  11.064   3.085   7.174
52325SOL    HW156999  11.155   3.046   7.161
52325SOL    HW257000  11.072   3.181   7.198
52326SOL     OW57001  10.374   3.209   6.926
52326SOL    HW157002  10.294   3.186   6.981
52326SOL    HW257003  10.457   3.183   6.975
52327SOL     OW57004  10.902   3.491   7.211
52327SOL    HW157005  10.929   3.525   7.121
52327SOL    HW257006  10.981   3.453   7.257
52328SOL     OW57007  10.421   3.057   6.686
52328SOL    HW157008  10.381   3.101   6.767
52328SOL    HW257009  10.380   3.094   6.603
52329SOL     OW57010  10.948   2.961   6.665
52329SOL    HW157011  10.953   3.042   6.724
52329SOL    HW257012  10.862   2.963   6.614
52330SOL     OW57013  10.225   1.951   6.988
52330SOL    HW157014  10.250   1.931   6.893
52330SOL    HW257015  10.297   2.007   7.030
52331SOL     OW57016  10.290   2.978   7.305
52331SOL    HW157017  10.191   2.984   7.315
52331SOL    HW257018  10.313   2.898   7.249
52332SOL     OW57019  10.015   2.912   5.954
52332SOL    HW157020  10.001   2.919   6.053
52332SOL    HW257021  10.099   2.861   5.936
52333SOL     OW57022   9.720   2.675   6.837
52333SOL    HW157023   9.806   2.687   6.887
52333SOL    HW257024   9.678   2.588   6.864
52334SOL     OW57025  10.584   2.248   6.848
52334SOL    HW157026  10.605   2.322   6.912
52334SOL    HW257027  10.495   2.265   6.805
52335SOL     OW57028   9.374   3.426   6.917
52335SOL    HW157029   9.328   3.508   6.883
52335SOL    HW257030   9.472   3.445   6.926
52336SOL     OW57031   9.677   2.962   6.087
52336SOL    HW157032   9.670   3.045   6.031
52336SOL    HW257033   9.681   2.882   6.027
52337SOL     OW57034   9.876   2.399   6.451
52337SOL    HW157035   9.888   2.465   6.377
52337SOL    HW257036   9.922   2.433   6.534
52338SOL     OW57037  10.562   3.210   5.974
52338SOL    HW157038  10.612   3.287   6.014
52338SOL    HW257039  10.467   3.212   6.006
52339SOL     OW57040  10.582   3.307   6.728
52339SOL    HW157041  10.629   3.320   6.815
52339SOL    HW257042  10.516   3.233   6.737
52340SOL     OW57043  10.892   2.501   6.058
52340SOL    HW157044  10.861   2.562   6.131
52340SOL    HW257045  10.942   2.553   5.989
52341SOL     OW57046   9.664   3.372   6.915
52341SOL    HW157047   9.643   3.328   6.828
52341SOL    HW257048   9.761   3.398   6.918
52342SOL     OW57049   9.712   2.613   7.184
52342SOL    HW157050   9.780   2.668   7.137
52342SOL    HW257051   9.752   2.525   7.211
52343SOL     OW57052  10.897   2.641   7.256
52343SOL    HW157053  10.805   2.679   7.251
52343SOL    HW257054  10.957   2.688   7.191
52344SOL     OW57055  10.323   1.967   7.356
52344SOL    HW157056  10.329   2.052   7.304
52344SOL    HW257057  10.355   1.891   7.299
52345SOL     OW57058   9.814   1.912   7.326
52345SOL    HW157059   9.772   1.855   7.256
52345SOL    HW257060   9.748   1.981   7.358
52346SOL     OW57061   9.883   2.732   6.615
52346SOL    HW157062   9.927   2.821   6.606
52346SOL    HW257063   9.820   2.732   6.692
52347SOL     OW57064  10.670   2.724   6.631
52347SOL    HW157065  10.595   2.724   6.565
52347SOL    HW257066  10.707   2.632   6.640
52348SOL     OW57067  10.519   2.387   5.861
52348SOL    HW157068  10.532   2.303   5.915
52348SOL    HW257069  10.490   2.461   5.921
52349SOL     OW57070   9.617   2.075   6.817
52349SOL    HW157071   9.594   2.112   6.907
52349SOL    HW257072   9.587   1.980   6.811
52350SOL     OW57073   9.347   3.172   6.868
52350SOL    HW157074   9.400   3.123   6.936
52350SOL    HW257075   9.369   3.270   6.873
52351SOL     OW57076  10.042   2.496   6.650
52351SOL    HW157077  10.101   2.470   6.574
52351SOL    HW257078  10.014   2.592   6.639
52352SOL     OW57079  11.038   2.797   7.440
52352SOL    HW157080  10.992   2.790   7.351
52352SOL    HW257081  10.976   2.841   7.506
52353SOL     OW57082   9.617   1.925   6.204
52353SOL    HW157083   9.606   2.019   6.237
52353SOL    HW257084   9.612   1.862   6.281
52354SOL     OW57085  10.932   2.229   5.960
52354SOL    HW157086  10.934   2.153   6.024
52354SOL    HW257087  10.884   2.306   6.000
52355SOL     OW57088  10.333   2.628   6.552
52355SOL    HW157089  10.348   2.649   6.648
52355SOL    HW257090  10.303   2.533   6.543
52356SOL     OW57091  10.290   3.435   7.286
52356SOL    HW157092  10.270   3.479   7.198
52356SOL    HW257093  10.329   3.344   7.270
52357SOL     OW57094  11.169   3.380   7.191
52357SOL    HW157095  11.183   3.407   7.096
52357SOL    HW257096  11.252   3.402   7.244
52358SOL     OW57097   9.660   2.760   7.390
52358SOL    HW157098   9.736   2.804   7.438
52358SOL    HW257099   9.695   2.713   7.308
52359SOL     OW57100  10.850   2.136   5.711
52359SOL    HW157101  10.789   2.061   5.734
52359SOL    HW257102  10.872   2.188   5.794
52360SOL     OW57103  10.613   2.700   5.628
52360SOL    HW157104  10.647   2.607   5.643
52360SOL    HW257105  10.631   2.727   5.533
52361SOL     OW57106  10.378   3.195   6.435
52361SOL    HW157107  10.385   3.111   6.380
52361SOL    HW257108  10.440   3.264   6.399
52362SOL     OW57109   9.629   2.672   6.535
52362SOL    HW157110   9.722   2.708   6.540
52362SOL    HW257111   9.623   2.587   6.587
52363SOL     OW57112   9.649   2.371   6.592
52363SOL    HW157113   9.597   2.288   6.575
52363SOL    HW257114   9.726   2.376   6.528
52364SOL     OW57115  10.448   2.242   7.264
52364SOL    HW157116  10.403   2.305   7.328
52364SOL    HW257117  10.541   2.273   7.247
52365SOL     OW57118  10.470   2.069   7.063
52365SOL    HW157119  10.470   2.133   7.140
52365SOL    HW257120  10.498   2.117   6.980
52366SOL     OW57121   9.318   3.188   5.786
52366SOL    HW157122   9.225   3.209   5.755
52366SOL    HW257123   9.328   3.089   5.799
52367SOL     OW57124   9.398   3.663   6.513
52367SOL    HW157125   9.356   3.577   6.486
52367SOL    HW257126   9.492   3.666   6.479
52368SOL     OW57127   9.814   3.430   6.496
52368SOL    HW157128   9.880   3.504   6.505
52368SOL    HW257129   9.858   3.351   6.454
52369SOL     OW57130  10.312   2.658   6.824
52369SOL    HW157131  10.353   2.626   6.910
52369SOL    HW257132  10.216   2.631   6.821
52370SOL     OW57133   9.350   2.406   6.700
52370SOL    HW157134   9.435   2.373   6.659
52370SOL    HW257135   9.363   2.421   6.798
52371SOL     OW57136   9.499   2.382   7.308
52371SOL    HW157137   9.558   2.342   7.238
52371SOL    HW257138   9.441   2.453   7.267
52372SOL     OW57139  10.679   2.812   7.246
52372SOL    HW157140  10.718   2.901   7.266
52372SOL    HW257141  10.689   2.792   7.149
52373SOL     OW57142  10.125   2.434   5.911
52373SOL    HW157143  10.132   2.345   5.865
52373SOL    HW257144  10.031   2.468   5.903
52374SOL     OW57145  10.967   2.466   6.792
52374SOL    HW157146  10.929   2.397   6.854
52374SOL    HW257147  11.049   2.430   6.748
52375SOL     OW57148   9.562   3.426   7.330
52375SOL    HW157149   9.532   3.483   7.406
52375SOL    HW257150   9.555   3.329   7.356
52376SOL     OW57151   9.981   2.326   6.855
52376SOL    HW157152   9.947   2.237   6.825
52376SOL    HW257153  10.007   2.380   6.775
52377SOL     OW57154  10.240   3.540   7.051
52377SOL    HW157155  10.216   3.522   6.956
52377SOL    HW257156  10.270   3.634   7.061
52378SOL     OW57157   9.783   2.362   5.777
52378SOL    HW157158   9.844   2.442   5.781
52378SOL    HW257159   9.688   2.393   5.784
52379SOL     OW57160   9.469   2.999   7.052
52379SOL    HW157161   9.491   2.938   7.128
52379SOL    HW257162   9.479   2.950   6.966
52380SOL     OW57163  10.657   2.921   6.820
52380SOL    HW157164  10.681   2.858   6.746
52380SOL    HW257165  10.567   2.961   6.802
52381SOL     OW57166  10.612   2.717   5.895
52381SOL    HW157167  10.526   2.686   5.937
52381SOL    HW257168  10.608   2.703   5.796
52382SOL     OW57169  11.069   3.609   6.740
52382SOL    HW157170  11.130   3.639   6.667
52382SOL    HW257171  11.031   3.520   6.718
52383SOL     OW57172  10.562   3.593   6.714
52383SOL    HW157173  10.646   3.598   6.660
52383SOL    HW257174  10.539   3.497   6.732
52384SOL     OW57175   9.393   3.120   6.608
52384SOL    HW157176   9.388   3.119   6.708
52384SOL    HW257177   9.310   3.079   6.570
52385SOL     OW57178   9.998   3.524   7.302
52385SOL    HW157179   9.942   3.605   7.311
52385SOL    HW257180  10.050   3.528   7.216
52386SOL     OW57181  11.036   1.997   6.109
52386SOL    HW157182  11.109   1.980   6.042
52386SOL    HW257183  11.005   1.910   6.147
52387SOL     OW57184  10.698   3.435   6.063
52387SOL    HW157185  10.765   3.447   5.989
52387SOL    HW257186  10.658   3.524   6.086
52388SOL     OW57187   9.440   3.656   7.437
52388SOL    HW157188   9.399   3.582   7.490
52388SOL    HW257189   9.504   3.707   7.495
52389SOL     OW57190  10.590   2.789   6.258
52389SOL    HW157191  10.650   2.708   6.260
52389SOL    HW257192  10.630   2.858   6.198
52390SOL     OW57193  10.140   3.135   7.008
52390SOL    HW157194  10.135   3.168   7.103
52390SOL    HW257195  10.054   3.154   6.962
52391SOL     OW57196   9.982   3.478   5.740
52391SOL    HW157197   9.991   3.488   5.641
52391SOL    HW257198   9.942   3.389   5.761
52392SOL     OW57199  10.960   3.582   6.980
52392SOL    HW157200  11.013   3.592   6.896
52392SOL    HW257201  10.933   3.672   7.014
52393SOL     OW57202  11.151   2.037   6.549
52393SOL    HW157203  11.190   1.952   6.513
52393SOL    HW257204  11.053   2.039   6.530
52394SOL     OW57205   9.573   2.188   6.306
52394SOL    HW157206   9.494   2.239   6.272
52394SOL    HW257207   9.564   2.173   6.404
52395SOL     OW57208  10.504   3.474   5.617
52395SOL    HW157209  10.510   3.381   5.654
52395SOL    HW257210  10.445   3.474   5.537
52396SOL     OW57211  10.132   2.864   6.958
52396SOL    HW157212  10.172   2.863   6.866
52396SOL    HW257213  10.142   2.956   6.998
52397SOL     OW57214  10.226   2.772   5.877
52397SOL    HW157215  10.289   2.810   5.809
52397SOL    HW257216  10.266   2.689   5.916
52398SOL     OW57217  10.814   3.469   5.630
52398SOL    HW157218  10.722   3.506   5.637
52398SOL    HW257219  10.852   3.489   5.540
52399SOL     OW57220   9.682   3.150   7.076
52399SOL    HW157221   9.669   3.243   7.042
52399SOL    HW257222   9.598   3.098   7.063
52400SOL     OW57223  10.924   3.154   6.875
52400SOL    HW157224  10.984   3.157   6.955
52400SOL    HW257225  10.849   3.218   6.888
52401SOL     OW57226  10.349   2.960   6.282
52401SOL    HW157227  10.279   2.913   6.336
52401SOL    HW257228  10.408   2.892   6.239
52402SOL     OW57229  10.324   2.098   6.557
52402SOL    HW157230  10.316   2.062   6.464
52402SOL    HW257231  10.322   2.022   6.622
52403SOL     OW57232   9.900   3.349   6.077
52403SOL    HW157233   9.942   3.291   6.007
52403SOL    HW257234   9.856   3.428   6.033
52404SOL     OW57235  11.019   2.247   6.967
52404SOL    HW157236  11.092   2.316   6.971
52404SOL    HW257237  11.047   2.172   6.908
52405SOL     OW57238   9.565   3.210   5.876
52405SOL    HW157239   9.469   3.211   5.849
52405SOL    HW257240   9.577   3.263   5.960
52406SOL     OW57241   9.415   2.875   7.312
52406SOL    HW157242   9.338   2.842   7.366
52406SOL    HW257243   9.500   2.845   7.354
52407SOL     OW57244   9.982   2.065   7.075
52407SOL    HW157245  10.072   2.049   7.035
52407SOL    HW257246   9.990   2.070   7.174
52408SOL     OW57247   9.385   2.207   5.619
52408SOL    HW157248   9.293   2.179   5.590
52408SOL    HW257249   9.416   2.284   5.563
52409SOL     OW57250  10.750   2.718   6.984
52409SOL    HW157251  10.693   2.770   6.921
52409SOL    HW257252  10.846   2.730   6.960
52410SOL     OW57253   9.382   2.028   5.904
52410SOL    HW157254   9.365   2.111   5.850
52410SOL    HW257255   9.472   1.991   5.882
52411SOL     OW57256  10.493   3.197   5.705
52411SOL    HW157257  10.394   3.186   5.707
52411SOL    HW257258  10.527   3.212   5.798
52412SOL     OW57259   9.923   2.704   7.017
52412SOL    HW157260   9.979   2.785   7.000
52412SOL    HW257261   9.982   2.624   7.020
52413SOL     OW57262  10.803   3.629   6.545
52413SOL    HW157263  10.836   3.693   6.476
52413SOL    HW257264  10.869   3.623   6.620
52414SOL     OW57265  10.026   2.427   7.294
52414SOL    HW157266  10.045   2.492   7.368
52414SOL    HW257267  10.086   2.347   7.303
52415SOL     OW57268  10.760   3.082   7.219
52415SOL    HW157269  10.751   3.072   7.318
52415SOL    HW257270  10.856   3.075   7.193
52416SOL     OW57271   9.700   3.603   7.146
52416SOL    HW157272   9.609   3.644   7.144
52416SOL    HW257273   9.693   3.509   7.178
52417SOL     OW57274  10.984   2.745   6.840
52417SOL    HW157275  10.957   2.656   6.803
52417SOL    HW257276  10.985   2.813   6.767
52418SOL     OW57277  10.535   2.187   6.035
52418SOL    HW157278  10.600   2.113   6.024
52418SOL    HW257279  10.555   2.237   6.119
52419SOL     OW57280   9.904   2.607   6.238
52419SOL    HW157281   9.954   2.692   6.219
52419SOL    HW257282   9.816   2.609   6.190
52420SOL     OW57283  11.087   2.204   7.228
52420SOL    HW157284  11.070   2.235   7.134
52420SOL    HW257285  11.003   2.167   7.266
52421SOL     OW57286  11.040   2.796   7.103
52421SOL    HW157287  11.078   2.887   7.118
52421SOL    HW257288  11.032   2.779   7.004
52422SOL     OW57289  10.169   3.236   5.602
52422SOL    HW157290  10.123   3.251   5.690
52422SOL    HW257291  10.213   3.321   5.572
52423SOL     OW57292   9.971   3.652   6.539
52423SOL    HW157293   9.925   3.740   6.526
52423SOL    HW257294  10.070   3.664   6.532
52424SOL     OW57295  10.169   2.818   6.447
52424SOL    HW157296  10.223   2.749   6.495
52424SOL    HW257297  10.137   2.887   6.513
52425SOL     OW57298  10.393   2.846   5.673
52425SOL    HW157299  10.370   2.899   5.591
52425SOL    HW257300  10.474   2.790   5.654
52426SOL     OW57301  11.171   3.431   6.437
52426SOL    HW157302  11.100   3.419   6.367
52426SOL    HW257303  11.172   3.352   6.497
52427SOL     OW57304   9.531   3.176   7.430
52427SOL    HW157305   9.466   3.103   7.409
52427SOL    HW257306   9.535   3.190   7.528
52428SOL     OW57307   9.389   3.102   6.239
52428SOL    HW157308   9.388   3.055   6.327
52428SOL    HW257309   9.471   3.074   6.188
52429SOL     OW57310   9.982   3.253   7.210
52429SOL    HW157311   9.904   3.203   7.248
52429SOL    HW257312   9.979   3.348   7.241
52430SOL     OW57313  11.134   2.054   6.813
52430SOL    HW157314  11.130   1.964   6.857
52430SOL    HW257315  11.137   2.043   6.714
52431SOL     OW57316   9.738   2.286   6.106
52431SOL    HW157317   9.768   2.214   6.044
52431SOL    HW257318   9.699   2.246   6.189
52432SOL     OW57319  11.015   3.349   6.690
52432SOL    HW157320  10.922   3.324   6.663
52432SOL    HW257321  11.041   3.299   6.772
52433SOL     OW57322   9.627   2.409   6.866
52433SOL    HW157323   9.665   2.350   6.938
52433SOL    HW257324   9.667   2.383   6.778
52434SOL     OW57325  10.122   3.448   6.273
52434SOL    HW157326  10.154   3.458   6.179
52434SOL    HW257327  10.043   3.386   6.275
52435SOL     OW57328  10.734   2.076   6.698
52435SOL    HW157329  10.786   2.011   6.753
52435SOL    HW257330  10.685   2.139   6.759
52436SOL     OW57331  10.311   1.896   6.740
52436SOL    HW157332  10.248   1.824   6.709
52436SOL    HW257333  10.404   1.860   6.740
52437SOL     OW57334  10.080   3.192   5.887
52437SOL    HW157335  10.034   3.105   5.904
52437SOL    HW257336  10.171   3.189   5.928
52438SOL     OW57337   9.928   3.429   6.870
52438SOL    HW157338   9.923   3.511   6.927
52438SOL    HW257339  10.017   3.426   6.825
52439SOL     OW57340  10.662   1.914   5.754
52439SOL    HW157341  10.697   1.873   5.670
52439SOL    HW257342  10.572   1.876   5.774
52440SOL     OW57343  10.610   2.315   6.277
52440SOL    HW157344  10.551   2.395   6.281
52440SOL    HW257345  10.625   2.280   6.370
52441SOL     OW57346  10.903   2.083   6.468
52441SOL    HW157347  10.819   2.082   6.522
52441SOL    HW257348  10.905   2.166   6.412
52442SOL     OW57349   9.349   2.939   5.886
52442SOL    HW157350   9.448   2.928   5.877
52442SOL    HW257351   9.309   2.853   5.918
52443SOL     OW57352  10.185   3.508   5.923
52443SOL    HW157353  10.108   3.473   5.869
52443SOL    HW257354  10.153   3.579   5.985
52444SOL     OW57355   9.540   2.490   7.561
52444SOL    HW157356   9.447   2.488   7.598
52444SOL    HW257357   9.541   2.451   7.469
52445SOL     OW57358   9.535   2.137   8.444
52445SOL    HW157359   9.570   2.120   8.536
52445SOL    HW257360   9.447   2.092   8.432
52446SOL     OW57361   9.329   2.230   8.095
52446SOL    HW157362   9.247   2.273   8.134
52446SOL    HW257363   9.301   2.157   8.032
52447SOL     OW57364   9.879   3.137   8.613
52447SOL    HW157365   9.786   3.130   8.576
52447SOL    HW257366   9.890   3.226   8.657
52448SOL     OW57367  10.865   3.373   8.151
52448SOL    HW157368  10.808   3.357   8.232
52448SOL    HW257369  10.806   3.383   8.071
52449SOL     OW57370  10.445   2.565   8.165
52449SOL    HW157371  10.502   2.643   8.140
52449SOL    HW257372  10.385   2.591   8.241
52450SOL     OW57373  11.065   2.469   7.679
52450SOL    HW157374  11.053   2.456   7.580
52450SOL    HW257375  11.035   2.388   7.728
52451SOL     OW57376  10.078   3.006   8.471
52451SOL    HW157377  10.000   3.023   8.531
52451SOL    HW257378  10.112   3.093   8.435
52452SOL     OW57379  10.160   2.660   9.271
52452SOL    HW157380  10.156   2.736   9.336
52452SOL    HW257381  10.182   2.696   9.180
52453SOL     OW57382   9.995   2.874   8.113
52453SOL    HW157383  10.064   2.858   8.183
52453SOL    HW257384   9.922   2.931   8.151
52454SOL     OW57385   9.996   3.023   9.251
52454SOL    HW157386  10.056   3.102   9.265
52454SOL    HW257387   9.910   3.054   9.210
52455SOL     OW57388   9.645   3.297   8.509
52455SOL    HW157389   9.567   3.266   8.456
52455SOL    HW257390   9.703   3.355   8.452
52456SOL     OW57391  10.770   3.367   8.787
52456SOL    HW157392  10.794   3.461   8.813
52456SOL    HW257393  10.754   3.313   8.869
52457SOL     OW57394   9.748   2.254   8.947
52457SOL    HW157395   9.830   2.198   8.956
52457SOL    HW257396   9.667   2.196   8.951
52458SOL     OW57397  10.913   2.309   8.185
52458SOL    HW157398  10.839   2.355   8.135
52458SOL    HW257399  10.964   2.377   8.238
52459SOL     OW57400   9.541   3.575   7.931
52459SOL    HW157401   9.575   3.652   7.985
52459SOL    HW257402   9.585   3.575   7.841
52460SOL     OW57403  10.437   3.203   9.138
52460SOL    HW157404  10.484   3.203   9.226
52460SOL    HW257405  10.389   3.116   9.127
52461SOL     OW57406   9.540   3.296   7.986
52461SOL    HW157407   9.514   3.392   7.986
52461SOL    HW257408   9.469   3.242   8.031
52462SOL     OW57409   9.550   2.953   8.334
52462SOL    HW157410   9.564   2.869   8.386
52462SOL    HW257411   9.495   3.017   8.389
52463SOL     OW57412   9.930   3.648   8.887
52463SOL    HW157413   9.838   3.631   8.922
52463SOL    HW257414   9.958   3.740   8.913
52464SOL     OW57415   9.916   2.826   7.571
52464SOL    HW157416   9.923   2.910   7.517
52464SOL    HW257417   9.962   2.839   7.659
52465SOL     OW57418  10.904   1.976   8.928
52465SOL    HW157419  10.886   2.043   8.856
52465SOL    HW257420  10.901   2.022   9.017
52466SOL     OW57421   9.432   2.505   8.011
52466SOL    HW157422   9.387   2.417   8.028
52466SOL    HW257423   9.431   2.559   8.095
52467SOL     OW57424  11.152   3.629   7.807
52467SOL    HW157425  11.206   3.600   7.887
52467SOL    HW257426  11.182   3.719   7.778
52468SOL     OW57427   9.337   3.458   7.565
52468SOL    HW157428   9.318   3.362   7.586
52468SOL    HW257429   9.304   3.516   7.640
52469SOL     OW57430  10.999   2.784   8.060
52469SOL    HW157431  11.094   2.755   8.068
52469SOL    HW257432  10.991   2.849   7.985
52470SOL     OW57433  10.951   2.970   7.880
52470SOL    HW157434  11.037   2.972   7.828
52470SOL    HW257435  10.965   3.017   7.968
52471SOL     OW57436   9.423   2.599   9.045
52471SOL    HW157437   9.511   2.586   9.090
52471SOL    HW257438   9.410   2.696   9.023
52472SOL     OW57439   9.923   3.227   8.174
52472SOL    HW157440   9.874   3.140   8.183
52472SOL    HW257441   9.900   3.270   8.087
52473SOL     OW57442  10.603   3.090   8.871
52473SOL    HW157443  10.640   3.017   8.813
52473SOL    HW257444  10.655   3.095   8.956
52474SOL     OW57445  10.119   1.866   7.950
52474SOL    HW157446  10.159   1.957   7.941
52474SOL    HW257447  10.019   1.874   7.956
52475SOL     OW57448   9.507   2.838   8.712
52475SOL    HW157449   9.596   2.793   8.698
52475SOL    HW257450   9.434   2.773   8.693
52476SOL     OW57451  10.835   2.861   7.638
52476SOL    HW157452  10.772   2.785   7.651
52476SOL    HW257453  10.883   2.879   7.724
52477SOL     OW57454  10.497   3.654   9.064
52477SOL    HW157455  10.521   3.714   8.988
52477SOL    HW257456  10.504   3.559   9.034
52478SOL     OW57457   9.627   2.113   9.249
52478SOL    HW157458   9.698   2.184   9.255
52478SOL    HW257459   9.539   2.152   9.277
52479SOL     OW57460  10.776   3.279   8.401
52479SOL    HW157461  10.717   3.285   8.481
52479SOL    HW257462  10.761   3.191   8.355
52480SOL     OW57463  10.977   3.576   8.020
52480SOL    HW157464  10.936   3.553   7.932
52480SOL    HW257465  10.959   3.502   8.085
52481SOL     OW57466   9.908   2.591   7.718
52481SOL    HW157467   9.932   2.660   7.650
52481SOL    HW257468   9.830   2.624   7.772
52482SOL     OW57469  10.591   2.207   8.392
52482SOL    HW157470  10.505   2.157   8.379
52482SOL    HW257471  10.653   2.153   8.448
52483SOL     OW57472  10.886   3.524   7.755
52483SOL    HW157473  10.975   3.570   7.758
52483SOL    HW257474  10.865   3.500   7.660
52484SOL     OW57475  10.117   2.467   8.913
52484SOL    HW157476  10.070   2.464   9.002
52484SOL    HW257477  10.066   2.412   8.847
52485SOL     OW57478  10.704   2.331   9.122
52485SOL    HW157479  10.684   2.374   9.210
52485SOL    HW257480  10.782   2.269   9.131
52486SOL     OW57481  10.283   2.752   9.020
52486SOL    HW157482  10.329   2.668   8.991
52486SOL    HW257483  10.227   2.786   8.945
52487SOL     OW57484  10.301   2.272   8.690
52487SOL    HW157485  10.224   2.306   8.744
52487SOL    HW257486  10.267   2.221   8.611
52488SOL     OW57487  10.351   2.563   7.877
52488SOL    HW157488  10.377   2.559   7.973
52488SOL    HW257489  10.266   2.512   7.863
52489SOL     OW57490   9.386   2.673   8.237
52489SOL    HW157491   9.485   2.661   8.246
52489SOL    HW257492   9.362   2.768   8.258
52490SOL     OW57493   9.440   3.683   9.019
52490SOL    HW157494   9.430   3.668   9.118
52490SOL    HW257495   9.354   3.719   8.983
52491SOL     OW57496  10.175   2.210   7.643
52491SOL    HW157497  10.234   2.273   7.594
52491SOL    HW257498  10.194   2.116   7.614
52492SOL     OW57499  11.029   2.447   9.279
52492SOL    HW157500  11.003   2.536   9.243
52492SOL    HW257501  11.027   2.379   9.206
52493SOL     OW57502  10.672   3.006   7.993
52493SOL    HW157503  10.755   2.977   7.945
52493SOL    HW257504  10.623   3.073   7.937
52494SOL     OW57505   9.860   2.058   8.333
52494SOL    HW157506   9.855   2.053   8.433
52494SOL    HW257507   9.862   2.154   8.304
52495SOL     OW57508  10.318   3.318   7.925
52495SOL    HW157509  10.272   3.390   7.873
52495SOL    HW257510  10.314   3.338   8.023
52496SOL     OW57511   9.661   3.663   8.301
52496SOL    HW157512   9.711   3.577   8.307
52496SOL    HW257513   9.726   3.740   8.298
52497SOL     OW57514  11.105   2.928   8.321
52497SOL    HW157515  11.043   2.913   8.245
52497SOL    HW257516  11.053   2.939   8.406
52498SOL     OW57517  10.537   3.412   8.954
52498SOL    HW157518  10.543   3.335   9.018
52498SOL    HW257519  10.485   3.386   8.874
52499SOL     OW57520   9.631   2.805   7.690
52499SOL    HW157521   9.713   2.844   7.648
52499SOL    HW257522   9.604   2.723   7.641
52500SOL     OW57523  10.768   2.597   8.176
52500SOL    HW157524  10.763   2.532   8.251
52500SOL    HW257525  10.848   2.656   8.189
52501SOL     OW57526   9.771   3.128   9.175
52501SOL    HW157527   9.721   3.129   9.089
52501SOL    HW257528   9.708   3.110   9.251
52502SOL     OW57529  10.421   3.638   7.685
52502SOL    HW157530  10.361   3.576   7.735
52502SOL    HW257531  10.452   3.594   7.600
52503SOL     OW57532   9.512   2.147   8.946
52503SOL    HW157533   9.432   2.207   8.933
52503SOL    HW257534   9.502   2.098   9.032
52504SOL     OW57535  10.942   3.239   7.529
52504SOL    HW157536  10.910   3.333   7.519
52504SOL    HW257537  10.866   3.176   7.517
52505SOL     OW57538   9.774   3.605   7.771
52505SOL    HW157539   9.807   3.644   7.857
52505SOL    HW257540   9.850   3.598   7.706
52506SOL     OW57541  10.710   1.969   7.874
52506SOL    HW157542  10.686   1.932   7.784
52506SOL    HW257543  10.809   1.985   7.878
52507SOL     OW57544   9.559   3.647   8.689
52507SOL    HW157545   9.616   3.582   8.739
52507SOL    HW257546   9.543   3.614   8.596
52508SOL     OW57547  10.250   3.560   8.352
52508SOL    HW157548  10.330   3.503   8.373
52508SOL    HW257549  10.201   3.520   8.275
52509SOL     OW57550   9.692   2.562   7.928
52509SOL    HW157551   9.737   2.472   7.925
52509SOL    HW257552   9.598   2.551   7.961
52510SOL     OW57553  10.857   2.084   9.177
52510SOL    HW157554  10.852   2.121   9.269
52510SOL    HW257555  10.785   2.015   9.165
52511SOL     OW57556   9.924   1.984   7.565
52511SOL    HW157557  10.022   1.962   7.572
52511SOL    HW257558   9.893   1.967   7.472
52512SOL     OW57559  10.091   2.126   9.197
52512SOL    HW157560  10.158   2.065   9.240
52512SOL    HW257561  10.018   2.145   9.262
52513SOL     OW57562  10.198   3.376   8.643
52513SOL    HW157563  10.175   3.351   8.549
52513SOL    HW257564  10.259   3.307   8.682
52514SOL     OW57565  10.661   2.452   8.881
52514SOL    HW157566  10.689   2.409   8.966
52514SOL    HW257567  10.686   2.548   8.882
52515SOL     OW57568  10.113   3.264   8.372
52515SOL    HW157569  10.203   3.278   8.330
52515SOL    HW257570  10.042   3.266   8.301
52516SOL     OW57571  10.232   2.365   8.347
52516SOL    HW157572  10.207   2.356   8.251
52516SOL    HW257573  10.280   2.283   8.378
52517SOL     OW57574   9.849   1.926   7.960
52517SOL    HW157575   9.768   1.927   8.018
52517SOL    HW257576   9.852   2.009   7.905
52518SOL     OW57577  10.744   3.050   7.489
52518SOL    HW157578  10.776   2.974   7.546
52518SOL    HW257579  10.652   3.077   7.519
52519SOL     OW57580   9.607   1.897   7.619
52519SOL    HW157581   9.656   1.981   7.598
52519SOL    HW257582   9.669   1.832   7.664
52520SOL     OW57583  10.245   2.098   7.928
52520SOL    HW157584  10.197   2.139   7.850
52520SOL    HW257585  10.344   2.096   7.909
52521SOL     OW57586  10.386   2.545   8.912
52521SOL    HW157587  10.306   2.484   8.915
52521SOL    HW257588  10.467   2.492   8.888
52522SOL     OW57589  10.537   3.432   8.241
52522SOL    HW157590  10.558   3.506   8.176
52522SOL    HW257591  10.605   3.432   8.314
52523SOL     OW57592   9.769   3.014   8.189
52523SOL    HW157593   9.698   2.987   8.254
52523SOL    HW257594   9.743   2.986   8.096
52524SOL     OW57595  10.581   3.659   8.039
52524SOL    HW157596  10.625   3.723   7.975
52524SOL    HW257597  10.531   3.711   8.109
52525SOL     OW57598  10.342   2.411   7.464
52525SOL    HW157599  10.301   2.493   7.425
52525SOL    HW257600  10.406   2.437   7.537
52526SOL     OW57601   9.388   2.418   8.834
52526SOL    HW157602   9.480   2.417   8.793
52526SOL    HW257603   9.382   2.492   8.901
52527SOL     OW57604   9.871   2.084   8.595
52527SOL    HW157605   9.909   2.000   8.632
52527SOL    HW257606   9.783   2.103   8.639
52528SOL     OW57607  10.176   2.316   8.090
52528SOL    HW157608  10.144   2.388   8.028
52528SOL    HW257609  10.200   2.235   8.037
52529SOL     OW57610  10.327   1.901   8.201
52529SOL    HW157611  10.255   1.906   8.132
52529SOL    HW257612  10.303   1.832   8.270
52530SOL     OW57613  10.739   3.035   8.315
52530SOL    HW157614  10.684   2.951   8.308
52530SOL    HW257615  10.765   3.064   8.223
52531SOL     OW57616  10.776   2.452   8.440
52531SOL    HW157617  10.746   2.357   8.447
52531SOL    HW257618  10.849   2.468   8.506
52532SOL     OW57619  11.167   2.695   7.825
52532SOL    HW157620  11.209   2.631   7.889
52532SOL    HW257621  11.129   2.644   7.747
52533SOL     OW57622   9.798   3.247   7.622
52533SOL    HW157623   9.711   3.232   7.669
52533SOL    HW257624   9.781   3.273   7.527
52534SOL     OW57625  10.974   3.142   8.105
52534SOL    HW157626  11.073   3.150   8.119
52534SOL    HW257627  10.929   3.226   8.136
52535SOL     OW57628  10.700   2.437   7.526
52535SOL    HW157629  10.646   2.416   7.607
52535SOL    HW257630  10.791   2.396   7.535
52536SOL     OW57631   9.837   2.118   7.776
52536SOL    HW157632   9.864   2.059   7.701
52536SOL    HW257633   9.837   2.213   7.745
52537SOL     OW57634  11.064   3.085   9.036
52537SOL    HW157635  11.155   3.046   9.023
52537SOL    HW257636  11.072   3.181   9.060
52538SOL     OW57637  10.374   3.209   8.788
52538SOL    HW157638  10.294   3.186   8.843
52538SOL    HW257639  10.457   3.183   8.837
52539SOL     OW57640  10.902   3.491   9.073
52539SOL    HW157641  10.929   3.525   8.983
52539SOL    HW257642  10.981   3.453   9.119
52540SOL     OW57643  10.421   3.057   8.548
52540SOL    HW157644  10.381   3.101   8.629
52540SOL    HW257645  10.380   3.094   8.465
52541SOL     OW57646  10.948   2.961   8.527
52541SOL    HW157647  10.953   3.042   8.586
52541SOL    HW257648  10.862   2.963   8.476
52542SOL     OW57649  10.225   1.951   8.850
52542SOL    HW157650  10.250   1.931   8.755
52542SOL    HW257651  10.297   2.007   8.892
52543SOL     OW57652  10.290   2.978   9.167
52543SOL    HW157653  10.191   2.984   9.177
52543SOL    HW257654  10.313   2.898   9.111
52544SOL     OW57655  10.015   2.912   7.816
52544SOL    HW157656  10.001   2.919   7.915
52544SOL    HW257657  10.099   2.861   7.798
52545SOL     OW57658   9.720   2.675   8.699
52545SOL    HW157659   9.806   2.687   8.749
52545SOL    HW257660   9.678   2.588   8.726
52546SOL     OW57661  10.584   2.248   8.710
52546SOL    HW157662  10.605   2.322   8.774
52546SOL    HW257663  10.495   2.265   8.667
52547SOL     OW57664   9.374   3.426   8.779
52547SOL    HW157665   9.328   3.508   8.745
52547SOL    HW257666   9.472   3.445   8.788
52548SOL     OW57667   9.677   2.962   7.949
52548SOL    HW157668   9.670   3.045   7.893
52548SOL    HW257669   9.681   2.882   7.889
52549SOL     OW57670   9.876   2.399   8.313
52549SOL    HW157671   9.888   2.465   8.239
52549SOL    HW257672   9.922   2.433   8.396
52550SOL     OW57673  10.562   3.210   7.836
52550SOL    HW157674  10.612   3.287   7.876
52550SOL    HW257675  10.467   3.212   7.868
52551SOL     OW57676  10.582   3.307   8.590
52551SOL    HW157677  10.629   3.320   8.677
52551SOL    HW257678  10.516   3.233   8.599
52552SOL     OW57679  10.892   2.501   7.920
52552SOL    HW157680  10.861   2.562   7.993
52552SOL    HW257681  10.942   2.553   7.851
52553SOL     OW57682   9.664   3.372   8.777
52553SOL    HW157683   9.643   3.328   8.690
52553SOL    HW257684   9.761   3.398   8.780
52554SOL     OW57685   9.712   2.613   9.046
52554SOL    HW157686   9.780   2.668   8.999
52554SOL    HW257687   9.752   2.525   9.073
52555SOL     OW57688  10.897   2.641   9.118
52555SOL    HW157689  10.805   2.679   9.113
52555SOL    HW257690  10.957   2.688   9.053
52556SOL     OW57691  10.323   1.967   9.218
52556SOL    HW157692  10.329   2.052   9.166
52556SOL    HW257693  10.355   1.891   9.161
52557SOL     OW57694   9.814   1.912   9.188
52557SOL    HW157695   9.772   1.855   9.118
52557SOL    HW257696   9.748   1.981   9.220
52558SOL     OW57697   9.883   2.732   8.477
52558SOL    HW157698   9.927   2.821   8.468
52558SOL    HW257699   9.820   2.732   8.554
52559SOL     OW57700  10.670   2.724   8.493
52559SOL    HW157701  10.595   2.724   8.427
52559SOL    HW257702  10.707   2.632   8.502
52560SOL     OW57703  10.519   2.387   7.723
52560SOL    HW157704  10.532   2.303   7.777
52560SOL    HW257705  10.490   2.461   7.783
52561SOL     OW57706   9.617   2.075   8.679
52561SOL    HW157707   9.594   2.112   8.769
52561SOL    HW257708   9.587   1.980   8.673
52562SOL     OW57709   9.347   3.172   8.730
52562SOL    HW157710   9.400   3.123   8.798
52562SOL    HW257711   9.369   3.270   8.735
52563SOL     OW57712  10.042   2.496   8.512
52563SOL    HW157713  10.101   2.470   8.436
52563SOL    HW257714  10.014   2.592   8.501
52564SOL     OW57715  11.038   2.797   9.302
52564SOL    HW157716  10.992   2.790   9.213
52564SOL    HW257717  10.976   2.841   9.368
52565SOL     OW57718   9.617   1.925   8.066
52565SOL    HW157719   9.606   2.019   8.099
52565SOL    HW257720   9.612   1.862   8.143
52566SOL     OW57721  10.932   2.229   7.822
52566SOL    HW157722  10.934   2.153   7.886
52566SOL    HW257723  10.884   2.306   7.862
52567SOL     OW57724  10.333   2.628   8.414
52567SOL    HW157725  10.348   2.649   8.510
52567SOL    HW257726  10.303   2.533   8.405
52568SOL     OW57727  10.290   3.435   9.148
52568SOL    HW157728  10.270   3.479   9.060
52568SOL    HW257729  10.329   3.344   9.132
52569SOL     OW57730  11.169   3.380   9.053
52569SOL    HW157731  11.183   3.407   8.958
52569SOL    HW257732  11.252   3.402   9.106
52570SOL     OW57733   9.660   2.760   9.252
52570SOL    HW157734   9.736   2.804   9.300
52570SOL    HW257735   9.695   2.713   9.170
52571SOL     OW57736  10.850   2.136   7.573
52571SOL    HW157737  10.789   2.061   7.596
52571SOL    HW257738  10.872   2.188   7.656
52572SOL     OW57739  10.613   2.700   7.490
52572SOL    HW157740  10.647   2.607   7.505
52572SOL    HW257741  10.631   2.727   7.395
52573SOL     OW57742  10.378   3.195   8.297
52573SOL    HW157743  10.385   3.111   8.242
52573SOL    HW257744  10.440   3.264   8.261
52574SOL     OW57745   9.629   2.672   8.397
52574SOL    HW157746   9.722   2.708   8.402
52574SOL    HW257747   9.623   2.587   8.449
52575SOL     OW57748   9.649   2.371   8.454
52575SOL    HW157749   9.597   2.288   8.437
52575SOL    HW257750   9.726   2.376   8.390
52576SOL     OW57751  10.448   2.242   9.126
52576SOL    HW157752  10.403   2.305   9.190
52576SOL    HW257753  10.541   2.273   9.109
52577SOL     OW57754  10.470   2.069   8.925
52577SOL    HW157755  10.470   2.133   9.002
52577SOL    HW257756  10.498   2.117   8.842
52578SOL     OW57757   9.318   3.188   7.648
52578SOL    HW157758   9.225   3.209   7.617
52578SOL    HW257759   9.328   3.089   7.661
52579SOL     OW57760   9.398   3.663   8.375
52579SOL    HW157761   9.356   3.577   8.348
52579SOL    HW257762   9.492   3.666   8.341
52580SOL     OW57763   9.814   3.430   8.358
52580SOL    HW157764   9.880   3.504   8.367
52580SOL    HW257765   9.858   3.351   8.316
52581SOL     OW57766  10.312   2.658   8.686
52581SOL    HW157767  10.353   2.626   8.772
52581SOL    HW257768  10.216   2.631   8.683
52582SOL     OW57769   9.350   2.406   8.562
52582SOL    HW157770   9.435   2.373   8.521
52582SOL    HW257771   9.363   2.421   8.660
52583SOL     OW57772   9.499   2.382   9.170
52583SOL    HW157773   9.558   2.342   9.100
52583SOL    HW257774   9.441   2.453   9.129
52584SOL     OW57775  10.679   2.812   9.108
52584SOL    HW157776  10.718   2.901   9.128
52584SOL    HW257777  10.689   2.792   9.011
52585SOL     OW57778  10.125   2.434   7.773
52585SOL    HW157779  10.132   2.345   7.727
52585SOL    HW257780  10.031   2.468   7.765
52586SOL     OW57781  10.967   2.466   8.654
52586SOL    HW157782  10.929   2.397   8.716
52586SOL    HW257783  11.049   2.430   8.610
52587SOL     OW57784   9.562   3.426   9.192
52587SOL    HW157785   9.532   3.483   9.268
52587SOL    HW257786   9.555   3.329   9.218
52588SOL     OW57787   9.981   2.326   8.717
52588SOL    HW157788   9.947   2.237   8.687
52588SOL    HW257789  10.007   2.380   8.637
52589SOL     OW57790  10.240   3.540   8.913
52589SOL    HW157791  10.216   3.522   8.818
52589SOL    HW257792  10.270   3.634   8.923
52590SOL     OW57793   9.783   2.362   7.639
52590SOL    HW157794   9.844   2.442   7.643
52590SOL    HW257795   9.688   2.393   7.646
52591SOL     OW57796   9.469   2.999   8.914
52591SOL    HW157797   9.491   2.938   8.990
52591SOL    HW257798   9.479   2.950   8.828
52592SOL     OW57799  10.657   2.921   8.682
52592SOL    HW157800  10.681   2.858   8.608
52592SOL    HW257801  10.567   2.961   8.664
52593SOL     OW57802  10.612   2.717   7.757
52593SOL    HW157803  10.526   2.686   7.799
52593SOL    HW257804  10.608   2.703   7.658
52594SOL     OW57805  11.069   3.609   8.602
52594SOL    HW157806  11.130   3.639   8.529
52594SOL    HW257807  11.031   3.520   8.580
52595SOL     OW57808  10.562   3.593   8.576
52595SOL    HW157809  10.646   3.598   8.522
52595SOL    HW257810  10.539   3.497   8.594
52596SOL     OW57811   9.393   3.120   8.470
52596SOL    HW157812   9.388   3.119   8.570
52596SOL    HW257813   9.310   3.079   8.432
52597SOL     OW57814   9.998   3.524   9.164
52597SOL    HW157815   9.942   3.605   9.173
52597SOL    HW257816  10.050   3.528   9.078
52598SOL     OW57817  11.036   1.997   7.971
52598SOL    HW157818  11.109   1.980   7.904
52598SOL    HW257819  11.005   1.910   8.009
52599SOL     OW57820  10.698   3.435   7.925
52599SOL    HW157821  10.765   3.447   7.851
52599SOL    HW257822  10.658   3.524   7.948
52600SOL     OW57823   9.440   3.656   9.299
52600SOL    HW157824   9.399   3.582   9.352
52600SOL    HW257825   9.504   3.707   9.357
52601SOL     OW57826  10.590   2.789   8.120
52601SOL    HW157827  10.650   2.708   8.122
52601SOL    HW257828  10.630   2.858   8.060
52602SOL     OW57829  10.140   3.135   8.870
52602SOL    HW157830  10.135   3.168   8.965
52602SOL    HW257831  10.054   3.154   8.824
52603SOL     OW57832   9.982   3.478   7.602
52603SOL    HW157833   9.991   3.488   7.503
52603SOL    HW257834   9.942   3.389   7.623
52604SOL     OW57835  10.960   3.582   8.842
52604SOL    HW157836  11.013   3.592   8.758
52604SOL    HW257837  10.933   3.672   8.876
52605SOL     OW57838  11.151   2.037   8.411
52605SOL    HW157839  11.190   1.952   8.375
52605SOL    HW257840  11.053   2.039   8.392
52606SOL     OW57841   9.573   2.188   8.168
52606SOL    HW157842   9.494   2.239   8.134
52606SOL    HW257843   9.564   2.173   8.266
52607SOL     OW57844  10.504   3.474   7.479
52607SOL    HW157845  10.510   3.381   7.516
52607SOL    HW257846  10.445   3.474   7.399
52608SOL     OW57847  10.132   2.864   8.820
52608SOL    HW157848  10.172   2.863   8.728
52608SOL    HW257849  10.142   2.956   8.860
52609SOL     OW57850  10.226   2.772   7.739
52609SOL    HW157851  10.289   2.810   7.671
52609SOL    HW257852  10.266   2.689   7.778
52610SOL     OW57853  10.814   3.469   7.492
52610SOL    HW157854  10.722   3.506   7.499
52610SOL    HW257855  10.852   3.489   7.402
52611SOL     OW57856   9.682   3.150   8.938
52611SOL    HW157857   9.669   3.243   8.904
52611SOL    HW257858   9.598   3.098   8.925
52612SOL     OW57859  10.924   3.154   8.737
52612SOL    HW157860  10.984   3.157   8.817
52612SOL    HW257861  10.849   3.218   8.750
52613SOL     OW57862  10.349   2.960   8.144
52613SOL    HW157863  10.279   2.913   8.198
52613SOL    HW257864  10.408   2.892   8.101
52614SOL     OW57865  10.324   2.098   8.419
52614SOL    HW157866  10.316   2.062   8.326
52614SOL    HW257867  10.322   2.022   8.484
52615SOL     OW57868   9.900   3.349   7.939
52615SOL    HW157869   9.942   3.291   7.869
52615SOL    HW257870   9.856   3.428   7.895
52616SOL     OW57871  11.019   2.247   8.829
52616SOL    HW157872  11.092   2.316   8.833
52616SOL    HW257873  11.047   2.172   8.770
52617SOL     OW57874   9.565   3.210   7.738
52617SOL    HW157875   9.469   3.211   7.711
52617SOL    HW257876   9.577   3.263   7.822
52618SOL     OW57877   9.415   2.875   9.174
52618SOL    HW157878   9.338   2.842   9.228
52618SOL    HW257879   9.500   2.845   9.216
52619SOL     OW57880   9.982   2.065   8.937
52619SOL    HW157881  10.072   2.049   8.897
52619SOL    HW257882   9.990   2.070   9.036
52620SOL     OW57883   9.385   2.207   7.481
52620SOL    HW157884   9.293   2.179   7.452
52620SOL    HW257885   9.416   2.284   7.425
52621SOL     OW57886  10.750   2.718   8.846
52621SOL    HW157887  10.693   2.770   8.783
52621SOL    HW257888  10.846   2.730   8.822
52622SOL     OW57889   9.382   2.028   7.766
52622SOL    HW157890   9.365   2.111   7.712
52622SOL    HW257891   9.472   1.991   7.744
52623SOL     OW57892  10.493   3.197   7.567
52623SOL    HW157893  10.394   3.186   7.569
52623SOL    HW257894  10.527   3.212   7.660
52624SOL     OW57895   9.923   2.704   8.879
52624SOL    HW157896   9.979   2.785   8.862
52624SOL    HW257897   9.982   2.624   8.882
52625SOL     OW57898  10.803   3.629   8.407
52625SOL    HW157899  10.836   3.693   8.338
52625SOL    HW257900  10.869   3.623   8.482
52626SOL     OW57901  10.026   2.427   9.156
52626SOL    HW157902  10.045   2.492   9.230
52626SOL    HW257903  10.086   2.347   9.165
52627SOL     OW57904  10.760   3.082   9.081
52627SOL    HW157905  10.751   3.072   9.180
52627SOL    HW257906  10.856   3.075   9.055
52628SOL     OW57907   9.700   3.603   9.008
52628SOL    HW157908   9.609   3.644   9.006
52628SOL    HW257909   9.693   3.509   9.040
52629SOL     OW57910  10.984   2.745   8.702
52629SOL    HW157911  10.957   2.656   8.665
52629SOL    HW257912  10.985   2.813   8.629
52630SOL     OW57913  10.535   2.187   7.897
52630SOL    HW157914  10.600   2.113   7.886
52630SOL    HW257915  10.555   2.237   7.981
52631SOL     OW57916   9.904   2.607   8.100
52631SOL    HW157917   9.954   2.692   8.081
52631SOL    HW257918   9.816   2.609   8.052
52632SOL     OW57919  11.087   2.204   9.090
52632SOL    HW157920  11.070   2.235   8.996
52632SOL    HW257921  11.003   2.167   9.128
52633SOL     OW57922  11.040   2.796   8.965
52633SOL    HW157923  11.078   2.887   8.980
52633SOL    HW257924  11.032   2.779   8.866
52634SOL     OW57925  10.169   3.236   7.464
52634SOL    HW157926  10.123   3.251   7.552
52634SOL    HW257927  10.213   3.321   7.434
52635SOL     OW57928   9.971   3.652   8.401
52635SOL    HW157929   9.925   3.740   8.388
52635SOL    HW257930  10.070   3.664   8.394
52636SOL     OW57931  10.169   2.818   8.309
52636SOL    HW157932  10.223   2.749   8.357
52636SOL    HW257933  10.137   2.887   8.375
52637SOL     OW57934  10.393   2.846   7.535
52637SOL    HW157935  10.370   2.899   7.453
52637SOL    HW257936  10.474   2.790   7.516
52638SOL     OW57937  11.171   3.431   8.299
52638SOL    HW157938  11.100   3.419   8.229
52638SOL    HW257939  11.172   3.352   8.359
52639SOL     OW57940   9.531   3.176   9.292
52639SOL    HW157941   9.466   3.103   9.271
52639SOL    HW257942   9.535   3.190   9.390
52640SOL     OW57943   9.389   3.102   8.101
52640SOL    HW157944   9.388   3.055   8.189
52640SOL    HW257945   9.471   3.074   8.050
52641SOL     OW57946   9.982   3.253   9.072
52641SOL    HW157947   9.904   3.203   9.110
52641SOL    HW257948   9.979   3.348   9.103
52642SOL     OW57949  11.134   2.054   8.675
52642SOL    HW157950  11.130   1.964   8.719
52642SOL    HW257951  11.137   2.043   8.576
52643SOL     OW57952   9.738   2.286   7.968
52643SOL    HW157953   9.768   2.214   7.906
52643SOL    HW257954   9.699   2.246   8.051
52644SOL     OW57955  11.015   3.349   8.552
52644SOL    HW157956  10.922   3.324   8.525
52644SOL    HW257957  11.041   3.299   8.634
52645SOL     OW57958   9.627   2.409   8.728
52645SOL    HW157959   9.665   2.350   8.800
52645SOL    HW257960   9.667   2.383   8.640
52646SOL     OW57961  10.122   3.448   8.135
52646SOL    HW157962  10.154   3.458   8.041
52646SOL    HW257963  10.043   3.386   8.137
52647SOL     OW57964  10.734   2.076   8.560
52647SOL    HW157965  10.786   2.011   8.615
52647SOL    HW257966  10.685   2.139   8.621
52648SOL     OW57967  10.311   1.896   8.602
52648SOL    HW157968  10.248   1.824   8.571
52648SOL    HW257969  10.404   1.860   8.602
52649SOL     OW57970  10.080   3.192   7.749
52649SOL    HW157971  10.034   3.105   7.766
52649SOL    HW257972  10.171   3.189   7.790
52650SOL     OW57973   9.928   3.429   8.732
52650SOL    HW157974   9.923   3.511   8.789
52650SOL    HW257975  10.017   3.426   8.687
52651SOL     OW57976  10.662   1.914   7.616
52651SOL    HW157977  10.697   1.873   7.532
52651SOL    HW257978  10.572   1.876   7.636
52652SOL     OW57979  10.610   2.315   8.139
52652SOL    HW157980  10.551   2.395   8.143
52652SOL    HW257981  10.625   2.280   8.232
52653SOL     OW57982  10.903   2.083   8.330
52653SOL    HW157983  10.819   2.082   8.384
52653SOL    HW257984  10.905   2.166   8.274
52654SOL     OW57985   9.349   2.939   7.748
52654SOL    HW157986   9.448   2.928   7.739
52654SOL    HW257987   9.309   2.853   7.780
52655SOL     OW57988  10.185   3.508   7.785
52655SOL    HW157989  10.108   3.473   7.731
52655SOL    HW257990  10.153   3.579   7.847
52656SOL     OW57991   9.540   2.490   9.423
52656SOL    HW157992   9.447   2.488   9.460
52656SOL    HW257993   9.541   2.451   9.331
52657SOL     OW57994   9.535   2.137  10.306
52657SOL    HW157995   9.570   2.120  10.398
52657SOL    HW257996   9.447   2.092  10.294
52658SOL     OW57997   9.329   2.230   9.957
52658SOL    HW157998   9.247   2.273   9.996
52658SOL    HW257999   9.301   2.157   9.894
52659SOL     OW58000   9.879   3.137  10.475
52659SOL    HW158001   9.786   3.130  10.438
52659SOL    HW258002   9.890   3.226  10.519
52660SOL     OW58003  10.865   3.373  10.013
52660SOL    HW158004  10.808   3.357  10.094
52660SOL    HW258005  10.806   3.383   9.933
52661SOL     OW58006  10.445   2.565  10.027
52661SOL    HW158007  10.502   2.643  10.002
52661SOL    HW258008  10.385   2.591  10.103
52662SOL     OW58009  11.065   2.469   9.541
52662SOL    HW158010  11.053   2.456   9.442
52662SOL    HW258011  11.035   2.388   9.590
52663SOL     OW58012  10.078   3.006  10.333
52663SOL    HW158013  10.000   3.023  10.393
52663SOL    HW258014  10.112   3.093  10.297
52664SOL     OW58015  10.160   2.660  11.133
52664SOL    HW158016  10.156   2.736  11.198
52664SOL    HW258017  10.182   2.696  11.042
52665SOL     OW58018   9.995   2.874   9.975
52665SOL    HW158019  10.064   2.858  10.045
52665SOL    HW258020   9.922   2.931  10.013
52666SOL     OW58021   9.996   3.023  11.113
52666SOL    HW158022  10.056   3.102  11.127
52666SOL    HW258023   9.910   3.054  11.072
52667SOL     OW58024   9.645   3.297  10.371
52667SOL    HW158025   9.567   3.266  10.318
52667SOL    HW258026   9.703   3.355  10.314
52668SOL     OW58027  10.770   3.367  10.649
52668SOL    HW158028  10.794   3.461  10.675
52668SOL    HW258029  10.754   3.313  10.731
52669SOL     OW58030   9.748   2.254  10.809
52669SOL    HW158031   9.830   2.198  10.818
52669SOL    HW258032   9.667   2.196  10.813
52670SOL     OW58033  10.913   2.309  10.047
52670SOL    HW158034  10.839   2.355   9.997
52670SOL    HW258035  10.964   2.377  10.100
52671SOL     OW58036   9.541   3.575   9.793
52671SOL    HW158037   9.575   3.652   9.847
52671SOL    HW258038   9.585   3.575   9.703
52672SOL     OW58039  10.437   3.203  11.000
52672SOL    HW158040  10.484   3.203  11.088
52672SOL    HW258041  10.389   3.116  10.989
52673SOL     OW58042   9.540   3.296   9.848
52673SOL    HW158043   9.514   3.392   9.848
52673SOL    HW258044   9.469   3.242   9.893
52674SOL     OW58045   9.550   2.953  10.196
52674SOL    HW158046   9.564   2.869  10.248
52674SOL    HW258047   9.495   3.017  10.251
52675SOL     OW58048   9.930   3.648  10.749
52675SOL    HW158049   9.838   3.631  10.784
52675SOL    HW258050   9.958   3.740  10.775
52676SOL     OW58051   9.916   2.826   9.433
52676SOL    HW158052   9.923   2.910   9.379
52676SOL    HW258053   9.962   2.839   9.521
52677SOL     OW58054  10.904   1.976  10.790
52677SOL    HW158055  10.886   2.043  10.718
52677SOL    HW258056  10.901   2.022  10.879
52678SOL     OW58057   9.432   2.505   9.873
52678SOL    HW158058   9.387   2.417   9.890
52678SOL    HW258059   9.431   2.559   9.957
52679SOL     OW58060  11.152   3.629   9.669
52679SOL    HW158061  11.206   3.600   9.749
52679SOL    HW258062  11.182   3.719   9.640
52680SOL     OW58063   9.337   3.458   9.427
52680SOL    HW158064   9.318   3.362   9.448
52680SOL    HW258065   9.304   3.516   9.502
52681SOL     OW58066  10.999   2.784   9.922
52681SOL    HW158067  11.094   2.755   9.930
52681SOL    HW258068  10.991   2.849   9.847
52682SOL     OW58069  10.951   2.970   9.742
52682SOL    HW158070  11.037   2.972   9.690
52682SOL    HW258071  10.965   3.017   9.830
52683SOL     OW58072   9.423   2.599  10.907
52683SOL    HW158073   9.511   2.586  10.952
52683SOL    HW258074   9.410   2.696  10.885
52684SOL     OW58075   9.923   3.227  10.036
52684SOL    HW158076   9.874   3.140  10.045
52684SOL    HW258077   9.900   3.270   9.949
52685SOL     OW58078  10.603   3.090  10.733
52685SOL    HW158079  10.640   3.017  10.675
52685SOL    HW258080  10.655   3.095  10.818
52686SOL     OW58081  10.119   1.866   9.812
52686SOL    HW158082  10.159   1.957   9.803
52686SOL    HW258083  10.019   1.874   9.818
52687SOL     OW58084   9.507   2.838  10.574
52687SOL    HW158085   9.596   2.793  10.560
52687SOL    HW258086   9.434   2.773  10.555
52688SOL     OW58087  10.835   2.861   9.500
52688SOL    HW158088  10.772   2.785   9.513
52688SOL    HW258089  10.883   2.879   9.586
52689SOL     OW58090  10.497   3.654  10.926
52689SOL    HW158091  10.521   3.714  10.850
52689SOL    HW258092  10.504   3.559  10.896
52690SOL     OW58093   9.627   2.113  11.111
52690SOL    HW158094   9.698   2.184  11.117
52690SOL    HW258095   9.539   2.152  11.139
52691SOL     OW58096  10.776   3.279  10.263
52691SOL    HW158097  10.717   3.285  10.343
52691SOL    HW258098  10.761   3.191  10.217
52692SOL     OW58099  10.977   3.576   9.882
52692SOL    HW158100  10.936   3.553   9.794
52692SOL    HW258101  10.959   3.502   9.947
52693SOL     OW58102   9.908   2.591   9.580
52693SOL    HW158103   9.932   2.660   9.512
52693SOL    HW258104   9.830   2.624   9.634
52694SOL     OW58105  10.591   2.207  10.254
52694SOL    HW158106  10.505   2.157  10.241
52694SOL    HW258107  10.653   2.153  10.310
52695SOL     OW58108  10.886   3.524   9.617
52695SOL    HW158109  10.975   3.570   9.620
52695SOL    HW258110  10.865   3.500   9.522
52696SOL     OW58111  10.117   2.467  10.775
52696SOL    HW158112  10.070   2.464  10.864
52696SOL    HW258113  10.066   2.412  10.709
52697SOL     OW58114  10.704   2.331  10.984
52697SOL    HW158115  10.684   2.374  11.072
52697SOL    HW258116  10.782   2.269  10.993
52698SOL     OW58117  10.283   2.752  10.882
52698SOL    HW158118  10.329   2.668  10.853
52698SOL    HW258119  10.227   2.786  10.807
52699SOL     OW58120  10.301   2.272  10.552
52699SOL    HW158121  10.224   2.306  10.606
52699SOL    HW258122  10.267   2.221  10.473
52700SOL     OW58123  10.351   2.563   9.739
52700SOL    HW158124  10.377   2.559   9.835
52700SOL    HW258125  10.266   2.512   9.725
52701SOL     OW58126   9.386   2.673  10.099
52701SOL    HW158127   9.485   2.661  10.108
52701SOL    HW258128   9.362   2.768  10.120
52702SOL     OW58129   9.440   3.683  10.881
52702SOL    HW158130   9.430   3.668  10.980
52702SOL    HW258131   9.354   3.719  10.845
52703SOL     OW58132  10.175   2.210   9.505
52703SOL    HW158133  10.234   2.273   9.456
52703SOL    HW258134  10.194   2.116   9.476
52704SOL     OW58135  11.029   2.447  11.141
52704SOL    HW158136  11.003   2.536  11.105
52704SOL    HW258137  11.027   2.379  11.068
52705SOL     OW58138  10.672   3.006   9.855
52705SOL    HW158139  10.755   2.977   9.807
52705SOL    HW258140  10.623   3.073   9.799
52706SOL     OW58141   9.860   2.058  10.195
52706SOL    HW158142   9.855   2.053  10.295
52706SOL    HW258143   9.862   2.154  10.166
52707SOL     OW58144  10.318   3.318   9.787
52707SOL    HW158145  10.272   3.390   9.735
52707SOL    HW258146  10.314   3.338   9.885
52708SOL     OW58147   9.661   3.663  10.163
52708SOL    HW158148   9.711   3.577  10.169
52708SOL    HW258149   9.726   3.740  10.160
52709SOL     OW58150  11.105   2.928  10.183
52709SOL    HW158151  11.043   2.913  10.107
52709SOL    HW258152  11.053   2.939  10.268
52710SOL     OW58153  10.537   3.412  10.816
52710SOL    HW158154  10.543   3.335  10.880
52710SOL    HW258155  10.485   3.386  10.736
52711SOL     OW58156   9.631   2.805   9.552
52711SOL    HW158157   9.713   2.844   9.510
52711SOL    HW258158   9.604   2.723   9.503
52712SOL     OW58159  10.768   2.597  10.038
52712SOL    HW158160  10.763   2.532  10.113
52712SOL    HW258161  10.848   2.656  10.051
52713SOL     OW58162   9.771   3.128  11.037
52713SOL    HW158163   9.721   3.129  10.951
52713SOL    HW258164   9.708   3.110  11.113
52714SOL     OW58165  10.421   3.638   9.547
52714SOL    HW158166  10.361   3.576   9.597
52714SOL    HW258167  10.452   3.594   9.462
52715SOL     OW58168   9.512   2.147  10.808
52715SOL    HW158169   9.432   2.207  10.795
52715SOL    HW258170   9.502   2.098  10.894
52716SOL     OW58171  10.942   3.239   9.391
52716SOL    HW158172  10.910   3.333   9.381
52716SOL    HW258173  10.866   3.176   9.379
52717SOL     OW58174   9.774   3.605   9.633
52717SOL    HW158175   9.807   3.644   9.719
52717SOL    HW258176   9.850   3.598   9.568
52718SOL     OW58177  10.710   1.969   9.736
52718SOL    HW158178  10.686   1.932   9.646
52718SOL    HW258179  10.809   1.985   9.740
52719SOL     OW58180   9.559   3.647  10.551
52719SOL    HW158181   9.616   3.582  10.601
52719SOL    HW258182   9.543   3.614  10.458
52720SOL     OW58183  10.250   3.560  10.214
52720SOL    HW158184  10.330   3.503  10.235
52720SOL    HW258185  10.201   3.520  10.137
52721SOL     OW58186   9.692   2.562   9.790
52721SOL    HW158187   9.737   2.472   9.787
52721SOL    HW258188   9.598   2.551   9.823
52722SOL     OW58189  10.857   2.084  11.039
52722SOL    HW158190  10.852   2.121  11.131
52722SOL    HW258191  10.785   2.015  11.027
52723SOL     OW58192   9.924   1.984   9.427
52723SOL    HW158193  10.022   1.962   9.434
52723SOL    HW258194   9.893   1.967   9.334
52724SOL     OW58195  10.091   2.126  11.059
52724SOL    HW158196  10.158   2.065  11.102
52724SOL    HW258197  10.018   2.145  11.124
52725SOL     OW58198  10.198   3.376  10.505
52725SOL    HW158199  10.175   3.351  10.411
52725SOL    HW258200  10.259   3.307  10.544
52726SOL     OW58201  10.661   2.452  10.743
52726SOL    HW158202  10.689   2.409  10.828
52726SOL    HW258203  10.686   2.548  10.744
52727SOL     OW58204  10.113   3.264  10.234
52727SOL    HW158205  10.203   3.278  10.192
52727SOL    HW258206  10.042   3.266  10.163
52728SOL     OW58207  10.232   2.365  10.209
52728SOL    HW158208  10.207   2.356  10.113
52728SOL    HW258209  10.280   2.283  10.240
52729SOL     OW58210   9.849   1.926   9.822
52729SOL    HW158211   9.768   1.927   9.880
52729SOL    HW258212   9.852   2.009   9.767
52730SOL     OW58213  10.744   3.050   9.351
52730SOL    HW158214  10.776   2.974   9.408
52730SOL    HW258215  10.652   3.077   9.381
52731SOL     OW58216   9.607   1.897   9.481
52731SOL    HW158217   9.656   1.981   9.460
52731SOL    HW258218   9.669   1.832   9.526
52732SOL     OW58219  10.245   2.098   9.790
52732SOL    HW158220  10.197   2.139   9.712
52732SOL    HW258221  10.344   2.096   9.771
52733SOL     OW58222  10.386   2.545  10.774
52733SOL    HW158223  10.306   2.484  10.777
52733SOL    HW258224  10.467   2.492  10.750
52734SOL     OW58225  10.537   3.432  10.103
52734SOL    HW158226  10.558   3.506  10.038
52734SOL    HW258227  10.605   3.432  10.176
52735SOL     OW58228   9.769   3.014  10.051
52735SOL    HW158229   9.698   2.987  10.116
52735SOL    HW258230   9.743   2.986   9.958
52736SOL     OW58231  10.581   3.659   9.901
52736SOL    HW158232  10.625   3.723   9.837
52736SOL    HW258233  10.531   3.711   9.971
52737SOL     OW58234  10.342   2.411   9.326
52737SOL    HW158235  10.301   2.493   9.287
52737SOL    HW258236  10.406   2.437   9.399
52738SOL     OW58237   9.388   2.418  10.696
52738SOL    HW158238   9.480   2.417  10.655
52738SOL    HW258239   9.382   2.492  10.763
52739SOL     OW58240   9.871   2.084  10.457
52739SOL    HW158241   9.909   2.000  10.494
52739SOL    HW258242   9.783   2.103  10.501
52740SOL     OW58243  10.176   2.316   9.952
52740SOL    HW158244  10.144   2.388   9.890
52740SOL    HW258245  10.200   2.235   9.899
52741SOL     OW58246  10.327   1.901  10.063
52741SOL    HW158247  10.255   1.906   9.994
52741SOL    HW258248  10.303   1.832  10.132
52742SOL     OW58249  10.739   3.035  10.177
52742SOL    HW158250  10.684   2.951  10.170
52742SOL    HW258251  10.765   3.064  10.085
52743SOL     OW58252  10.776   2.452  10.302
52743SOL    HW158253  10.746   2.357  10.309
52743SOL    HW258254  10.849   2.468  10.368
52744SOL     OW58255  11.167   2.695   9.687
52744SOL    HW158256  11.209   2.631   9.751
52744SOL    HW258257  11.129   2.644   9.609
52745SOL     OW58258   9.798   3.247   9.484
52745SOL    HW158259   9.711   3.232   9.531
52745SOL    HW258260   9.781   3.273   9.389
52746SOL     OW58261  10.974   3.142   9.967
52746SOL    HW158262  11.073   3.150   9.981
52746SOL    HW258263  10.929   3.226   9.998
52747SOL     OW58264  10.700   2.437   9.388
52747SOL    HW158265  10.646   2.416   9.469
52747SOL    HW258266  10.791   2.396   9.397
52748SOL     OW58267   9.837   2.118   9.638
52748SOL    HW158268   9.864   2.059   9.563
52748SOL    HW258269   9.837   2.213   9.607
52749SOL     OW58270  11.064   3.085  10.898
52749SOL    HW158271  11.155   3.046  10.885
52749SOL    HW258272  11.072   3.181  10.922
52750SOL     OW58273  10.374   3.209  10.650
52750SOL    HW158274  10.294   3.186  10.705
52750SOL    HW258275  10.457   3.183  10.699
52751SOL     OW58276  10.902   3.491  10.935
52751SOL    HW158277  10.929   3.525  10.845
52751SOL    HW258278  10.981   3.453  10.981
52752SOL     OW58279  10.421   3.057  10.410
52752SOL    HW158280  10.381   3.101  10.491
52752SOL    HW258281  10.380   3.094  10.327
52753SOL     OW58282  10.948   2.961  10.389
52753SOL    HW158283  10.953   3.042  10.448
52753SOL    HW258284  10.862   2.963  10.338
52754SOL     OW58285  10.225   1.951  10.712
52754SOL    HW158286  10.250   1.931  10.617
52754SOL    HW258287  10.297   2.007  10.754
52755SOL     OW58288  10.290   2.978  11.029
52755SOL    HW158289  10.191   2.984  11.039
52755SOL    HW258290  10.313   2.898  10.973
52756SOL     OW58291  10.015   2.912   9.678
52756SOL    HW158292  10.001   2.919   9.777
52756SOL    HW258293  10.099   2.861   9.660
52757SOL     OW58294   9.720   2.675  10.561
52757SOL    HW158295   9.806   2.687  10.611
52757SOL    HW258296   9.678   2.588  10.588
52758SOL     OW58297  10.584   2.248  10.572
52758SOL    HW158298  10.605   2.322  10.636
52758SOL    HW258299  10.495   2.265  10.529
52759SOL     OW58300   9.374   3.426  10.641
52759SOL    HW158301   9.328   3.508  10.607
52759SOL    HW258302   9.472   3.445  10.650
52760SOL     OW58303   9.677   2.962   9.811
52760SOL    HW158304   9.670   3.045   9.755
52760SOL    HW258305   9.681   2.882   9.751
52761SOL     OW58306   9.876   2.399  10.175
52761SOL    HW158307   9.888   2.465  10.101
52761SOL    HW258308   9.922   2.433  10.258
52762SOL     OW58309  10.562   3.210   9.698
52762SOL    HW158310  10.612   3.287   9.738
52762SOL    HW258311  10.467   3.212   9.730
52763SOL     OW58312  10.582   3.307  10.452
52763SOL    HW158313  10.629   3.320  10.539
52763SOL    HW258314  10.516   3.233  10.461
52764SOL     OW58315  10.892   2.501   9.782
52764SOL    HW158316  10.861   2.562   9.855
52764SOL    HW258317  10.942   2.553   9.713
52765SOL     OW58318   9.664   3.372  10.639
52765SOL    HW158319   9.643   3.328  10.552
52765SOL    HW258320   9.761   3.398  10.642
52766SOL     OW58321   9.712   2.613  10.908
52766SOL    HW158322   9.780   2.668  10.861
52766SOL    HW258323   9.752   2.525  10.935
52767SOL     OW58324  10.897   2.641  10.980
52767SOL    HW158325  10.805   2.679  10.975
52767SOL    HW258326  10.957   2.688  10.915
52768SOL     OW58327  10.323   1.967  11.080
52768SOL    HW158328  10.329   2.052  11.028
52768SOL    HW258329  10.355   1.891  11.023
52769SOL     OW58330   9.814   1.912  11.050
52769SOL    HW158331   9.772   1.855  10.980
52769SOL    HW258332   9.748   1.981  11.082
52770SOL     OW58333   9.883   2.732  10.339
52770SOL    HW158334   9.927   2.821  10.330
52770SOL    HW258335   9.820   2.732  10.416
52771SOL     OW58336  10.670   2.724  10.355
52771SOL    HW158337  10.595   2.724  10.289
52771SOL    HW258338  10.707   2.632  10.364
52772SOL     OW58339  10.519   2.387   9.585
52772SOL    HW158340  10.532   2.303   9.639
52772SOL    HW258341  10.490   2.461   9.645
52773SOL     OW58342   9.617   2.075  10.541
52773SOL    HW158343   9.594   2.112  10.631
52773SOL    HW258344   9.587   1.980  10.535
52774SOL     OW58345   9.347   3.172  10.592
52774SOL    HW158346   9.400   3.123  10.660
52774SOL    HW258347   9.369   3.270  10.597
52775SOL     OW58348  10.042   2.496  10.374
52775SOL    HW158349  10.101   2.470  10.298
52775SOL    HW258350  10.014   2.592  10.363
52776SOL     OW58351  11.038   2.797  11.164
52776SOL    HW158352  10.992   2.790  11.075
52776SOL    HW258353  10.976   2.841  11.230
52777SOL     OW58354   9.617   1.925   9.928
52777SOL    HW158355   9.606   2.019   9.961
52777SOL    HW258356   9.612   1.862  10.005
52778SOL     OW58357  10.932   2.229   9.684
52778SOL    HW158358  10.934   2.153   9.748
52778SOL    HW258359  10.884   2.306   9.724
52779SOL     OW58360  10.333   2.628  10.276
52779SOL    HW158361  10.348   2.649  10.372
52779SOL    HW258362  10.303   2.533  10.267
52780SOL     OW58363  10.290   3.435  11.010
52780SOL    HW158364  10.270   3.479  10.922
52780SOL    HW258365  10.329   3.344  10.994
52781SOL     OW58366  11.169   3.380  10.915
52781SOL    HW158367  11.183   3.407  10.820
52781SOL    HW258368  11.252   3.402  10.968
52782SOL     OW58369   9.660   2.760  11.114
52782SOL    HW158370   9.736   2.804  11.162
52782SOL    HW258371   9.695   2.713  11.032
52783SOL     OW58372  10.850   2.136   9.435
52783SOL    HW158373  10.789   2.061   9.458
52783SOL    HW258374  10.872   2.188   9.518
52784SOL     OW58375  10.613   2.700   9.352
52784SOL    HW158376  10.647   2.607   9.367
52784SOL    HW258377  10.631   2.727   9.257
52785SOL     OW58378  10.378   3.195  10.159
52785SOL    HW158379  10.385   3.111  10.104
52785SOL    HW258380  10.440   3.264  10.123
52786SOL     OW58381   9.629   2.672  10.259
52786SOL    HW158382   9.722   2.708  10.264
52786SOL    HW258383   9.623   2.587  10.311
52787SOL     OW58384   9.649   2.371  10.316
52787SOL    HW158385   9.597   2.288  10.299
52787SOL    HW258386   9.726   2.376  10.252
52788SOL     OW58387  10.448   2.242  10.988
52788SOL    HW158388  10.403   2.305  11.052
52788SOL    HW258389  10.541   2.273  10.971
52789SOL     OW58390  10.470   2.069  10.787
52789SOL    HW158391  10.470   2.133  10.864
52789SOL    HW258392  10.498   2.117  10.704
52790SOL     OW58393   9.318   3.188   9.510
52790SOL    HW158394   9.225   3.209   9.479
52790SOL    HW258395   9.328   3.089   9.523
52791SOL     OW58396   9.398   3.663  10.237
52791SOL    HW158397   9.356   3.577  10.210
52791SOL    HW258398   9.492   3.666  10.203
52792SOL     OW58399   9.814   3.430  10.220
52792SOL    HW158400   9.880   3.504  10.229
52792SOL    HW258401   9.858   3.351  10.178
52793SOL     OW58402  10.312   2.658  10.548
52793SOL    HW158403  10.353   2.626  10.634
52793SOL    HW258404  10.216   2.631  10.545
52794SOL     OW58405   9.350   2.406  10.424
52794SOL    HW158406   9.435   2.373  10.383
52794SOL    HW258407   9.363   2.421  10.522
52795SOL     OW58408   9.499   2.382  11.032
52795SOL    HW158409   9.558   2.342  10.962
52795SOL    HW258410   9.441   2.453  10.991
52796SOL     OW58411  10.679   2.812  10.970
52796SOL    HW158412  10.718   2.901  10.990
52796SOL    HW258413  10.689   2.792  10.873
52797SOL     OW58414  10.125   2.434   9.635
52797SOL    HW158415  10.132   2.345   9.589
52797SOL    HW258416  10.031   2.468   9.627
52798SOL     OW58417  10.967   2.466  10.516
52798SOL    HW158418  10.929   2.397  10.578
52798SOL    HW258419  11.049   2.430  10.472
52799SOL     OW58420   9.562   3.426  11.054
52799SOL    HW158421   9.532   3.483  11.130
52799SOL    HW258422   9.555   3.329  11.080
52800SOL     OW58423   9.981   2.326  10.579
52800SOL    HW158424   9.947   2.237  10.549
52800SOL    HW258425  10.007   2.380  10.499
52801SOL     OW58426  10.240   3.540  10.775
52801SOL    HW158427  10.216   3.522  10.680
52801SOL    HW258428  10.270   3.634  10.785
52802SOL     OW58429   9.783   2.362   9.501
52802SOL    HW158430   9.844   2.442   9.505
52802SOL    HW258431   9.688   2.393   9.508
52803SOL     OW58432   9.469   2.999  10.776
52803SOL    HW158433   9.491   2.938  10.852
52803SOL    HW258434   9.479   2.950  10.690
52804SOL     OW58435  10.657   2.921  10.544
52804SOL    HW158436  10.681   2.858  10.470
52804SOL    HW258437  10.567   2.961  10.526
52805SOL     OW58438  10.612   2.717   9.619
52805SOL    HW158439  10.526   2.686   9.661
52805SOL    HW258440  10.608   2.703   9.520
52806SOL     OW58441  11.069   3.609  10.464
52806SOL    HW158442  11.130   3.639  10.391
52806SOL    HW258443  11.031   3.520  10.442
52807SOL     OW58444  10.562   3.593  10.438
52807SOL    HW158445  10.646   3.598  10.384
52807SOL    HW258446  10.539   3.497  10.456
52808SOL     OW58447   9.393   3.120  10.332
52808SOL    HW158448   9.388   3.119  10.432
52808SOL    HW258449   9.310   3.079  10.294
52809SOL     OW58450   9.998   3.524  11.026
52809SOL    HW158451   9.942   3.605  11.035
52809SOL    HW258452  10.050   3.528  10.940
52810SOL     OW58453  11.036   1.997   9.833
52810SOL    HW158454  11.109   1.980   9.766
52810SOL    HW258455  11.005   1.910   9.871
52811SOL     OW58456  10.698   3.435   9.787
52811SOL    HW158457  10.765   3.447   9.713
52811SOL    HW258458  10.658   3.524   9.810
52812SOL     OW58459   9.440   3.656  11.161
52812SOL    HW158460   9.399   3.582  11.214
52812SOL    HW258461   9.504   3.707  11.219
52813SOL     OW58462  10.590   2.789   9.982
52813SOL    HW158463  10.650   2.708   9.984
52813SOL    HW258464  10.630   2.858   9.922
52814SOL     OW58465  10.140   3.135  10.732
52814SOL    HW158466  10.135   3.168  10.827
52814SOL    HW258467  10.054   3.154  10.686
52815SOL     OW58468   9.982   3.478   9.464
52815SOL    HW158469   9.991   3.488   9.365
52815SOL    HW258470   9.942   3.389   9.485
52816SOL     OW58471  10.960   3.582  10.704
52816SOL    HW158472  11.013   3.592  10.620
52816SOL    HW258473  10.933   3.672  10.738
52817SOL     OW58474  11.151   2.037  10.273
52817SOL    HW158475  11.190   1.952  10.237
52817SOL    HW258476  11.053   2.039  10.254
52818SOL     OW58477   9.573   2.188  10.030
52818SOL    HW158478   9.494   2.239   9.996
52818SOL    HW258479   9.564   2.173  10.128
52819SOL     OW58480  10.504   3.474   9.341
52819SOL    HW158481  10.510   3.381   9.378
52819SOL    HW258482  10.445   3.474   9.261
52820SOL     OW58483  10.132   2.864  10.682
52820SOL    HW158484  10.172   2.863  10.590
52820SOL    HW258485  10.142   2.956  10.722
52821SOL     OW58486  10.226   2.772   9.601
52821SOL    HW158487  10.289   2.810   9.533
52821SOL    HW258488  10.266   2.689   9.640
52822SOL     OW58489  10.814   3.469   9.354
52822SOL    HW158490  10.722   3.506   9.361
52822SOL    HW258491  10.852   3.489   9.264
52823SOL     OW58492   9.682   3.150  10.800
52823SOL    HW158493   9.669   3.243  10.766
52823SOL    HW258494   9.598   3.098  10.787
52824SOL     OW58495  10.924   3.154  10.599
52824SOL    HW158496  10.984   3.157  10.679
52824SOL    HW258497  10.849   3.218  10.612
52825SOL     OW58498  10.349   2.960  10.006
52825SOL    HW158499  10.279   2.913  10.060
52825SOL    HW258500  10.408   2.892   9.963
52826SOL     OW58501  10.324   2.098  10.281
52826SOL    HW158502  10.316   2.062  10.188
52826SOL    HW258503  10.322   2.022  10.346
52827SOL     OW58504   9.900   3.349   9.801
52827SOL    HW158505   9.942   3.291   9.731
52827SOL    HW258506   9.856   3.428   9.757
52828SOL     OW58507  11.019   2.247  10.691
52828SOL    HW158508  11.092   2.316  10.695
52828SOL    HW258509  11.047   2.172  10.632
52829SOL     OW58510   9.565   3.210   9.600
52829SOL    HW158511   9.469   3.211   9.573
52829SOL    HW258512   9.577   3.263   9.684
52830SOL     OW58513   9.415   2.875  11.036
52830SOL    HW158514   9.338   2.842  11.090
52830SOL    HW258515   9.500   2.845  11.078
52831SOL     OW58516   9.982   2.065  10.799
52831SOL    HW158517  10.072   2.049  10.759
52831SOL    HW258518   9.990   2.070  10.898
52832SOL     OW58519   9.385   2.207   9.343
52832SOL    HW158520   9.293   2.179   9.314
52832SOL    HW258521   9.416   2.284   9.287
52833SOL     OW58522  10.750   2.718  10.708
52833SOL    HW158523  10.693   2.770  10.645
52833SOL    HW258524  10.846   2.730  10.684
52834SOL     OW58525   9.382   2.028   9.628
52834SOL    HW158526   9.365   2.111   9.574
52834SOL    HW258527   9.472   1.991   9.606
52835SOL     OW58528  10.493   3.197   9.429
52835SOL    HW158529  10.394   3.186   9.431
52835SOL    HW258530  10.527   3.212   9.522
52836SOL     OW58531   9.923   2.704  10.741
52836SOL    HW158532   9.979   2.785  10.724
52836SOL    HW258533   9.982   2.624  10.744
52837SOL     OW58534  10.803   3.629  10.269
52837SOL    HW158535  10.836   3.693  10.200
52837SOL    HW258536  10.869   3.623  10.344
52838SOL     OW58537  10.026   2.427  11.018
52838SOL    HW158538  10.045   2.492  11.092
52838SOL    HW258539  10.086   2.347  11.027
52839SOL     OW58540  10.760   3.082  10.943
52839SOL    HW158541  10.751   3.072  11.042
52839SOL    HW258542  10.856   3.075  10.917
52840SOL     OW58543   9.700   3.603  10.870
52840SOL    HW158544   9.609   3.644  10.868
52840SOL    HW258545   9.693   3.509  10.902
52841SOL     OW58546  10.984   2.745  10.564
52841SOL    HW158547  10.957   2.656  10.527
52841SOL    HW258548  10.985   2.813  10.491
52842SOL     OW58549  10.535   2.187   9.759
52842SOL    HW158550  10.600   2.113   9.748
52842SOL    HW258551  10.555   2.237   9.843
52843SOL     OW58552   9.904   2.607   9.962
52843SOL    HW158553   9.954   2.692   9.943
52843SOL    HW258554   9.816   2.609   9.914
52844SOL     OW58555  11.087   2.204  10.952
52844SOL    HW158556  11.070   2.235  10.858
52844SOL    HW258557  11.003   2.167  10.990
52845SOL     OW58558  11.040   2.796  10.827
52845SOL    HW158559  11.078   2.887  10.842
52845SOL    HW258560  11.032   2.779  10.728
52846SOL     OW58561  10.169   3.236   9.326
52846SOL    HW158562  10.123   3.251   9.414
52846SOL    HW258563  10.213   3.321   9.296
52847SOL     OW58564   9.971   3.652  10.263
52847SOL    HW158565   9.925   3.740  10.250
52847SOL    HW258566  10.070   3.664  10.256
52848SOL     OW58567  10.169   2.818  10.171
52848SOL    HW158568  10.223   2.749  10.219
52848SOL    HW258569  10.137   2.887  10.237
52849SOL     OW58570  10.393   2.846   9.397
52849SOL    HW158571  10.370   2.899   9.315
52849SOL    HW258572  10.474   2.790   9.378
52850SOL     OW58573  11.171   3.431  10.161
52850SOL    HW158574  11.100   3.419  10.091
52850SOL    HW258575  11.172   3.352  10.221
52851SOL     OW58576   9.531   3.176  11.154
52851SOL    HW158577   9.466   3.103  11.133
52851SOL    HW258578   9.535   3.190  11.252
52852SOL     OW58579   9.389   3.102   9.963
52852SOL    HW158580   9.388   3.055  10.051
52852SOL    HW258581   9.471   3.074   9.912
52853SOL     OW58582   9.982   3.253  10.934
52853SOL    HW158583   9.904   3.203  10.972
52853SOL    HW258584   9.979   3.348  10.965
52854SOL     OW58585  11.134   2.054  10.537
52854SOL    HW158586  11.130   1.964  10.581
52854SOL    HW258587  11.137   2.043  10.438
52855SOL     OW58588   9.738   2.286   9.830
52855SOL    HW158589   9.768   2.214   9.768
52855SOL    HW258590   9.699   2.246   9.913
52856SOL     OW58591  11.015   3.349  10.414
52856SOL    HW158592  10.922   3.324  10.387
52856SOL    HW258593  11.041   3.299  10.496
52857SOL     OW58594   9.627   2.409  10.590
52857SOL    HW158595   9.665   2.350  10.662
52857SOL    HW258596   9.667   2.383  10.502
52858SOL     OW58597  10.122   3.448   9.997
52858SOL    HW158598  10.154   3.458   9.903
52858SOL    HW258599  10.043   3.386   9.999
52859SOL     OW58600  10.734   2.076  10.422
52859SOL    HW158601  10.786   2.011  10.477
52859SOL    HW258602  10.685   2.139  10.483
52860SOL     OW58603  10.311   1.896  10.464
52860SOL    HW158604  10.248   1.824  10.433
52860SOL    HW258605  10.404   1.860  10.464
52861SOL     OW58606  10.080   3.192   9.611
52861SOL    HW158607  10.034   3.105   9.628
52861SOL    HW258608  10.171   3.189   9.652
52862SOL     OW58609   9.928   3.429  10.594
52862SOL    HW158610   9.923   3.511  10.651
52862SOL    HW258611  10.017   3.426  10.549
52863SOL     OW58612  10.662   1.914   9.478
52863SOL    HW158613  10.697   1.873   9.394
52863SOL    HW258614  10.572   1.876   9.498
52864SOL     OW58615  10.610   2.315  10.001
52864SOL    HW158616  10.551   2.395  10.005
52864SOL    HW258617  10.625   2.280  10.094
52865SOL     OW58618  10.903   2.083  10.192
52865SOL    HW158619  10.819   2.082  10.246
52865SOL    HW258620  10.905   2.166  10.136
52866SOL     OW58621   9.349   2.939   9.610
52866SOL    HW158622   9.448   2.928   9.601
52866SOL    HW258623   9.309   2.853   9.642
52867SOL     OW58624  10.185   3.508   9.647
52867SOL    HW158625  10.108   3.473   9.593
52867SOL    HW258626  10.153   3.579   9.709
52868SOL     OW58627   9.540   2.490  11.285
52868SOL    HW158628   9.447   2.488  11.322
52868SOL    HW258629   9.541   2.451  11.193
52869SOL     OW58630   9.535   2.137  12.168
52869SOL    HW158631   9.570   2.120  12.260
52869SOL    HW258632   9.447   2.092  12.156
52870SOL     OW58633   9.329   2.230  11.819
52870SOL    HW158634   9.247   2.273  11.858
52870SOL    HW258635   9.301   2.157  11.756
52871SOL     OW58636   9.879   3.137  12.337
52871SOL    HW158637   9.786   3.130  12.300
52871SOL    HW258638   9.890   3.226  12.381
52872SOL     OW58639  10.865   3.373  11.875
52872SOL    HW158640  10.808   3.357  11.956
52872SOL    HW258641  10.806   3.383  11.795
52873SOL     OW58642  10.445   2.565  11.889
52873SOL    HW158643  10.502   2.643  11.864
52873SOL    HW258644  10.385   2.591  11.965
52874SOL     OW58645  11.065   2.469  11.403
52874SOL    HW158646  11.053   2.456  11.304
52874SOL    HW258647  11.035   2.388  11.452
52875SOL     OW58648  10.078   3.006  12.195
52875SOL    HW158649  10.000   3.023  12.255
52875SOL    HW258650  10.112   3.093  12.159
52876SOL     OW58651   9.995   2.874  11.837
52876SOL    HW158652  10.064   2.858  11.907
52876SOL    HW258653   9.922   2.931  11.875
52877SOL     OW58654   9.645   3.297  12.233
52877SOL    HW158655   9.567   3.266  12.180
52877SOL    HW258656   9.703   3.355  12.176
52878SOL     OW58657  10.770   3.367  12.511
52878SOL    HW158658  10.794   3.461  12.537
52878SOL    HW258659  10.754   3.313  12.593
52879SOL     OW58660   9.748   2.254  12.671
52879SOL    HW158661   9.830   2.198  12.680
52879SOL    HW258662   9.667   2.196  12.675
52880SOL     OW58663  10.913   2.309  11.909
52880SOL    HW158664  10.839   2.355  11.859
52880SOL    HW258665  10.964   2.377  11.962
52881SOL     OW58666   9.541   3.575  11.655
52881SOL    HW158667   9.575   3.652  11.709
52881SOL    HW258668   9.585   3.575  11.565
52882SOL     OW58669   9.540   3.296  11.710
52882SOL    HW158670   9.514   3.392  11.710
52882SOL    HW258671   9.469   3.242  11.755
52883SOL     OW58672   9.550   2.953  12.058
52883SOL    HW158673   9.564   2.869  12.110
52883SOL    HW258674   9.495   3.017  12.113
52884SOL     OW58675   9.930   3.648  12.611
52884SOL    HW158676   9.838   3.631  12.646
52884SOL    HW258677   9.958   3.740  12.637
52885SOL     OW58678   9.916   2.826  11.295
52885SOL    HW158679   9.923   2.910  11.241
52885SOL    HW258680   9.962   2.839  11.383
52886SOL     OW58681  10.904   1.976  12.652
52886SOL    HW158682  10.886   2.043  12.580
52886SOL    HW258683  10.901   2.022  12.741
52887SOL     OW58684   9.432   2.505  11.735
52887SOL    HW158685   9.387   2.417  11.752
52887SOL    HW258686   9.431   2.559  11.819
52888SOL     OW58687  11.152   3.629  11.531
52888SOL    HW158688  11.206   3.600  11.611
52888SOL    HW258689  11.182   3.719  11.502
52889SOL     OW58690   9.337   3.458  11.289
52889SOL    HW158691   9.318   3.362  11.310
52889SOL    HW258692   9.304   3.516  11.364
52890SOL     OW58693  10.999   2.784  11.784
52890SOL    HW158694  11.094   2.755  11.792
52890SOL    HW258695  10.991   2.849  11.709
52891SOL     OW58696  10.951   2.970  11.604
52891SOL    HW158697  11.037   2.972  11.552
52891SOL    HW258698  10.965   3.017  11.692
52892SOL     OW58699   9.423   2.599  12.769
52892SOL    HW158700   9.511   2.586  12.814
52892SOL    HW258701   9.410   2.696  12.747
52893SOL     OW58702   9.923   3.227  11.898
52893SOL    HW158703   9.874   3.140  11.907
52893SOL    HW258704   9.900   3.270  11.811
52894SOL     OW58705  10.603   3.090  12.595
52894SOL    HW158706  10.640   3.017  12.537
52894SOL    HW258707  10.655   3.095  12.680
52895SOL     OW58708  10.119   1.866  11.674
52895SOL    HW158709  10.159   1.957  11.665
52895SOL    HW258710  10.019   1.874  11.680
52896SOL     OW58711   9.507   2.838  12.436
52896SOL    HW158712   9.596   2.793  12.422
52896SOL    HW258713   9.434   2.773  12.417
52897SOL     OW58714  10.835   2.861  11.362
52897SOL    HW158715  10.772   2.785  11.375
52897SOL    HW258716  10.883   2.879  11.448
52898SOL     OW58717  10.776   3.279  12.125
52898SOL    HW158718  10.717   3.285  12.205
52898SOL    HW258719  10.761   3.191  12.079
52899SOL     OW58720  10.977   3.576  11.744
52899SOL    HW158721  10.936   3.553  11.656
52899SOL    HW258722  10.959   3.502  11.809
52900SOL     OW58723   9.908   2.591  11.442
52900SOL    HW158724   9.932   2.660  11.374
52900SOL    HW258725   9.830   2.624  11.496
52901SOL     OW58726  10.591   2.207  12.116
52901SOL    HW158727  10.505   2.157  12.103
52901SOL    HW258728  10.653   2.153  12.172
52902SOL     OW58729  10.886   3.524  11.479
52902SOL    HW158730  10.975   3.570  11.482
52902SOL    HW258731  10.865   3.500  11.384
52903SOL     OW58732  10.117   2.467  12.637
52903SOL    HW158733  10.070   2.464  12.726
52903SOL    HW258734  10.066   2.412  12.571
52904SOL     OW58735  10.283   2.752  12.744
52904SOL    HW158736  10.329   2.668  12.715
52904SOL    HW258737  10.227   2.786  12.669
52905SOL     OW58738  10.301   2.272  12.414
52905SOL    HW158739  10.224   2.306  12.468
52905SOL    HW258740  10.267   2.221  12.335
52906SOL     OW58741  10.351   2.563  11.601
52906SOL    HW158742  10.377   2.559  11.697
52906SOL    HW258743  10.266   2.512  11.587
52907SOL     OW58744   9.386   2.673  11.961
52907SOL    HW158745   9.485   2.661  11.970
52907SOL    HW258746   9.362   2.768  11.982
52908SOL     OW58747   9.440   3.683  12.743
52908SOL    HW158748   9.430   3.668  12.842
52908SOL    HW258749   9.354   3.719  12.707
52909SOL     OW58750  10.175   2.210  11.367
52909SOL    HW158751  10.234   2.273  11.318
52909SOL    HW258752  10.194   2.116  11.338
52910SOL     OW58753  10.672   3.006  11.717
52910SOL    HW158754  10.755   2.977  11.669
52910SOL    HW258755  10.623   3.073  11.661
52911SOL     OW58756   9.860   2.058  12.057
52911SOL    HW158757   9.855   2.053  12.157
52911SOL    HW258758   9.862   2.154  12.028
52912SOL     OW58759  10.318   3.318  11.649
52912SOL    HW158760  10.272   3.390  11.597
52912SOL    HW258761  10.314   3.338  11.747
52913SOL     OW58762   9.661   3.663  12.025
52913SOL    HW158763   9.711   3.577  12.031
52913SOL    HW258764   9.726   3.740  12.022
52914SOL     OW58765  11.105   2.928  12.045
52914SOL    HW158766  11.043   2.913  11.969
52914SOL    HW258767  11.053   2.939  12.130
52915SOL     OW58768  10.537   3.412  12.678
52915SOL    HW158769  10.543   3.335  12.742
52915SOL    HW258770  10.485   3.386  12.598
52916SOL     OW58771   9.631   2.805  11.414
52916SOL    HW158772   9.713   2.844  11.372
52916SOL    HW258773   9.604   2.723  11.365
52917SOL     OW58774  10.768   2.597  11.900
52917SOL    HW158775  10.763   2.532  11.975
52917SOL    HW258776  10.848   2.656  11.913
52918SOL     OW58777  10.421   3.638  11.409
52918SOL    HW158778  10.361   3.576  11.459
52918SOL    HW258779  10.452   3.594  11.324
52919SOL     OW58780   9.512   2.147  12.670
52919SOL    HW158781   9.432   2.207  12.657
52919SOL    HW258782   9.502   2.098  12.756
52920SOL     OW58783  10.942   3.239  11.253
52920SOL    HW158784  10.910   3.333  11.243
52920SOL    HW258785  10.866   3.176  11.241
52921SOL     OW58786   9.774   3.605  11.495
52921SOL    HW158787   9.807   3.644  11.581
52921SOL    HW258788   9.850   3.598  11.430
52922SOL     OW58789  10.710   1.969  11.598
52922SOL    HW158790  10.686   1.932  11.508
52922SOL    HW258791  10.809   1.985  11.602
52923SOL     OW58792   9.559   3.647  12.413
52923SOL    HW158793   9.616   3.582  12.463
52923SOL    HW258794   9.543   3.614  12.320
52924SOL     OW58795  10.250   3.560  12.076
52924SOL    HW158796  10.330   3.503  12.097
52924SOL    HW258797  10.201   3.520  11.999
52925SOL     OW58798   9.692   2.562  11.652
52925SOL    HW158799   9.737   2.472  11.649
52925SOL    HW258800   9.598   2.551  11.685
52926SOL     OW58801   9.924   1.984  11.289
52926SOL    HW158802  10.022   1.962  11.296
52926SOL    HW258803   9.893   1.967  11.196
52927SOL     OW58804  10.198   3.376  12.367
52927SOL    HW158805  10.175   3.351  12.273
52927SOL    HW258806  10.259   3.307  12.406
52928SOL     OW58807  10.661   2.452  12.605
52928SOL    HW158808  10.689   2.409  12.690
52928SOL    HW258809  10.686   2.548  12.606
52929SOL     OW58810  10.113   3.264  12.096
52929SOL    HW158811  10.203   3.278  12.054
52929SOL    HW258812  10.042   3.266  12.025
52930SOL     OW58813  10.232   2.365  12.071
52930SOL    HW158814  10.207   2.356  11.975
52930SOL    HW258815  10.280   2.283  12.102
52931SOL     OW58816   9.849   1.926  11.684
52931SOL    HW158817   9.768   1.927  11.742
52931SOL    HW258818   9.852   2.009  11.629
52932SOL     OW58819  10.744   3.050  11.213
52932SOL    HW158820  10.776   2.974  11.270
52932SOL    HW258821  10.652   3.077  11.243
52933SOL     OW58822   9.607   1.897  11.343
52933SOL    HW158823   9.656   1.981  11.322
52933SOL    HW258824   9.669   1.832  11.388
52934SOL     OW58825  10.245   2.098  11.652
52934SOL    HW158826  10.197   2.139  11.574
52934SOL    HW258827  10.344   2.096  11.633
52935SOL     OW58828  10.386   2.545  12.636
52935SOL    HW158829  10.306   2.484  12.639
52935SOL    HW258830  10.467   2.492  12.612
52936SOL     OW58831  10.537   3.432  11.965
52936SOL    HW158832  10.558   3.506  11.900
52936SOL    HW258833  10.605   3.432  12.038
52937SOL     OW58834   9.769   3.014  11.913
52937SOL    HW158835   9.698   2.987  11.978
52937SOL    HW258836   9.743   2.986  11.820
52938SOL     OW58837  10.581   3.659  11.763
52938SOL    HW158838  10.625   3.723  11.699
52938SOL    HW258839  10.531   3.711  11.833
52939SOL     OW58840  10.342   2.411  11.188
52939SOL    HW158841  10.301   2.493  11.149
52939SOL    HW258842  10.406   2.437  11.261
52940SOL     OW58843   9.388   2.418  12.558
52940SOL    HW158844   9.480   2.417  12.517
52940SOL    HW258845   9.382   2.492  12.625
52941SOL     OW58846   9.871   2.084  12.319
52941SOL    HW158847   9.909   2.000  12.356
52941SOL    HW258848   9.783   2.103  12.363
52942SOL     OW58849  10.176   2.316  11.814
52942SOL    HW158850  10.144   2.388  11.752
52942SOL    HW258851  10.200   2.235  11.761
52943SOL     OW58852  10.327   1.901  11.925
52943SOL    HW158853  10.255   1.906  11.856
52943SOL    HW258854  10.303   1.832  11.994
52944SOL     OW58855  10.739   3.035  12.039
52944SOL    HW158856  10.684   2.951  12.032
52944SOL    HW258857  10.765   3.064  11.947
52945SOL     OW58858  10.776   2.452  12.164
52945SOL    HW158859  10.746   2.357  12.171
52945SOL    HW258860  10.849   2.468  12.230
52946SOL     OW58861  11.167   2.695  11.549
52946SOL    HW158862  11.209   2.631  11.613
52946SOL    HW258863  11.129   2.644  11.471
52947SOL     OW58864   9.798   3.247  11.346
52947SOL    HW158865   9.711   3.232  11.393
52947SOL    HW258866   9.781   3.273  11.251
52948SOL     OW58867  10.974   3.142  11.829
52948SOL    HW158868  11.073   3.150  11.843
52948SOL    HW258869  10.929   3.226  11.860
52949SOL     OW58870  10.700   2.437  11.250
52949SOL    HW158871  10.646   2.416  11.331
52949SOL    HW258872  10.791   2.396  11.259
52950SOL     OW58873   9.837   2.118  11.500
52950SOL    HW158874   9.864   2.059  11.425
52950SOL    HW258875   9.837   2.213  11.469
52951SOL     OW58876  11.064   3.085  12.760
52951SOL    HW158877  11.155   3.046  12.747
52951SOL    HW258878  11.072   3.181  12.784
52952SOL     OW58879  10.374   3.209  12.512
52952SOL    HW158880  10.294   3.186  12.567
52952SOL    HW258881  10.457   3.183  12.561
52953SOL     OW58882  10.421   3.057  12.272
52953SOL    HW158883  10.381   3.101  12.353
52953SOL    HW258884  10.380   3.094  12.189
52954SOL     OW58885  10.948   2.961  12.251
52954SOL    HW158886  10.953   3.042  12.310
52954SOL    HW258887  10.862   2.963  12.200
52955SOL     OW58888  10.225   1.951  12.574
52955SOL    HW158889  10.250   1.931  12.479
52955SOL    HW258890  10.297   2.007  12.616
52956SOL     OW58891  10.015   2.912  11.540
52956SOL    HW158892  10.001   2.919  11.639
52956SOL    HW258893  10.099   2.861  11.522
52957SOL     OW58894   9.720   2.675  12.423
52957SOL    HW158895   9.806   2.687  12.473
52957SOL    HW258896   9.678   2.588  12.450
52958SOL     OW58897  10.584   2.248  12.434
52958SOL    HW158898  10.605   2.322  12.498
52958SOL    HW258899  10.495   2.265  12.391
52959SOL     OW58900   9.374   3.426  12.503
52959SOL    HW158901   9.328   3.508  12.469
52959SOL    HW258902   9.472   3.445  12.512
52960SOL     OW58903   9.677   2.962  11.673
52960SOL    HW158904   9.670   3.045  11.617
52960SOL    HW258905   9.681   2.882  11.613
52961SOL     OW58906   9.876   2.399  12.037
52961SOL    HW158907   9.888   2.465  11.963
52961SOL    HW258908   9.922   2.433  12.120
52962SOL     OW58909  10.562   3.210  11.560
52962SOL    HW158910  10.612   3.287  11.600
52962SOL    HW258911  10.467   3.212  11.592
52963SOL     OW58912  10.582   3.307  12.314
52963SOL    HW158913  10.629   3.320  12.401
52963SOL    HW258914  10.516   3.233  12.323
52964SOL     OW58915  10.892   2.501  11.644
52964SOL    HW158916  10.861   2.562  11.717
52964SOL    HW258917  10.942   2.553  11.575
52965SOL     OW58918   9.664   3.372  12.501
52965SOL    HW158919   9.643   3.328  12.414
52965SOL    HW258920   9.761   3.398  12.504
52966SOL     OW58921   9.712   2.613  12.770
52966SOL    HW158922   9.780   2.668  12.723
52966SOL    HW258923   9.752   2.525  12.797
52967SOL     OW58924  10.897   2.641  12.842
52967SOL    HW158925  10.805   2.679  12.837
52967SOL    HW258926  10.957   2.688  12.777
52968SOL     OW58927   9.883   2.732  12.201
52968SOL    HW158928   9.927   2.821  12.192
52968SOL    HW258929   9.820   2.732  12.278
52969SOL     OW58930  10.670   2.724  12.217
52969SOL    HW158931  10.595   2.724  12.151
52969SOL    HW258932  10.707   2.632  12.226
52970SOL     OW58933  10.519   2.387  11.447
52970SOL    HW158934  10.532   2.303  11.501
52970SOL    HW258935  10.490   2.461  11.507
52971SOL     OW58936   9.617   2.075  12.403
52971SOL    HW158937   9.594   2.112  12.493
52971SOL    HW258938   9.587   1.980  12.397
52972SOL     OW58939   9.347   3.172  12.454
52972SOL    HW158940   9.400   3.123  12.522
52972SOL    HW258941   9.369   3.270  12.459
52973SOL     OW58942  10.042   2.496  12.236
52973SOL    HW158943  10.101   2.470  12.160
52973SOL    HW258944  10.014   2.592  12.225
52974SOL     OW58945   9.617   1.925  11.790
52974SOL    HW158946   9.606   2.019  11.823
52974SOL    HW258947   9.612   1.862  11.867
52975SOL     OW58948  10.932   2.229  11.546
52975SOL    HW158949  10.934   2.153  11.610
52975SOL    HW258950  10.884   2.306  11.586
52976SOL     OW58951  10.333   2.628  12.138
52976SOL    HW158952  10.348   2.649  12.234
52976SOL    HW258953  10.303   2.533  12.129
52977SOL     OW58954  10.850   2.136  11.297
52977SOL    HW158955  10.789   2.061  11.320
52977SOL    HW258956  10.872   2.188  11.380
52978SOL     OW58957  10.613   2.700  11.214
52978SOL    HW158958  10.647   2.607  11.229
52978SOL    HW258959  10.631   2.727  11.119
52979SOL     OW58960  10.378   3.195  12.021
52979SOL    HW158961  10.385   3.111  11.966
52979SOL    HW258962  10.440   3.264  11.985
52980SOL     OW58963   9.629   2.672  12.121
52980SOL    HW158964   9.722   2.708  12.126
52980SOL    HW258965   9.623   2.587  12.173
52981SOL     OW58966   9.649   2.371  12.178
52981SOL    HW158967   9.597   2.288  12.161
52981SOL    HW258968   9.726   2.376  12.114
52982SOL     OW58969  10.470   2.069  12.649
52982SOL    HW158970  10.470   2.133  12.726
52982SOL    HW258971  10.498   2.117  12.566
52983SOL     OW58972   9.318   3.188  11.372
52983SOL    HW158973   9.225   3.209  11.341
52983SOL    HW258974   9.328   3.089  11.385
52984SOL     OW58975   9.398   3.663  12.099
52984SOL    HW158976   9.356   3.577  12.072
52984SOL    HW258977   9.492   3.666  12.065
52985SOL     OW58978   9.814   3.430  12.082
52985SOL    HW158979   9.880   3.504  12.091
52985SOL    HW258980   9.858   3.351  12.040
52986SOL     OW58981  10.312   2.658  12.410
52986SOL    HW158982  10.353   2.626  12.496
52986SOL    HW258983  10.216   2.631  12.407
52987SOL     OW58984   9.350   2.406  12.286
52987SOL    HW158985   9.435   2.373  12.245
52987SOL    HW258986   9.363   2.421  12.384
52988SOL     OW58987  10.125   2.434  11.497
52988SOL    HW158988  10.132   2.345  11.451
52988SOL    HW258989  10.031   2.468  11.489
52989SOL     OW58990  10.967   2.466  12.378
52989SOL    HW158991  10.929   2.397  12.440
52989SOL    HW258992  11.049   2.430  12.334
52990SOL     OW58993   9.562   3.426  12.916
52990SOL    HW158994   9.532   3.483  12.992
52990SOL    HW258995   9.555   3.329  12.942
52991SOL     OW58996   9.981   2.326  12.441
52991SOL    HW158997   9.947   2.237  12.411
52991SOL    HW258998  10.007   2.380  12.361
52992SOL     OW58999  10.240   3.540  12.637
52992SOL    HW159000  10.216   3.522  12.542
52992SOL    HW259001  10.270   3.634  12.647
52993SOL     OW59002   9.783   2.362  11.363
52993SOL    HW159003   9.844   2.442  11.367
52993SOL    HW259004   9.688   2.393  11.370
52994SOL     OW59005   9.469   2.999  12.638
52994SOL    HW159006   9.491   2.938  12.714
52994SOL    HW259007   9.479   2.950  12.552
52995SOL     OW59008  10.657   2.921  12.406
52995SOL    HW159009  10.681   2.858  12.332
52995SOL    HW259010  10.567   2.961  12.388
52996SOL     OW59011  10.612   2.717  11.481
52996SOL    HW159012  10.526   2.686  11.523
52996SOL    HW259013  10.608   2.703  11.382
52997SOL     OW59014  11.069   3.609  12.326
52997SOL    HW159015  11.130   3.639  12.253
52997SOL    HW259016  11.031   3.520  12.304
52998SOL     OW59017  10.562   3.593  12.300
52998SOL    HW159018  10.646   3.598  12.246
52998SOL    HW259019  10.539   3.497  12.318
52999SOL     OW59020   9.393   3.120  12.194
52999SOL    HW159021   9.388   3.119  12.294
52999SOL    HW259022   9.310   3.079  12.156
53000SOL     OW59023  11.036   1.997  11.695
53000SOL    HW159024  11.109   1.980  11.628
53000SOL    HW259025  11.005   1.910  11.733
53001SOL     OW59026  10.698   3.435  11.649
53001SOL    HW159027  10.765   3.447  11.575
53001SOL    HW259028  10.658   3.524  11.672
53002SOL     OW59029  10.590   2.789  11.844
53002SOL    HW159030  10.650   2.708  11.846
53002SOL    HW259031  10.630   2.858  11.784
53003SOL     OW59032  10.140   3.135  12.594
53003SOL    HW159033  10.135   3.168  12.689
53003SOL    HW259034  10.054   3.154  12.548
53004SOL     OW59035   9.982   3.478  11.326
53004SOL    HW159036   9.991   3.488  11.227
53004SOL    HW259037   9.942   3.389  11.347
53005SOL     OW59038  10.960   3.582  12.566
53005SOL    HW159039  11.013   3.592  12.482
53005SOL    HW259040  10.933   3.672  12.600
53006SOL     OW59041  11.151   2.037  12.135
53006SOL    HW159042  11.190   1.952  12.099
53006SOL    HW259043  11.053   2.039  12.116
53007SOL     OW59044   9.573   2.188  11.892
53007SOL    HW159045   9.494   2.239  11.858
53007SOL    HW259046   9.564   2.173  11.990
53008SOL     OW59047  10.504   3.474  11.203
53008SOL    HW159048  10.510   3.381  11.240
53008SOL    HW259049  10.445   3.474  11.123
53009SOL     OW59050  10.132   2.864  12.544
53009SOL    HW159051  10.172   2.863  12.452
53009SOL    HW259052  10.142   2.956  12.584
53010SOL     OW59053  10.226   2.772  11.463
53010SOL    HW159054  10.289   2.810  11.395
53010SOL    HW259055  10.266   2.689  11.502
53011SOL     OW59056  10.814   3.469  11.216
53011SOL    HW159057  10.722   3.506  11.223
53011SOL    HW259058  10.852   3.489  11.126
53012SOL     OW59059   9.682   3.150  12.662
53012SOL    HW159060   9.669   3.243  12.628
53012SOL    HW259061   9.598   3.098  12.649
53013SOL     OW59062  10.924   3.154  12.461
53013SOL    HW159063  10.984   3.157  12.541
53013SOL    HW259064  10.849   3.218  12.474
53014SOL     OW59065  10.349   2.960  11.868
53014SOL    HW159066  10.279   2.913  11.922
53014SOL    HW259067  10.408   2.892  11.825
53015SOL     OW59068  10.324   2.098  12.143
53015SOL    HW159069  10.316   2.062  12.050
53015SOL    HW259070  10.322   2.022  12.208
53016SOL     OW59071   9.900   3.349  11.663
53016SOL    HW159072   9.942   3.291  11.593
53016SOL    HW259073   9.856   3.428  11.619
53017SOL     OW59074  11.019   2.247  12.553
53017SOL    HW159075  11.092   2.316  12.557
53017SOL    HW259076  11.047   2.172  12.494
53018SOL     OW59077   9.565   3.210  11.462
53018SOL    HW159078   9.469   3.211  11.435
53018SOL    HW259079   9.577   3.263  11.546
53019SOL     OW59080   9.415   2.875  12.898
53019SOL    HW159081   9.338   2.842  12.952
53019SOL    HW259082   9.500   2.845  12.940
53020SOL     OW59083   9.982   2.065  12.661
53020SOL    HW159084  10.072   2.049  12.621
53020SOL    HW259085   9.990   2.070  12.760
53021SOL     OW59086   9.385   2.207  11.205
53021SOL    HW159087   9.293   2.179  11.176
53021SOL    HW259088   9.416   2.284  11.149
53022SOL     OW59089  10.750   2.718  12.570
53022SOL    HW159090  10.693   2.770  12.507
53022SOL    HW259091  10.846   2.730  12.546
53023SOL     OW59092   9.382   2.028  11.490
53023SOL    HW159093   9.365   2.111  11.436
53023SOL    HW259094   9.472   1.991  11.468
53024SOL     OW59095  10.493   3.197  11.291
53024SOL    HW159096  10.394   3.186  11.293
53024SOL    HW259097  10.527   3.212  11.384
53025SOL     OW59098   9.923   2.704  12.603
53025SOL    HW159099   9.979   2.785  12.586
53025SOL    HW259100   9.982   2.624  12.606
53026SOL     OW59101  10.803   3.629  12.131
53026SOL    HW159102  10.836   3.693  12.062
53026SOL    HW259103  10.869   3.623  12.206
53027SOL     OW59104  10.026   2.427  12.880
53027SOL    HW159105  10.045   2.492  12.954
53027SOL    HW259106  10.086   2.347  12.889
53028SOL     OW59107   9.700   3.603  12.732
53028SOL    HW159108   9.609   3.644  12.730
53028SOL    HW259109   9.693   3.509  12.764
53029SOL     OW59110  10.984   2.745  12.426
53029SOL    HW159111  10.957   2.656  12.389
53029SOL    HW259112  10.985   2.813  12.353
53030SOL     OW59113  10.535   2.187  11.621
53030SOL    HW159114  10.600   2.113  11.610
53030SOL    HW259115  10.555   2.237  11.705
53031SOL     OW59116   9.904   2.607  11.824
53031SOL    HW159117   9.954   2.692  11.805
53031SOL    HW259118   9.816   2.609  11.776
53032SOL     OW59119  11.087   2.204  12.814
53032SOL    HW159120  11.070   2.235  12.720
53032SOL    HW259121  11.003   2.167  12.852
53033SOL     OW59122  11.040   2.796  12.689
53033SOL    HW159123  11.078   2.887  12.704
53033SOL    HW259124  11.032   2.779  12.590
53034SOL     OW59125  10.169   3.236  11.188
53034SOL    HW159126  10.123   3.251  11.276
53034SOL    HW259127  10.213   3.321  11.158
53035SOL     OW59128   9.971   3.652  12.125
53035SOL    HW159129   9.925   3.740  12.112
53035SOL    HW259130  10.070   3.664  12.118
53036SOL     OW59131  10.169   2.818  12.033
53036SOL    HW159132  10.223   2.749  12.081
53036SOL    HW259133  10.137   2.887  12.099
53037SOL     OW59134  10.393   2.846  11.259
53037SOL    HW159135  10.370   2.899  11.177
53037SOL    HW259136  10.474   2.790  11.240
53038SOL     OW59137  11.171   3.431  12.023
53038SOL    HW159138  11.100   3.419  11.953
53038SOL    HW259139  11.172   3.352  12.083
53039SOL     OW59140   9.389   3.102  11.825
53039SOL    HW159141   9.388   3.055  11.913
53039SOL    HW259142   9.471   3.074  11.774
53040SOL     OW59143   9.982   3.253  12.796
53040SOL    HW159144   9.904   3.203  12.834
53040SOL    HW259145   9.979   3.348  12.827
53041SOL     OW59146  11.134   2.054  12.399
53041SOL    HW159147  11.130   1.964  12.443
53041SOL    HW259148  11.137   2.043  12.300
53042SOL     OW59149   9.738   2.286  11.692
53042SOL    HW159150   9.768   2.214  11.630
53042SOL    HW259151   9.699   2.246  11.775
53043SOL     OW59152  11.015   3.349  12.276
53043SOL    HW159153  10.922   3.324  12.249
53043SOL    HW259154  11.041   3.299  12.358
53044SOL     OW59155   9.627   2.409  12.452
53044SOL    HW159156   9.665   2.350  12.524
53044SOL    HW259157   9.667   2.383  12.364
53045SOL     OW59158  10.122   3.448  11.859
53045SOL    HW159159  10.154   3.458  11.765
53045SOL    HW259160  10.043   3.386  11.861
53046SOL     OW59161  10.734   2.076  12.284
53046SOL    HW159162  10.786   2.011  12.339
53046SOL    HW259163  10.685   2.139  12.345
53047SOL     OW59164  10.311   1.896  12.326
53047SOL    HW159165  10.248   1.824  12.295
53047SOL    HW259166  10.404   1.860  12.326
53048SOL     OW59167  10.080   3.192  11.473
53048SOL    HW159168  10.034   3.105  11.490
53048SOL    HW259169  10.171   3.189  11.514
53049SOL     OW59170   9.928   3.429  12.456
53049SOL    HW159171   9.923   3.511  12.513
53049SOL    HW259172  10.017   3.426  12.411
53050SOL     OW59173  10.662   1.914  11.340
53050SOL    HW159174  10.697   1.873  11.256
53050SOL    HW259175  10.572   1.876  11.360
53051SOL     OW59176  10.610   2.315  11.863
53051SOL    HW159177  10.551   2.395  11.867
53051SOL    HW259178  10.625   2.280  11.956
53052SOL     OW59179  10.903   2.083  12.054
53052SOL    HW159180  10.819   2.082  12.108
53052SOL    HW259181  10.905   2.166  11.998
53053SOL     OW59182   9.349   2.939  11.472
53053SOL    HW159183   9.448   2.928  11.463
53053SOL    HW259184   9.309   2.853  11.504
53054SOL     OW59185  10.185   3.508  11.509
53054SOL    HW159186  10.108   3.473  11.455
53054SOL    HW259187  10.153   3.579  11.571
53055SOL     OW59188   9.540   4.352   0.113
53055SOL    HW159189   9.447   4.350   0.150
53055SOL    HW259190   9.541   4.313   0.021
53056SOL     OW59191   9.535   3.999   0.996
53056SOL    HW159192   9.570   3.982   1.088
53056SOL    HW259193   9.447   3.954   0.984
53057SOL     OW59194   9.329   4.092   0.647
53057SOL    HW159195   9.247   4.135   0.686
53057SOL    HW259196   9.301   4.019   0.584
53058SOL     OW59197   9.879   4.999   1.165
53058SOL    HW159198   9.786   4.992   1.128
53058SOL    HW259199   9.890   5.088   1.209
53059SOL     OW59200  10.865   5.235   0.703
53059SOL    HW159201  10.808   5.219   0.784
53059SOL    HW259202  10.806   5.245   0.623
53060SOL     OW59203  10.445   4.427   0.717
53060SOL    HW159204  10.502   4.505   0.692
53060SOL    HW259205  10.385   4.453   0.793
53061SOL     OW59206  11.065   4.331   0.231
53061SOL    HW159207  11.053   4.318   0.132
53061SOL    HW259208  11.035   4.250   0.280
53062SOL     OW59209  10.078   4.868   1.023
53062SOL    HW159210  10.000   4.885   1.083
53062SOL    HW259211  10.112   4.955   0.987
53063SOL     OW59212  10.160   4.522   1.823
53063SOL    HW159213  10.156   4.598   1.888
53063SOL    HW259214  10.182   4.558   1.732
53064SOL     OW59215   9.995   4.736   0.665
53064SOL    HW159216  10.064   4.720   0.735
53064SOL    HW259217   9.922   4.793   0.703
53065SOL     OW59218   9.996   4.885   1.803
53065SOL    HW159219  10.056   4.964   1.817
53065SOL    HW259220   9.910   4.916   1.762
53066SOL     OW59221   9.645   5.159   1.061
53066SOL    HW159222   9.567   5.128   1.008
53066SOL    HW259223   9.703   5.217   1.004
53067SOL     OW59224  10.770   5.229   1.339
53067SOL    HW159225  10.794   5.323   1.365
53067SOL    HW259226  10.754   5.175   1.421
53068SOL     OW59227   9.748   4.116   1.499
53068SOL    HW159228   9.830   4.060   1.508
53068SOL    HW259229   9.667   4.058   1.503
53069SOL     OW59230  10.913   4.171   0.737
53069SOL    HW159231  10.839   4.217   0.687
53069SOL    HW259232  10.964   4.239   0.790
53070SOL     OW59233   9.541   5.437   0.483
53070SOL    HW159234   9.575   5.514   0.537
53070SOL    HW259235   9.585   5.437   0.393
53071SOL     OW59236  10.437   5.065   1.690
53071SOL    HW159237  10.484   5.065   1.778
53071SOL    HW259238  10.389   4.978   1.679
53072SOL     OW59239   9.540   5.158   0.538
53072SOL    HW159240   9.514   5.254   0.538
53072SOL    HW259241   9.469   5.104   0.583
53073SOL     OW59242   9.550   4.815   0.886
53073SOL    HW159243   9.564   4.731   0.938
53073SOL    HW259244   9.495   4.879   0.941
53074SOL     OW59245   9.930   5.510   1.439
53074SOL    HW159246   9.838   5.493   1.474
53074SOL    HW259247   9.958   5.602   1.465
53075SOL     OW59248   9.916   4.688   0.123
53075SOL    HW159249   9.923   4.772   0.069
53075SOL    HW259250   9.962   4.701   0.211
53076SOL     OW59251  10.904   3.838   1.480
53076SOL    HW159252  10.886   3.905   1.408
53076SOL    HW259253  10.901   3.884   1.569
53077SOL     OW59254   9.432   4.367   0.563
53077SOL    HW159255   9.387   4.279   0.580
53077SOL    HW259256   9.431   4.421   0.647
53078SOL     OW59257  11.152   5.491   0.359
53078SOL    HW159258  11.206   5.462   0.439
53078SOL    HW259259  11.182   5.581   0.330
53079SOL     OW59260   9.337   5.320   0.117
53079SOL    HW159261   9.318   5.224   0.138
53079SOL    HW259262   9.304   5.378   0.192
53080SOL     OW59263  10.999   4.646   0.612
53080SOL    HW159264  11.094   4.617   0.620
53080SOL    HW259265  10.991   4.711   0.537
53081SOL     OW59266  10.951   4.832   0.432
53081SOL    HW159267  11.037   4.834   0.380
53081SOL    HW259268  10.965   4.879   0.520
53082SOL     OW59269   9.423   4.461   1.597
53082SOL    HW159270   9.511   4.448   1.642
53082SOL    HW259271   9.410   4.558   1.575
53083SOL     OW59272   9.923   5.089   0.726
53083SOL    HW159273   9.874   5.002   0.735
53083SOL    HW259274   9.900   5.132   0.639
53084SOL     OW59275  10.603   4.952   1.423
53084SOL    HW159276  10.640   4.879   1.365
53084SOL    HW259277  10.655   4.957   1.508
53085SOL     OW59278  10.119   3.728   0.502
53085SOL    HW159279  10.159   3.819   0.493
53085SOL    HW259280  10.019   3.736   0.508
53086SOL     OW59281   9.507   4.700   1.264
53086SOL    HW159282   9.596   4.655   1.250
53086SOL    HW259283   9.434   4.635   1.245
53087SOL     OW59284  10.835   4.723   0.190
53087SOL    HW159285  10.772   4.647   0.203
53087SOL    HW259286  10.883   4.741   0.276
53088SOL     OW59287  10.497   5.516   1.616
53088SOL    HW159288  10.521   5.576   1.540
53088SOL    HW259289  10.504   5.421   1.586
53089SOL     OW59290   9.627   3.975   1.801
53089SOL    HW159291   9.698   4.046   1.807
53089SOL    HW259292   9.539   4.014   1.829
53090SOL     OW59293  10.776   5.141   0.953
53090SOL    HW159294  10.717   5.147   1.033
53090SOL    HW259295  10.761   5.053   0.907
53091SOL     OW59296  10.977   5.438   0.572
53091SOL    HW159297  10.936   5.415   0.484
53091SOL    HW259298  10.959   5.364   0.637
53092SOL     OW59299   9.908   4.453   0.270
53092SOL    HW159300   9.932   4.522   0.202
53092SOL    HW259301   9.830   4.486   0.324
53093SOL     OW59302  10.591   4.069   0.944
53093SOL    HW159303  10.505   4.019   0.931
53093SOL    HW259304  10.653   4.015   1.000
53094SOL     OW59305  10.886   5.386   0.307
53094SOL    HW159306  10.975   5.432   0.310
53094SOL    HW259307  10.865   5.362   0.212
53095SOL     OW59308  10.117   4.329   1.465
53095SOL    HW159309  10.070   4.326   1.554
53095SOL    HW259310  10.066   4.274   1.399
53096SOL     OW59311  10.704   4.193   1.674
53096SOL    HW159312  10.684   4.236   1.762
53096SOL    HW259313  10.782   4.131   1.683
53097SOL     OW59314  10.283   4.614   1.572
53097SOL    HW159315  10.329   4.530   1.543
53097SOL    HW259316  10.227   4.648   1.497
53098SOL     OW59317  10.301   4.134   1.242
53098SOL    HW159318  10.224   4.168   1.296
53098SOL    HW259319  10.267   4.083   1.163
53099SOL     OW59320  10.351   4.425   0.429
53099SOL    HW159321  10.377   4.421   0.525
53099SOL    HW259322  10.266   4.374   0.415
53100SOL     OW59323   9.386   4.535   0.789
53100SOL    HW159324   9.485   4.523   0.798
53100SOL    HW259325   9.362   4.630   0.810
53101SOL     OW59326   9.440   5.545   1.571
53101SOL    HW159327   9.430   5.530   1.670
53101SOL    HW259328   9.354   5.581   1.535
53102SOL     OW59329  10.175   4.072   0.195
53102SOL    HW159330  10.234   4.135   0.146
53102SOL    HW259331  10.194   3.978   0.166
53103SOL     OW59332  11.029   4.309   1.831
53103SOL    HW159333  11.003   4.398   1.795
53103SOL    HW259334  11.027   4.241   1.758
53104SOL     OW59335  10.672   4.868   0.545
53104SOL    HW159336  10.755   4.839   0.497
53104SOL    HW259337  10.623   4.935   0.489
53105SOL     OW59338   9.860   3.920   0.885
53105SOL    HW159339   9.855   3.915   0.985
53105SOL    HW259340   9.862   4.016   0.856
53106SOL     OW59341  10.318   5.180   0.477
53106SOL    HW159342  10.272   5.252   0.425
53106SOL    HW259343  10.314   5.200   0.575
53107SOL     OW59344   9.661   5.525   0.853
53107SOL    HW159345   9.711   5.439   0.859
53107SOL    HW259346   9.726   5.602   0.850
53108SOL     OW59347  11.105   4.790   0.873
53108SOL    HW159348  11.043   4.775   0.797
53108SOL    HW259349  11.053   4.801   0.958
53109SOL     OW59350  10.537   5.274   1.506
53109SOL    HW159351  10.543   5.197   1.570
53109SOL    HW259352  10.485   5.248   1.426
53110SOL     OW59353   9.631   4.667   0.242
53110SOL    HW159354   9.713   4.706   0.200
53110SOL    HW259355   9.604   4.585   0.193
53111SOL     OW59356  10.768   4.459   0.728
53111SOL    HW159357  10.763   4.394   0.803
53111SOL    HW259358  10.848   4.518   0.741
53112SOL     OW59359   9.771   4.990   1.727
53112SOL    HW159360   9.721   4.991   1.641
53112SOL    HW259361   9.708   4.972   1.803
53113SOL     OW59362  10.421   5.500   0.237
53113SOL    HW159363  10.361   5.438   0.287
53113SOL    HW259364  10.452   5.456   0.152
53114SOL     OW59365   9.512   4.009   1.498
53114SOL    HW159366   9.432   4.069   1.485
53114SOL    HW259367   9.502   3.960   1.584
53115SOL     OW59368  10.942   5.101   0.081
53115SOL    HW159369  10.910   5.195   0.071
53115SOL    HW259370  10.866   5.038   0.069
53116SOL     OW59371   9.774   5.467   0.323
53116SOL    HW159372   9.807   5.506   0.409
53116SOL    HW259373   9.850   5.460   0.258
53117SOL     OW59374  10.710   3.831   0.426
53117SOL    HW159375  10.686   3.794   0.336
53117SOL    HW259376  10.809   3.847   0.430
53118SOL     OW59377   9.559   5.509   1.241
53118SOL    HW159378   9.616   5.444   1.291
53118SOL    HW259379   9.543   5.476   1.148
53119SOL     OW59380  10.250   5.422   0.904
53119SOL    HW159381  10.330   5.365   0.925
53119SOL    HW259382  10.201   5.382   0.827
53120SOL     OW59383   9.692   4.424   0.480
53120SOL    HW159384   9.737   4.334   0.477
53120SOL    HW259385   9.598   4.413   0.513
53121SOL     OW59386  10.857   3.946   1.729
53121SOL    HW159387  10.852   3.983   1.821
53121SOL    HW259388  10.785   3.877   1.717
53122SOL     OW59389   9.924   3.846   0.117
53122SOL    HW159390  10.022   3.824   0.124
53122SOL    HW259391   9.893   3.829   0.024
53123SOL     OW59392  10.091   3.988   1.749
53123SOL    HW159393  10.158   3.927   1.792
53123SOL    HW259394  10.018   4.007   1.814
53124SOL     OW59395  10.198   5.238   1.195
53124SOL    HW159396  10.175   5.213   1.101
53124SOL    HW259397  10.259   5.169   1.234
53125SOL     OW59398  10.661   4.314   1.433
53125SOL    HW159399  10.689   4.271   1.518
53125SOL    HW259400  10.686   4.410   1.434
53126SOL     OW59401  10.113   5.126   0.924
53126SOL    HW159402  10.203   5.140   0.882
53126SOL    HW259403  10.042   5.128   0.853
53127SOL     OW59404  10.232   4.227   0.899
53127SOL    HW159405  10.207   4.218   0.803
53127SOL    HW259406  10.280   4.145   0.930
53128SOL     OW59407   9.849   3.788   0.512
53128SOL    HW159408   9.768   3.789   0.570
53128SOL    HW259409   9.852   3.871   0.457
53129SOL     OW59410  10.744   4.912   0.041
53129SOL    HW159411  10.776   4.836   0.098
53129SOL    HW259412  10.652   4.939   0.071
53130SOL     OW59413   9.607   3.759   0.171
53130SOL    HW159414   9.656   3.843   0.150
53130SOL    HW259415   9.669   3.694   0.216
53131SOL     OW59416  10.245   3.960   0.480
53131SOL    HW159417  10.197   4.001   0.402
53131SOL    HW259418  10.344   3.958   0.461
53132SOL     OW59419  10.386   4.407   1.464
53132SOL    HW159420  10.306   4.346   1.467
53132SOL    HW259421  10.467   4.354   1.440
53133SOL     OW59422  10.537   5.294   0.793
53133SOL    HW159423  10.558   5.368   0.728
53133SOL    HW259424  10.605   5.294   0.866
53134SOL     OW59425   9.769   4.876   0.741
53134SOL    HW159426   9.698   4.849   0.806
53134SOL    HW259427   9.743   4.848   0.648
53135SOL     OW59428  10.581   5.521   0.591
53135SOL    HW159429  10.625   5.585   0.527
53135SOL    HW259430  10.531   5.573   0.661
53136SOL     OW59431  10.342   4.273   0.016
53136SOL    HW159432  10.301   4.355  -0.023
53136SOL    HW259433  10.406   4.299   0.089
53137SOL     OW59434   9.388   4.280   1.386
53137SOL    HW159435   9.480   4.279   1.345
53137SOL    HW259436   9.382   4.354   1.453
53138SOL     OW59437   9.871   3.946   1.147
53138SOL    HW159438   9.909   3.862   1.184
53138SOL    HW259439   9.783   3.965   1.191
53139SOL     OW59440  10.176   4.178   0.642
53139SOL    HW159441  10.144   4.250   0.580
53139SOL    HW259442  10.200   4.097   0.589
53140SOL     OW59443  10.327   3.763   0.753
53140SOL    HW159444  10.255   3.768   0.684
53140SOL    HW259445  10.303   3.694   0.822
53141SOL     OW59446  10.739   4.897   0.867
53141SOL    HW159447  10.684   4.813   0.860
53141SOL    HW259448  10.765   4.926   0.775
53142SOL     OW59449  10.776   4.314   0.992
53142SOL    HW159450  10.746   4.219   0.999
53142SOL    HW259451  10.849   4.330   1.058
53143SOL     OW59452  11.167   4.557   0.377
53143SOL    HW159453  11.209   4.493   0.441
53143SOL    HW259454  11.129   4.506   0.299
53144SOL     OW59455   9.798   5.109   0.174
53144SOL    HW159456   9.711   5.094   0.221
53144SOL    HW259457   9.781   5.135   0.079
53145SOL     OW59458  10.974   5.004   0.657
53145SOL    HW159459  11.073   5.012   0.671
53145SOL    HW259460  10.929   5.088   0.688
53146SOL     OW59461  10.700   4.299   0.078
53146SOL    HW159462  10.646   4.278   0.159
53146SOL    HW259463  10.791   4.258   0.087
53147SOL     OW59464   9.837   3.980   0.328
53147SOL    HW159465   9.864   3.921   0.253
53147SOL    HW259466   9.837   4.075   0.297
53148SOL     OW59467  11.064   4.947   1.588
53148SOL    HW159468  11.155   4.908   1.575
53148SOL    HW259469  11.072   5.043   1.612
53149SOL     OW59470  10.374   5.071   1.340
53149SOL    HW159471  10.294   5.048   1.395
53149SOL    HW259472  10.457   5.045   1.389
53150SOL     OW59473  10.902   5.353   1.625
53150SOL    HW159474  10.929   5.387   1.535
53150SOL    HW259475  10.981   5.315   1.671
53151SOL     OW59476  10.421   4.919   1.100
53151SOL    HW159477  10.381   4.963   1.181
53151SOL    HW259478  10.380   4.956   1.017
53152SOL     OW59479  10.948   4.823   1.079
53152SOL    HW159480  10.953   4.904   1.138
53152SOL    HW259481  10.862   4.825   1.028
53153SOL     OW59482  10.225   3.813   1.402
53153SOL    HW159483  10.250   3.793   1.307
53153SOL    HW259484  10.297   3.869   1.444
53154SOL     OW59485  10.290   4.840   1.719
53154SOL    HW159486  10.191   4.846   1.729
53154SOL    HW259487  10.313   4.760   1.663
53155SOL     OW59488  10.015   4.774   0.368
53155SOL    HW159489  10.001   4.781   0.467
53155SOL    HW259490  10.099   4.723   0.350
53156SOL     OW59491   9.720   4.537   1.251
53156SOL    HW159492   9.806   4.549   1.301
53156SOL    HW259493   9.678   4.450   1.278
53157SOL     OW59494  10.584   4.110   1.262
53157SOL    HW159495  10.605   4.184   1.326
53157SOL    HW259496  10.495   4.127   1.219
53158SOL     OW59497   9.374   5.288   1.331
53158SOL    HW159498   9.328   5.370   1.297
53158SOL    HW259499   9.472   5.307   1.340
53159SOL     OW59500   9.677   4.824   0.501
53159SOL    HW159501   9.670   4.907   0.445
53159SOL    HW259502   9.681   4.744   0.441
53160SOL     OW59503   9.876   4.261   0.865
53160SOL    HW159504   9.888   4.327   0.791
53160SOL    HW259505   9.922   4.295   0.948
53161SOL     OW59506  10.562   5.072   0.388
53161SOL    HW159507  10.612   5.149   0.428
53161SOL    HW259508  10.467   5.074   0.420
53162SOL     OW59509  10.582   5.169   1.142
53162SOL    HW159510  10.629   5.182   1.229
53162SOL    HW259511  10.516   5.095   1.151
53163SOL     OW59512  10.892   4.363   0.472
53163SOL    HW159513  10.861   4.424   0.545
53163SOL    HW259514  10.942   4.415   0.403
53164SOL     OW59515   9.664   5.234   1.329
53164SOL    HW159516   9.643   5.190   1.242
53164SOL    HW259517   9.761   5.260   1.332
53165SOL     OW59518   9.712   4.475   1.598
53165SOL    HW159519   9.780   4.530   1.551
53165SOL    HW259520   9.752   4.387   1.625
53166SOL     OW59521  10.897   4.503   1.670
53166SOL    HW159522  10.805   4.541   1.665
53166SOL    HW259523  10.957   4.550   1.605
53167SOL     OW59524  10.323   3.829   1.770
53167SOL    HW159525  10.329   3.914   1.718
53167SOL    HW259526  10.355   3.753   1.713
53168SOL     OW59527   9.814   3.774   1.740
53168SOL    HW159528   9.772   3.717   1.670
53168SOL    HW259529   9.748   3.843   1.772
53169SOL     OW59530   9.883   4.594   1.029
53169SOL    HW159531   9.927   4.683   1.020
53169SOL    HW259532   9.820   4.594   1.106
53170SOL     OW59533  10.670   4.586   1.045
53170SOL    HW159534  10.595   4.586   0.979
53170SOL    HW259535  10.707   4.494   1.054
53171SOL     OW59536  10.519   4.249   0.275
53171SOL    HW159537  10.532   4.165   0.329
53171SOL    HW259538  10.490   4.323   0.335
53172SOL     OW59539   9.617   3.937   1.231
53172SOL    HW159540   9.594   3.974   1.321
53172SOL    HW259541   9.587   3.842   1.225
53173SOL     OW59542   9.347   5.034   1.282
53173SOL    HW159543   9.400   4.985   1.350
53173SOL    HW259544   9.369   5.132   1.287
53174SOL     OW59545  10.042   4.358   1.064
53174SOL    HW159546  10.101   4.332   0.988
53174SOL    HW259547  10.014   4.454   1.053
53175SOL     OW59548  11.038   4.659   1.854
53175SOL    HW159549  10.992   4.652   1.765
53175SOL    HW259550  10.976   4.703   1.920
53176SOL     OW59551   9.617   3.787   0.618
53176SOL    HW159552   9.606   3.881   0.651
53176SOL    HW259553   9.612   3.724   0.695
53177SOL     OW59554  10.932   4.091   0.374
53177SOL    HW159555  10.934   4.015   0.438
53177SOL    HW259556  10.884   4.168   0.414
53178SOL     OW59557  10.333   4.490   0.966
53178SOL    HW159558  10.348   4.511   1.062
53178SOL    HW259559  10.303   4.395   0.957
53179SOL     OW59560  10.290   5.297   1.700
53179SOL    HW159561  10.270   5.341   1.612
53179SOL    HW259562  10.329   5.206   1.684
53180SOL     OW59563  11.169   5.242   1.605
53180SOL    HW159564  11.183   5.269   1.510
53180SOL    HW259565  11.252   5.264   1.658
53181SOL     OW59566   9.660   4.622   1.804
53181SOL    HW159567   9.736   4.666   1.852
53181SOL    HW259568   9.695   4.575   1.722
53182SOL     OW59569  10.850   3.998   0.125
53182SOL    HW159570  10.789   3.923   0.148
53182SOL    HW259571  10.872   4.050   0.208
53183SOL     OW59572  10.613   4.562   0.042
53183SOL    HW159573  10.647   4.469   0.057
53183SOL    HW259574  10.631   4.589  -0.053
53184SOL     OW59575  10.378   5.057   0.849
53184SOL    HW159576  10.385   4.973   0.794
53184SOL    HW259577  10.440   5.126   0.813
53185SOL     OW59578   9.629   4.534   0.949
53185SOL    HW159579   9.722   4.570   0.954
53185SOL    HW259580   9.623   4.449   1.001
53186SOL     OW59581   9.649   4.233   1.006
53186SOL    HW159582   9.597   4.150   0.989
53186SOL    HW259583   9.726   4.238   0.942
53187SOL     OW59584  10.448   4.104   1.678
53187SOL    HW159585  10.403   4.167   1.742
53187SOL    HW259586  10.541   4.135   1.661
53188SOL     OW59587  10.470   3.931   1.477
53188SOL    HW159588  10.470   3.995   1.554
53188SOL    HW259589  10.498   3.979   1.394
53189SOL     OW59590   9.318   5.050   0.200
53189SOL    HW159591   9.225   5.071   0.169
53189SOL    HW259592   9.328   4.951   0.213
53190SOL     OW59593   9.398   5.525   0.927
53190SOL    HW159594   9.356   5.439   0.900
53190SOL    HW259595   9.492   5.528   0.893
53191SOL     OW59596   9.814   5.292   0.910
53191SOL    HW159597   9.880   5.366   0.919
53191SOL    HW259598   9.858   5.213   0.868
53192SOL     OW59599  10.312   4.520   1.238
53192SOL    HW159600  10.353   4.488   1.324
53192SOL    HW259601  10.216   4.493   1.235
53193SOL     OW59602   9.350   4.268   1.114
53193SOL    HW159603   9.435   4.235   1.073
53193SOL    HW259604   9.363   4.283   1.212
53194SOL     OW59605   9.499   4.244   1.722
53194SOL    HW159606   9.558   4.204   1.652
53194SOL    HW259607   9.441   4.315   1.681
53195SOL     OW59608  10.679   4.674   1.660
53195SOL    HW159609  10.718   4.763   1.680
53195SOL    HW259610  10.689   4.654   1.563
53196SOL     OW59611  10.125   4.296   0.325
53196SOL    HW159612  10.132   4.207   0.279
53196SOL    HW259613  10.031   4.330   0.317
53197SOL     OW59614  10.967   4.328   1.206
53197SOL    HW159615  10.929   4.259   1.268
53197SOL    HW259616  11.049   4.292   1.162
53198SOL     OW59617   9.562   5.288   1.744
53198SOL    HW159618   9.532   5.345   1.820
53198SOL    HW259619   9.555   5.191   1.770
53199SOL     OW59620   9.981   4.188   1.269
53199SOL    HW159621   9.947   4.099   1.239
53199SOL    HW259622  10.007   4.242   1.189
53200SOL     OW59623  10.240   5.402   1.465
53200SOL    HW159624  10.216   5.384   1.370
53200SOL    HW259625  10.270   5.496   1.475
53201SOL     OW59626   9.783   4.224   0.191
53201SOL    HW159627   9.844   4.304   0.195
53201SOL    HW259628   9.688   4.255   0.198
53202SOL     OW59629   9.469   4.861   1.466
53202SOL    HW159630   9.491   4.800   1.542
53202SOL    HW259631   9.479   4.812   1.380
53203SOL     OW59632  10.657   4.783   1.234
53203SOL    HW159633  10.681   4.720   1.160
53203SOL    HW259634  10.567   4.823   1.216
53204SOL     OW59635  10.612   4.579   0.309
53204SOL    HW159636  10.526   4.548   0.351
53204SOL    HW259637  10.608   4.565   0.210
53205SOL     OW59638  11.069   5.471   1.154
53205SOL    HW159639  11.130   5.501   1.081
53205SOL    HW259640  11.031   5.382   1.132
53206SOL     OW59641  10.562   5.455   1.128
53206SOL    HW159642  10.646   5.460   1.074
53206SOL    HW259643  10.539   5.359   1.146
53207SOL     OW59644   9.393   4.982   1.022
53207SOL    HW159645   9.388   4.981   1.122
53207SOL    HW259646   9.310   4.941   0.984
53208SOL     OW59647   9.998   5.386   1.716
53208SOL    HW159648   9.942   5.467   1.725
53208SOL    HW259649  10.050   5.390   1.630
53209SOL     OW59650  10.213   3.810   0.133
53209SOL    HW159651  10.264   3.811   0.047
53209SOL    HW259652  10.269   3.768   0.204
53210SOL     OW59653  11.036   3.859   0.523
53210SOL    HW159654  11.109   3.842   0.456
53210SOL    HW259655  11.005   3.772   0.561
53211SOL     OW59656  10.698   5.297   0.477
53211SOL    HW159657  10.765   5.309   0.403
53211SOL    HW259658  10.658   5.386   0.500
53212SOL     OW59659   9.440   5.518   1.851
53212SOL    HW159660   9.399   5.444   1.904
53212SOL    HW259661   9.504   5.569   1.909
53213SOL     OW59662  10.590   4.651   0.672
53213SOL    HW159663  10.650   4.570   0.674
53213SOL    HW259664  10.630   4.720   0.612
53214SOL     OW59665  10.140   4.997   1.422
53214SOL    HW159666  10.135   5.030   1.517
53214SOL    HW259667  10.054   5.016   1.376
53215SOL     OW59668   9.982   5.340   0.154
53215SOL    HW159669   9.991   5.350   0.055
53215SOL    HW259670   9.942   5.251   0.175
53216SOL     OW59671  10.960   5.444   1.394
53216SOL    HW159672  11.013   5.454   1.310
53216SOL    HW259673  10.933   5.534   1.428
53217SOL     OW59674  11.151   3.899   0.963
53217SOL    HW159675  11.190   3.814   0.927
53217SOL    HW259676  11.053   3.901   0.944
53218SOL     OW59677   9.573   4.050   0.720
53218SOL    HW159678   9.494   4.101   0.686
53218SOL    HW259679   9.564   4.035   0.818
53219SOL     OW59680  10.504   5.336   0.031
53219SOL    HW159681  10.510   5.243   0.068
53219SOL    HW259682  10.445   5.336  -0.049
53220SOL     OW59683  10.132   4.726   1.372
53220SOL    HW159684  10.172   4.725   1.280
53220SOL    HW259685  10.142   4.818   1.412
53221SOL     OW59686  10.226   4.634   0.291
53221SOL    HW159687  10.289   4.672   0.223
53221SOL    HW259688  10.266   4.551   0.330
53222SOL     OW59689  10.814   5.331   0.044
53222SOL    HW159690  10.722   5.368   0.051
53222SOL    HW259691  10.852   5.351  -0.046
53223SOL     OW59692   9.682   5.012   1.490
53223SOL    HW159693   9.669   5.105   1.456
53223SOL    HW259694   9.598   4.960   1.477
53224SOL     OW59695  10.924   5.016   1.289
53224SOL    HW159696  10.984   5.019   1.369
53224SOL    HW259697  10.849   5.080   1.302
53225SOL     OW59698  10.349   4.822   0.696
53225SOL    HW159699  10.279   4.775   0.750
53225SOL    HW259700  10.408   4.754   0.653
53226SOL     OW59701  10.324   3.960   0.971
53226SOL    HW159702  10.316   3.924   0.878
53226SOL    HW259703  10.322   3.884   1.036
53227SOL     OW59704   9.900   5.211   0.491
53227SOL    HW159705   9.942   5.153   0.421
53227SOL    HW259706   9.856   5.290   0.447
53228SOL     OW59707  11.019   4.109   1.381
53228SOL    HW159708  11.092   4.178   1.385
53228SOL    HW259709  11.047   4.034   1.322
53229SOL     OW59710   9.565   5.072   0.290
53229SOL    HW159711   9.469   5.073   0.263
53229SOL    HW259712   9.577   5.125   0.374
53230SOL     OW59713   9.415   4.737   1.726
53230SOL    HW159714   9.338   4.704   1.780
53230SOL    HW259715   9.500   4.707   1.768
53231SOL     OW59716   9.982   3.927   1.489
53231SOL    HW159717  10.072   3.911   1.449
53231SOL    HW259718   9.990   3.932   1.588
53232SOL     OW59719  10.750   4.580   1.398
53232SOL    HW159720  10.693   4.632   1.335
53232SOL    HW259721  10.846   4.592   1.374
53233SOL     OW59722   9.382   3.890   0.318
53233SOL    HW159723   9.365   3.973   0.264
53233SOL    HW259724   9.472   3.853   0.296
53234SOL     OW59725  10.493   5.059   0.119
53234SOL    HW159726  10.394   5.048   0.121
53234SOL    HW259727  10.527   5.074   0.212
53235SOL     OW59728   9.923   4.566   1.431
53235SOL    HW159729   9.979   4.647   1.414
53235SOL    HW259730   9.982   4.486   1.434
53236SOL     OW59731  10.803   5.491   0.959
53236SOL    HW159732  10.836   5.555   0.890
53236SOL    HW259733  10.869   5.485   1.034
53237SOL     OW59734  10.026   4.289   1.708
53237SOL    HW159735  10.045   4.354   1.782
53237SOL    HW259736  10.086   4.209   1.717
53238SOL     OW59737  10.760   4.944   1.633
53238SOL    HW159738  10.751   4.934   1.732
53238SOL    HW259739  10.856   4.937   1.607
53239SOL     OW59740   9.700   5.465   1.560
53239SOL    HW159741   9.609   5.506   1.558
53239SOL    HW259742   9.693   5.371   1.592
53240SOL     OW59743  10.984   4.607   1.254
53240SOL    HW159744  10.957   4.518   1.217
53240SOL    HW259745  10.985   4.675   1.181
53241SOL     OW59746  10.535   4.049   0.449
53241SOL    HW159747  10.600   3.975   0.438
53241SOL    HW259748  10.555   4.099   0.533
53242SOL     OW59749   9.904   4.469   0.652
53242SOL    HW159750   9.954   4.554   0.633
53242SOL    HW259751   9.816   4.471   0.604
53243SOL     OW59752  11.087   4.066   1.642
53243SOL    HW159753  11.070   4.097   1.548
53243SOL    HW259754  11.003   4.029   1.680
53244SOL     OW59755  11.040   4.658   1.517
53244SOL    HW159756  11.078   4.749   1.532
53244SOL    HW259757  11.032   4.641   1.418
53245SOL     OW59758  10.169   5.098   0.016
53245SOL    HW159759  10.123   5.113   0.104
53245SOL    HW259760  10.213   5.183  -0.014
53246SOL     OW59761   9.971   5.514   0.953
53246SOL    HW159762   9.925   5.602   0.940
53246SOL    HW259763  10.070   5.526   0.946
53247SOL     OW59764  10.169   4.680   0.861
53247SOL    HW159765  10.223   4.611   0.909
53247SOL    HW259766  10.137   4.749   0.927
53248SOL     OW59767  10.393   4.708   0.087
53248SOL    HW159768  10.370   4.761   0.005
53248SOL    HW259769  10.474   4.652   0.068
53249SOL     OW59770  11.171   5.293   0.851
53249SOL    HW159771  11.100   5.281   0.781
53249SOL    HW259772  11.172   5.214   0.911
53250SOL     OW59773   9.531   5.038   1.844
53250SOL    HW159774   9.466   4.965   1.823
53250SOL    HW259775   9.535   5.052   1.942
53251SOL     OW59776   9.389   4.964   0.653
53251SOL    HW159777   9.388   4.917   0.741
53251SOL    HW259778   9.471   4.936   0.602
53252SOL     OW59779   9.982   5.115   1.624
53252SOL    HW159780   9.904   5.065   1.662
53252SOL    HW259781   9.979   5.210   1.655
53253SOL     OW59782  11.134   3.916   1.227
53253SOL    HW159783  11.130   3.826   1.271
53253SOL    HW259784  11.137   3.905   1.128
53254SOL     OW59785   9.738   4.148   0.520
53254SOL    HW159786   9.768   4.076   0.458
53254SOL    HW259787   9.699   4.108   0.603
53255SOL     OW59788  11.015   5.211   1.104
53255SOL    HW159789  10.922   5.186   1.077
53255SOL    HW259790  11.041   5.161   1.186
53256SOL     OW59791   9.627   4.271   1.280
53256SOL    HW159792   9.665   4.212   1.352
53256SOL    HW259793   9.667   4.245   1.192
53257SOL     OW59794  10.122   5.310   0.687
53257SOL    HW159795  10.154   5.320   0.593
53257SOL    HW259796  10.043   5.248   0.689
53258SOL     OW59797  10.734   3.938   1.112
53258SOL    HW159798  10.786   3.873   1.167
53258SOL    HW259799  10.685   4.001   1.173
53259SOL     OW59800  10.311   3.758   1.154
53259SOL    HW159801  10.248   3.686   1.123
53259SOL    HW259802  10.404   3.722   1.154
53260SOL     OW59803  10.080   5.054   0.301
53260SOL    HW159804  10.034   4.967   0.318
53260SOL    HW259805  10.171   5.051   0.342
53261SOL     OW59806   9.928   5.291   1.284
53261SOL    HW159807   9.923   5.373   1.341
53261SOL    HW259808  10.017   5.288   1.239
53262SOL     OW59809  10.662   3.776   0.168
53262SOL    HW159810  10.697   3.735   0.084
53262SOL    HW259811  10.572   3.738   0.188
53263SOL     OW59812  10.610   4.177   0.691
53263SOL    HW159813  10.551   4.257   0.695
53263SOL    HW259814  10.625   4.142   0.784
53264SOL     OW59815  10.903   3.945   0.882
53264SOL    HW159816  10.819   3.944   0.936
53264SOL    HW259817  10.905   4.028   0.826
53265SOL     OW59818   9.349   4.801   0.300
53265SOL    HW159819   9.448   4.790   0.291
53265SOL    HW259820   9.309   4.715   0.332
53266SOL     OW59821  10.185   5.370   0.337
53266SOL    HW159822  10.108   5.335   0.283
53266SOL    HW259823  10.153   5.441   0.399
53267SOL     OW59824   9.540   4.352   1.975
53267SOL    HW159825   9.447   4.350   2.012
53267SOL    HW259826   9.541   4.313   1.883
53268SOL     OW59827   9.535   3.999   2.858
53268SOL    HW159828   9.570   3.982   2.950
53268SOL    HW259829   9.447   3.954   2.846
53269SOL     OW59830   9.329   4.092   2.509
53269SOL    HW159831   9.247   4.135   2.548
53269SOL    HW259832   9.301   4.019   2.446
53270SOL     OW59833   9.879   4.999   3.027
53270SOL    HW159834   9.786   4.992   2.990
53270SOL    HW259835   9.890   5.088   3.071
53271SOL     OW59836  10.865   5.235   2.565
53271SOL    HW159837  10.808   5.219   2.646
53271SOL    HW259838  10.806   5.245   2.485
53272SOL     OW59839  10.445   4.427   2.579
53272SOL    HW159840  10.502   4.505   2.554
53272SOL    HW259841  10.385   4.453   2.655
53273SOL     OW59842  11.065   4.331   2.093
53273SOL    HW159843  11.053   4.318   1.994
53273SOL    HW259844  11.035   4.250   2.142
53274SOL     OW59845  10.078   4.868   2.885
53274SOL    HW159846  10.000   4.885   2.945
53274SOL    HW259847  10.112   4.955   2.849
53275SOL     OW59848  10.160   4.522   3.685
53275SOL    HW159849  10.156   4.598   3.750
53275SOL    HW259850  10.182   4.558   3.594
53276SOL     OW59851   9.995   4.736   2.527
53276SOL    HW159852  10.064   4.720   2.597
53276SOL    HW259853   9.922   4.793   2.565
53277SOL     OW59854   9.996   4.885   3.665
53277SOL    HW159855  10.056   4.964   3.679
53277SOL    HW259856   9.910   4.916   3.624
53278SOL     OW59857   9.645   5.159   2.923
53278SOL    HW159858   9.567   5.128   2.870
53278SOL    HW259859   9.703   5.217   2.866
53279SOL     OW59860  10.770   5.229   3.201
53279SOL    HW159861  10.794   5.323   3.227
53279SOL    HW259862  10.754   5.175   3.283
53280SOL     OW59863   9.748   4.116   3.361
53280SOL    HW159864   9.830   4.060   3.370
53280SOL    HW259865   9.667   4.058   3.365
53281SOL     OW59866  10.913   4.171   2.599
53281SOL    HW159867  10.839   4.217   2.549
53281SOL    HW259868  10.964   4.239   2.652
53282SOL     OW59869   9.541   5.437   2.345
53282SOL    HW159870   9.575   5.514   2.399
53282SOL    HW259871   9.585   5.437   2.255
53283SOL     OW59872  10.437   5.065   3.552
53283SOL    HW159873  10.484   5.065   3.640
53283SOL    HW259874  10.389   4.978   3.541
53284SOL     OW59875   9.540   5.158   2.400
53284SOL    HW159876   9.514   5.254   2.400
53284SOL    HW259877   9.469   5.104   2.445
53285SOL     OW59878   9.550   4.815   2.748
53285SOL    HW159879   9.564   4.731   2.800
53285SOL    HW259880   9.495   4.879   2.803
53286SOL     OW59881   9.930   5.510   3.301
53286SOL    HW159882   9.838   5.493   3.336
53286SOL    HW259883   9.958   5.602   3.327
53287SOL     OW59884   9.916   4.688   1.985
53287SOL    HW159885   9.923   4.772   1.931
53287SOL    HW259886   9.962   4.701   2.073
53288SOL     OW59887  10.904   3.838   3.342
53288SOL    HW159888  10.886   3.905   3.270
53288SOL    HW259889  10.901   3.884   3.431
53289SOL     OW59890   9.432   4.367   2.425
53289SOL    HW159891   9.387   4.279   2.442
53289SOL    HW259892   9.431   4.421   2.509
53290SOL     OW59893  11.152   5.491   2.221
53290SOL    HW159894  11.206   5.462   2.301
53290SOL    HW259895  11.182   5.581   2.192
53291SOL     OW59896   9.337   5.320   1.979
53291SOL    HW159897   9.318   5.224   2.000
53291SOL    HW259898   9.304   5.378   2.054
53292SOL     OW59899  10.999   4.646   2.474
53292SOL    HW159900  11.094   4.617   2.482
53292SOL    HW259901  10.991   4.711   2.399
53293SOL     OW59902  10.951   4.832   2.294
53293SOL    HW159903  11.037   4.834   2.242
53293SOL    HW259904  10.965   4.879   2.382
53294SOL     OW59905   9.423   4.461   3.459
53294SOL    HW159906   9.511   4.448   3.504
53294SOL    HW259907   9.410   4.558   3.437
53295SOL     OW59908   9.923   5.089   2.588
53295SOL    HW159909   9.874   5.002   2.597
53295SOL    HW259910   9.900   5.132   2.501
53296SOL     OW59911  10.603   4.952   3.285
53296SOL    HW159912  10.640   4.879   3.227
53296SOL    HW259913  10.655   4.957   3.370
53297SOL     OW59914  10.119   3.728   2.364
53297SOL    HW159915  10.159   3.819   2.355
53297SOL    HW259916  10.019   3.736   2.370
53298SOL     OW59917   9.507   4.700   3.126
53298SOL    HW159918   9.596   4.655   3.112
53298SOL    HW259919   9.434   4.635   3.107
53299SOL     OW59920  10.835   4.723   2.052
53299SOL    HW159921  10.772   4.647   2.065
53299SOL    HW259922  10.883   4.741   2.138
53300SOL     OW59923  10.497   5.516   3.478
53300SOL    HW159924  10.521   5.576   3.402
53300SOL    HW259925  10.504   5.421   3.448
53301SOL     OW59926   9.627   3.975   3.663
53301SOL    HW159927   9.698   4.046   3.669
53301SOL    HW259928   9.539   4.014   3.691
53302SOL     OW59929  10.776   5.141   2.815
53302SOL    HW159930  10.717   5.147   2.895
53302SOL    HW259931  10.761   5.053   2.769
53303SOL     OW59932  10.977   5.438   2.434
53303SOL    HW159933  10.936   5.415   2.346
53303SOL    HW259934  10.959   5.364   2.499
53304SOL     OW59935   9.908   4.453   2.132
53304SOL    HW159936   9.932   4.522   2.064
53304SOL    HW259937   9.830   4.486   2.186
53305SOL     OW59938  10.591   4.069   2.806
53305SOL    HW159939  10.505   4.019   2.793
53305SOL    HW259940  10.653   4.015   2.862
53306SOL     OW59941  10.886   5.386   2.169
53306SOL    HW159942  10.975   5.432   2.172
53306SOL    HW259943  10.865   5.362   2.074
53307SOL     OW59944  10.117   4.329   3.327
53307SOL    HW159945  10.070   4.326   3.416
53307SOL    HW259946  10.066   4.274   3.261
53308SOL     OW59947  10.704   4.193   3.536
53308SOL    HW159948  10.684   4.236   3.624
53308SOL    HW259949  10.782   4.131   3.545
53309SOL     OW59950  10.283   4.614   3.434
53309SOL    HW159951  10.329   4.530   3.405
53309SOL    HW259952  10.227   4.648   3.359
53310SOL     OW59953  10.301   4.134   3.104
53310SOL    HW159954  10.224   4.168   3.158
53310SOL    HW259955  10.267   4.083   3.025
53311SOL     OW59956  10.351   4.425   2.291
53311SOL    HW159957  10.377   4.421   2.387
53311SOL    HW259958  10.266   4.374   2.277
53312SOL     OW59959   9.386   4.535   2.651
53312SOL    HW159960   9.485   4.523   2.660
53312SOL    HW259961   9.362   4.630   2.672
53313SOL     OW59962   9.440   5.545   3.433
53313SOL    HW159963   9.430   5.530   3.532
53313SOL    HW259964   9.354   5.581   3.397
53314SOL     OW59965  10.175   4.072   2.057
53314SOL    HW159966  10.234   4.135   2.008
53314SOL    HW259967  10.194   3.978   2.028
53315SOL     OW59968  11.029   4.309   3.693
53315SOL    HW159969  11.003   4.398   3.657
53315SOL    HW259970  11.027   4.241   3.620
53316SOL     OW59971  10.672   4.868   2.407
53316SOL    HW159972  10.755   4.839   2.359
53316SOL    HW259973  10.623   4.935   2.351
53317SOL     OW59974   9.860   3.920   2.747
53317SOL    HW159975   9.855   3.915   2.847
53317SOL    HW259976   9.862   4.016   2.718
53318SOL     OW59977  10.318   5.180   2.339
53318SOL    HW159978  10.272   5.252   2.287
53318SOL    HW259979  10.314   5.200   2.437
53319SOL     OW59980   9.661   5.525   2.715
53319SOL    HW159981   9.711   5.439   2.721
53319SOL    HW259982   9.726   5.602   2.712
53320SOL     OW59983  11.105   4.790   2.735
53320SOL    HW159984  11.043   4.775   2.659
53320SOL    HW259985  11.053   4.801   2.820
53321SOL     OW59986  10.537   5.274   3.368
53321SOL    HW159987  10.543   5.197   3.432
53321SOL    HW259988  10.485   5.248   3.288
53322SOL     OW59989   9.631   4.667   2.104
53322SOL    HW159990   9.713   4.706   2.062
53322SOL    HW259991   9.604   4.585   2.055
53323SOL     OW59992  10.768   4.459   2.590
53323SOL    HW159993  10.763   4.394   2.665
53323SOL    HW259994  10.848   4.518   2.603
53324SOL     OW59995   9.771   4.990   3.589
53324SOL    HW159996   9.721   4.991   3.503
53324SOL    HW259997   9.708   4.972   3.665
53325SOL     OW59998  10.421   5.500   2.099
53325SOL    HW159999  10.361   5.438   2.149
53325SOL    HW260000  10.452   5.456   2.014
53326SOL     OW60001   9.512   4.009   3.360
53326SOL    HW160002   9.432   4.069   3.347
53326SOL    HW260003   9.502   3.960   3.446
53327SOL     OW60004  10.942   5.101   1.943
53327SOL    HW160005  10.910   5.195   1.933
53327SOL    HW260006  10.866   5.038   1.931
53328SOL     OW60007   9.774   5.467   2.185
53328SOL    HW160008   9.807   5.506   2.271
53328SOL    HW260009   9.850   5.460   2.120
53329SOL     OW60010  10.710   3.831   2.288
53329SOL    HW160011  10.686   3.794   2.198
53329SOL    HW260012  10.809   3.847   2.292
53330SOL     OW60013   9.559   5.509   3.103
53330SOL    HW160014   9.616   5.444   3.153
53330SOL    HW260015   9.543   5.476   3.010
53331SOL     OW60016  10.250   5.422   2.766
53331SOL    HW160017  10.330   5.365   2.787
53331SOL    HW260018  10.201   5.382   2.689
53332SOL     OW60019   9.692   4.424   2.342
53332SOL    HW160020   9.737   4.334   2.339
53332SOL    HW260021   9.598   4.413   2.375
53333SOL     OW60022  10.857   3.946   3.591
53333SOL    HW160023  10.852   3.983   3.683
53333SOL    HW260024  10.785   3.877   3.579
53334SOL     OW60025   9.924   3.846   1.979
53334SOL    HW160026  10.022   3.824   1.986
53334SOL    HW260027   9.893   3.829   1.886
53335SOL     OW60028  10.091   3.988   3.611
53335SOL    HW160029  10.158   3.927   3.654
53335SOL    HW260030  10.018   4.007   3.676
53336SOL     OW60031  10.198   5.238   3.057
53336SOL    HW160032  10.175   5.213   2.963
53336SOL    HW260033  10.259   5.169   3.096
53337SOL     OW60034  10.661   4.314   3.295
53337SOL    HW160035  10.689   4.271   3.380
53337SOL    HW260036  10.686   4.410   3.296
53338SOL     OW60037  10.113   5.126   2.786
53338SOL    HW160038  10.203   5.140   2.744
53338SOL    HW260039  10.042   5.128   2.715
53339SOL     OW60040  10.232   4.227   2.761
53339SOL    HW160041  10.207   4.218   2.665
53339SOL    HW260042  10.280   4.145   2.792
53340SOL     OW60043   9.849   3.788   2.374
53340SOL    HW160044   9.768   3.789   2.432
53340SOL    HW260045   9.852   3.871   2.319
53341SOL     OW60046  10.744   4.912   1.903
53341SOL    HW160047  10.776   4.836   1.960
53341SOL    HW260048  10.652   4.939   1.933
53342SOL     OW60049   9.607   3.759   2.033
53342SOL    HW160050   9.656   3.843   2.012
53342SOL    HW260051   9.669   3.694   2.078
53343SOL     OW60052  10.245   3.960   2.342
53343SOL    HW160053  10.197   4.001   2.264
53343SOL    HW260054  10.344   3.958   2.323
53344SOL     OW60055  10.386   4.407   3.326
53344SOL    HW160056  10.306   4.346   3.329
53344SOL    HW260057  10.467   4.354   3.302
53345SOL     OW60058  10.537   5.294   2.655
53345SOL    HW160059  10.558   5.368   2.590
53345SOL    HW260060  10.605   5.294   2.728
53346SOL     OW60061   9.769   4.876   2.603
53346SOL    HW160062   9.698   4.849   2.668
53346SOL    HW260063   9.743   4.848   2.510
53347SOL     OW60064  10.581   5.521   2.453
53347SOL    HW160065  10.625   5.585   2.389
53347SOL    HW260066  10.531   5.573   2.523
53348SOL     OW60067  10.342   4.273   1.878
53348SOL    HW160068  10.301   4.355   1.839
53348SOL    HW260069  10.406   4.299   1.951
53349SOL     OW60070   9.388   4.280   3.248
53349SOL    HW160071   9.480   4.279   3.207
53349SOL    HW260072   9.382   4.354   3.315
53350SOL     OW60073   9.871   3.946   3.009
53350SOL    HW160074   9.909   3.862   3.046
53350SOL    HW260075   9.783   3.965   3.053
53351SOL     OW60076  10.176   4.178   2.504
53351SOL    HW160077  10.144   4.250   2.442
53351SOL    HW260078  10.200   4.097   2.451
53352SOL     OW60079  10.327   3.763   2.615
53352SOL    HW160080  10.255   3.768   2.546
53352SOL    HW260081  10.303   3.694   2.684
53353SOL     OW60082  10.739   4.897   2.729
53353SOL    HW160083  10.684   4.813   2.722
53353SOL    HW260084  10.765   4.926   2.637
53354SOL     OW60085  10.776   4.314   2.854
53354SOL    HW160086  10.746   4.219   2.861
53354SOL    HW260087  10.849   4.330   2.920
53355SOL     OW60088  11.167   4.557   2.239
53355SOL    HW160089  11.209   4.493   2.303
53355SOL    HW260090  11.129   4.506   2.161
53356SOL     OW60091   9.798   5.109   2.036
53356SOL    HW160092   9.711   5.094   2.083
53356SOL    HW260093   9.781   5.135   1.941
53357SOL     OW60094  10.974   5.004   2.519
53357SOL    HW160095  11.073   5.012   2.533
53357SOL    HW260096  10.929   5.088   2.550
53358SOL     OW60097  10.700   4.299   1.940
53358SOL    HW160098  10.646   4.278   2.021
53358SOL    HW260099  10.791   4.258   1.949
53359SOL     OW60100   9.837   3.980   2.190
53359SOL    HW160101   9.864   3.921   2.115
53359SOL    HW260102   9.837   4.075   2.159
53360SOL     OW60103  11.064   4.947   3.450
53360SOL    HW160104  11.155   4.908   3.437
53360SOL    HW260105  11.072   5.043   3.474
53361SOL     OW60106  10.374   5.071   3.202
53361SOL    HW160107  10.294   5.048   3.257
53361SOL    HW260108  10.457   5.045   3.251
53362SOL     OW60109  10.902   5.353   3.487
53362SOL    HW160110  10.929   5.387   3.397
53362SOL    HW260111  10.981   5.315   3.533
53363SOL     OW60112  10.421   4.919   2.962
53363SOL    HW160113  10.381   4.963   3.043
53363SOL    HW260114  10.380   4.956   2.879
53364SOL     OW60115  10.948   4.823   2.941
53364SOL    HW160116  10.953   4.904   3.000
53364SOL    HW260117  10.862   4.825   2.890
53365SOL     OW60118  10.225   3.813   3.264
53365SOL    HW160119  10.250   3.793   3.169
53365SOL    HW260120  10.297   3.869   3.306
53366SOL     OW60121  10.290   4.840   3.581
53366SOL    HW160122  10.191   4.846   3.591
53366SOL    HW260123  10.313   4.760   3.525
53367SOL     OW60124  10.015   4.774   2.230
53367SOL    HW160125  10.001   4.781   2.329
53367SOL    HW260126  10.099   4.723   2.212
53368SOL     OW60127   9.720   4.537   3.113
53368SOL    HW160128   9.806   4.549   3.163
53368SOL    HW260129   9.678   4.450   3.140
53369SOL     OW60130  10.584   4.110   3.124
53369SOL    HW160131  10.605   4.184   3.188
53369SOL    HW260132  10.495   4.127   3.081
53370SOL     OW60133   9.374   5.288   3.193
53370SOL    HW160134   9.328   5.370   3.159
53370SOL    HW260135   9.472   5.307   3.202
53371SOL     OW60136   9.677   4.824   2.363
53371SOL    HW160137   9.670   4.907   2.307
53371SOL    HW260138   9.681   4.744   2.303
53372SOL     OW60139   9.876   4.261   2.727
53372SOL    HW160140   9.888   4.327   2.653
53372SOL    HW260141   9.922   4.295   2.810
53373SOL     OW60142  10.562   5.072   2.250
53373SOL    HW160143  10.612   5.149   2.290
53373SOL    HW260144  10.467   5.074   2.282
53374SOL     OW60145  10.582   5.169   3.004
53374SOL    HW160146  10.629   5.182   3.091
53374SOL    HW260147  10.516   5.095   3.013
53375SOL     OW60148  10.892   4.363   2.334
53375SOL    HW160149  10.861   4.424   2.407
53375SOL    HW260150  10.942   4.415   2.265
53376SOL     OW60151   9.664   5.234   3.191
53376SOL    HW160152   9.643   5.190   3.104
53376SOL    HW260153   9.761   5.260   3.194
53377SOL     OW60154   9.712   4.475   3.460
53377SOL    HW160155   9.780   4.530   3.413
53377SOL    HW260156   9.752   4.387   3.487
53378SOL     OW60157  10.897   4.503   3.532
53378SOL    HW160158  10.805   4.541   3.527
53378SOL    HW260159  10.957   4.550   3.467
53379SOL     OW60160  10.323   3.829   3.632
53379SOL    HW160161  10.329   3.914   3.580
53379SOL    HW260162  10.355   3.753   3.575
53380SOL     OW60163   9.814   3.774   3.602
53380SOL    HW160164   9.772   3.717   3.532
53380SOL    HW260165   9.748   3.843   3.634
53381SOL     OW60166   9.883   4.594   2.891
53381SOL    HW160167   9.927   4.683   2.882
53381SOL    HW260168   9.820   4.594   2.968
53382SOL     OW60169  10.670   4.586   2.907
53382SOL    HW160170  10.595   4.586   2.841
53382SOL    HW260171  10.707   4.494   2.916
53383SOL     OW60172  10.519   4.249   2.137
53383SOL    HW160173  10.532   4.165   2.191
53383SOL    HW260174  10.490   4.323   2.197
53384SOL     OW60175   9.617   3.937   3.093
53384SOL    HW160176   9.594   3.974   3.183
53384SOL    HW260177   9.587   3.842   3.087
53385SOL     OW60178   9.347   5.034   3.144
53385SOL    HW160179   9.400   4.985   3.212
53385SOL    HW260180   9.369   5.132   3.149
53386SOL     OW60181  10.042   4.358   2.926
53386SOL    HW160182  10.101   4.332   2.850
53386SOL    HW260183  10.014   4.454   2.915
53387SOL     OW60184  11.038   4.659   3.716
53387SOL    HW160185  10.992   4.652   3.627
53387SOL    HW260186  10.976   4.703   3.782
53388SOL     OW60187   9.617   3.787   2.480
53388SOL    HW160188   9.606   3.881   2.513
53388SOL    HW260189   9.612   3.724   2.557
53389SOL     OW60190  10.932   4.091   2.236
53389SOL    HW160191  10.934   4.015   2.300
53389SOL    HW260192  10.884   4.168   2.276
53390SOL     OW60193  10.333   4.490   2.828
53390SOL    HW160194  10.348   4.511   2.924
53390SOL    HW260195  10.303   4.395   2.819
53391SOL     OW60196  10.290   5.297   3.562
53391SOL    HW160197  10.270   5.341   3.474
53391SOL    HW260198  10.329   5.206   3.546
53392SOL     OW60199  11.169   5.242   3.467
53392SOL    HW160200  11.183   5.269   3.372
53392SOL    HW260201  11.252   5.264   3.520
53393SOL     OW60202   9.660   4.622   3.666
53393SOL    HW160203   9.736   4.666   3.714
53393SOL    HW260204   9.695   4.575   3.584
53394SOL     OW60205  10.850   3.998   1.987
53394SOL    HW160206  10.789   3.923   2.010
53394SOL    HW260207  10.872   4.050   2.070
53395SOL     OW60208  10.613   4.562   1.904
53395SOL    HW160209  10.647   4.469   1.919
53395SOL    HW260210  10.631   4.589   1.809
53396SOL     OW60211  10.378   5.057   2.711
53396SOL    HW160212  10.385   4.973   2.656
53396SOL    HW260213  10.440   5.126   2.675
53397SOL     OW60214   9.629   4.534   2.811
53397SOL    HW160215   9.722   4.570   2.816
53397SOL    HW260216   9.623   4.449   2.863
53398SOL     OW60217   9.649   4.233   2.868
53398SOL    HW160218   9.597   4.150   2.851
53398SOL    HW260219   9.726   4.238   2.804
53399SOL     OW60220  10.448   4.104   3.540
53399SOL    HW160221  10.403   4.167   3.604
53399SOL    HW260222  10.541   4.135   3.523
53400SOL     OW60223  10.470   3.931   3.339
53400SOL    HW160224  10.470   3.995   3.416
53400SOL    HW260225  10.498   3.979   3.256
53401SOL     OW60226   9.318   5.050   2.062
53401SOL    HW160227   9.225   5.071   2.031
53401SOL    HW260228   9.328   4.951   2.075
53402SOL     OW60229   9.398   5.525   2.789
53402SOL    HW160230   9.356   5.439   2.762
53402SOL    HW260231   9.492   5.528   2.755
53403SOL     OW60232   9.814   5.292   2.772
53403SOL    HW160233   9.880   5.366   2.781
53403SOL    HW260234   9.858   5.213   2.730
53404SOL     OW60235  10.312   4.520   3.100
53404SOL    HW160236  10.353   4.488   3.186
53404SOL    HW260237  10.216   4.493   3.097
53405SOL     OW60238   9.350   4.268   2.976
53405SOL    HW160239   9.435   4.235   2.935
53405SOL    HW260240   9.363   4.283   3.074
53406SOL     OW60241   9.499   4.244   3.584
53406SOL    HW160242   9.558   4.204   3.514
53406SOL    HW260243   9.441   4.315   3.543
53407SOL     OW60244  10.679   4.674   3.522
53407SOL    HW160245  10.718   4.763   3.542
53407SOL    HW260246  10.689   4.654   3.425
53408SOL     OW60247  10.125   4.296   2.187
53408SOL    HW160248  10.132   4.207   2.141
53408SOL    HW260249  10.031   4.330   2.179
53409SOL     OW60250  10.967   4.328   3.068
53409SOL    HW160251  10.929   4.259   3.130
53409SOL    HW260252  11.049   4.292   3.024
53410SOL     OW60253   9.562   5.288   3.606
53410SOL    HW160254   9.532   5.345   3.682
53410SOL    HW260255   9.555   5.191   3.632
53411SOL     OW60256   9.981   4.188   3.131
53411SOL    HW160257   9.947   4.099   3.101
53411SOL    HW260258  10.007   4.242   3.051
53412SOL     OW60259  10.240   5.402   3.327
53412SOL    HW160260  10.216   5.384   3.232
53412SOL    HW260261  10.270   5.496   3.337
53413SOL     OW60262   9.783   4.224   2.053
53413SOL    HW160263   9.844   4.304   2.057
53413SOL    HW260264   9.688   4.255   2.060
53414SOL     OW60265   9.469   4.861   3.328
53414SOL    HW160266   9.491   4.800   3.404
53414SOL    HW260267   9.479   4.812   3.242
53415SOL     OW60268  10.657   4.783   3.096
53415SOL    HW160269  10.681   4.720   3.022
53415SOL    HW260270  10.567   4.823   3.078
53416SOL     OW60271  10.612   4.579   2.171
53416SOL    HW160272  10.526   4.548   2.213
53416SOL    HW260273  10.608   4.565   2.072
53417SOL     OW60274  11.069   5.471   3.016
53417SOL    HW160275  11.130   5.501   2.943
53417SOL    HW260276  11.031   5.382   2.994
53418SOL     OW60277  10.562   5.455   2.990
53418SOL    HW160278  10.646   5.460   2.936
53418SOL    HW260279  10.539   5.359   3.008
53419SOL     OW60280   9.393   4.982   2.884
53419SOL    HW160281   9.388   4.981   2.984
53419SOL    HW260282   9.310   4.941   2.846
53420SOL     OW60283   9.998   5.386   3.578
53420SOL    HW160284   9.942   5.467   3.587
53420SOL    HW260285  10.050   5.390   3.492
53421SOL     OW60286  11.036   3.859   2.385
53421SOL    HW160287  11.109   3.842   2.318
53421SOL    HW260288  11.005   3.772   2.423
53422SOL     OW60289  10.698   5.297   2.339
53422SOL    HW160290  10.765   5.309   2.265
53422SOL    HW260291  10.658   5.386   2.362
53423SOL     OW60292   9.440   5.518   3.713
53423SOL    HW160293   9.399   5.444   3.766
53423SOL    HW260294   9.504   5.569   3.771
53424SOL     OW60295  10.590   4.651   2.534
53424SOL    HW160296  10.650   4.570   2.536
53424SOL    HW260297  10.630   4.720   2.474
53425SOL     OW60298  10.140   4.997   3.284
53425SOL    HW160299  10.135   5.030   3.379
53425SOL    HW260300  10.054   5.016   3.238
53426SOL     OW60301   9.982   5.340   2.016
53426SOL    HW160302   9.991   5.350   1.917
53426SOL    HW260303   9.942   5.251   2.037
53427SOL     OW60304  10.960   5.444   3.256
53427SOL    HW160305  11.013   5.454   3.172
53427SOL    HW260306  10.933   5.534   3.290
53428SOL     OW60307  11.151   3.899   2.825
53428SOL    HW160308  11.190   3.814   2.789
53428SOL    HW260309  11.053   3.901   2.806
53429SOL     OW60310   9.573   4.050   2.582
53429SOL    HW160311   9.494   4.101   2.548
53429SOL    HW260312   9.564   4.035   2.680
53430SOL     OW60313  10.504   5.336   1.893
53430SOL    HW160314  10.510   5.243   1.930
53430SOL    HW260315  10.445   5.336   1.813
53431SOL     OW60316  10.132   4.726   3.234
53431SOL    HW160317  10.172   4.725   3.142
53431SOL    HW260318  10.142   4.818   3.274
53432SOL     OW60319  10.226   4.634   2.153
53432SOL    HW160320  10.289   4.672   2.085
53432SOL    HW260321  10.266   4.551   2.192
53433SOL     OW60322  10.814   5.331   1.906
53433SOL    HW160323  10.722   5.368   1.913
53433SOL    HW260324  10.852   5.351   1.816
53434SOL     OW60325   9.682   5.012   3.352
53434SOL    HW160326   9.669   5.105   3.318
53434SOL    HW260327   9.598   4.960   3.339
53435SOL     OW60328  10.924   5.016   3.151
53435SOL    HW160329  10.984   5.019   3.231
53435SOL    HW260330  10.849   5.080   3.164
53436SOL     OW60331  10.349   4.822   2.558
53436SOL    HW160332  10.279   4.775   2.612
53436SOL    HW260333  10.408   4.754   2.515
53437SOL     OW60334  10.324   3.960   2.833
53437SOL    HW160335  10.316   3.924   2.740
53437SOL    HW260336  10.322   3.884   2.898
53438SOL     OW60337   9.900   5.211   2.353
53438SOL    HW160338   9.942   5.153   2.283
53438SOL    HW260339   9.856   5.290   2.309
53439SOL     OW60340  11.019   4.109   3.243
53439SOL    HW160341  11.092   4.178   3.247
53439SOL    HW260342  11.047   4.034   3.184
53440SOL     OW60343   9.565   5.072   2.152
53440SOL    HW160344   9.469   5.073   2.125
53440SOL    HW260345   9.577   5.125   2.236
53441SOL     OW60346   9.415   4.737   3.588
53441SOL    HW160347   9.338   4.704   3.642
53441SOL    HW260348   9.500   4.707   3.630
53442SOL     OW60349   9.982   3.927   3.351
53442SOL    HW160350  10.072   3.911   3.311
53442SOL    HW260351   9.990   3.932   3.450
53443SOL     OW60352   9.385   4.069   1.895
53443SOL    HW160353   9.293   4.041   1.866
53443SOL    HW260354   9.416   4.146   1.839
53444SOL     OW60355  10.750   4.580   3.260
53444SOL    HW160356  10.693   4.632   3.197
53444SOL    HW260357  10.846   4.592   3.236
53445SOL     OW60358   9.382   3.890   2.180
53445SOL    HW160359   9.365   3.973   2.126
53445SOL    HW260360   9.472   3.853   2.158
53446SOL     OW60361  10.493   5.059   1.981
53446SOL    HW160362  10.394   5.048   1.983
53446SOL    HW260363  10.527   5.074   2.074
53447SOL     OW60364   9.923   4.566   3.293
53447SOL    HW160365   9.979   4.647   3.276
53447SOL    HW260366   9.982   4.486   3.296
53448SOL     OW60367  10.803   5.491   2.821
53448SOL    HW160368  10.836   5.555   2.752
53448SOL    HW260369  10.869   5.485   2.896
53449SOL     OW60370  10.026   4.289   3.570
53449SOL    HW160371  10.045   4.354   3.644
53449SOL    HW260372  10.086   4.209   3.579
53450SOL     OW60373  10.760   4.944   3.495
53450SOL    HW160374  10.751   4.934   3.594
53450SOL    HW260375  10.856   4.937   3.469
53451SOL     OW60376   9.700   5.465   3.422
53451SOL    HW160377   9.609   5.506   3.420
53451SOL    HW260378   9.693   5.371   3.454
53452SOL     OW60379  10.984   4.607   3.116
53452SOL    HW160380  10.957   4.518   3.079
53452SOL    HW260381  10.985   4.675   3.043
53453SOL     OW60382  10.535   4.049   2.311
53453SOL    HW160383  10.600   3.975   2.300
53453SOL    HW260384  10.555   4.099   2.395
53454SOL     OW60385   9.904   4.469   2.514
53454SOL    HW160386   9.954   4.554   2.495
53454SOL    HW260387   9.816   4.471   2.466
53455SOL     OW60388  11.087   4.066   3.504
53455SOL    HW160389  11.070   4.097   3.410
53455SOL    HW260390  11.003   4.029   3.542
53456SOL     OW60391  11.040   4.658   3.379
53456SOL    HW160392  11.078   4.749   3.394
53456SOL    HW260393  11.032   4.641   3.280
53457SOL     OW60394  10.169   5.098   1.878
53457SOL    HW160395  10.123   5.113   1.966
53457SOL    HW260396  10.213   5.183   1.848
53458SOL     OW60397   9.971   5.514   2.815
53458SOL    HW160398   9.925   5.602   2.802
53458SOL    HW260399  10.070   5.526   2.808
53459SOL     OW60400  10.169   4.680   2.723
53459SOL    HW160401  10.223   4.611   2.771
53459SOL    HW260402  10.137   4.749   2.789
53460SOL     OW60403  10.393   4.708   1.949
53460SOL    HW160404  10.370   4.761   1.867
53460SOL    HW260405  10.474   4.652   1.930
53461SOL     OW60406  11.171   5.293   2.713
53461SOL    HW160407  11.100   5.281   2.643
53461SOL    HW260408  11.172   5.214   2.773
53462SOL     OW60409   9.531   5.038   3.706
53462SOL    HW160410   9.466   4.965   3.685
53462SOL    HW260411   9.535   5.052   3.804
53463SOL     OW60412   9.389   4.964   2.515
53463SOL    HW160413   9.388   4.917   2.603
53463SOL    HW260414   9.471   4.936   2.464
53464SOL     OW60415   9.982   5.115   3.486
53464SOL    HW160416   9.904   5.065   3.524
53464SOL    HW260417   9.979   5.210   3.517
53465SOL     OW60418  11.134   3.916   3.089
53465SOL    HW160419  11.130   3.826   3.133
53465SOL    HW260420  11.137   3.905   2.990
53466SOL     OW60421   9.738   4.148   2.382
53466SOL    HW160422   9.768   4.076   2.320
53466SOL    HW260423   9.699   4.108   2.465
53467SOL     OW60424  11.015   5.211   2.966
53467SOL    HW160425  10.922   5.186   2.939
53467SOL    HW260426  11.041   5.161   3.048
53468SOL     OW60427   9.627   4.271   3.142
53468SOL    HW160428   9.665   4.212   3.214
53468SOL    HW260429   9.667   4.245   3.054
53469SOL     OW60430  10.122   5.310   2.549
53469SOL    HW160431  10.154   5.320   2.455
53469SOL    HW260432  10.043   5.248   2.551
53470SOL     OW60433  10.734   3.938   2.974
53470SOL    HW160434  10.786   3.873   3.029
53470SOL    HW260435  10.685   4.001   3.035
53471SOL     OW60436  10.311   3.758   3.016
53471SOL    HW160437  10.248   3.686   2.985
53471SOL    HW260438  10.404   3.722   3.016
53472SOL     OW60439  10.080   5.054   2.163
53472SOL    HW160440  10.034   4.967   2.180
53472SOL    HW260441  10.171   5.051   2.204
53473SOL     OW60442   9.928   5.291   3.146
53473SOL    HW160443   9.923   5.373   3.203
53473SOL    HW260444  10.017   5.288   3.101
53474SOL     OW60445  10.662   3.776   2.030
53474SOL    HW160446  10.697   3.735   1.946
53474SOL    HW260447  10.572   3.738   2.050
53475SOL     OW60448  10.610   4.177   2.553
53475SOL    HW160449  10.551   4.257   2.557
53475SOL    HW260450  10.625   4.142   2.646
53476SOL     OW60451  10.903   3.945   2.744
53476SOL    HW160452  10.819   3.944   2.798
53476SOL    HW260453  10.905   4.028   2.688
53477SOL     OW60454   9.349   4.801   2.162
53477SOL    HW160455   9.448   4.790   2.153
53477SOL    HW260456   9.309   4.715   2.194
53478SOL     OW60457  10.185   5.370   2.199
53478SOL    HW160458  10.108   5.335   2.145
53478SOL    HW260459  10.153   5.441   2.261
53479SOL     OW60460   9.540   4.352   3.837
53479SOL    HW160461   9.447   4.350   3.874
53479SOL    HW260462   9.541   4.313   3.745
53480SOL     OW60463   9.535   3.999   4.720
53480SOL    HW160464   9.570   3.982   4.812
53480SOL    HW260465   9.447   3.954   4.708
53481SOL     OW60466   9.329   4.092   4.371
53481SOL    HW160467   9.247   4.135   4.410
53481SOL    HW260468   9.301   4.019   4.308
53482SOL     OW60469   9.879   4.999   4.889
53482SOL    HW160470   9.786   4.992   4.852
53482SOL    HW260471   9.890   5.088   4.933
53483SOL     OW60472  10.865   5.235   4.427
53483SOL    HW160473  10.808   5.219   4.508
53483SOL    HW260474  10.806   5.245   4.347
53484SOL     OW60475  10.445   4.427   4.441
53484SOL    HW160476  10.502   4.505   4.416
53484SOL    HW260477  10.385   4.453   4.517
53485SOL     OW60478  11.065   4.331   3.955
53485SOL    HW160479  11.053   4.318   3.856
53485SOL    HW260480  11.035   4.250   4.004
53486SOL     OW60481  10.078   4.868   4.747
53486SOL    HW160482  10.000   4.885   4.807
53486SOL    HW260483  10.112   4.955   4.711
53487SOL     OW60484  10.160   4.522   5.547
53487SOL    HW160485  10.156   4.598   5.612
53487SOL    HW260486  10.182   4.558   5.456
53488SOL     OW60487   9.995   4.736   4.389
53488SOL    HW160488  10.064   4.720   4.459
53488SOL    HW260489   9.922   4.793   4.427
53489SOL     OW60490   9.996   4.885   5.527
53489SOL    HW160491  10.056   4.964   5.541
53489SOL    HW260492   9.910   4.916   5.486
53490SOL     OW60493   9.645   5.159   4.785
53490SOL    HW160494   9.567   5.128   4.732
53490SOL    HW260495   9.703   5.217   4.728
53491SOL     OW60496  10.770   5.229   5.063
53491SOL    HW160497  10.794   5.323   5.089
53491SOL    HW260498  10.754   5.175   5.145
53492SOL     OW60499   9.748   4.116   5.223
53492SOL    HW160500   9.830   4.060   5.232
53492SOL    HW260501   9.667   4.058   5.227
53493SOL     OW60502  10.913   4.171   4.461
53493SOL    HW160503  10.839   4.217   4.411
53493SOL    HW260504  10.964   4.239   4.514
53494SOL     OW60505   9.541   5.437   4.207
53494SOL    HW160506   9.575   5.514   4.261
53494SOL    HW260507   9.585   5.437   4.117
53495SOL     OW60508  10.437   5.065   5.414
53495SOL    HW160509  10.484   5.065   5.502
53495SOL    HW260510  10.389   4.978   5.403
53496SOL     OW60511   9.540   5.158   4.262
53496SOL    HW160512   9.514   5.254   4.262
53496SOL    HW260513   9.469   5.104   4.307
53497SOL     OW60514   9.550   4.815   4.610
53497SOL    HW160515   9.564   4.731   4.662
53497SOL    HW260516   9.495   4.879   4.665
53498SOL     OW60517   9.930   5.510   5.163
53498SOL    HW160518   9.838   5.493   5.198
53498SOL    HW260519   9.958   5.602   5.189
53499SOL     OW60520   9.916   4.688   3.847
53499SOL    HW160521   9.923   4.772   3.793
53499SOL    HW260522   9.962   4.701   3.935
53500SOL     OW60523  10.904   3.838   5.204
53500SOL    HW160524  10.886   3.905   5.132
53500SOL    HW260525  10.901   3.884   5.293
53501SOL     OW60526   9.432   4.367   4.287
53501SOL    HW160527   9.387   4.279   4.304
53501SOL    HW260528   9.431   4.421   4.371
53502SOL     OW60529  11.152   5.491   4.083
53502SOL    HW160530  11.206   5.462   4.163
53502SOL    HW260531  11.182   5.581   4.054
53503SOL     OW60532   9.337   5.320   3.841
53503SOL    HW160533   9.318   5.224   3.862
53503SOL    HW260534   9.304   5.378   3.916
53504SOL     OW60535  10.999   4.646   4.336
53504SOL    HW160536  11.094   4.617   4.344
53504SOL    HW260537  10.991   4.711   4.261
53505SOL     OW60538  10.951   4.832   4.156
53505SOL    HW160539  11.037   4.834   4.104
53505SOL    HW260540  10.965   4.879   4.244
53506SOL     OW60541   9.423   4.461   5.321
53506SOL    HW160542   9.511   4.448   5.366
53506SOL    HW260543   9.410   4.558   5.299
53507SOL     OW60544   9.923   5.089   4.450
53507SOL    HW160545   9.874   5.002   4.459
53507SOL    HW260546   9.900   5.132   4.363
53508SOL     OW60547  10.603   4.952   5.147
53508SOL    HW160548  10.640   4.879   5.089
53508SOL    HW260549  10.655   4.957   5.232
53509SOL     OW60550  10.119   3.728   4.226
53509SOL    HW160551  10.159   3.819   4.217
53509SOL    HW260552  10.019   3.736   4.232
53510SOL     OW60553   9.507   4.700   4.988
53510SOL    HW160554   9.596   4.655   4.974
53510SOL    HW260555   9.434   4.635   4.969
53511SOL     OW60556  10.835   4.723   3.914
53511SOL    HW160557  10.772   4.647   3.927
53511SOL    HW260558  10.883   4.741   4.000
53512SOL     OW60559  10.497   5.516   5.340
53512SOL    HW160560  10.521   5.576   5.264
53512SOL    HW260561  10.504   5.421   5.310
53513SOL     OW60562   9.627   3.975   5.525
53513SOL    HW160563   9.698   4.046   5.531
53513SOL    HW260564   9.539   4.014   5.553
53514SOL     OW60565  10.776   5.141   4.677
53514SOL    HW160566  10.717   5.147   4.757
53514SOL    HW260567  10.761   5.053   4.631
53515SOL     OW60568  10.977   5.438   4.296
53515SOL    HW160569  10.936   5.415   4.208
53515SOL    HW260570  10.959   5.364   4.361
53516SOL     OW60571   9.908   4.453   3.994
53516SOL    HW160572   9.932   4.522   3.926
53516SOL    HW260573   9.830   4.486   4.048
53517SOL     OW60574  10.591   4.069   4.668
53517SOL    HW160575  10.505   4.019   4.655
53517SOL    HW260576  10.653   4.015   4.724
53518SOL     OW60577  10.886   5.386   4.031
53518SOL    HW160578  10.975   5.432   4.034
53518SOL    HW260579  10.865   5.362   3.936
53519SOL     OW60580  10.117   4.329   5.189
53519SOL    HW160581  10.070   4.326   5.278
53519SOL    HW260582  10.066   4.274   5.123
53520SOL     OW60583  10.704   4.193   5.398
53520SOL    HW160584  10.684   4.236   5.486
53520SOL    HW260585  10.782   4.131   5.407
53521SOL     OW60586  10.283   4.614   5.296
53521SOL    HW160587  10.329   4.530   5.267
53521SOL    HW260588  10.227   4.648   5.221
53522SOL     OW60589  10.301   4.134   4.966
53522SOL    HW160590  10.224   4.168   5.020
53522SOL    HW260591  10.267   4.083   4.887
53523SOL     OW60592  10.351   4.425   4.153
53523SOL    HW160593  10.377   4.421   4.249
53523SOL    HW260594  10.266   4.374   4.139
53524SOL     OW60595   9.386   4.535   4.513
53524SOL    HW160596   9.485   4.523   4.522
53524SOL    HW260597   9.362   4.630   4.534
53525SOL     OW60598   9.440   5.545   5.295
53525SOL    HW160599   9.430   5.530   5.394
53525SOL    HW260600   9.354   5.581   5.259
53526SOL     OW60601  10.175   4.072   3.919
53526SOL    HW160602  10.234   4.135   3.870
53526SOL    HW260603  10.194   3.978   3.890
53527SOL     OW60604  11.029   4.309   5.555
53527SOL    HW160605  11.003   4.398   5.519
53527SOL    HW260606  11.027   4.241   5.482
53528SOL     OW60607  10.672   4.868   4.269
53528SOL    HW160608  10.755   4.839   4.221
53528SOL    HW260609  10.623   4.935   4.213
53529SOL     OW60610   9.860   3.920   4.609
53529SOL    HW160611   9.855   3.915   4.709
53529SOL    HW260612   9.862   4.016   4.580
53530SOL     OW60613  10.318   5.180   4.201
53530SOL    HW160614  10.272   5.252   4.149
53530SOL    HW260615  10.314   5.200   4.299
53531SOL     OW60616   9.661   5.525   4.577
53531SOL    HW160617   9.711   5.439   4.583
53531SOL    HW260618   9.726   5.602   4.574
53532SOL     OW60619  11.105   4.790   4.597
53532SOL    HW160620  11.043   4.775   4.521
53532SOL    HW260621  11.053   4.801   4.682
53533SOL     OW60622  10.537   5.274   5.230
53533SOL    HW160623  10.543   5.197   5.294
53533SOL    HW260624  10.485   5.248   5.150
53534SOL     OW60625   9.631   4.667   3.966
53534SOL    HW160626   9.713   4.706   3.924
53534SOL    HW260627   9.604   4.585   3.917
53535SOL     OW60628  10.768   4.459   4.452
53535SOL    HW160629  10.763   4.394   4.527
53535SOL    HW260630  10.848   4.518   4.465
53536SOL     OW60631   9.771   4.990   5.451
53536SOL    HW160632   9.721   4.991   5.365
53536SOL    HW260633   9.708   4.972   5.527
53537SOL     OW60634  10.421   5.500   3.961
53537SOL    HW160635  10.361   5.438   4.011
53537SOL    HW260636  10.452   5.456   3.876
53538SOL     OW60637   9.512   4.009   5.222
53538SOL    HW160638   9.432   4.069   5.209
53538SOL    HW260639   9.502   3.960   5.308
53539SOL     OW60640  10.942   5.101   3.805
53539SOL    HW160641  10.910   5.195   3.795
53539SOL    HW260642  10.866   5.038   3.793
53540SOL     OW60643   9.774   5.467   4.047
53540SOL    HW160644   9.807   5.506   4.133
53540SOL    HW260645   9.850   5.460   3.982
53541SOL     OW60646  10.710   3.831   4.150
53541SOL    HW160647  10.686   3.794   4.060
53541SOL    HW260648  10.809   3.847   4.154
53542SOL     OW60649   9.559   5.509   4.965
53542SOL    HW160650   9.616   5.444   5.015
53542SOL    HW260651   9.543   5.476   4.872
53543SOL     OW60652  10.250   5.422   4.628
53543SOL    HW160653  10.330   5.365   4.649
53543SOL    HW260654  10.201   5.382   4.551
53544SOL     OW60655   9.692   4.424   4.204
53544SOL    HW160656   9.737   4.334   4.201
53544SOL    HW260657   9.598   4.413   4.237
53545SOL     OW60658  10.857   3.946   5.453
53545SOL    HW160659  10.852   3.983   5.545
53545SOL    HW260660  10.785   3.877   5.441
53546SOL     OW60661   9.924   3.846   3.841
53546SOL    HW160662  10.022   3.824   3.848
53546SOL    HW260663   9.893   3.829   3.748
53547SOL     OW60664  10.091   3.988   5.473
53547SOL    HW160665  10.158   3.927   5.516
53547SOL    HW260666  10.018   4.007   5.538
53548SOL     OW60667  10.198   5.238   4.919
53548SOL    HW160668  10.175   5.213   4.825
53548SOL    HW260669  10.259   5.169   4.958
53549SOL     OW60670  10.661   4.314   5.157
53549SOL    HW160671  10.689   4.271   5.242
53549SOL    HW260672  10.686   4.410   5.158
53550SOL     OW60673  10.113   5.126   4.648
53550SOL    HW160674  10.203   5.140   4.606
53550SOL    HW260675  10.042   5.128   4.577
53551SOL     OW60676  10.232   4.227   4.623
53551SOL    HW160677  10.207   4.218   4.527
53551SOL    HW260678  10.280   4.145   4.654
53552SOL     OW60679   9.849   3.788   4.236
53552SOL    HW160680   9.768   3.789   4.294
53552SOL    HW260681   9.852   3.871   4.181
53553SOL     OW60682  10.744   4.912   3.765
53553SOL    HW160683  10.776   4.836   3.822
53553SOL    HW260684  10.652   4.939   3.795
53554SOL     OW60685   9.607   3.759   3.895
53554SOL    HW160686   9.656   3.843   3.874
53554SOL    HW260687   9.669   3.694   3.940
53555SOL     OW60688  10.245   3.960   4.204
53555SOL    HW160689  10.197   4.001   4.126
53555SOL    HW260690  10.344   3.958   4.185
53556SOL     OW60691  10.386   4.407   5.188
53556SOL    HW160692  10.306   4.346   5.191
53556SOL    HW260693  10.467   4.354   5.164
53557SOL     OW60694  10.537   5.294   4.517
53557SOL    HW160695  10.558   5.368   4.452
53557SOL    HW260696  10.605   5.294   4.590
53558SOL     OW60697   9.769   4.876   4.465
53558SOL    HW160698   9.698   4.849   4.530
53558SOL    HW260699   9.743   4.848   4.372
53559SOL     OW60700  10.581   5.521   4.315
53559SOL    HW160701  10.625   5.585   4.251
53559SOL    HW260702  10.531   5.573   4.385
53560SOL     OW60703  10.342   4.273   3.740
53560SOL    HW160704  10.301   4.355   3.701
53560SOL    HW260705  10.406   4.299   3.813
53561SOL     OW60706   9.388   4.280   5.110
53561SOL    HW160707   9.480   4.279   5.069
53561SOL    HW260708   9.382   4.354   5.177
53562SOL     OW60709   9.871   3.946   4.871
53562SOL    HW160710   9.909   3.862   4.908
53562SOL    HW260711   9.783   3.965   4.915
53563SOL     OW60712  10.176   4.178   4.366
53563SOL    HW160713  10.144   4.250   4.304
53563SOL    HW260714  10.200   4.097   4.313
53564SOL     OW60715  10.327   3.763   4.477
53564SOL    HW160716  10.255   3.768   4.408
53564SOL    HW260717  10.303   3.694   4.546
53565SOL     OW60718  10.739   4.897   4.591
53565SOL    HW160719  10.684   4.813   4.584
53565SOL    HW260720  10.765   4.926   4.499
53566SOL     OW60721  10.776   4.314   4.716
53566SOL    HW160722  10.746   4.219   4.723
53566SOL    HW260723  10.849   4.330   4.782
53567SOL     OW60724  11.167   4.557   4.101
53567SOL    HW160725  11.209   4.493   4.165
53567SOL    HW260726  11.129   4.506   4.023
53568SOL     OW60727   9.798   5.109   3.898
53568SOL    HW160728   9.711   5.094   3.945
53568SOL    HW260729   9.781   5.135   3.803
53569SOL     OW60730  10.974   5.004   4.381
53569SOL    HW160731  11.073   5.012   4.395
53569SOL    HW260732  10.929   5.088   4.412
53570SOL     OW60733  10.700   4.299   3.802
53570SOL    HW160734  10.646   4.278   3.883
53570SOL    HW260735  10.791   4.258   3.811
53571SOL     OW60736   9.837   3.980   4.052
53571SOL    HW160737   9.864   3.921   3.977
53571SOL    HW260738   9.837   4.075   4.021
53572SOL     OW60739  11.064   4.947   5.312
53572SOL    HW160740  11.155   4.908   5.299
53572SOL    HW260741  11.072   5.043   5.336
53573SOL     OW60742  10.374   5.071   5.064
53573SOL    HW160743  10.294   5.048   5.119
53573SOL    HW260744  10.457   5.045   5.113
53574SOL     OW60745  10.902   5.353   5.349
53574SOL    HW160746  10.929   5.387   5.259
53574SOL    HW260747  10.981   5.315   5.395
53575SOL     OW60748  10.421   4.919   4.824
53575SOL    HW160749  10.381   4.963   4.905
53575SOL    HW260750  10.380   4.956   4.741
53576SOL     OW60751  10.948   4.823   4.803
53576SOL    HW160752  10.953   4.904   4.862
53576SOL    HW260753  10.862   4.825   4.752
53577SOL     OW60754  10.225   3.813   5.126
53577SOL    HW160755  10.250   3.793   5.031
53577SOL    HW260756  10.297   3.869   5.168
53578SOL     OW60757  10.290   4.840   5.443
53578SOL    HW160758  10.191   4.846   5.453
53578SOL    HW260759  10.313   4.760   5.387
53579SOL     OW60760  10.015   4.774   4.092
53579SOL    HW160761  10.001   4.781   4.191
53579SOL    HW260762  10.099   4.723   4.074
53580SOL     OW60763   9.720   4.537   4.975
53580SOL    HW160764   9.806   4.549   5.025
53580SOL    HW260765   9.678   4.450   5.002
53581SOL     OW60766  10.584   4.110   4.986
53581SOL    HW160767  10.605   4.184   5.050
53581SOL    HW260768  10.495   4.127   4.943
53582SOL     OW60769   9.374   5.288   5.055
53582SOL    HW160770   9.328   5.370   5.021
53582SOL    HW260771   9.472   5.307   5.064
53583SOL     OW60772   9.677   4.824   4.225
53583SOL    HW160773   9.670   4.907   4.169
53583SOL    HW260774   9.681   4.744   4.165
53584SOL     OW60775   9.876   4.261   4.589
53584SOL    HW160776   9.888   4.327   4.515
53584SOL    HW260777   9.922   4.295   4.672
53585SOL     OW60778  10.562   5.072   4.112
53585SOL    HW160779  10.612   5.149   4.152
53585SOL    HW260780  10.467   5.074   4.144
53586SOL     OW60781  10.582   5.169   4.866
53586SOL    HW160782  10.629   5.182   4.953
53586SOL    HW260783  10.516   5.095   4.875
53587SOL     OW60784  10.892   4.363   4.196
53587SOL    HW160785  10.861   4.424   4.269
53587SOL    HW260786  10.942   4.415   4.127
53588SOL     OW60787   9.664   5.234   5.053
53588SOL    HW160788   9.643   5.190   4.966
53588SOL    HW260789   9.761   5.260   5.056
53589SOL     OW60790   9.712   4.475   5.322
53589SOL    HW160791   9.780   4.530   5.275
53589SOL    HW260792   9.752   4.387   5.349
53590SOL     OW60793  10.897   4.503   5.394
53590SOL    HW160794  10.805   4.541   5.389
53590SOL    HW260795  10.957   4.550   5.329
53591SOL     OW60796  10.323   3.829   5.494
53591SOL    HW160797  10.329   3.914   5.442
53591SOL    HW260798  10.355   3.753   5.437
53592SOL     OW60799   9.814   3.774   5.464
53592SOL    HW160800   9.772   3.717   5.394
53592SOL    HW260801   9.748   3.843   5.496
53593SOL     OW60802   9.883   4.594   4.753
53593SOL    HW160803   9.927   4.683   4.744
53593SOL    HW260804   9.820   4.594   4.830
53594SOL     OW60805  10.670   4.586   4.769
53594SOL    HW160806  10.595   4.586   4.703
53594SOL    HW260807  10.707   4.494   4.778
53595SOL     OW60808  10.519   4.249   3.999
53595SOL    HW160809  10.532   4.165   4.053
53595SOL    HW260810  10.490   4.323   4.059
53596SOL     OW60811   9.617   3.937   4.955
53596SOL    HW160812   9.594   3.974   5.045
53596SOL    HW260813   9.587   3.842   4.949
53597SOL     OW60814   9.347   5.034   5.006
53597SOL    HW160815   9.400   4.985   5.074
53597SOL    HW260816   9.369   5.132   5.011
53598SOL     OW60817  10.042   4.358   4.788
53598SOL    HW160818  10.101   4.332   4.712
53598SOL    HW260819  10.014   4.454   4.777
53599SOL     OW60820  11.038   4.659   5.578
53599SOL    HW160821  10.992   4.652   5.489
53599SOL    HW260822  10.976   4.703   5.644
53600SOL     OW60823   9.617   3.787   4.342
53600SOL    HW160824   9.606   3.881   4.375
53600SOL    HW260825   9.612   3.724   4.419
53601SOL     OW60826  10.932   4.091   4.098
53601SOL    HW160827  10.934   4.015   4.162
53601SOL    HW260828  10.884   4.168   4.138
53602SOL     OW60829  10.333   4.490   4.690
53602SOL    HW160830  10.348   4.511   4.786
53602SOL    HW260831  10.303   4.395   4.681
53603SOL     OW60832  10.290   5.297   5.424
53603SOL    HW160833  10.270   5.341   5.336
53603SOL    HW260834  10.329   5.206   5.408
53604SOL     OW60835  11.169   5.242   5.329
53604SOL    HW160836  11.183   5.269   5.234
53604SOL    HW260837  11.252   5.264   5.382
53605SOL     OW60838   9.660   4.622   5.528
53605SOL    HW160839   9.736   4.666   5.576
53605SOL    HW260840   9.695   4.575   5.446
53606SOL     OW60841  10.850   3.998   3.849
53606SOL    HW160842  10.789   3.923   3.872
53606SOL    HW260843  10.872   4.050   3.932
53607SOL     OW60844  10.613   4.562   3.766
53607SOL    HW160845  10.647   4.469   3.781
53607SOL    HW260846  10.631   4.589   3.671
53608SOL     OW60847  10.378   5.057   4.573
53608SOL    HW160848  10.385   4.973   4.518
53608SOL    HW260849  10.440   5.126   4.537
53609SOL     OW60850   9.629   4.534   4.673
53609SOL    HW160851   9.722   4.570   4.678
53609SOL    HW260852   9.623   4.449   4.725
53610SOL     OW60853   9.649   4.233   4.730
53610SOL    HW160854   9.597   4.150   4.713
53610SOL    HW260855   9.726   4.238   4.666
53611SOL     OW60856  10.448   4.104   5.402
53611SOL    HW160857  10.403   4.167   5.466
53611SOL    HW260858  10.541   4.135   5.385
53612SOL     OW60859  10.470   3.931   5.201
53612SOL    HW160860  10.470   3.995   5.278
53612SOL    HW260861  10.498   3.979   5.118
53613SOL     OW60862   9.318   5.050   3.924
53613SOL    HW160863   9.225   5.071   3.893
53613SOL    HW260864   9.328   4.951   3.937
53614SOL     OW60865   9.398   5.525   4.651
53614SOL    HW160866   9.356   5.439   4.624
53614SOL    HW260867   9.492   5.528   4.617
53615SOL     OW60868   9.814   5.292   4.634
53615SOL    HW160869   9.880   5.366   4.643
53615SOL    HW260870   9.858   5.213   4.592
53616SOL     OW60871  10.312   4.520   4.962
53616SOL    HW160872  10.353   4.488   5.048
53616SOL    HW260873  10.216   4.493   4.959
53617SOL     OW60874   9.350   4.268   4.838
53617SOL    HW160875   9.435   4.235   4.797
53617SOL    HW260876   9.363   4.283   4.936
53618SOL     OW60877   9.499   4.244   5.446
53618SOL    HW160878   9.558   4.204   5.376
53618SOL    HW260879   9.441   4.315   5.405
53619SOL     OW60880  10.679   4.674   5.384
53619SOL    HW160881  10.718   4.763   5.404
53619SOL    HW260882  10.689   4.654   5.287
53620SOL     OW60883  10.125   4.296   4.049
53620SOL    HW160884  10.132   4.207   4.003
53620SOL    HW260885  10.031   4.330   4.041
53621SOL     OW60886  10.967   4.328   4.930
53621SOL    HW160887  10.929   4.259   4.992
53621SOL    HW260888  11.049   4.292   4.886
53622SOL     OW60889   9.562   5.288   5.468
53622SOL    HW160890   9.532   5.345   5.544
53622SOL    HW260891   9.555   5.191   5.494
53623SOL     OW60892   9.981   4.188   4.993
53623SOL    HW160893   9.947   4.099   4.963
53623SOL    HW260894  10.007   4.242   4.913
53624SOL     OW60895  10.240   5.402   5.189
53624SOL    HW160896  10.216   5.384   5.094
53624SOL    HW260897  10.270   5.496   5.199
53625SOL     OW60898   9.783   4.224   3.915
53625SOL    HW160899   9.844   4.304   3.919
53625SOL    HW260900   9.688   4.255   3.922
53626SOL     OW60901   9.469   4.861   5.190
53626SOL    HW160902   9.491   4.800   5.266
53626SOL    HW260903   9.479   4.812   5.104
53627SOL     OW60904  10.657   4.783   4.958
53627SOL    HW160905  10.681   4.720   4.884
53627SOL    HW260906  10.567   4.823   4.940
53628SOL     OW60907  10.612   4.579   4.033
53628SOL    HW160908  10.526   4.548   4.075
53628SOL    HW260909  10.608   4.565   3.934
53629SOL     OW60910  11.069   5.471   4.878
53629SOL    HW160911  11.130   5.501   4.805
53629SOL    HW260912  11.031   5.382   4.856
53630SOL     OW60913  10.562   5.455   4.852
53630SOL    HW160914  10.646   5.460   4.798
53630SOL    HW260915  10.539   5.359   4.870
53631SOL     OW60916   9.393   4.982   4.746
53631SOL    HW160917   9.388   4.981   4.846
53631SOL    HW260918   9.310   4.941   4.708
53632SOL     OW60919   9.998   5.386   5.440
53632SOL    HW160920   9.942   5.467   5.449
53632SOL    HW260921  10.050   5.390   5.354
53633SOL     OW60922  11.036   3.859   4.247
53633SOL    HW160923  11.109   3.842   4.180
53633SOL    HW260924  11.005   3.772   4.285
53634SOL     OW60925  10.698   5.297   4.201
53634SOL    HW160926  10.765   5.309   4.127
53634SOL    HW260927  10.658   5.386   4.224
53635SOL     OW60928   9.440   5.518   5.575
53635SOL    HW160929   9.399   5.444   5.628
53635SOL    HW260930   9.504   5.569   5.633
53636SOL     OW60931  10.590   4.651   4.396
53636SOL    HW160932  10.650   4.570   4.398
53636SOL    HW260933  10.630   4.720   4.336
53637SOL     OW60934  10.140   4.997   5.146
53637SOL    HW160935  10.135   5.030   5.241
53637SOL    HW260936  10.054   5.016   5.100
53638SOL     OW60937   9.982   5.340   3.878
53638SOL    HW160938   9.991   5.350   3.779
53638SOL    HW260939   9.942   5.251   3.899
53639SOL     OW60940  10.960   5.444   5.118
53639SOL    HW160941  11.013   5.454   5.034
53639SOL    HW260942  10.933   5.534   5.152
53640SOL     OW60943  11.151   3.899   4.687
53640SOL    HW160944  11.190   3.814   4.651
53640SOL    HW260945  11.053   3.901   4.668
53641SOL     OW60946   9.573   4.050   4.444
53641SOL    HW160947   9.494   4.101   4.410
53641SOL    HW260948   9.564   4.035   4.542
53642SOL     OW60949  10.504   5.336   3.755
53642SOL    HW160950  10.510   5.243   3.792
53642SOL    HW260951  10.445   5.336   3.675
53643SOL     OW60952  10.132   4.726   5.096
53643SOL    HW160953  10.172   4.725   5.004
53643SOL    HW260954  10.142   4.818   5.136
53644SOL     OW60955  10.226   4.634   4.015
53644SOL    HW160956  10.289   4.672   3.947
53644SOL    HW260957  10.266   4.551   4.054
53645SOL     OW60958  10.814   5.331   3.768
53645SOL    HW160959  10.722   5.368   3.775
53645SOL    HW260960  10.852   5.351   3.678
53646SOL     OW60961   9.682   5.012   5.214
53646SOL    HW160962   9.669   5.105   5.180
53646SOL    HW260963   9.598   4.960   5.201
53647SOL     OW60964  10.924   5.016   5.013
53647SOL    HW160965  10.984   5.019   5.093
53647SOL    HW260966  10.849   5.080   5.026
53648SOL     OW60967  10.349   4.822   4.420
53648SOL    HW160968  10.279   4.775   4.474
53648SOL    HW260969  10.408   4.754   4.377
53649SOL     OW60970  10.324   3.960   4.695
53649SOL    HW160971  10.316   3.924   4.602
53649SOL    HW260972  10.322   3.884   4.760
53650SOL     OW60973   9.900   5.211   4.215
53650SOL    HW160974   9.942   5.153   4.145
53650SOL    HW260975   9.856   5.290   4.171
53651SOL     OW60976  11.019   4.109   5.105
53651SOL    HW160977  11.092   4.178   5.109
53651SOL    HW260978  11.047   4.034   5.046
53652SOL     OW60979   9.565   5.072   4.014
53652SOL    HW160980   9.469   5.073   3.987
53652SOL    HW260981   9.577   5.125   4.098
53653SOL     OW60982   9.415   4.737   5.450
53653SOL    HW160983   9.338   4.704   5.504
53653SOL    HW260984   9.500   4.707   5.492
53654SOL     OW60985   9.982   3.927   5.213
53654SOL    HW160986  10.072   3.911   5.173
53654SOL    HW260987   9.990   3.932   5.312
53655SOL     OW60988   9.385   4.069   3.757
53655SOL    HW160989   9.293   4.041   3.728
53655SOL    HW260990   9.416   4.146   3.701
53656SOL     OW60991  10.750   4.580   5.122
53656SOL    HW160992  10.693   4.632   5.059
53656SOL    HW260993  10.846   4.592   5.098
53657SOL     OW60994   9.382   3.890   4.042
53657SOL    HW160995   9.365   3.973   3.988
53657SOL    HW260996   9.472   3.853   4.020
53658SOL     OW60997  10.493   5.059   3.843
53658SOL    HW160998  10.394   5.048   3.845
53658SOL    HW260999  10.527   5.074   3.936
53659SOL     OW61000   9.923   4.566   5.155
53659SOL    HW161001   9.979   4.647   5.138
53659SOL    HW261002   9.982   4.486   5.158
53660SOL     OW61003  10.803   5.491   4.683
53660SOL    HW161004  10.836   5.555   4.614
53660SOL    HW261005  10.869   5.485   4.758
53661SOL     OW61006  10.026   4.289   5.432
53661SOL    HW161007  10.045   4.354   5.506
53661SOL    HW261008  10.086   4.209   5.441
53662SOL     OW61009  10.760   4.944   5.357
53662SOL    HW161010  10.751   4.934   5.456
53662SOL    HW261011  10.856   4.937   5.331
53663SOL     OW61012   9.700   5.465   5.284
53663SOL    HW161013   9.609   5.506   5.282
53663SOL    HW261014   9.693   5.371   5.316
53664SOL     OW61015  10.984   4.607   4.978
53664SOL    HW161016  10.957   4.518   4.941
53664SOL    HW261017  10.985   4.675   4.905
53665SOL     OW61018  10.535   4.049   4.173
53665SOL    HW161019  10.600   3.975   4.162
53665SOL    HW261020  10.555   4.099   4.257
53666SOL     OW61021   9.904   4.469   4.376
53666SOL    HW161022   9.954   4.554   4.357
53666SOL    HW261023   9.816   4.471   4.328
53667SOL     OW61024  11.087   4.066   5.366
53667SOL    HW161025  11.070   4.097   5.272
53667SOL    HW261026  11.003   4.029   5.404
53668SOL     OW61027  11.040   4.658   5.241
53668SOL    HW161028  11.078   4.749   5.256
53668SOL    HW261029  11.032   4.641   5.142
53669SOL     OW61030  10.169   5.098   3.740
53669SOL    HW161031  10.123   5.113   3.828
53669SOL    HW261032  10.213   5.183   3.710
53670SOL     OW61033   9.971   5.514   4.677
53670SOL    HW161034   9.925   5.602   4.664
53670SOL    HW261035  10.070   5.526   4.670
53671SOL     OW61036  10.169   4.680   4.585
53671SOL    HW161037  10.223   4.611   4.633
53671SOL    HW261038  10.137   4.749   4.651
53672SOL     OW61039  10.393   4.708   3.811
53672SOL    HW161040  10.370   4.761   3.729
53672SOL    HW261041  10.474   4.652   3.792
53673SOL     OW61042  11.171   5.293   4.575
53673SOL    HW161043  11.100   5.281   4.505
53673SOL    HW261044  11.172   5.214   4.635
53674SOL     OW61045   9.531   5.038   5.568
53674SOL    HW161046   9.466   4.965   5.547
53674SOL    HW261047   9.535   5.052   5.666
53675SOL     OW61048   9.389   4.964   4.377
53675SOL    HW161049   9.388   4.917   4.465
53675SOL    HW261050   9.471   4.936   4.326
53676SOL     OW61051   9.982   5.115   5.348
53676SOL    HW161052   9.904   5.065   5.386
53676SOL    HW261053   9.979   5.210   5.379
53677SOL     OW61054  11.134   3.916   4.951
53677SOL    HW161055  11.130   3.826   4.995
53677SOL    HW261056  11.137   3.905   4.852
53678SOL     OW61057   9.738   4.148   4.244
53678SOL    HW161058   9.768   4.076   4.182
53678SOL    HW261059   9.699   4.108   4.327
53679SOL     OW61060  11.015   5.211   4.828
53679SOL    HW161061  10.922   5.186   4.801
53679SOL    HW261062  11.041   5.161   4.910
53680SOL     OW61063   9.627   4.271   5.004
53680SOL    HW161064   9.665   4.212   5.076
53680SOL    HW261065   9.667   4.245   4.916
53681SOL     OW61066  10.122   5.310   4.411
53681SOL    HW161067  10.154   5.320   4.317
53681SOL    HW261068  10.043   5.248   4.413
53682SOL     OW61069  10.734   3.938   4.836
53682SOL    HW161070  10.786   3.873   4.891
53682SOL    HW261071  10.685   4.001   4.897
53683SOL     OW61072  10.311   3.758   4.878
53683SOL    HW161073  10.248   3.686   4.847
53683SOL    HW261074  10.404   3.722   4.878
53684SOL     OW61075  10.080   5.054   4.025
53684SOL    HW161076  10.034   4.967   4.042
53684SOL    HW261077  10.171   5.051   4.066
53685SOL     OW61078   9.928   5.291   5.008
53685SOL    HW161079   9.923   5.373   5.065
53685SOL    HW261080  10.017   5.288   4.963
53686SOL     OW61081  10.662   3.776   3.892
53686SOL    HW161082  10.697   3.735   3.808
53686SOL    HW261083  10.572   3.738   3.912
53687SOL     OW61084  10.610   4.177   4.415
53687SOL    HW161085  10.551   4.257   4.419
53687SOL    HW261086  10.625   4.142   4.508
53688SOL     OW61087  10.903   3.945   4.606
53688SOL    HW161088  10.819   3.944   4.660
53688SOL    HW261089  10.905   4.028   4.550
53689SOL     OW61090   9.349   4.801   4.024
53689SOL    HW161091   9.448   4.790   4.015
53689SOL    HW261092   9.309   4.715   4.056
53690SOL     OW61093  10.185   5.370   4.061
53690SOL    HW161094  10.108   5.335   4.007
53690SOL    HW261095  10.153   5.441   4.123
53691SOL     OW61096   9.540   4.352   5.699
53691SOL    HW161097   9.447   4.350   5.736
53691SOL    HW261098   9.541   4.313   5.607
53692SOL     OW61099   9.535   3.999   6.582
53692SOL    HW161100   9.570   3.982   6.674
53692SOL    HW261101   9.447   3.954   6.570
53693SOL     OW61102   9.329   4.092   6.233
53693SOL    HW161103   9.247   4.135   6.272
53693SOL    HW261104   9.301   4.019   6.170
53694SOL     OW61105   9.879   4.999   6.751
53694SOL    HW161106   9.786   4.992   6.714
53694SOL    HW261107   9.890   5.088   6.795
53695SOL     OW61108  10.865   5.235   6.289
53695SOL    HW161109  10.808   5.219   6.370
53695SOL    HW261110  10.806   5.245   6.209
53696SOL     OW61111  10.445   4.427   6.303
53696SOL    HW161112  10.502   4.505   6.278
53696SOL    HW261113  10.385   4.453   6.379
53697SOL     OW61114  11.065   4.331   5.817
53697SOL    HW161115  11.053   4.318   5.718
53697SOL    HW261116  11.035   4.250   5.866
53698SOL     OW61117  10.078   4.868   6.609
53698SOL    HW161118  10.000   4.885   6.669
53698SOL    HW261119  10.112   4.955   6.573
53699SOL     OW61120  10.160   4.522   7.409
53699SOL    HW161121  10.156   4.598   7.474
53699SOL    HW261122  10.182   4.558   7.318
53700SOL     OW61123   9.995   4.736   6.251
53700SOL    HW161124  10.064   4.720   6.321
53700SOL    HW261125   9.922   4.793   6.289
53701SOL     OW61126   9.996   4.885   7.389
53701SOL    HW161127  10.056   4.964   7.403
53701SOL    HW261128   9.910   4.916   7.348
53702SOL     OW61129   9.645   5.159   6.647
53702SOL    HW161130   9.567   5.128   6.594
53702SOL    HW261131   9.703   5.217   6.590
53703SOL     OW61132  10.770   5.229   6.925
53703SOL    HW161133  10.794   5.323   6.951
53703SOL    HW261134  10.754   5.175   7.007
53704SOL     OW61135   9.748   4.116   7.085
53704SOL    HW161136   9.830   4.060   7.094
53704SOL    HW261137   9.667   4.058   7.089
53705SOL     OW61138  10.913   4.171   6.323
53705SOL    HW161139  10.839   4.217   6.273
53705SOL    HW261140  10.964   4.239   6.376
53706SOL     OW61141   9.541   5.437   6.069
53706SOL    HW161142   9.575   5.514   6.123
53706SOL    HW261143   9.585   5.437   5.979
53707SOL     OW61144  10.437   5.065   7.276
53707SOL    HW161145  10.484   5.065   7.364
53707SOL    HW261146  10.389   4.978   7.265
53708SOL     OW61147   9.540   5.158   6.124
53708SOL    HW161148   9.514   5.254   6.124
53708SOL    HW261149   9.469   5.104   6.169
53709SOL     OW61150   9.550   4.815   6.472
53709SOL    HW161151   9.564   4.731   6.524
53709SOL    HW261152   9.495   4.879   6.527
53710SOL     OW61153   9.930   5.510   7.025
53710SOL    HW161154   9.838   5.493   7.060
53710SOL    HW261155   9.958   5.602   7.051
53711SOL     OW61156   9.916   4.688   5.709
53711SOL    HW161157   9.923   4.772   5.655
53711SOL    HW261158   9.962   4.701   5.797
53712SOL     OW61159  10.904   3.838   7.066
53712SOL    HW161160  10.886   3.905   6.994
53712SOL    HW261161  10.901   3.884   7.155
53713SOL     OW61162   9.432   4.367   6.149
53713SOL    HW161163   9.387   4.279   6.166
53713SOL    HW261164   9.431   4.421   6.233
53714SOL     OW61165  11.152   5.491   5.945
53714SOL    HW161166  11.206   5.462   6.025
53714SOL    HW261167  11.182   5.581   5.916
53715SOL     OW61168   9.337   5.320   5.703
53715SOL    HW161169   9.318   5.224   5.724
53715SOL    HW261170   9.304   5.378   5.778
53716SOL     OW61171  10.999   4.646   6.198
53716SOL    HW161172  11.094   4.617   6.206
53716SOL    HW261173  10.991   4.711   6.123
53717SOL     OW61174  10.951   4.832   6.018
53717SOL    HW161175  11.037   4.834   5.966
53717SOL    HW261176  10.965   4.879   6.106
53718SOL     OW61177   9.423   4.461   7.183
53718SOL    HW161178   9.511   4.448   7.228
53718SOL    HW261179   9.410   4.558   7.161
53719SOL     OW61180   9.923   5.089   6.312
53719SOL    HW161181   9.874   5.002   6.321
53719SOL    HW261182   9.900   5.132   6.225
53720SOL     OW61183  10.603   4.952   7.009
53720SOL    HW161184  10.640   4.879   6.951
53720SOL    HW261185  10.655   4.957   7.094
53721SOL     OW61186  10.119   3.728   6.088
53721SOL    HW161187  10.159   3.819   6.079
53721SOL    HW261188  10.019   3.736   6.094
53722SOL     OW61189   9.507   4.700   6.850
53722SOL    HW161190   9.596   4.655   6.836
53722SOL    HW261191   9.434   4.635   6.831
53723SOL     OW61192  10.835   4.723   5.776
53723SOL    HW161193  10.772   4.647   5.789
53723SOL    HW261194  10.883   4.741   5.862
53724SOL     OW61195  10.497   5.516   7.202
53724SOL    HW161196  10.521   5.576   7.126
53724SOL    HW261197  10.504   5.421   7.172
53725SOL     OW61198   9.627   3.975   7.387
53725SOL    HW161199   9.698   4.046   7.393
53725SOL    HW261200   9.539   4.014   7.415
53726SOL     OW61201  10.776   5.141   6.539
53726SOL    HW161202  10.717   5.147   6.619
53726SOL    HW261203  10.761   5.053   6.493
53727SOL     OW61204  10.977   5.438   6.158
53727SOL    HW161205  10.936   5.415   6.070
53727SOL    HW261206  10.959   5.364   6.223
53728SOL     OW61207   9.908   4.453   5.856
53728SOL    HW161208   9.932   4.522   5.788
53728SOL    HW261209   9.830   4.486   5.910
53729SOL     OW61210  10.591   4.069   6.530
53729SOL    HW161211  10.505   4.019   6.517
53729SOL    HW261212  10.653   4.015   6.586
53730SOL     OW61213  10.886   5.386   5.893
53730SOL    HW161214  10.975   5.432   5.896
53730SOL    HW261215  10.865   5.362   5.798
53731SOL     OW61216  10.117   4.329   7.051
53731SOL    HW161217  10.070   4.326   7.140
53731SOL    HW261218  10.066   4.274   6.985
53732SOL     OW61219  10.704   4.193   7.260
53732SOL    HW161220  10.684   4.236   7.348
53732SOL    HW261221  10.782   4.131   7.269
53733SOL     OW61222  10.283   4.614   7.158
53733SOL    HW161223  10.329   4.530   7.129
53733SOL    HW261224  10.227   4.648   7.083
53734SOL     OW61225  10.301   4.134   6.828
53734SOL    HW161226  10.224   4.168   6.882
53734SOL    HW261227  10.267   4.083   6.749
53735SOL     OW61228  10.351   4.425   6.015
53735SOL    HW161229  10.377   4.421   6.111
53735SOL    HW261230  10.266   4.374   6.001
53736SOL     OW61231   9.386   4.535   6.375
53736SOL    HW161232   9.485   4.523   6.384
53736SOL    HW261233   9.362   4.630   6.396
53737SOL     OW61234   9.440   5.545   7.157
53737SOL    HW161235   9.430   5.530   7.256
53737SOL    HW261236   9.354   5.581   7.121
53738SOL     OW61237  10.175   4.072   5.781
53738SOL    HW161238  10.234   4.135   5.732
53738SOL    HW261239  10.194   3.978   5.752
53739SOL     OW61240  11.029   4.309   7.417
53739SOL    HW161241  11.003   4.398   7.381
53739SOL    HW261242  11.027   4.241   7.344
53740SOL     OW61243  10.672   4.868   6.131
53740SOL    HW161244  10.755   4.839   6.083
53740SOL    HW261245  10.623   4.935   6.075
53741SOL     OW61246   9.860   3.920   6.471
53741SOL    HW161247   9.855   3.915   6.571
53741SOL    HW261248   9.862   4.016   6.442
53742SOL     OW61249  10.318   5.180   6.063
53742SOL    HW161250  10.272   5.252   6.011
53742SOL    HW261251  10.314   5.200   6.161
53743SOL     OW61252   9.661   5.525   6.439
53743SOL    HW161253   9.711   5.439   6.445
53743SOL    HW261254   9.726   5.602   6.436
53744SOL     OW61255  11.105   4.790   6.459
53744SOL    HW161256  11.043   4.775   6.383
53744SOL    HW261257  11.053   4.801   6.544
53745SOL     OW61258  10.537   5.274   7.092
53745SOL    HW161259  10.543   5.197   7.156
53745SOL    HW261260  10.485   5.248   7.012
53746SOL     OW61261   9.631   4.667   5.828
53746SOL    HW161262   9.713   4.706   5.786
53746SOL    HW261263   9.604   4.585   5.779
53747SOL     OW61264  10.768   4.459   6.314
53747SOL    HW161265  10.763   4.394   6.389
53747SOL    HW261266  10.848   4.518   6.327
53748SOL     OW61267   9.771   4.990   7.313
53748SOL    HW161268   9.721   4.991   7.227
53748SOL    HW261269   9.708   4.972   7.389
53749SOL     OW61270  10.421   5.500   5.823
53749SOL    HW161271  10.361   5.438   5.873
53749SOL    HW261272  10.452   5.456   5.738
53750SOL     OW61273   9.512   4.009   7.084
53750SOL    HW161274   9.432   4.069   7.071
53750SOL    HW261275   9.502   3.960   7.170
53751SOL     OW61276  10.942   5.101   5.667
53751SOL    HW161277  10.910   5.195   5.657
53751SOL    HW261278  10.866   5.038   5.655
53752SOL     OW61279   9.774   5.467   5.909
53752SOL    HW161280   9.807   5.506   5.995
53752SOL    HW261281   9.850   5.460   5.844
53753SOL     OW61282  10.710   3.831   6.012
53753SOL    HW161283  10.686   3.794   5.922
53753SOL    HW261284  10.809   3.847   6.016
53754SOL     OW61285   9.559   5.509   6.827
53754SOL    HW161286   9.616   5.444   6.877
53754SOL    HW261287   9.543   5.476   6.734
53755SOL     OW61288  10.250   5.422   6.490
53755SOL    HW161289  10.330   5.365   6.511
53755SOL    HW261290  10.201   5.382   6.413
53756SOL     OW61291   9.692   4.424   6.066
53756SOL    HW161292   9.737   4.334   6.063
53756SOL    HW261293   9.598   4.413   6.099
53757SOL     OW61294  10.857   3.946   7.315
53757SOL    HW161295  10.852   3.983   7.407
53757SOL    HW261296  10.785   3.877   7.303
53758SOL     OW61297   9.924   3.846   5.703
53758SOL    HW161298  10.022   3.824   5.710
53758SOL    HW261299   9.893   3.829   5.610
53759SOL     OW61300  10.091   3.988   7.335
53759SOL    HW161301  10.158   3.927   7.378
53759SOL    HW261302  10.018   4.007   7.400
53760SOL     OW61303  10.198   5.238   6.781
53760SOL    HW161304  10.175   5.213   6.687
53760SOL    HW261305  10.259   5.169   6.820
53761SOL     OW61306  10.661   4.314   7.019
53761SOL    HW161307  10.689   4.271   7.104
53761SOL    HW261308  10.686   4.410   7.020
53762SOL     OW61309  10.113   5.126   6.510
53762SOL    HW161310  10.203   5.140   6.468
53762SOL    HW261311  10.042   5.128   6.439
53763SOL     OW61312  10.232   4.227   6.485
53763SOL    HW161313  10.207   4.218   6.389
53763SOL    HW261314  10.280   4.145   6.516
53764SOL     OW61315   9.849   3.788   6.098
53764SOL    HW161316   9.768   3.789   6.156
53764SOL    HW261317   9.852   3.871   6.043
53765SOL     OW61318  10.744   4.912   5.627
53765SOL    HW161319  10.776   4.836   5.684
53765SOL    HW261320  10.652   4.939   5.657
53766SOL     OW61321   9.607   3.759   5.757
53766SOL    HW161322   9.656   3.843   5.736
53766SOL    HW261323   9.669   3.694   5.802
53767SOL     OW61324  10.245   3.960   6.066
53767SOL    HW161325  10.197   4.001   5.988
53767SOL    HW261326  10.344   3.958   6.047
53768SOL     OW61327  10.386   4.407   7.050
53768SOL    HW161328  10.306   4.346   7.053
53768SOL    HW261329  10.467   4.354   7.026
53769SOL     OW61330  10.537   5.294   6.379
53769SOL    HW161331  10.558   5.368   6.314
53769SOL    HW261332  10.605   5.294   6.452
53770SOL     OW61333   9.769   4.876   6.327
53770SOL    HW161334   9.698   4.849   6.392
53770SOL    HW261335   9.743   4.848   6.234
53771SOL     OW61336  10.581   5.521   6.177
53771SOL    HW161337  10.625   5.585   6.113
53771SOL    HW261338  10.531   5.573   6.247
53772SOL     OW61339  10.342   4.273   5.602
53772SOL    HW161340  10.301   4.355   5.563
53772SOL    HW261341  10.406   4.299   5.675
53773SOL     OW61342   9.388   4.280   6.972
53773SOL    HW161343   9.480   4.279   6.931
53773SOL    HW261344   9.382   4.354   7.039
53774SOL     OW61345   9.871   3.946   6.733
53774SOL    HW161346   9.909   3.862   6.770
53774SOL    HW261347   9.783   3.965   6.777
53775SOL     OW61348  10.176   4.178   6.228
53775SOL    HW161349  10.144   4.250   6.166
53775SOL    HW261350  10.200   4.097   6.175
53776SOL     OW61351  10.327   3.763   6.339
53776SOL    HW161352  10.255   3.768   6.270
53776SOL    HW261353  10.303   3.694   6.408
53777SOL     OW61354  10.739   4.897   6.453
53777SOL    HW161355  10.684   4.813   6.446
53777SOL    HW261356  10.765   4.926   6.361
53778SOL     OW61357  10.776   4.314   6.578
53778SOL    HW161358  10.746   4.219   6.585
53778SOL    HW261359  10.849   4.330   6.644
53779SOL     OW61360  11.167   4.557   5.963
53779SOL    HW161361  11.209   4.493   6.027
53779SOL    HW261362  11.129   4.506   5.885
53780SOL     OW61363   9.798   5.109   5.760
53780SOL    HW161364   9.711   5.094   5.807
53780SOL    HW261365   9.781   5.135   5.665
53781SOL     OW61366  10.974   5.004   6.243
53781SOL    HW161367  11.073   5.012   6.257
53781SOL    HW261368  10.929   5.088   6.274
53782SOL     OW61369  10.700   4.299   5.664
53782SOL    HW161370  10.646   4.278   5.745
53782SOL    HW261371  10.791   4.258   5.673
53783SOL     OW61372   9.837   3.980   5.914
53783SOL    HW161373   9.864   3.921   5.839
53783SOL    HW261374   9.837   4.075   5.883
53784SOL     OW61375  11.064   4.947   7.174
53784SOL    HW161376  11.155   4.908   7.161
53784SOL    HW261377  11.072   5.043   7.198
53785SOL     OW61378  10.374   5.071   6.926
53785SOL    HW161379  10.294   5.048   6.981
53785SOL    HW261380  10.457   5.045   6.975
53786SOL     OW61381  10.902   5.353   7.211
53786SOL    HW161382  10.929   5.387   7.121
53786SOL    HW261383  10.981   5.315   7.257
53787SOL     OW61384  10.421   4.919   6.686
53787SOL    HW161385  10.381   4.963   6.767
53787SOL    HW261386  10.380   4.956   6.603
53788SOL     OW61387  10.948   4.823   6.665
53788SOL    HW161388  10.953   4.904   6.724
53788SOL    HW261389  10.862   4.825   6.614
53789SOL     OW61390  10.225   3.813   6.988
53789SOL    HW161391  10.250   3.793   6.893
53789SOL    HW261392  10.297   3.869   7.030
53790SOL     OW61393  10.290   4.840   7.305
53790SOL    HW161394  10.191   4.846   7.315
53790SOL    HW261395  10.313   4.760   7.249
53791SOL     OW61396  10.015   4.774   5.954
53791SOL    HW161397  10.001   4.781   6.053
53791SOL    HW261398  10.099   4.723   5.936
53792SOL     OW61399   9.720   4.537   6.837
53792SOL    HW161400   9.806   4.549   6.887
53792SOL    HW261401   9.678   4.450   6.864
53793SOL     OW61402  10.584   4.110   6.848
53793SOL    HW161403  10.605   4.184   6.912
53793SOL    HW261404  10.495   4.127   6.805
53794SOL     OW61405   9.374   5.288   6.917
53794SOL    HW161406   9.328   5.370   6.883
53794SOL    HW261407   9.472   5.307   6.926
53795SOL     OW61408   9.677   4.824   6.087
53795SOL    HW161409   9.670   4.907   6.031
53795SOL    HW261410   9.681   4.744   6.027
53796SOL     OW61411   9.876   4.261   6.451
53796SOL    HW161412   9.888   4.327   6.377
53796SOL    HW261413   9.922   4.295   6.534
53797SOL     OW61414  10.562   5.072   5.974
53797SOL    HW161415  10.612   5.149   6.014
53797SOL    HW261416  10.467   5.074   6.006
53798SOL     OW61417  10.582   5.169   6.728
53798SOL    HW161418  10.629   5.182   6.815
53798SOL    HW261419  10.516   5.095   6.737
53799SOL     OW61420  10.892   4.363   6.058
53799SOL    HW161421  10.861   4.424   6.131
53799SOL    HW261422  10.942   4.415   5.989
53800SOL     OW61423   9.664   5.234   6.915
53800SOL    HW161424   9.643   5.190   6.828
53800SOL    HW261425   9.761   5.260   6.918
53801SOL     OW61426   9.712   4.475   7.184
53801SOL    HW161427   9.780   4.530   7.137
53801SOL    HW261428   9.752   4.387   7.211
53802SOL     OW61429  10.897   4.503   7.256
53802SOL    HW161430  10.805   4.541   7.251
53802SOL    HW261431  10.957   4.550   7.191
53803SOL     OW61432  10.323   3.829   7.356
53803SOL    HW161433  10.329   3.914   7.304
53803SOL    HW261434  10.355   3.753   7.299
53804SOL     OW61435   9.814   3.774   7.326
53804SOL    HW161436   9.772   3.717   7.256
53804SOL    HW261437   9.748   3.843   7.358
53805SOL     OW61438   9.883   4.594   6.615
53805SOL    HW161439   9.927   4.683   6.606
53805SOL    HW261440   9.820   4.594   6.692
53806SOL     OW61441  10.670   4.586   6.631
53806SOL    HW161442  10.595   4.586   6.565
53806SOL    HW261443  10.707   4.494   6.640
53807SOL     OW61444  10.519   4.249   5.861
53807SOL    HW161445  10.532   4.165   5.915
53807SOL    HW261446  10.490   4.323   5.921
53808SOL     OW61447   9.617   3.937   6.817
53808SOL    HW161448   9.594   3.974   6.907
53808SOL    HW261449   9.587   3.842   6.811
53809SOL     OW61450   9.347   5.034   6.868
53809SOL    HW161451   9.400   4.985   6.936
53809SOL    HW261452   9.369   5.132   6.873
53810SOL     OW61453  10.042   4.358   6.650
53810SOL    HW161454  10.101   4.332   6.574
53810SOL    HW261455  10.014   4.454   6.639
53811SOL     OW61456  11.038   4.659   7.440
53811SOL    HW161457  10.992   4.652   7.351
53811SOL    HW261458  10.976   4.703   7.506
53812SOL     OW61459   9.617   3.787   6.204
53812SOL    HW161460   9.606   3.881   6.237
53812SOL    HW261461   9.612   3.724   6.281
53813SOL     OW61462  10.932   4.091   5.960
53813SOL    HW161463  10.934   4.015   6.024
53813SOL    HW261464  10.884   4.168   6.000
53814SOL     OW61465  10.333   4.490   6.552
53814SOL    HW161466  10.348   4.511   6.648
53814SOL    HW261467  10.303   4.395   6.543
53815SOL     OW61468  10.290   5.297   7.286
53815SOL    HW161469  10.270   5.341   7.198
53815SOL    HW261470  10.329   5.206   7.270
53816SOL     OW61471  11.169   5.242   7.191
53816SOL    HW161472  11.183   5.269   7.096
53816SOL    HW261473  11.252   5.264   7.244
53817SOL     OW61474   9.660   4.622   7.390
53817SOL    HW161475   9.736   4.666   7.438
53817SOL    HW261476   9.695   4.575   7.308
53818SOL     OW61477  10.850   3.998   5.711
53818SOL    HW161478  10.789   3.923   5.734
53818SOL    HW261479  10.872   4.050   5.794
53819SOL     OW61480  10.613   4.562   5.628
53819SOL    HW161481  10.647   4.469   5.643
53819SOL    HW261482  10.631   4.589   5.533
53820SOL     OW61483  10.378   5.057   6.435
53820SOL    HW161484  10.385   4.973   6.380
53820SOL    HW261485  10.440   5.126   6.399
53821SOL     OW61486   9.629   4.534   6.535
53821SOL    HW161487   9.722   4.570   6.540
53821SOL    HW261488   9.623   4.449   6.587
53822SOL     OW61489   9.649   4.233   6.592
53822SOL    HW161490   9.597   4.150   6.575
53822SOL    HW261491   9.726   4.238   6.528
53823SOL     OW61492  10.448   4.104   7.264
53823SOL    HW161493  10.403   4.167   7.328
53823SOL    HW261494  10.541   4.135   7.247
53824SOL     OW61495  10.470   3.931   7.063
53824SOL    HW161496  10.470   3.995   7.140
53824SOL    HW261497  10.498   3.979   6.980
53825SOL     OW61498   9.318   5.050   5.786
53825SOL    HW161499   9.225   5.071   5.755
53825SOL    HW261500   9.328   4.951   5.799
53826SOL     OW61501   9.398   5.525   6.513
53826SOL    HW161502   9.356   5.439   6.486
53826SOL    HW261503   9.492   5.528   6.479
53827SOL     OW61504   9.814   5.292   6.496
53827SOL    HW161505   9.880   5.366   6.505
53827SOL    HW261506   9.858   5.213   6.454
53828SOL     OW61507  10.312   4.520   6.824
53828SOL    HW161508  10.353   4.488   6.910
53828SOL    HW261509  10.216   4.493   6.821
53829SOL     OW61510   9.350   4.268   6.700
53829SOL    HW161511   9.435   4.235   6.659
53829SOL    HW261512   9.363   4.283   6.798
53830SOL     OW61513   9.499   4.244   7.308
53830SOL    HW161514   9.558   4.204   7.238
53830SOL    HW261515   9.441   4.315   7.267
53831SOL     OW61516  10.679   4.674   7.246
53831SOL    HW161517  10.718   4.763   7.266
53831SOL    HW261518  10.689   4.654   7.149
53832SOL     OW61519  10.125   4.296   5.911
53832SOL    HW161520  10.132   4.207   5.865
53832SOL    HW261521  10.031   4.330   5.903
53833SOL     OW61522  10.967   4.328   6.792
53833SOL    HW161523  10.929   4.259   6.854
53833SOL    HW261524  11.049   4.292   6.748
53834SOL     OW61525   9.562   5.288   7.330
53834SOL    HW161526   9.532   5.345   7.406
53834SOL    HW261527   9.555   5.191   7.356
53835SOL     OW61528   9.981   4.188   6.855
53835SOL    HW161529   9.947   4.099   6.825
53835SOL    HW261530  10.007   4.242   6.775
53836SOL     OW61531  10.240   5.402   7.051
53836SOL    HW161532  10.216   5.384   6.956
53836SOL    HW261533  10.270   5.496   7.061
53837SOL     OW61534   9.783   4.224   5.777
53837SOL    HW161535   9.844   4.304   5.781
53837SOL    HW261536   9.688   4.255   5.784
53838SOL     OW61537   9.469   4.861   7.052
53838SOL    HW161538   9.491   4.800   7.128
53838SOL    HW261539   9.479   4.812   6.966
53839SOL     OW61540  10.657   4.783   6.820
53839SOL    HW161541  10.681   4.720   6.746
53839SOL    HW261542  10.567   4.823   6.802
53840SOL     OW61543  10.612   4.579   5.895
53840SOL    HW161544  10.526   4.548   5.937
53840SOL    HW261545  10.608   4.565   5.796
53841SOL     OW61546  11.069   5.471   6.740
53841SOL    HW161547  11.130   5.501   6.667
53841SOL    HW261548  11.031   5.382   6.718
53842SOL     OW61549  10.562   5.455   6.714
53842SOL    HW161550  10.646   5.460   6.660
53842SOL    HW261551  10.539   5.359   6.732
53843SOL     OW61552   9.393   4.982   6.608
53843SOL    HW161553   9.388   4.981   6.708
53843SOL    HW261554   9.310   4.941   6.570
53844SOL     OW61555   9.998   5.386   7.302
53844SOL    HW161556   9.942   5.467   7.311
53844SOL    HW261557  10.050   5.390   7.216
53845SOL     OW61558  11.036   3.859   6.109
53845SOL    HW161559  11.109   3.842   6.042
53845SOL    HW261560  11.005   3.772   6.147
53846SOL     OW61561  10.698   5.297   6.063
53846SOL    HW161562  10.765   5.309   5.989
53846SOL    HW261563  10.658   5.386   6.086
53847SOL     OW61564   9.440   5.518   7.437
53847SOL    HW161565   9.399   5.444   7.490
53847SOL    HW261566   9.504   5.569   7.495
53848SOL     OW61567  10.590   4.651   6.258
53848SOL    HW161568  10.650   4.570   6.260
53848SOL    HW261569  10.630   4.720   6.198
53849SOL     OW61570  10.140   4.997   7.008
53849SOL    HW161571  10.135   5.030   7.103
53849SOL    HW261572  10.054   5.016   6.962
53850SOL     OW61573   9.982   5.340   5.740
53850SOL    HW161574   9.991   5.350   5.641
53850SOL    HW261575   9.942   5.251   5.761
53851SOL     OW61576  10.960   5.444   6.980
53851SOL    HW161577  11.013   5.454   6.896
53851SOL    HW261578  10.933   5.534   7.014
53852SOL     OW61579  11.151   3.899   6.549
53852SOL    HW161580  11.190   3.814   6.513
53852SOL    HW261581  11.053   3.901   6.530
53853SOL     OW61582   9.573   4.050   6.306
53853SOL    HW161583   9.494   4.101   6.272
53853SOL    HW261584   9.564   4.035   6.404
53854SOL     OW61585  10.504   5.336   5.617
53854SOL    HW161586  10.510   5.243   5.654
53854SOL    HW261587  10.445   5.336   5.537
53855SOL     OW61588  10.132   4.726   6.958
53855SOL    HW161589  10.172   4.725   6.866
53855SOL    HW261590  10.142   4.818   6.998
53856SOL     OW61591  10.226   4.634   5.877
53856SOL    HW161592  10.289   4.672   5.809
53856SOL    HW261593  10.266   4.551   5.916
53857SOL     OW61594  10.814   5.331   5.630
53857SOL    HW161595  10.722   5.368   5.637
53857SOL    HW261596  10.852   5.351   5.540
53858SOL     OW61597   9.682   5.012   7.076
53858SOL    HW161598   9.669   5.105   7.042
53858SOL    HW261599   9.598   4.960   7.063
53859SOL     OW61600  10.924   5.016   6.875
53859SOL    HW161601  10.984   5.019   6.955
53859SOL    HW261602  10.849   5.080   6.888
53860SOL     OW61603  10.349   4.822   6.282
53860SOL    HW161604  10.279   4.775   6.336
53860SOL    HW261605  10.408   4.754   6.239
53861SOL     OW61606  10.324   3.960   6.557
53861SOL    HW161607  10.316   3.924   6.464
53861SOL    HW261608  10.322   3.884   6.622
53862SOL     OW61609   9.900   5.211   6.077
53862SOL    HW161610   9.942   5.153   6.007
53862SOL    HW261611   9.856   5.290   6.033
53863SOL     OW61612  11.019   4.109   6.967
53863SOL    HW161613  11.092   4.178   6.971
53863SOL    HW261614  11.047   4.034   6.908
53864SOL     OW61615   9.565   5.072   5.876
53864SOL    HW161616   9.469   5.073   5.849
53864SOL    HW261617   9.577   5.125   5.960
53865SOL     OW61618   9.415   4.737   7.312
53865SOL    HW161619   9.338   4.704   7.366
53865SOL    HW261620   9.500   4.707   7.354
53866SOL     OW61621   9.982   3.927   7.075
53866SOL    HW161622  10.072   3.911   7.035
53866SOL    HW261623   9.990   3.932   7.174
53867SOL     OW61624   9.385   4.069   5.619
53867SOL    HW161625   9.293   4.041   5.590
53867SOL    HW261626   9.416   4.146   5.563
53868SOL     OW61627  10.750   4.580   6.984
53868SOL    HW161628  10.693   4.632   6.921
53868SOL    HW261629  10.846   4.592   6.960
53869SOL     OW61630   9.382   3.890   5.904
53869SOL    HW161631   9.365   3.973   5.850
53869SOL    HW261632   9.472   3.853   5.882
53870SOL     OW61633  10.493   5.059   5.705
53870SOL    HW161634  10.394   5.048   5.707
53870SOL    HW261635  10.527   5.074   5.798
53871SOL     OW61636   9.923   4.566   7.017
53871SOL    HW161637   9.979   4.647   7.000
53871SOL    HW261638   9.982   4.486   7.020
53872SOL     OW61639  10.803   5.491   6.545
53872SOL    HW161640  10.836   5.555   6.476
53872SOL    HW261641  10.869   5.485   6.620
53873SOL     OW61642  10.026   4.289   7.294
53873SOL    HW161643  10.045   4.354   7.368
53873SOL    HW261644  10.086   4.209   7.303
53874SOL     OW61645  10.760   4.944   7.219
53874SOL    HW161646  10.751   4.934   7.318
53874SOL    HW261647  10.856   4.937   7.193
53875SOL     OW61648   9.700   5.465   7.146
53875SOL    HW161649   9.609   5.506   7.144
53875SOL    HW261650   9.693   5.371   7.178
53876SOL     OW61651  10.984   4.607   6.840
53876SOL    HW161652  10.957   4.518   6.803
53876SOL    HW261653  10.985   4.675   6.767
53877SOL     OW61654  10.535   4.049   6.035
53877SOL    HW161655  10.600   3.975   6.024
53877SOL    HW261656  10.555   4.099   6.119
53878SOL     OW61657   9.904   4.469   6.238
53878SOL    HW161658   9.954   4.554   6.219
53878SOL    HW261659   9.816   4.471   6.190
53879SOL     OW61660  11.087   4.066   7.228
53879SOL    HW161661  11.070   4.097   7.134
53879SOL    HW261662  11.003   4.029   7.266
53880SOL     OW61663  11.040   4.658   7.103
53880SOL    HW161664  11.078   4.749   7.118
53880SOL    HW261665  11.032   4.641   7.004
53881SOL     OW61666  10.169   5.098   5.602
53881SOL    HW161667  10.123   5.113   5.690
53881SOL    HW261668  10.213   5.183   5.572
53882SOL     OW61669   9.971   5.514   6.539
53882SOL    HW161670   9.925   5.602   6.526
53882SOL    HW261671  10.070   5.526   6.532
53883SOL     OW61672  10.169   4.680   6.447
53883SOL    HW161673  10.223   4.611   6.495
53883SOL    HW261674  10.137   4.749   6.513
53884SOL     OW61675  10.393   4.708   5.673
53884SOL    HW161676  10.370   4.761   5.591
53884SOL    HW261677  10.474   4.652   5.654
53885SOL     OW61678  11.171   5.293   6.437
53885SOL    HW161679  11.100   5.281   6.367
53885SOL    HW261680  11.172   5.214   6.497
53886SOL     OW61681   9.531   5.038   7.430
53886SOL    HW161682   9.466   4.965   7.409
53886SOL    HW261683   9.535   5.052   7.528
53887SOL     OW61684   9.389   4.964   6.239
53887SOL    HW161685   9.388   4.917   6.327
53887SOL    HW261686   9.471   4.936   6.188
53888SOL     OW61687   9.982   5.115   7.210
53888SOL    HW161688   9.904   5.065   7.248
53888SOL    HW261689   9.979   5.210   7.241
53889SOL     OW61690  11.134   3.916   6.813
53889SOL    HW161691  11.130   3.826   6.857
53889SOL    HW261692  11.137   3.905   6.714
53890SOL     OW61693   9.738   4.148   6.106
53890SOL    HW161694   9.768   4.076   6.044
53890SOL    HW261695   9.699   4.108   6.189
53891SOL     OW61696  11.015   5.211   6.690
53891SOL    HW161697  10.922   5.186   6.663
53891SOL    HW261698  11.041   5.161   6.772
53892SOL     OW61699   9.627   4.271   6.866
53892SOL    HW161700   9.665   4.212   6.938
53892SOL    HW261701   9.667   4.245   6.778
53893SOL     OW61702  10.122   5.310   6.273
53893SOL    HW161703  10.154   5.320   6.179
53893SOL    HW261704  10.043   5.248   6.275
53894SOL     OW61705  10.734   3.938   6.698
53894SOL    HW161706  10.786   3.873   6.753
53894SOL    HW261707  10.685   4.001   6.759
53895SOL     OW61708  10.311   3.758   6.740
53895SOL    HW161709  10.248   3.686   6.709
53895SOL    HW261710  10.404   3.722   6.740
53896SOL     OW61711  10.080   5.054   5.887
53896SOL    HW161712  10.034   4.967   5.904
53896SOL    HW261713  10.171   5.051   5.928
53897SOL     OW61714   9.928   5.291   6.870
53897SOL    HW161715   9.923   5.373   6.927
53897SOL    HW261716  10.017   5.288   6.825
53898SOL     OW61717  10.662   3.776   5.754
53898SOL    HW161718  10.697   3.735   5.670
53898SOL    HW261719  10.572   3.738   5.774
53899SOL     OW61720  10.610   4.177   6.277
53899SOL    HW161721  10.551   4.257   6.281
53899SOL    HW261722  10.625   4.142   6.370
53900SOL     OW61723  10.903   3.945   6.468
53900SOL    HW161724  10.819   3.944   6.522
53900SOL    HW261725  10.905   4.028   6.412
53901SOL     OW61726   9.349   4.801   5.886
53901SOL    HW161727   9.448   4.790   5.877
53901SOL    HW261728   9.309   4.715   5.918
53902SOL     OW61729  10.185   5.370   5.923
53902SOL    HW161730  10.108   5.335   5.869
53902SOL    HW261731  10.153   5.441   5.985
53903SOL     OW61732   9.540   4.352   7.561
53903SOL    HW161733   9.447   4.350   7.598
53903SOL    HW261734   9.541   4.313   7.469
53904SOL     OW61735   9.535   3.999   8.444
53904SOL    HW161736   9.570   3.982   8.536
53904SOL    HW261737   9.447   3.954   8.432
53905SOL     OW61738   9.329   4.092   8.095
53905SOL    HW161739   9.247   4.135   8.134
53905SOL    HW261740   9.301   4.019   8.032
53906SOL     OW61741   9.879   4.999   8.613
53906SOL    HW161742   9.786   4.992   8.576
53906SOL    HW261743   9.890   5.088   8.657
53907SOL     OW61744  10.865   5.235   8.151
53907SOL    HW161745  10.808   5.219   8.232
53907SOL    HW261746  10.806   5.245   8.071
53908SOL     OW61747  10.445   4.427   8.165
53908SOL    HW161748  10.502   4.505   8.140
53908SOL    HW261749  10.385   4.453   8.241
53909SOL     OW61750  11.065   4.331   7.679
53909SOL    HW161751  11.053   4.318   7.580
53909SOL    HW261752  11.035   4.250   7.728
53910SOL     OW61753  10.078   4.868   8.471
53910SOL    HW161754  10.000   4.885   8.531
53910SOL    HW261755  10.112   4.955   8.435
53911SOL     OW61756  10.160   4.522   9.271
53911SOL    HW161757  10.156   4.598   9.336
53911SOL    HW261758  10.182   4.558   9.180
53912SOL     OW61759   9.995   4.736   8.113
53912SOL    HW161760  10.064   4.720   8.183
53912SOL    HW261761   9.922   4.793   8.151
53913SOL     OW61762   9.996   4.885   9.251
53913SOL    HW161763  10.056   4.964   9.265
53913SOL    HW261764   9.910   4.916   9.210
53914SOL     OW61765   9.645   5.159   8.509
53914SOL    HW161766   9.567   5.128   8.456
53914SOL    HW261767   9.703   5.217   8.452
53915SOL     OW61768  10.770   5.229   8.787
53915SOL    HW161769  10.794   5.323   8.813
53915SOL    HW261770  10.754   5.175   8.869
53916SOL     OW61771   9.748   4.116   8.947
53916SOL    HW161772   9.830   4.060   8.956
53916SOL    HW261773   9.667   4.058   8.951
53917SOL     OW61774  10.913   4.171   8.185
53917SOL    HW161775  10.839   4.217   8.135
53917SOL    HW261776  10.964   4.239   8.238
53918SOL     OW61777   9.541   5.437   7.931
53918SOL    HW161778   9.575   5.514   7.985
53918SOL    HW261779   9.585   5.437   7.841
53919SOL     OW61780  10.437   5.065   9.138
53919SOL    HW161781  10.484   5.065   9.226
53919SOL    HW261782  10.389   4.978   9.127
53920SOL     OW61783   9.540   5.158   7.986
53920SOL    HW161784   9.514   5.254   7.986
53920SOL    HW261785   9.469   5.104   8.031
53921SOL     OW61786   9.550   4.815   8.334
53921SOL    HW161787   9.564   4.731   8.386
53921SOL    HW261788   9.495   4.879   8.389
53922SOL     OW61789   9.930   5.510   8.887
53922SOL    HW161790   9.838   5.493   8.922
53922SOL    HW261791   9.958   5.602   8.913
53923SOL     OW61792   9.916   4.688   7.571
53923SOL    HW161793   9.923   4.772   7.517
53923SOL    HW261794   9.962   4.701   7.659
53924SOL     OW61795  10.904   3.838   8.928
53924SOL    HW161796  10.886   3.905   8.856
53924SOL    HW261797  10.901   3.884   9.017
53925SOL     OW61798   9.432   4.367   8.011
53925SOL    HW161799   9.387   4.279   8.028
53925SOL    HW261800   9.431   4.421   8.095
53926SOL     OW61801  11.152   5.491   7.807
53926SOL    HW161802  11.206   5.462   7.887
53926SOL    HW261803  11.182   5.581   7.778
53927SOL     OW61804   9.337   5.320   7.565
53927SOL    HW161805   9.318   5.224   7.586
53927SOL    HW261806   9.304   5.378   7.640
53928SOL     OW61807  10.999   4.646   8.060
53928SOL    HW161808  11.094   4.617   8.068
53928SOL    HW261809  10.991   4.711   7.985
53929SOL     OW61810  10.951   4.832   7.880
53929SOL    HW161811  11.037   4.834   7.828
53929SOL    HW261812  10.965   4.879   7.968
53930SOL     OW61813   9.423   4.461   9.045
53930SOL    HW161814   9.511   4.448   9.090
53930SOL    HW261815   9.410   4.558   9.023
53931SOL     OW61816   9.923   5.089   8.174
53931SOL    HW161817   9.874   5.002   8.183
53931SOL    HW261818   9.900   5.132   8.087
53932SOL     OW61819  10.603   4.952   8.871
53932SOL    HW161820  10.640   4.879   8.813
53932SOL    HW261821  10.655   4.957   8.956
53933SOL     OW61822  10.119   3.728   7.950
53933SOL    HW161823  10.159   3.819   7.941
53933SOL    HW261824  10.019   3.736   7.956
53934SOL     OW61825   9.507   4.700   8.712
53934SOL    HW161826   9.596   4.655   8.698
53934SOL    HW261827   9.434   4.635   8.693
53935SOL     OW61828  10.835   4.723   7.638
53935SOL    HW161829  10.772   4.647   7.651
53935SOL    HW261830  10.883   4.741   7.724
53936SOL     OW61831  10.497   5.516   9.064
53936SOL    HW161832  10.521   5.576   8.988
53936SOL    HW261833  10.504   5.421   9.034
53937SOL     OW61834   9.627   3.975   9.249
53937SOL    HW161835   9.698   4.046   9.255
53937SOL    HW261836   9.539   4.014   9.277
53938SOL     OW61837  10.776   5.141   8.401
53938SOL    HW161838  10.717   5.147   8.481
53938SOL    HW261839  10.761   5.053   8.355
53939SOL     OW61840  10.977   5.438   8.020
53939SOL    HW161841  10.936   5.415   7.932
53939SOL    HW261842  10.959   5.364   8.085
53940SOL     OW61843   9.908   4.453   7.718
53940SOL    HW161844   9.932   4.522   7.650
53940SOL    HW261845   9.830   4.486   7.772
53941SOL     OW61846  10.591   4.069   8.392
53941SOL    HW161847  10.505   4.019   8.379
53941SOL    HW261848  10.653   4.015   8.448
53942SOL     OW61849  10.886   5.386   7.755
53942SOL    HW161850  10.975   5.432   7.758
53942SOL    HW261851  10.865   5.362   7.660
53943SOL     OW61852  10.117   4.329   8.913
53943SOL    HW161853  10.070   4.326   9.002
53943SOL    HW261854  10.066   4.274   8.847
53944SOL     OW61855  10.704   4.193   9.122
53944SOL    HW161856  10.684   4.236   9.210
53944SOL    HW261857  10.782   4.131   9.131
53945SOL     OW61858  10.283   4.614   9.020
53945SOL    HW161859  10.329   4.530   8.991
53945SOL    HW261860  10.227   4.648   8.945
53946SOL     OW61861  10.301   4.134   8.690
53946SOL    HW161862  10.224   4.168   8.744
53946SOL    HW261863  10.267   4.083   8.611
53947SOL     OW61864  10.351   4.425   7.877
53947SOL    HW161865  10.377   4.421   7.973
53947SOL    HW261866  10.266   4.374   7.863
53948SOL     OW61867   9.386   4.535   8.237
53948SOL    HW161868   9.485   4.523   8.246
53948SOL    HW261869   9.362   4.630   8.258
53949SOL     OW61870   9.440   5.545   9.019
53949SOL    HW161871   9.430   5.530   9.118
53949SOL    HW261872   9.354   5.581   8.983
53950SOL     OW61873  10.175   4.072   7.643
53950SOL    HW161874  10.234   4.135   7.594
53950SOL    HW261875  10.194   3.978   7.614
53951SOL     OW61876  11.029   4.309   9.279
53951SOL    HW161877  11.003   4.398   9.243
53951SOL    HW261878  11.027   4.241   9.206
53952SOL     OW61879  10.672   4.868   7.993
53952SOL    HW161880  10.755   4.839   7.945
53952SOL    HW261881  10.623   4.935   7.937
53953SOL     OW61882   9.860   3.920   8.333
53953SOL    HW161883   9.855   3.915   8.433
53953SOL    HW261884   9.862   4.016   8.304
53954SOL     OW61885  10.318   5.180   7.925
53954SOL    HW161886  10.272   5.252   7.873
53954SOL    HW261887  10.314   5.200   8.023
53955SOL     OW61888   9.661   5.525   8.301
53955SOL    HW161889   9.711   5.439   8.307
53955SOL    HW261890   9.726   5.602   8.298
53956SOL     OW61891  11.105   4.790   8.321
53956SOL    HW161892  11.043   4.775   8.245
53956SOL    HW261893  11.053   4.801   8.406
53957SOL     OW61894  10.537   5.274   8.954
53957SOL    HW161895  10.543   5.197   9.018
53957SOL    HW261896  10.485   5.248   8.874
53958SOL     OW61897   9.631   4.667   7.690
53958SOL    HW161898   9.713   4.706   7.648
53958SOL    HW261899   9.604   4.585   7.641
53959SOL     OW61900  10.768   4.459   8.176
53959SOL    HW161901  10.763   4.394   8.251
53959SOL    HW261902  10.848   4.518   8.189
53960SOL     OW61903   9.771   4.990   9.175
53960SOL    HW161904   9.721   4.991   9.089
53960SOL    HW261905   9.708   4.972   9.251
53961SOL     OW61906  10.421   5.500   7.685
53961SOL    HW161907  10.361   5.438   7.735
53961SOL    HW261908  10.452   5.456   7.600
53962SOL     OW61909   9.512   4.009   8.946
53962SOL    HW161910   9.432   4.069   8.933
53962SOL    HW261911   9.502   3.960   9.032
53963SOL     OW61912  10.942   5.101   7.529
53963SOL    HW161913  10.910   5.195   7.519
53963SOL    HW261914  10.866   5.038   7.517
53964SOL     OW61915   9.774   5.467   7.771
53964SOL    HW161916   9.807   5.506   7.857
53964SOL    HW261917   9.850   5.460   7.706
53965SOL     OW61918  10.710   3.831   7.874
53965SOL    HW161919  10.686   3.794   7.784
53965SOL    HW261920  10.809   3.847   7.878
53966SOL     OW61921   9.559   5.509   8.689
53966SOL    HW161922   9.616   5.444   8.739
53966SOL    HW261923   9.543   5.476   8.596
53967SOL     OW61924  10.250   5.422   8.352
53967SOL    HW161925  10.330   5.365   8.373
53967SOL    HW261926  10.201   5.382   8.275
53968SOL     OW61927   9.692   4.424   7.928
53968SOL    HW161928   9.737   4.334   7.925
53968SOL    HW261929   9.598   4.413   7.961
53969SOL     OW61930  10.857   3.946   9.177
53969SOL    HW161931  10.852   3.983   9.269
53969SOL    HW261932  10.785   3.877   9.165
53970SOL     OW61933   9.924   3.846   7.565
53970SOL    HW161934  10.022   3.824   7.572
53970SOL    HW261935   9.893   3.829   7.472
53971SOL     OW61936  10.091   3.988   9.197
53971SOL    HW161937  10.158   3.927   9.240
53971SOL    HW261938  10.018   4.007   9.262
53972SOL     OW61939  10.198   5.238   8.643
53972SOL    HW161940  10.175   5.213   8.549
53972SOL    HW261941  10.259   5.169   8.682
53973SOL     OW61942  10.661   4.314   8.881
53973SOL    HW161943  10.689   4.271   8.966
53973SOL    HW261944  10.686   4.410   8.882
53974SOL     OW61945  10.113   5.126   8.372
53974SOL    HW161946  10.203   5.140   8.330
53974SOL    HW261947  10.042   5.128   8.301
53975SOL     OW61948  10.232   4.227   8.347
53975SOL    HW161949  10.207   4.218   8.251
53975SOL    HW261950  10.280   4.145   8.378
53976SOL     OW61951   9.849   3.788   7.960
53976SOL    HW161952   9.768   3.789   8.018
53976SOL    HW261953   9.852   3.871   7.905
53977SOL     OW61954  10.744   4.912   7.489
53977SOL    HW161955  10.776   4.836   7.546
53977SOL    HW261956  10.652   4.939   7.519
53978SOL     OW61957   9.607   3.759   7.619
53978SOL    HW161958   9.656   3.843   7.598
53978SOL    HW261959   9.669   3.694   7.664
53979SOL     OW61960  10.245   3.960   7.928
53979SOL    HW161961  10.197   4.001   7.850
53979SOL    HW261962  10.344   3.958   7.909
53980SOL     OW61963  10.386   4.407   8.912
53980SOL    HW161964  10.306   4.346   8.915
53980SOL    HW261965  10.467   4.354   8.888
53981SOL     OW61966  10.537   5.294   8.241
53981SOL    HW161967  10.558   5.368   8.176
53981SOL    HW261968  10.605   5.294   8.314
53982SOL     OW61969   9.769   4.876   8.189
53982SOL    HW161970   9.698   4.849   8.254
53982SOL    HW261971   9.743   4.848   8.096
53983SOL     OW61972  10.581   5.521   8.039
53983SOL    HW161973  10.625   5.585   7.975
53983SOL    HW261974  10.531   5.573   8.109
53984SOL     OW61975  10.342   4.273   7.464
53984SOL    HW161976  10.301   4.355   7.425
53984SOL    HW261977  10.406   4.299   7.537
53985SOL     OW61978   9.388   4.280   8.834
53985SOL    HW161979   9.480   4.279   8.793
53985SOL    HW261980   9.382   4.354   8.901
53986SOL     OW61981   9.871   3.946   8.595
53986SOL    HW161982   9.909   3.862   8.632
53986SOL    HW261983   9.783   3.965   8.639
53987SOL     OW61984  10.176   4.178   8.090
53987SOL    HW161985  10.144   4.250   8.028
53987SOL    HW261986  10.200   4.097   8.037
53988SOL     OW61987  10.327   3.763   8.201
53988SOL    HW161988  10.255   3.768   8.132
53988SOL    HW261989  10.303   3.694   8.270
53989SOL     OW61990  10.739   4.897   8.315
53989SOL    HW161991  10.684   4.813   8.308
53989SOL    HW261992  10.765   4.926   8.223
53990SOL     OW61993  10.776   4.314   8.440
53990SOL    HW161994  10.746   4.219   8.447
53990SOL    HW261995  10.849   4.330   8.506
53991SOL     OW61996  11.167   4.557   7.825
53991SOL    HW161997  11.209   4.493   7.889
53991SOL    HW261998  11.129   4.506   7.747
53992SOL     OW61999   9.798   5.109   7.622
53992SOL    HW162000   9.711   5.094   7.669
53992SOL    HW262001   9.781   5.135   7.527
53993SOL     OW62002  10.974   5.004   8.105
53993SOL    HW162003  11.073   5.012   8.119
53993SOL    HW262004  10.929   5.088   8.136
53994SOL     OW62005  10.700   4.299   7.526
53994SOL    HW162006  10.646   4.278   7.607
53994SOL    HW262007  10.791   4.258   7.535
53995SOL     OW62008   9.837   3.980   7.776
53995SOL    HW162009   9.864   3.921   7.701
53995SOL    HW262010   9.837   4.075   7.745
53996SOL     OW62011  11.064   4.947   9.036
53996SOL    HW162012  11.155   4.908   9.023
53996SOL    HW262013  11.072   5.043   9.060
53997SOL     OW62014  10.374   5.071   8.788
53997SOL    HW162015  10.294   5.048   8.843
53997SOL    HW262016  10.457   5.045   8.837
53998SOL     OW62017  10.902   5.353   9.073
53998SOL    HW162018  10.929   5.387   8.983
53998SOL    HW262019  10.981   5.315   9.119
53999SOL     OW62020  10.421   4.919   8.548
53999SOL    HW162021  10.381   4.963   8.629
53999SOL    HW262022  10.380   4.956   8.465
54000SOL     OW62023  10.948   4.823   8.527
54000SOL    HW162024  10.953   4.904   8.586
54000SOL    HW262025  10.862   4.825   8.476
54001SOL     OW62026  10.225   3.813   8.850
54001SOL    HW162027  10.250   3.793   8.755
54001SOL    HW262028  10.297   3.869   8.892
54002SOL     OW62029  10.290   4.840   9.167
54002SOL    HW162030  10.191   4.846   9.177
54002SOL    HW262031  10.313   4.760   9.111
54003SOL     OW62032  10.015   4.774   7.816
54003SOL    HW162033  10.001   4.781   7.915
54003SOL    HW262034  10.099   4.723   7.798
54004SOL     OW62035   9.720   4.537   8.699
54004SOL    HW162036   9.806   4.549   8.749
54004SOL    HW262037   9.678   4.450   8.726
54005SOL     OW62038  10.584   4.110   8.710
54005SOL    HW162039  10.605   4.184   8.774
54005SOL    HW262040  10.495   4.127   8.667
54006SOL     OW62041   9.374   5.288   8.779
54006SOL    HW162042   9.328   5.370   8.745
54006SOL    HW262043   9.472   5.307   8.788
54007SOL     OW62044   9.677   4.824   7.949
54007SOL    HW162045   9.670   4.907   7.893
54007SOL    HW262046   9.681   4.744   7.889
54008SOL     OW62047   9.876   4.261   8.313
54008SOL    HW162048   9.888   4.327   8.239
54008SOL    HW262049   9.922   4.295   8.396
54009SOL     OW62050  10.562   5.072   7.836
54009SOL    HW162051  10.612   5.149   7.876
54009SOL    HW262052  10.467   5.074   7.868
54010SOL     OW62053  10.582   5.169   8.590
54010SOL    HW162054  10.629   5.182   8.677
54010SOL    HW262055  10.516   5.095   8.599
54011SOL     OW62056  10.892   4.363   7.920
54011SOL    HW162057  10.861   4.424   7.993
54011SOL    HW262058  10.942   4.415   7.851
54012SOL     OW62059   9.664   5.234   8.777
54012SOL    HW162060   9.643   5.190   8.690
54012SOL    HW262061   9.761   5.260   8.780
54013SOL     OW62062   9.712   4.475   9.046
54013SOL    HW162063   9.780   4.530   8.999
54013SOL    HW262064   9.752   4.387   9.073
54014SOL     OW62065  10.897   4.503   9.118
54014SOL    HW162066  10.805   4.541   9.113
54014SOL    HW262067  10.957   4.550   9.053
54015SOL     OW62068  10.323   3.829   9.218
54015SOL    HW162069  10.329   3.914   9.166
54015SOL    HW262070  10.355   3.753   9.161
54016SOL     OW62071   9.814   3.774   9.188
54016SOL    HW162072   9.772   3.717   9.118
54016SOL    HW262073   9.748   3.843   9.220
54017SOL     OW62074   9.883   4.594   8.477
54017SOL    HW162075   9.927   4.683   8.468
54017SOL    HW262076   9.820   4.594   8.554
54018SOL     OW62077  10.670   4.586   8.493
54018SOL    HW162078  10.595   4.586   8.427
54018SOL    HW262079  10.707   4.494   8.502
54019SOL     OW62080  10.519   4.249   7.723
54019SOL    HW162081  10.532   4.165   7.777
54019SOL    HW262082  10.490   4.323   7.783
54020SOL     OW62083   9.617   3.937   8.679
54020SOL    HW162084   9.594   3.974   8.769
54020SOL    HW262085   9.587   3.842   8.673
54021SOL     OW62086   9.347   5.034   8.730
54021SOL    HW162087   9.400   4.985   8.798
54021SOL    HW262088   9.369   5.132   8.735
54022SOL     OW62089  10.042   4.358   8.512
54022SOL    HW162090  10.101   4.332   8.436
54022SOL    HW262091  10.014   4.454   8.501
54023SOL     OW62092  11.038   4.659   9.302
54023SOL    HW162093  10.992   4.652   9.213
54023SOL    HW262094  10.976   4.703   9.368
54024SOL     OW62095   9.617   3.787   8.066
54024SOL    HW162096   9.606   3.881   8.099
54024SOL    HW262097   9.612   3.724   8.143
54025SOL     OW62098  10.932   4.091   7.822
54025SOL    HW162099  10.934   4.015   7.886
54025SOL    HW262100  10.884   4.168   7.862
54026SOL     OW62101  10.333   4.490   8.414
54026SOL    HW162102  10.348   4.511   8.510
54026SOL    HW262103  10.303   4.395   8.405
54027SOL     OW62104  10.290   5.297   9.148
54027SOL    HW162105  10.270   5.341   9.060
54027SOL    HW262106  10.329   5.206   9.132
54028SOL     OW62107  11.169   5.242   9.053
54028SOL    HW162108  11.183   5.269   8.958
54028SOL    HW262109  11.252   5.264   9.106
54029SOL     OW62110   9.660   4.622   9.252
54029SOL    HW162111   9.736   4.666   9.300
54029SOL    HW262112   9.695   4.575   9.170
54030SOL     OW62113  10.850   3.998   7.573
54030SOL    HW162114  10.789   3.923   7.596
54030SOL    HW262115  10.872   4.050   7.656
54031SOL     OW62116  10.613   4.562   7.490
54031SOL    HW162117  10.647   4.469   7.505
54031SOL    HW262118  10.631   4.589   7.395
54032SOL     OW62119  10.378   5.057   8.297
54032SOL    HW162120  10.385   4.973   8.242
54032SOL    HW262121  10.440   5.126   8.261
54033SOL     OW62122   9.629   4.534   8.397
54033SOL    HW162123   9.722   4.570   8.402
54033SOL    HW262124   9.623   4.449   8.449
54034SOL     OW62125   9.649   4.233   8.454
54034SOL    HW162126   9.597   4.150   8.437
54034SOL    HW262127   9.726   4.238   8.390
54035SOL     OW62128  10.448   4.104   9.126
54035SOL    HW162129  10.403   4.167   9.190
54035SOL    HW262130  10.541   4.135   9.109
54036SOL     OW62131  10.470   3.931   8.925
54036SOL    HW162132  10.470   3.995   9.002
54036SOL    HW262133  10.498   3.979   8.842
54037SOL     OW62134   9.318   5.050   7.648
54037SOL    HW162135   9.225   5.071   7.617
54037SOL    HW262136   9.328   4.951   7.661
54038SOL     OW62137   9.398   5.525   8.375
54038SOL    HW162138   9.356   5.439   8.348
54038SOL    HW262139   9.492   5.528   8.341
54039SOL     OW62140   9.814   5.292   8.358
54039SOL    HW162141   9.880   5.366   8.367
54039SOL    HW262142   9.858   5.213   8.316
54040SOL     OW62143  10.312   4.520   8.686
54040SOL    HW162144  10.353   4.488   8.772
54040SOL    HW262145  10.216   4.493   8.683
54041SOL     OW62146   9.350   4.268   8.562
54041SOL    HW162147   9.435   4.235   8.521
54041SOL    HW262148   9.363   4.283   8.660
54042SOL     OW62149   9.499   4.244   9.170
54042SOL    HW162150   9.558   4.204   9.100
54042SOL    HW262151   9.441   4.315   9.129
54043SOL     OW62152  10.679   4.674   9.108
54043SOL    HW162153  10.718   4.763   9.128
54043SOL    HW262154  10.689   4.654   9.011
54044SOL     OW62155  10.125   4.296   7.773
54044SOL    HW162156  10.132   4.207   7.727
54044SOL    HW262157  10.031   4.330   7.765
54045SOL     OW62158  10.967   4.328   8.654
54045SOL    HW162159  10.929   4.259   8.716
54045SOL    HW262160  11.049   4.292   8.610
54046SOL     OW62161   9.562   5.288   9.192
54046SOL    HW162162   9.532   5.345   9.268
54046SOL    HW262163   9.555   5.191   9.218
54047SOL     OW62164   9.981   4.188   8.717
54047SOL    HW162165   9.947   4.099   8.687
54047SOL    HW262166  10.007   4.242   8.637
54048SOL     OW62167  10.240   5.402   8.913
54048SOL    HW162168  10.216   5.384   8.818
54048SOL    HW262169  10.270   5.496   8.923
54049SOL     OW62170   9.783   4.224   7.639
54049SOL    HW162171   9.844   4.304   7.643
54049SOL    HW262172   9.688   4.255   7.646
54050SOL     OW62173   9.469   4.861   8.914
54050SOL    HW162174   9.491   4.800   8.990
54050SOL    HW262175   9.479   4.812   8.828
54051SOL     OW62176  10.657   4.783   8.682
54051SOL    HW162177  10.681   4.720   8.608
54051SOL    HW262178  10.567   4.823   8.664
54052SOL     OW62179  10.612   4.579   7.757
54052SOL    HW162180  10.526   4.548   7.799
54052SOL    HW262181  10.608   4.565   7.658
54053SOL     OW62182  11.069   5.471   8.602
54053SOL    HW162183  11.130   5.501   8.529
54053SOL    HW262184  11.031   5.382   8.580
54054SOL     OW62185  10.562   5.455   8.576
54054SOL    HW162186  10.646   5.460   8.522
54054SOL    HW262187  10.539   5.359   8.594
54055SOL     OW62188   9.393   4.982   8.470
54055SOL    HW162189   9.388   4.981   8.570
54055SOL    HW262190   9.310   4.941   8.432
54056SOL     OW62191   9.998   5.386   9.164
54056SOL    HW162192   9.942   5.467   9.173
54056SOL    HW262193  10.050   5.390   9.078
54057SOL     OW62194  11.036   3.859   7.971
54057SOL    HW162195  11.109   3.842   7.904
54057SOL    HW262196  11.005   3.772   8.009
54058SOL     OW62197  10.698   5.297   7.925
54058SOL    HW162198  10.765   5.309   7.851
54058SOL    HW262199  10.658   5.386   7.948
54059SOL     OW62200   9.440   5.518   9.299
54059SOL    HW162201   9.399   5.444   9.352
54059SOL    HW262202   9.504   5.569   9.357
54060SOL     OW62203  10.590   4.651   8.120
54060SOL    HW162204  10.650   4.570   8.122
54060SOL    HW262205  10.630   4.720   8.060
54061SOL     OW62206  10.140   4.997   8.870
54061SOL    HW162207  10.135   5.030   8.965
54061SOL    HW262208  10.054   5.016   8.824
54062SOL     OW62209   9.982   5.340   7.602
54062SOL    HW162210   9.991   5.350   7.503
54062SOL    HW262211   9.942   5.251   7.623
54063SOL     OW62212  10.960   5.444   8.842
54063SOL    HW162213  11.013   5.454   8.758
54063SOL    HW262214  10.933   5.534   8.876
54064SOL     OW62215  11.151   3.899   8.411
54064SOL    HW162216  11.190   3.814   8.375
54064SOL    HW262217  11.053   3.901   8.392
54065SOL     OW62218   9.573   4.050   8.168
54065SOL    HW162219   9.494   4.101   8.134
54065SOL    HW262220   9.564   4.035   8.266
54066SOL     OW62221  10.504   5.336   7.479
54066SOL    HW162222  10.510   5.243   7.516
54066SOL    HW262223  10.445   5.336   7.399
54067SOL     OW62224  10.132   4.726   8.820
54067SOL    HW162225  10.172   4.725   8.728
54067SOL    HW262226  10.142   4.818   8.860
54068SOL     OW62227  10.226   4.634   7.739
54068SOL    HW162228  10.289   4.672   7.671
54068SOL    HW262229  10.266   4.551   7.778
54069SOL     OW62230  10.814   5.331   7.492
54069SOL    HW162231  10.722   5.368   7.499
54069SOL    HW262232  10.852   5.351   7.402
54070SOL     OW62233   9.682   5.012   8.938
54070SOL    HW162234   9.669   5.105   8.904
54070SOL    HW262235   9.598   4.960   8.925
54071SOL     OW62236  10.924   5.016   8.737
54071SOL    HW162237  10.984   5.019   8.817
54071SOL    HW262238  10.849   5.080   8.750
54072SOL     OW62239  10.349   4.822   8.144
54072SOL    HW162240  10.279   4.775   8.198
54072SOL    HW262241  10.408   4.754   8.101
54073SOL     OW62242  10.324   3.960   8.419
54073SOL    HW162243  10.316   3.924   8.326
54073SOL    HW262244  10.322   3.884   8.484
54074SOL     OW62245   9.900   5.211   7.939
54074SOL    HW162246   9.942   5.153   7.869
54074SOL    HW262247   9.856   5.290   7.895
54075SOL     OW62248  11.019   4.109   8.829
54075SOL    HW162249  11.092   4.178   8.833
54075SOL    HW262250  11.047   4.034   8.770
54076SOL     OW62251   9.565   5.072   7.738
54076SOL    HW162252   9.469   5.073   7.711
54076SOL    HW262253   9.577   5.125   7.822
54077SOL     OW62254   9.415   4.737   9.174
54077SOL    HW162255   9.338   4.704   9.228
54077SOL    HW262256   9.500   4.707   9.216
54078SOL     OW62257   9.982   3.927   8.937
54078SOL    HW162258  10.072   3.911   8.897
54078SOL    HW262259   9.990   3.932   9.036
54079SOL     OW62260   9.385   4.069   7.481
54079SOL    HW162261   9.293   4.041   7.452
54079SOL    HW262262   9.416   4.146   7.425
54080SOL     OW62263  10.750   4.580   8.846
54080SOL    HW162264  10.693   4.632   8.783
54080SOL    HW262265  10.846   4.592   8.822
54081SOL     OW62266   9.382   3.890   7.766
54081SOL    HW162267   9.365   3.973   7.712
54081SOL    HW262268   9.472   3.853   7.744
54082SOL     OW62269  10.493   5.059   7.567
54082SOL    HW162270  10.394   5.048   7.569
54082SOL    HW262271  10.527   5.074   7.660
54083SOL     OW62272   9.923   4.566   8.879
54083SOL    HW162273   9.979   4.647   8.862
54083SOL    HW262274   9.982   4.486   8.882
54084SOL     OW62275  10.803   5.491   8.407
54084SOL    HW162276  10.836   5.555   8.338
54084SOL    HW262277  10.869   5.485   8.482
54085SOL     OW62278  10.026   4.289   9.156
54085SOL    HW162279  10.045   4.354   9.230
54085SOL    HW262280  10.086   4.209   9.165
54086SOL     OW62281  10.760   4.944   9.081
54086SOL    HW162282  10.751   4.934   9.180
54086SOL    HW262283  10.856   4.937   9.055
54087SOL     OW62284   9.700   5.465   9.008
54087SOL    HW162285   9.609   5.506   9.006
54087SOL    HW262286   9.693   5.371   9.040
54088SOL     OW62287  10.984   4.607   8.702
54088SOL    HW162288  10.957   4.518   8.665
54088SOL    HW262289  10.985   4.675   8.629
54089SOL     OW62290  10.535   4.049   7.897
54089SOL    HW162291  10.600   3.975   7.886
54089SOL    HW262292  10.555   4.099   7.981
54090SOL     OW62293   9.904   4.469   8.100
54090SOL    HW162294   9.954   4.554   8.081
54090SOL    HW262295   9.816   4.471   8.052
54091SOL     OW62296  11.087   4.066   9.090
54091SOL    HW162297  11.070   4.097   8.996
54091SOL    HW262298  11.003   4.029   9.128
54092SOL     OW62299  11.040   4.658   8.965
54092SOL    HW162300  11.078   4.749   8.980
54092SOL    HW262301  11.032   4.641   8.866
54093SOL     OW62302  10.169   5.098   7.464
54093SOL    HW162303  10.123   5.113   7.552
54093SOL    HW262304  10.213   5.183   7.434
54094SOL     OW62305   9.971   5.514   8.401
54094SOL    HW162306   9.925   5.602   8.388
54094SOL    HW262307  10.070   5.526   8.394
54095SOL     OW62308  10.169   4.680   8.309
54095SOL    HW162309  10.223   4.611   8.357
54095SOL    HW262310  10.137   4.749   8.375
54096SOL     OW62311  10.393   4.708   7.535
54096SOL    HW162312  10.370   4.761   7.453
54096SOL    HW262313  10.474   4.652   7.516
54097SOL     OW62314  11.171   5.293   8.299
54097SOL    HW162315  11.100   5.281   8.229
54097SOL    HW262316  11.172   5.214   8.359
54098SOL     OW62317   9.531   5.038   9.292
54098SOL    HW162318   9.466   4.965   9.271
54098SOL    HW262319   9.535   5.052   9.390
54099SOL     OW62320   9.389   4.964   8.101
54099SOL    HW162321   9.388   4.917   8.189
54099SOL    HW262322   9.471   4.936   8.050
54100SOL     OW62323   9.982   5.115   9.072
54100SOL    HW162324   9.904   5.065   9.110
54100SOL    HW262325   9.979   5.210   9.103
54101SOL     OW62326  11.134   3.916   8.675
54101SOL    HW162327  11.130   3.826   8.719
54101SOL    HW262328  11.137   3.905   8.576
54102SOL     OW62329   9.738   4.148   7.968
54102SOL    HW162330   9.768   4.076   7.906
54102SOL    HW262331   9.699   4.108   8.051
54103SOL     OW62332  11.015   5.211   8.552
54103SOL    HW162333  10.922   5.186   8.525
54103SOL    HW262334  11.041   5.161   8.634
54104SOL     OW62335   9.627   4.271   8.728
54104SOL    HW162336   9.665   4.212   8.800
54104SOL    HW262337   9.667   4.245   8.640
54105SOL     OW62338  10.122   5.310   8.135
54105SOL    HW162339  10.154   5.320   8.041
54105SOL    HW262340  10.043   5.248   8.137
54106SOL     OW62341  10.734   3.938   8.560
54106SOL    HW162342  10.786   3.873   8.615
54106SOL    HW262343  10.685   4.001   8.621
54107SOL     OW62344  10.311   3.758   8.602
54107SOL    HW162345  10.248   3.686   8.571
54107SOL    HW262346  10.404   3.722   8.602
54108SOL     OW62347  10.080   5.054   7.749
54108SOL    HW162348  10.034   4.967   7.766
54108SOL    HW262349  10.171   5.051   7.790
54109SOL     OW62350   9.928   5.291   8.732
54109SOL    HW162351   9.923   5.373   8.789
54109SOL    HW262352  10.017   5.288   8.687
54110SOL     OW62353  10.662   3.776   7.616
54110SOL    HW162354  10.697   3.735   7.532
54110SOL    HW262355  10.572   3.738   7.636
54111SOL     OW62356  10.610   4.177   8.139
54111SOL    HW162357  10.551   4.257   8.143
54111SOL    HW262358  10.625   4.142   8.232
54112SOL     OW62359  10.903   3.945   8.330
54112SOL    HW162360  10.819   3.944   8.384
54112SOL    HW262361  10.905   4.028   8.274
54113SOL     OW62362   9.349   4.801   7.748
54113SOL    HW162363   9.448   4.790   7.739
54113SOL    HW262364   9.309   4.715   7.780
54114SOL     OW62365  10.185   5.370   7.785
54114SOL    HW162366  10.108   5.335   7.731
54114SOL    HW262367  10.153   5.441   7.847
54115SOL     OW62368   9.540   4.352   9.423
54115SOL    HW162369   9.447   4.350   9.460
54115SOL    HW262370   9.541   4.313   9.331
54116SOL     OW62371   9.535   3.999  10.306
54116SOL    HW162372   9.570   3.982  10.398
54116SOL    HW262373   9.447   3.954  10.294
54117SOL     OW62374   9.329   4.092   9.957
54117SOL    HW162375   9.247   4.135   9.996
54117SOL    HW262376   9.301   4.019   9.894
54118SOL     OW62377   9.879   4.999  10.475
54118SOL    HW162378   9.786   4.992  10.438
54118SOL    HW262379   9.890   5.088  10.519
54119SOL     OW62380  10.865   5.235  10.013
54119SOL    HW162381  10.808   5.219  10.094
54119SOL    HW262382  10.806   5.245   9.933
54120SOL     OW62383  10.445   4.427  10.027
54120SOL    HW162384  10.502   4.505  10.002
54120SOL    HW262385  10.385   4.453  10.103
54121SOL     OW62386  11.065   4.331   9.541
54121SOL    HW162387  11.053   4.318   9.442
54121SOL    HW262388  11.035   4.250   9.590
54122SOL     OW62389  10.078   4.868  10.333
54122SOL    HW162390  10.000   4.885  10.393
54122SOL    HW262391  10.112   4.955  10.297
54123SOL     OW62392  10.160   4.522  11.133
54123SOL    HW162393  10.156   4.598  11.198
54123SOL    HW262394  10.182   4.558  11.042
54124SOL     OW62395   9.995   4.736   9.975
54124SOL    HW162396  10.064   4.720  10.045
54124SOL    HW262397   9.922   4.793  10.013
54125SOL     OW62398   9.996   4.885  11.113
54125SOL    HW162399  10.056   4.964  11.127
54125SOL    HW262400   9.910   4.916  11.072
54126SOL     OW62401   9.645   5.159  10.371
54126SOL    HW162402   9.567   5.128  10.318
54126SOL    HW262403   9.703   5.217  10.314
54127SOL     OW62404  10.770   5.229  10.649
54127SOL    HW162405  10.794   5.323  10.675
54127SOL    HW262406  10.754   5.175  10.731
54128SOL     OW62407   9.748   4.116  10.809
54128SOL    HW162408   9.830   4.060  10.818
54128SOL    HW262409   9.667   4.058  10.813
54129SOL     OW62410  10.913   4.171  10.047
54129SOL    HW162411  10.839   4.217   9.997
54129SOL    HW262412  10.964   4.239  10.100
54130SOL     OW62413   9.541   5.437   9.793
54130SOL    HW162414   9.575   5.514   9.847
54130SOL    HW262415   9.585   5.437   9.703
54131SOL     OW62416  10.437   5.065  11.000
54131SOL    HW162417  10.484   5.065  11.088
54131SOL    HW262418  10.389   4.978  10.989
54132SOL     OW62419   9.540   5.158   9.848
54132SOL    HW162420   9.514   5.254   9.848
54132SOL    HW262421   9.469   5.104   9.893
54133SOL     OW62422   9.550   4.815  10.196
54133SOL    HW162423   9.564   4.731  10.248
54133SOL    HW262424   9.495   4.879  10.251
54134SOL     OW62425   9.930   5.510  10.749
54134SOL    HW162426   9.838   5.493  10.784
54134SOL    HW262427   9.958   5.602  10.775
54135SOL     OW62428   9.916   4.688   9.433
54135SOL    HW162429   9.923   4.772   9.379
54135SOL    HW262430   9.962   4.701   9.521
54136SOL     OW62431  10.904   3.838  10.790
54136SOL    HW162432  10.886   3.905  10.718
54136SOL    HW262433  10.901   3.884  10.879
54137SOL     OW62434   9.432   4.367   9.873
54137SOL    HW162435   9.387   4.279   9.890
54137SOL    HW262436   9.431   4.421   9.957
54138SOL     OW62437  11.152   5.491   9.669
54138SOL    HW162438  11.206   5.462   9.749
54138SOL    HW262439  11.182   5.581   9.640
54139SOL     OW62440   9.337   5.320   9.427
54139SOL    HW162441   9.318   5.224   9.448
54139SOL    HW262442   9.304   5.378   9.502
54140SOL     OW62443  10.999   4.646   9.922
54140SOL    HW162444  11.094   4.617   9.930
54140SOL    HW262445  10.991   4.711   9.847
54141SOL     OW62446  10.951   4.832   9.742
54141SOL    HW162447  11.037   4.834   9.690
54141SOL    HW262448  10.965   4.879   9.830
54142SOL     OW62449   9.423   4.461  10.907
54142SOL    HW162450   9.511   4.448  10.952
54142SOL    HW262451   9.410   4.558  10.885
54143SOL     OW62452   9.923   5.089  10.036
54143SOL    HW162453   9.874   5.002  10.045
54143SOL    HW262454   9.900   5.132   9.949
54144SOL     OW62455  10.603   4.952  10.733
54144SOL    HW162456  10.640   4.879  10.675
54144SOL    HW262457  10.655   4.957  10.818
54145SOL     OW62458  10.119   3.728   9.812
54145SOL    HW162459  10.159   3.819   9.803
54145SOL    HW262460  10.019   3.736   9.818
54146SOL     OW62461   9.507   4.700  10.574
54146SOL    HW162462   9.596   4.655  10.560
54146SOL    HW262463   9.434   4.635  10.555
54147SOL     OW62464  10.835   4.723   9.500
54147SOL    HW162465  10.772   4.647   9.513
54147SOL    HW262466  10.883   4.741   9.586
54148SOL     OW62467  10.497   5.516  10.926
54148SOL    HW162468  10.521   5.576  10.850
54148SOL    HW262469  10.504   5.421  10.896
54149SOL     OW62470   9.627   3.975  11.111
54149SOL    HW162471   9.698   4.046  11.117
54149SOL    HW262472   9.539   4.014  11.139
54150SOL     OW62473  10.776   5.141  10.263
54150SOL    HW162474  10.717   5.147  10.343
54150SOL    HW262475  10.761   5.053  10.217
54151SOL     OW62476  10.977   5.438   9.882
54151SOL    HW162477  10.936   5.415   9.794
54151SOL    HW262478  10.959   5.364   9.947
54152SOL     OW62479   9.908   4.453   9.580
54152SOL    HW162480   9.932   4.522   9.512
54152SOL    HW262481   9.830   4.486   9.634
54153SOL     OW62482  10.591   4.069  10.254
54153SOL    HW162483  10.505   4.019  10.241
54153SOL    HW262484  10.653   4.015  10.310
54154SOL     OW62485  10.886   5.386   9.617
54154SOL    HW162486  10.975   5.432   9.620
54154SOL    HW262487  10.865   5.362   9.522
54155SOL     OW62488  10.117   4.329  10.775
54155SOL    HW162489  10.070   4.326  10.864
54155SOL    HW262490  10.066   4.274  10.709
54156SOL     OW62491  10.704   4.193  10.984
54156SOL    HW162492  10.684   4.236  11.072
54156SOL    HW262493  10.782   4.131  10.993
54157SOL     OW62494  10.283   4.614  10.882
54157SOL    HW162495  10.329   4.530  10.853
54157SOL    HW262496  10.227   4.648  10.807
54158SOL     OW62497  10.301   4.134  10.552
54158SOL    HW162498  10.224   4.168  10.606
54158SOL    HW262499  10.267   4.083  10.473
54159SOL     OW62500  10.351   4.425   9.739
54159SOL    HW162501  10.377   4.421   9.835
54159SOL    HW262502  10.266   4.374   9.725
54160SOL     OW62503   9.386   4.535  10.099
54160SOL    HW162504   9.485   4.523  10.108
54160SOL    HW262505   9.362   4.630  10.120
54161SOL     OW62506   9.440   5.545  10.881
54161SOL    HW162507   9.430   5.530  10.980
54161SOL    HW262508   9.354   5.581  10.845
54162SOL     OW62509  10.175   4.072   9.505
54162SOL    HW162510  10.234   4.135   9.456
54162SOL    HW262511  10.194   3.978   9.476
54163SOL     OW62512  11.029   4.309  11.141
54163SOL    HW162513  11.003   4.398  11.105
54163SOL    HW262514  11.027   4.241  11.068
54164SOL     OW62515  10.672   4.868   9.855
54164SOL    HW162516  10.755   4.839   9.807
54164SOL    HW262517  10.623   4.935   9.799
54165SOL     OW62518   9.860   3.920  10.195
54165SOL    HW162519   9.855   3.915  10.295
54165SOL    HW262520   9.862   4.016  10.166
54166SOL     OW62521  10.318   5.180   9.787
54166SOL    HW162522  10.272   5.252   9.735
54166SOL    HW262523  10.314   5.200   9.885
54167SOL     OW62524   9.661   5.525  10.163
54167SOL    HW162525   9.711   5.439  10.169
54167SOL    HW262526   9.726   5.602  10.160
54168SOL     OW62527  11.105   4.790  10.183
54168SOL    HW162528  11.043   4.775  10.107
54168SOL    HW262529  11.053   4.801  10.268
54169SOL     OW62530  10.537   5.274  10.816
54169SOL    HW162531  10.543   5.197  10.880
54169SOL    HW262532  10.485   5.248  10.736
54170SOL     OW62533   9.631   4.667   9.552
54170SOL    HW162534   9.713   4.706   9.510
54170SOL    HW262535   9.604   4.585   9.503
54171SOL     OW62536  10.768   4.459  10.038
54171SOL    HW162537  10.763   4.394  10.113
54171SOL    HW262538  10.848   4.518  10.051
54172SOL     OW62539   9.771   4.990  11.037
54172SOL    HW162540   9.721   4.991  10.951
54172SOL    HW262541   9.708   4.972  11.113
54173SOL     OW62542  10.421   5.500   9.547
54173SOL    HW162543  10.361   5.438   9.597
54173SOL    HW262544  10.452   5.456   9.462
54174SOL     OW62545   9.512   4.009  10.808
54174SOL    HW162546   9.432   4.069  10.795
54174SOL    HW262547   9.502   3.960  10.894
54175SOL     OW62548  10.942   5.101   9.391
54175SOL    HW162549  10.910   5.195   9.381
54175SOL    HW262550  10.866   5.038   9.379
54176SOL     OW62551   9.774   5.467   9.633
54176SOL    HW162552   9.807   5.506   9.719
54176SOL    HW262553   9.850   5.460   9.568
54177SOL     OW62554  10.710   3.831   9.736
54177SOL    HW162555  10.686   3.794   9.646
54177SOL    HW262556  10.809   3.847   9.740
54178SOL     OW62557   9.559   5.509  10.551
54178SOL    HW162558   9.616   5.444  10.601
54178SOL    HW262559   9.543   5.476  10.458
54179SOL     OW62560  10.250   5.422  10.214
54179SOL    HW162561  10.330   5.365  10.235
54179SOL    HW262562  10.201   5.382  10.137
54180SOL     OW62563   9.692   4.424   9.790
54180SOL    HW162564   9.737   4.334   9.787
54180SOL    HW262565   9.598   4.413   9.823
54181SOL     OW62566  10.857   3.946  11.039
54181SOL    HW162567  10.852   3.983  11.131
54181SOL    HW262568  10.785   3.877  11.027
54182SOL     OW62569   9.924   3.846   9.427
54182SOL    HW162570  10.022   3.824   9.434
54182SOL    HW262571   9.893   3.829   9.334
54183SOL     OW62572  10.091   3.988  11.059
54183SOL    HW162573  10.158   3.927  11.102
54183SOL    HW262574  10.018   4.007  11.124
54184SOL     OW62575  10.198   5.238  10.505
54184SOL    HW162576  10.175   5.213  10.411
54184SOL    HW262577  10.259   5.169  10.544
54185SOL     OW62578  10.661   4.314  10.743
54185SOL    HW162579  10.689   4.271  10.828
54185SOL    HW262580  10.686   4.410  10.744
54186SOL     OW62581  10.113   5.126  10.234
54186SOL    HW162582  10.203   5.140  10.192
54186SOL    HW262583  10.042   5.128  10.163
54187SOL     OW62584  10.232   4.227  10.209
54187SOL    HW162585  10.207   4.218  10.113
54187SOL    HW262586  10.280   4.145  10.240
54188SOL     OW62587   9.849   3.788   9.822
54188SOL    HW162588   9.768   3.789   9.880
54188SOL    HW262589   9.852   3.871   9.767
54189SOL     OW62590  10.744   4.912   9.351
54189SOL    HW162591  10.776   4.836   9.408
54189SOL    HW262592  10.652   4.939   9.381
54190SOL     OW62593   9.607   3.759   9.481
54190SOL    HW162594   9.656   3.843   9.460
54190SOL    HW262595   9.669   3.694   9.526
54191SOL     OW62596  10.245   3.960   9.790
54191SOL    HW162597  10.197   4.001   9.712
54191SOL    HW262598  10.344   3.958   9.771
54192SOL     OW62599  10.386   4.407  10.774
54192SOL    HW162600  10.306   4.346  10.777
54192SOL    HW262601  10.467   4.354  10.750
54193SOL     OW62602  10.537   5.294  10.103
54193SOL    HW162603  10.558   5.368  10.038
54193SOL    HW262604  10.605   5.294  10.176
54194SOL     OW62605   9.769   4.876  10.051
54194SOL    HW162606   9.698   4.849  10.116
54194SOL    HW262607   9.743   4.848   9.958
54195SOL     OW62608  10.581   5.521   9.901
54195SOL    HW162609  10.625   5.585   9.837
54195SOL    HW262610  10.531   5.573   9.971
54196SOL     OW62611  10.342   4.273   9.326
54196SOL    HW162612  10.301   4.355   9.287
54196SOL    HW262613  10.406   4.299   9.399
54197SOL     OW62614   9.388   4.280  10.696
54197SOL    HW162615   9.480   4.279  10.655
54197SOL    HW262616   9.382   4.354  10.763
54198SOL     OW62617   9.871   3.946  10.457
54198SOL    HW162618   9.909   3.862  10.494
54198SOL    HW262619   9.783   3.965  10.501
54199SOL     OW62620  10.176   4.178   9.952
54199SOL    HW162621  10.144   4.250   9.890
54199SOL    HW262622  10.200   4.097   9.899
54200SOL     OW62623  10.327   3.763  10.063
54200SOL    HW162624  10.255   3.768   9.994
54200SOL    HW262625  10.303   3.694  10.132
54201SOL     OW62626  10.739   4.897  10.177
54201SOL    HW162627  10.684   4.813  10.170
54201SOL    HW262628  10.765   4.926  10.085
54202SOL     OW62629  10.776   4.314  10.302
54202SOL    HW162630  10.746   4.219  10.309
54202SOL    HW262631  10.849   4.330  10.368
54203SOL     OW62632  11.167   4.557   9.687
54203SOL    HW162633  11.209   4.493   9.751
54203SOL    HW262634  11.129   4.506   9.609
54204SOL     OW62635   9.798   5.109   9.484
54204SOL    HW162636   9.711   5.094   9.531
54204SOL    HW262637   9.781   5.135   9.389
54205SOL     OW62638  10.974   5.004   9.967
54205SOL    HW162639  11.073   5.012   9.981
54205SOL    HW262640  10.929   5.088   9.998
54206SOL     OW62641  10.700   4.299   9.388
54206SOL    HW162642  10.646   4.278   9.469
54206SOL    HW262643  10.791   4.258   9.397
54207SOL     OW62644   9.837   3.980   9.638
54207SOL    HW162645   9.864   3.921   9.563
54207SOL    HW262646   9.837   4.075   9.607
54208SOL     OW62647  11.064   4.947  10.898
54208SOL    HW162648  11.155   4.908  10.885
54208SOL    HW262649  11.072   5.043  10.922
54209SOL     OW62650  10.374   5.071  10.650
54209SOL    HW162651  10.294   5.048  10.705
54209SOL    HW262652  10.457   5.045  10.699
54210SOL     OW62653  10.902   5.353  10.935
54210SOL    HW162654  10.929   5.387  10.845
54210SOL    HW262655  10.981   5.315  10.981
54211SOL     OW62656  10.421   4.919  10.410
54211SOL    HW162657  10.381   4.963  10.491
54211SOL    HW262658  10.380   4.956  10.327
54212SOL     OW62659  10.948   4.823  10.389
54212SOL    HW162660  10.953   4.904  10.448
54212SOL    HW262661  10.862   4.825  10.338
54213SOL     OW62662  10.225   3.813  10.712
54213SOL    HW162663  10.250   3.793  10.617
54213SOL    HW262664  10.297   3.869  10.754
54214SOL     OW62665  10.290   4.840  11.029
54214SOL    HW162666  10.191   4.846  11.039
54214SOL    HW262667  10.313   4.760  10.973
54215SOL     OW62668  10.015   4.774   9.678
54215SOL    HW162669  10.001   4.781   9.777
54215SOL    HW262670  10.099   4.723   9.660
54216SOL     OW62671   9.720   4.537  10.561
54216SOL    HW162672   9.806   4.549  10.611
54216SOL    HW262673   9.678   4.450  10.588
54217SOL     OW62674  10.584   4.110  10.572
54217SOL    HW162675  10.605   4.184  10.636
54217SOL    HW262676  10.495   4.127  10.529
54218SOL     OW62677   9.374   5.288  10.641
54218SOL    HW162678   9.328   5.370  10.607
54218SOL    HW262679   9.472   5.307  10.650
54219SOL     OW62680   9.677   4.824   9.811
54219SOL    HW162681   9.670   4.907   9.755
54219SOL    HW262682   9.681   4.744   9.751
54220SOL     OW62683   9.876   4.261  10.175
54220SOL    HW162684   9.888   4.327  10.101
54220SOL    HW262685   9.922   4.295  10.258
54221SOL     OW62686  10.562   5.072   9.698
54221SOL    HW162687  10.612   5.149   9.738
54221SOL    HW262688  10.467   5.074   9.730
54222SOL     OW62689  10.582   5.169  10.452
54222SOL    HW162690  10.629   5.182  10.539
54222SOL    HW262691  10.516   5.095  10.461
54223SOL     OW62692  10.892   4.363   9.782
54223SOL    HW162693  10.861   4.424   9.855
54223SOL    HW262694  10.942   4.415   9.713
54224SOL     OW62695   9.664   5.234  10.639
54224SOL    HW162696   9.643   5.190  10.552
54224SOL    HW262697   9.761   5.260  10.642
54225SOL     OW62698   9.712   4.475  10.908
54225SOL    HW162699   9.780   4.530  10.861
54225SOL    HW262700   9.752   4.387  10.935
54226SOL     OW62701  10.897   4.503  10.980
54226SOL    HW162702  10.805   4.541  10.975
54226SOL    HW262703  10.957   4.550  10.915
54227SOL     OW62704  10.323   3.829  11.080
54227SOL    HW162705  10.329   3.914  11.028
54227SOL    HW262706  10.355   3.753  11.023
54228SOL     OW62707   9.814   3.774  11.050
54228SOL    HW162708   9.772   3.717  10.980
54228SOL    HW262709   9.748   3.843  11.082
54229SOL     OW62710   9.883   4.594  10.339
54229SOL    HW162711   9.927   4.683  10.330
54229SOL    HW262712   9.820   4.594  10.416
54230SOL     OW62713  10.670   4.586  10.355
54230SOL    HW162714  10.595   4.586  10.289
54230SOL    HW262715  10.707   4.494  10.364
54231SOL     OW62716  10.519   4.249   9.585
54231SOL    HW162717  10.532   4.165   9.639
54231SOL    HW262718  10.490   4.323   9.645
54232SOL     OW62719   9.617   3.937  10.541
54232SOL    HW162720   9.594   3.974  10.631
54232SOL    HW262721   9.587   3.842  10.535
54233SOL     OW62722   9.347   5.034  10.592
54233SOL    HW162723   9.400   4.985  10.660
54233SOL    HW262724   9.369   5.132  10.597
54234SOL     OW62725  10.042   4.358  10.374
54234SOL    HW162726  10.101   4.332  10.298
54234SOL    HW262727  10.014   4.454  10.363
54235SOL     OW62728  11.038   4.659  11.164
54235SOL    HW162729  10.992   4.652  11.075
54235SOL    HW262730  10.976   4.703  11.230
54236SOL     OW62731   9.617   3.787   9.928
54236SOL    HW162732   9.606   3.881   9.961
54236SOL    HW262733   9.612   3.724  10.005
54237SOL     OW62734  10.932   4.091   9.684
54237SOL    HW162735  10.934   4.015   9.748
54237SOL    HW262736  10.884   4.168   9.724
54238SOL     OW62737  10.333   4.490  10.276
54238SOL    HW162738  10.348   4.511  10.372
54238SOL    HW262739  10.303   4.395  10.267
54239SOL     OW62740  10.290   5.297  11.010
54239SOL    HW162741  10.270   5.341  10.922
54239SOL    HW262742  10.329   5.206  10.994
54240SOL     OW62743  11.169   5.242  10.915
54240SOL    HW162744  11.183   5.269  10.820
54240SOL    HW262745  11.252   5.264  10.968
54241SOL     OW62746   9.660   4.622  11.114
54241SOL    HW162747   9.736   4.666  11.162
54241SOL    HW262748   9.695   4.575  11.032
54242SOL     OW62749  10.850   3.998   9.435
54242SOL    HW162750  10.789   3.923   9.458
54242SOL    HW262751  10.872   4.050   9.518
54243SOL     OW62752  10.613   4.562   9.352
54243SOL    HW162753  10.647   4.469   9.367
54243SOL    HW262754  10.631   4.589   9.257
54244SOL     OW62755  10.378   5.057  10.159
54244SOL    HW162756  10.385   4.973  10.104
54244SOL    HW262757  10.440   5.126  10.123
54245SOL     OW62758   9.629   4.534  10.259
54245SOL    HW162759   9.722   4.570  10.264
54245SOL    HW262760   9.623   4.449  10.311
54246SOL     OW62761   9.649   4.233  10.316
54246SOL    HW162762   9.597   4.150  10.299
54246SOL    HW262763   9.726   4.238  10.252
54247SOL     OW62764  10.448   4.104  10.988
54247SOL    HW162765  10.403   4.167  11.052
54247SOL    HW262766  10.541   4.135  10.971
54248SOL     OW62767  10.470   3.931  10.787
54248SOL    HW162768  10.470   3.995  10.864
54248SOL    HW262769  10.498   3.979  10.704
54249SOL     OW62770   9.318   5.050   9.510
54249SOL    HW162771   9.225   5.071   9.479
54249SOL    HW262772   9.328   4.951   9.523
54250SOL     OW62773   9.398   5.525  10.237
54250SOL    HW162774   9.356   5.439  10.210
54250SOL    HW262775   9.492   5.528  10.203
54251SOL     OW62776   9.814   5.292  10.220
54251SOL    HW162777   9.880   5.366  10.229
54251SOL    HW262778   9.858   5.213  10.178
54252SOL     OW62779  10.312   4.520  10.548
54252SOL    HW162780  10.353   4.488  10.634
54252SOL    HW262781  10.216   4.493  10.545
54253SOL     OW62782   9.350   4.268  10.424
54253SOL    HW162783   9.435   4.235  10.383
54253SOL    HW262784   9.363   4.283  10.522
54254SOL     OW62785   9.499   4.244  11.032
54254SOL    HW162786   9.558   4.204  10.962
54254SOL    HW262787   9.441   4.315  10.991
54255SOL     OW62788  10.679   4.674  10.970
54255SOL    HW162789  10.718   4.763  10.990
54255SOL    HW262790  10.689   4.654  10.873
54256SOL     OW62791  10.125   4.296   9.635
54256SOL    HW162792  10.132   4.207   9.589
54256SOL    HW262793  10.031   4.330   9.627
54257SOL     OW62794  10.967   4.328  10.516
54257SOL    HW162795  10.929   4.259  10.578
54257SOL    HW262796  11.049   4.292  10.472
54258SOL     OW62797   9.562   5.288  11.054
54258SOL    HW162798   9.532   5.345  11.130
54258SOL    HW262799   9.555   5.191  11.080
54259SOL     OW62800   9.981   4.188  10.579
54259SOL    HW162801   9.947   4.099  10.549
54259SOL    HW262802  10.007   4.242  10.499
54260SOL     OW62803  10.240   5.402  10.775
54260SOL    HW162804  10.216   5.384  10.680
54260SOL    HW262805  10.270   5.496  10.785
54261SOL     OW62806   9.783   4.224   9.501
54261SOL    HW162807   9.844   4.304   9.505
54261SOL    HW262808   9.688   4.255   9.508
54262SOL     OW62809   9.469   4.861  10.776
54262SOL    HW162810   9.491   4.800  10.852
54262SOL    HW262811   9.479   4.812  10.690
54263SOL     OW62812  10.657   4.783  10.544
54263SOL    HW162813  10.681   4.720  10.470
54263SOL    HW262814  10.567   4.823  10.526
54264SOL     OW62815  10.612   4.579   9.619
54264SOL    HW162816  10.526   4.548   9.661
54264SOL    HW262817  10.608   4.565   9.520
54265SOL     OW62818  11.069   5.471  10.464
54265SOL    HW162819  11.130   5.501  10.391
54265SOL    HW262820  11.031   5.382  10.442
54266SOL     OW62821  10.562   5.455  10.438
54266SOL    HW162822  10.646   5.460  10.384
54266SOL    HW262823  10.539   5.359  10.456
54267SOL     OW62824   9.393   4.982  10.332
54267SOL    HW162825   9.388   4.981  10.432
54267SOL    HW262826   9.310   4.941  10.294
54268SOL     OW62827   9.998   5.386  11.026
54268SOL    HW162828   9.942   5.467  11.035
54268SOL    HW262829  10.050   5.390  10.940
54269SOL     OW62830  11.036   3.859   9.833
54269SOL    HW162831  11.109   3.842   9.766
54269SOL    HW262832  11.005   3.772   9.871
54270SOL     OW62833  10.698   5.297   9.787
54270SOL    HW162834  10.765   5.309   9.713
54270SOL    HW262835  10.658   5.386   9.810
54271SOL     OW62836   9.440   5.518  11.161
54271SOL    HW162837   9.399   5.444  11.214
54271SOL    HW262838   9.504   5.569  11.219
54272SOL     OW62839  10.590   4.651   9.982
54272SOL    HW162840  10.650   4.570   9.984
54272SOL    HW262841  10.630   4.720   9.922
54273SOL     OW62842  10.140   4.997  10.732
54273SOL    HW162843  10.135   5.030  10.827
54273SOL    HW262844  10.054   5.016  10.686
54274SOL     OW62845   9.982   5.340   9.464
54274SOL    HW162846   9.991   5.350   9.365
54274SOL    HW262847   9.942   5.251   9.485
54275SOL     OW62848  10.960   5.444  10.704
54275SOL    HW162849  11.013   5.454  10.620
54275SOL    HW262850  10.933   5.534  10.738
54276SOL     OW62851  11.151   3.899  10.273
54276SOL    HW162852  11.190   3.814  10.237
54276SOL    HW262853  11.053   3.901  10.254
54277SOL     OW62854   9.573   4.050  10.030
54277SOL    HW162855   9.494   4.101   9.996
54277SOL    HW262856   9.564   4.035  10.128
54278SOL     OW62857  10.504   5.336   9.341
54278SOL    HW162858  10.510   5.243   9.378
54278SOL    HW262859  10.445   5.336   9.261
54279SOL     OW62860  10.132   4.726  10.682
54279SOL    HW162861  10.172   4.725  10.590
54279SOL    HW262862  10.142   4.818  10.722
54280SOL     OW62863  10.226   4.634   9.601
54280SOL    HW162864  10.289   4.672   9.533
54280SOL    HW262865  10.266   4.551   9.640
54281SOL     OW62866  10.814   5.331   9.354
54281SOL    HW162867  10.722   5.368   9.361
54281SOL    HW262868  10.852   5.351   9.264
54282SOL     OW62869   9.682   5.012  10.800
54282SOL    HW162870   9.669   5.105  10.766
54282SOL    HW262871   9.598   4.960  10.787
54283SOL     OW62872  10.924   5.016  10.599
54283SOL    HW162873  10.984   5.019  10.679
54283SOL    HW262874  10.849   5.080  10.612
54284SOL     OW62875  10.349   4.822  10.006
54284SOL    HW162876  10.279   4.775  10.060
54284SOL    HW262877  10.408   4.754   9.963
54285SOL     OW62878  10.324   3.960  10.281
54285SOL    HW162879  10.316   3.924  10.188
54285SOL    HW262880  10.322   3.884  10.346
54286SOL     OW62881   9.900   5.211   9.801
54286SOL    HW162882   9.942   5.153   9.731
54286SOL    HW262883   9.856   5.290   9.757
54287SOL     OW62884  11.019   4.109  10.691
54287SOL    HW162885  11.092   4.178  10.695
54287SOL    HW262886  11.047   4.034  10.632
54288SOL     OW62887   9.565   5.072   9.600
54288SOL    HW162888   9.469   5.073   9.573
54288SOL    HW262889   9.577   5.125   9.684
54289SOL     OW62890   9.415   4.737  11.036
54289SOL    HW162891   9.338   4.704  11.090
54289SOL    HW262892   9.500   4.707  11.078
54290SOL     OW62893   9.982   3.927  10.799
54290SOL    HW162894  10.072   3.911  10.759
54290SOL    HW262895   9.990   3.932  10.898
54291SOL     OW62896   9.385   4.069   9.343
54291SOL    HW162897   9.293   4.041   9.314
54291SOL    HW262898   9.416   4.146   9.287
54292SOL     OW62899  10.750   4.580  10.708
54292SOL    HW162900  10.693   4.632  10.645
54292SOL    HW262901  10.846   4.592  10.684
54293SOL     OW62902   9.382   3.890   9.628
54293SOL    HW162903   9.365   3.973   9.574
54293SOL    HW262904   9.472   3.853   9.606
54294SOL     OW62905  10.493   5.059   9.429
54294SOL    HW162906  10.394   5.048   9.431
54294SOL    HW262907  10.527   5.074   9.522
54295SOL     OW62908   9.923   4.566  10.741
54295SOL    HW162909   9.979   4.647  10.724
54295SOL    HW262910   9.982   4.486  10.744
54296SOL     OW62911  10.803   5.491  10.269
54296SOL    HW162912  10.836   5.555  10.200
54296SOL    HW262913  10.869   5.485  10.344
54297SOL     OW62914  10.026   4.289  11.018
54297SOL    HW162915  10.045   4.354  11.092
54297SOL    HW262916  10.086   4.209  11.027
54298SOL     OW62917  10.760   4.944  10.943
54298SOL    HW162918  10.751   4.934  11.042
54298SOL    HW262919  10.856   4.937  10.917
54299SOL     OW62920   9.700   5.465  10.870
54299SOL    HW162921   9.609   5.506  10.868
54299SOL    HW262922   9.693   5.371  10.902
54300SOL     OW62923  10.984   4.607  10.564
54300SOL    HW162924  10.957   4.518  10.527
54300SOL    HW262925  10.985   4.675  10.491
54301SOL     OW62926  10.535   4.049   9.759
54301SOL    HW162927  10.600   3.975   9.748
54301SOL    HW262928  10.555   4.099   9.843
54302SOL     OW62929   9.904   4.469   9.962
54302SOL    HW162930   9.954   4.554   9.943
54302SOL    HW262931   9.816   4.471   9.914
54303SOL     OW62932  11.087   4.066  10.952
54303SOL    HW162933  11.070   4.097  10.858
54303SOL    HW262934  11.003   4.029  10.990
54304SOL     OW62935  11.040   4.658  10.827
54304SOL    HW162936  11.078   4.749  10.842
54304SOL    HW262937  11.032   4.641  10.728
54305SOL     OW62938  10.169   5.098   9.326
54305SOL    HW162939  10.123   5.113   9.414
54305SOL    HW262940  10.213   5.183   9.296
54306SOL     OW62941   9.971   5.514  10.263
54306SOL    HW162942   9.925   5.602  10.250
54306SOL    HW262943  10.070   5.526  10.256
54307SOL     OW62944  10.169   4.680  10.171
54307SOL    HW162945  10.223   4.611  10.219
54307SOL    HW262946  10.137   4.749  10.237
54308SOL     OW62947  10.393   4.708   9.397
54308SOL    HW162948  10.370   4.761   9.315
54308SOL    HW262949  10.474   4.652   9.378
54309SOL     OW62950  11.171   5.293  10.161
54309SOL    HW162951  11.100   5.281  10.091
54309SOL    HW262952  11.172   5.214  10.221
54310SOL     OW62953   9.531   5.038  11.154
54310SOL    HW162954   9.466   4.965  11.133
54310SOL    HW262955   9.535   5.052  11.252
54311SOL     OW62956   9.389   4.964   9.963
54311SOL    HW162957   9.388   4.917  10.051
54311SOL    HW262958   9.471   4.936   9.912
54312SOL     OW62959   9.982   5.115  10.934
54312SOL    HW162960   9.904   5.065  10.972
54312SOL    HW262961   9.979   5.210  10.965
54313SOL     OW62962  11.134   3.916  10.537
54313SOL    HW162963  11.130   3.826  10.581
54313SOL    HW262964  11.137   3.905  10.438
54314SOL     OW62965   9.738   4.148   9.830
54314SOL    HW162966   9.768   4.076   9.768
54314SOL    HW262967   9.699   4.108   9.913
54315SOL     OW62968  11.015   5.211  10.414
54315SOL    HW162969  10.922   5.186  10.387
54315SOL    HW262970  11.041   5.161  10.496
54316SOL     OW62971   9.627   4.271  10.590
54316SOL    HW162972   9.665   4.212  10.662
54316SOL    HW262973   9.667   4.245  10.502
54317SOL     OW62974  10.122   5.310   9.997
54317SOL    HW162975  10.154   5.320   9.903
54317SOL    HW262976  10.043   5.248   9.999
54318SOL     OW62977  10.734   3.938  10.422
54318SOL    HW162978  10.786   3.873  10.477
54318SOL    HW262979  10.685   4.001  10.483
54319SOL     OW62980  10.311   3.758  10.464
54319SOL    HW162981  10.248   3.686  10.433
54319SOL    HW262982  10.404   3.722  10.464
54320SOL     OW62983  10.080   5.054   9.611
54320SOL    HW162984  10.034   4.967   9.628
54320SOL    HW262985  10.171   5.051   9.652
54321SOL     OW62986   9.928   5.291  10.594
54321SOL    HW162987   9.923   5.373  10.651
54321SOL    HW262988  10.017   5.288  10.549
54322SOL     OW62989  10.662   3.776   9.478
54322SOL    HW162990  10.697   3.735   9.394
54322SOL    HW262991  10.572   3.738   9.498
54323SOL     OW62992  10.610   4.177  10.001
54323SOL    HW162993  10.551   4.257  10.005
54323SOL    HW262994  10.625   4.142  10.094
54324SOL     OW62995  10.903   3.945  10.192
54324SOL    HW162996  10.819   3.944  10.246
54324SOL    HW262997  10.905   4.028  10.136
54325SOL     OW62998   9.349   4.801   9.610
54325SOL    HW162999   9.448   4.790   9.601
54325SOL    HW263000   9.309   4.715   9.642
54326SOL     OW63001  10.185   5.370   9.647
54326SOL    HW163002  10.108   5.335   9.593
54326SOL    HW263003  10.153   5.441   9.709
54327SOL     OW63004   9.540   4.352  11.285
54327SOL    HW163005   9.447   4.350  11.322
54327SOL    HW263006   9.541   4.313  11.193
54328SOL     OW63007   9.535   3.999  12.168
54328SOL    HW163008   9.570   3.982  12.260
54328SOL    HW263009   9.447   3.954  12.156
54329SOL     OW63010   9.329   4.092  11.819
54329SOL    HW163011   9.247   4.135  11.858
54329SOL    HW263012   9.301   4.019  11.756
54330SOL     OW63013   9.879   4.999  12.337
54330SOL    HW163014   9.786   4.992  12.300
54330SOL    HW263015   9.890   5.088  12.381
54331SOL     OW63016  10.865   5.235  11.875
54331SOL    HW163017  10.808   5.219  11.956
54331SOL    HW263018  10.806   5.245  11.795
54332SOL     OW63019  10.445   4.427  11.889
54332SOL    HW163020  10.502   4.505  11.864
54332SOL    HW263021  10.385   4.453  11.965
54333SOL     OW63022  11.065   4.331  11.403
54333SOL    HW163023  11.053   4.318  11.304
54333SOL    HW263024  11.035   4.250  11.452
54334SOL     OW63025  10.078   4.868  12.195
54334SOL    HW163026  10.000   4.885  12.255
54334SOL    HW263027  10.112   4.955  12.159
54335SOL     OW63028   9.995   4.736  11.837
54335SOL    HW163029  10.064   4.720  11.907
54335SOL    HW263030   9.922   4.793  11.875
54336SOL     OW63031   9.645   5.159  12.233
54336SOL    HW163032   9.567   5.128  12.180
54336SOL    HW263033   9.703   5.217  12.176
54337SOL     OW63034  10.770   5.229  12.511
54337SOL    HW163035  10.794   5.323  12.537
54337SOL    HW263036  10.754   5.175  12.593
54338SOL     OW63037   9.748   4.116  12.671
54338SOL    HW163038   9.830   4.060  12.680
54338SOL    HW263039   9.667   4.058  12.675
54339SOL     OW63040  10.913   4.171  11.909
54339SOL    HW163041  10.839   4.217  11.859
54339SOL    HW263042  10.964   4.239  11.962
54340SOL     OW63043   9.541   5.437  11.655
54340SOL    HW163044   9.575   5.514  11.709
54340SOL    HW263045   9.585   5.437  11.565
54341SOL     OW63046   9.540   5.158  11.710
54341SOL    HW163047   9.514   5.254  11.710
54341SOL    HW263048   9.469   5.104  11.755
54342SOL     OW63049   9.550   4.815  12.058
54342SOL    HW163050   9.564   4.731  12.110
54342SOL    HW263051   9.495   4.879  12.113
54343SOL     OW63052   9.930   5.510  12.611
54343SOL    HW163053   9.838   5.493  12.646
54343SOL    HW263054   9.958   5.602  12.637
54344SOL     OW63055   9.916   4.688  11.295
54344SOL    HW163056   9.923   4.772  11.241
54344SOL    HW263057   9.962   4.701  11.383
54345SOL     OW63058  10.904   3.838  12.652
54345SOL    HW163059  10.886   3.905  12.580
54345SOL    HW263060  10.901   3.884  12.741
54346SOL     OW63061   9.432   4.367  11.735
54346SOL    HW163062   9.387   4.279  11.752
54346SOL    HW263063   9.431   4.421  11.819
54347SOL     OW63064  11.152   5.491  11.531
54347SOL    HW163065  11.206   5.462  11.611
54347SOL    HW263066  11.182   5.581  11.502
54348SOL     OW63067   9.337   5.320  11.289
54348SOL    HW163068   9.318   5.224  11.310
54348SOL    HW263069   9.304   5.378  11.364
54349SOL     OW63070  10.999   4.646  11.784
54349SOL    HW163071  11.094   4.617  11.792
54349SOL    HW263072  10.991   4.711  11.709
54350SOL     OW63073  10.951   4.832  11.604
54350SOL    HW163074  11.037   4.834  11.552
54350SOL    HW263075  10.965   4.879  11.692
54351SOL     OW63076   9.423   4.461  12.769
54351SOL    HW163077   9.511   4.448  12.814
54351SOL    HW263078   9.410   4.558  12.747
54352SOL     OW63079   9.923   5.089  11.898
54352SOL    HW163080   9.874   5.002  11.907
54352SOL    HW263081   9.900   5.132  11.811
54353SOL     OW63082  10.603   4.952  12.595
54353SOL    HW163083  10.640   4.879  12.537
54353SOL    HW263084  10.655   4.957  12.680
54354SOL     OW63085  10.119   3.728  11.674
54354SOL    HW163086  10.159   3.819  11.665
54354SOL    HW263087  10.019   3.736  11.680
54355SOL     OW63088   9.507   4.700  12.436
54355SOL    HW163089   9.596   4.655  12.422
54355SOL    HW263090   9.434   4.635  12.417
54356SOL     OW63091  10.835   4.723  11.362
54356SOL    HW163092  10.772   4.647  11.375
54356SOL    HW263093  10.883   4.741  11.448
54357SOL     OW63094  10.776   5.141  12.125
54357SOL    HW163095  10.717   5.147  12.205
54357SOL    HW263096  10.761   5.053  12.079
54358SOL     OW63097  10.977   5.438  11.744
54358SOL    HW163098  10.936   5.415  11.656
54358SOL    HW263099  10.959   5.364  11.809
54359SOL     OW63100   9.908   4.453  11.442
54359SOL    HW163101   9.932   4.522  11.374
54359SOL    HW263102   9.830   4.486  11.496
54360SOL     OW63103  10.591   4.069  12.116
54360SOL    HW163104  10.505   4.019  12.103
54360SOL    HW263105  10.653   4.015  12.172
54361SOL     OW63106  10.886   5.386  11.479
54361SOL    HW163107  10.975   5.432  11.482
54361SOL    HW263108  10.865   5.362  11.384
54362SOL     OW63109  10.117   4.329  12.637
54362SOL    HW163110  10.070   4.326  12.726
54362SOL    HW263111  10.066   4.274  12.571
54363SOL     OW63112  10.283   4.614  12.744
54363SOL    HW163113  10.329   4.530  12.715
54363SOL    HW263114  10.227   4.648  12.669
54364SOL     OW63115  10.301   4.134  12.414
54364SOL    HW163116  10.224   4.168  12.468
54364SOL    HW263117  10.267   4.083  12.335
54365SOL     OW63118  10.351   4.425  11.601
54365SOL    HW163119  10.377   4.421  11.697
54365SOL    HW263120  10.266   4.374  11.587
54366SOL     OW63121   9.386   4.535  11.961
54366SOL    HW163122   9.485   4.523  11.970
54366SOL    HW263123   9.362   4.630  11.982
54367SOL     OW63124   9.440   5.545  12.743
54367SOL    HW163125   9.430   5.530  12.842
54367SOL    HW263126   9.354   5.581  12.707
54368SOL     OW63127  10.175   4.072  11.367
54368SOL    HW163128  10.234   4.135  11.318
54368SOL    HW263129  10.194   3.978  11.338
54369SOL     OW63130  10.672   4.868  11.717
54369SOL    HW163131  10.755   4.839  11.669
54369SOL    HW263132  10.623   4.935  11.661
54370SOL     OW63133   9.860   3.920  12.057
54370SOL    HW163134   9.855   3.915  12.157
54370SOL    HW263135   9.862   4.016  12.028
54371SOL     OW63136  10.318   5.180  11.649
54371SOL    HW163137  10.272   5.252  11.597
54371SOL    HW263138  10.314   5.200  11.747
54372SOL     OW63139   9.661   5.525  12.025
54372SOL    HW163140   9.711   5.439  12.031
54372SOL    HW263141   9.726   5.602  12.022
54373SOL     OW63142  11.105   4.790  12.045
54373SOL    HW163143  11.043   4.775  11.969
54373SOL    HW263144  11.053   4.801  12.130
54374SOL     OW63145  10.537   5.274  12.678
54374SOL    HW163146  10.543   5.197  12.742
54374SOL    HW263147  10.485   5.248  12.598
54375SOL     OW63148   9.631   4.667  11.414
54375SOL    HW163149   9.713   4.706  11.372
54375SOL    HW263150   9.604   4.585  11.365
54376SOL     OW63151  10.768   4.459  11.900
54376SOL    HW163152  10.763   4.394  11.975
54376SOL    HW263153  10.848   4.518  11.913
54377SOL     OW63154  10.421   5.500  11.409
54377SOL    HW163155  10.361   5.438  11.459
54377SOL    HW263156  10.452   5.456  11.324
54378SOL     OW63157   9.512   4.009  12.670
54378SOL    HW163158   9.432   4.069  12.657
54378SOL    HW263159   9.502   3.960  12.756
54379SOL     OW63160  10.942   5.101  11.253
54379SOL    HW163161  10.910   5.195  11.243
54379SOL    HW263162  10.866   5.038  11.241
54380SOL     OW63163   9.774   5.467  11.495
54380SOL    HW163164   9.807   5.506  11.581
54380SOL    HW263165   9.850   5.460  11.430
54381SOL     OW63166  10.710   3.831  11.598
54381SOL    HW163167  10.686   3.794  11.508
54381SOL    HW263168  10.809   3.847  11.602
54382SOL     OW63169   9.559   5.509  12.413
54382SOL    HW163170   9.616   5.444  12.463
54382SOL    HW263171   9.543   5.476  12.320
54383SOL     OW63172  10.250   5.422  12.076
54383SOL    HW163173  10.330   5.365  12.097
54383SOL    HW263174  10.201   5.382  11.999
54384SOL     OW63175   9.692   4.424  11.652
54384SOL    HW163176   9.737   4.334  11.649
54384SOL    HW263177   9.598   4.413  11.685
54385SOL     OW63178   9.924   3.846  11.289
54385SOL    HW163179  10.022   3.824  11.296
54385SOL    HW263180   9.893   3.829  11.196
54386SOL     OW63181  10.198   5.238  12.367
54386SOL    HW163182  10.175   5.213  12.273
54386SOL    HW263183  10.259   5.169  12.406
54387SOL     OW63184  10.661   4.314  12.605
54387SOL    HW163185  10.689   4.271  12.690
54387SOL    HW263186  10.686   4.410  12.606
54388SOL     OW63187  10.113   5.126  12.096
54388SOL    HW163188  10.203   5.140  12.054
54388SOL    HW263189  10.042   5.128  12.025
54389SOL     OW63190  10.232   4.227  12.071
54389SOL    HW163191  10.207   4.218  11.975
54389SOL    HW263192  10.280   4.145  12.102
54390SOL     OW63193   9.849   3.788  11.684
54390SOL    HW163194   9.768   3.789  11.742
54390SOL    HW263195   9.852   3.871  11.629
54391SOL     OW63196  10.744   4.912  11.213
54391SOL    HW163197  10.776   4.836  11.270
54391SOL    HW263198  10.652   4.939  11.243
54392SOL     OW63199   9.607   3.759  11.343
54392SOL    HW163200   9.656   3.843  11.322
54392SOL    HW263201   9.669   3.694  11.388
54393SOL     OW63202  10.245   3.960  11.652
54393SOL    HW163203  10.197   4.001  11.574
54393SOL    HW263204  10.344   3.958  11.633
54394SOL     OW63205  10.386   4.407  12.636
54394SOL    HW163206  10.306   4.346  12.639
54394SOL    HW263207  10.467   4.354  12.612
54395SOL     OW63208  10.537   5.294  11.965
54395SOL    HW163209  10.558   5.368  11.900
54395SOL    HW263210  10.605   5.294  12.038
54396SOL     OW63211   9.769   4.876  11.913
54396SOL    HW163212   9.698   4.849  11.978
54396SOL    HW263213   9.743   4.848  11.820
54397SOL     OW63214  10.581   5.521  11.763
54397SOL    HW163215  10.625   5.585  11.699
54397SOL    HW263216  10.531   5.573  11.833
54398SOL     OW63217  10.342   4.273  11.188
54398SOL    HW163218  10.301   4.355  11.149
54398SOL    HW263219  10.406   4.299  11.261
54399SOL     OW63220   9.388   4.280  12.558
54399SOL    HW163221   9.480   4.279  12.517
54399SOL    HW263222   9.382   4.354  12.625
54400SOL     OW63223   9.871   3.946  12.319
54400SOL    HW163224   9.909   3.862  12.356
54400SOL    HW263225   9.783   3.965  12.363
54401SOL     OW63226  10.176   4.178  11.814
54401SOL    HW163227  10.144   4.250  11.752
54401SOL    HW263228  10.200   4.097  11.761
54402SOL     OW63229  10.327   3.763  11.925
54402SOL    HW163230  10.255   3.768  11.856
54402SOL    HW263231  10.303   3.694  11.994
54403SOL     OW63232  10.739   4.897  12.039
54403SOL    HW163233  10.684   4.813  12.032
54403SOL    HW263234  10.765   4.926  11.947
54404SOL     OW63235  10.776   4.314  12.164
54404SOL    HW163236  10.746   4.219  12.171
54404SOL    HW263237  10.849   4.330  12.230
54405SOL     OW63238  11.167   4.557  11.549
54405SOL    HW163239  11.209   4.493  11.613
54405SOL    HW263240  11.129   4.506  11.471
54406SOL     OW63241   9.798   5.109  11.346
54406SOL    HW163242   9.711   5.094  11.393
54406SOL    HW263243   9.781   5.135  11.251
54407SOL     OW63244  10.974   5.004  11.829
54407SOL    HW163245  11.073   5.012  11.843
54407SOL    HW263246  10.929   5.088  11.860
54408SOL     OW63247  10.700   4.299  11.250
54408SOL    HW163248  10.646   4.278  11.331
54408SOL    HW263249  10.791   4.258  11.259
54409SOL     OW63250   9.837   3.980  11.500
54409SOL    HW163251   9.864   3.921  11.425
54409SOL    HW263252   9.837   4.075  11.469
54410SOL     OW63253  11.064   4.947  12.760
54410SOL    HW163254  11.155   4.908  12.747
54410SOL    HW263255  11.072   5.043  12.784
54411SOL     OW63256  10.374   5.071  12.512
54411SOL    HW163257  10.294   5.048  12.567
54411SOL    HW263258  10.457   5.045  12.561
54412SOL     OW63259  10.421   4.919  12.272
54412SOL    HW163260  10.381   4.963  12.353
54412SOL    HW263261  10.380   4.956  12.189
54413SOL     OW63262  10.948   4.823  12.251
54413SOL    HW163263  10.953   4.904  12.310
54413SOL    HW263264  10.862   4.825  12.200
54414SOL     OW63265  10.225   3.813  12.574
54414SOL    HW163266  10.250   3.793  12.479
54414SOL    HW263267  10.297   3.869  12.616
54415SOL     OW63268  10.015   4.774  11.540
54415SOL    HW163269  10.001   4.781  11.639
54415SOL    HW263270  10.099   4.723  11.522
54416SOL     OW63271   9.720   4.537  12.423
54416SOL    HW163272   9.806   4.549  12.473
54416SOL    HW263273   9.678   4.450  12.450
54417SOL     OW63274  10.584   4.110  12.434
54417SOL    HW163275  10.605   4.184  12.498
54417SOL    HW263276  10.495   4.127  12.391
54418SOL     OW63277   9.374   5.288  12.503
54418SOL    HW163278   9.328   5.370  12.469
54418SOL    HW263279   9.472   5.307  12.512
54419SOL     OW63280   9.677   4.824  11.673
54419SOL    HW163281   9.670   4.907  11.617
54419SOL    HW263282   9.681   4.744  11.613
54420SOL     OW63283   9.876   4.261  12.037
54420SOL    HW163284   9.888   4.327  11.963
54420SOL    HW263285   9.922   4.295  12.120
54421SOL     OW63286  10.562   5.072  11.560
54421SOL    HW163287  10.612   5.149  11.600
54421SOL    HW263288  10.467   5.074  11.592
54422SOL     OW63289  10.582   5.169  12.314
54422SOL    HW163290  10.629   5.182  12.401
54422SOL    HW263291  10.516   5.095  12.323
54423SOL     OW63292  10.892   4.363  11.644
54423SOL    HW163293  10.861   4.424  11.717
54423SOL    HW263294  10.942   4.415  11.575
54424SOL     OW63295   9.664   5.234  12.501
54424SOL    HW163296   9.643   5.190  12.414
54424SOL    HW263297   9.761   5.260  12.504
54425SOL     OW63298   9.712   4.475  12.770
54425SOL    HW163299   9.780   4.530  12.723
54425SOL    HW263300   9.752   4.387  12.797
54426SOL     OW63301  10.897   4.503  12.842
54426SOL    HW163302  10.805   4.541  12.837
54426SOL    HW263303  10.957   4.550  12.777
54427SOL     OW63304   9.883   4.594  12.201
54427SOL    HW163305   9.927   4.683  12.192
54427SOL    HW263306   9.820   4.594  12.278
54428SOL     OW63307  10.670   4.586  12.217
54428SOL    HW163308  10.595   4.586  12.151
54428SOL    HW263309  10.707   4.494  12.226
54429SOL     OW63310  10.519   4.249  11.447
54429SOL    HW163311  10.532   4.165  11.501
54429SOL    HW263312  10.490   4.323  11.507
54430SOL     OW63313   9.617   3.937  12.403
54430SOL    HW163314   9.594   3.974  12.493
54430SOL    HW263315   9.587   3.842  12.397
54431SOL     OW63316   9.347   5.034  12.454
54431SOL    HW163317   9.400   4.985  12.522
54431SOL    HW263318   9.369   5.132  12.459
54432SOL     OW63319  10.042   4.358  12.236
54432SOL    HW163320  10.101   4.332  12.160
54432SOL    HW263321  10.014   4.454  12.225
54433SOL     OW63322   9.617   3.787  11.790
54433SOL    HW163323   9.606   3.881  11.823
54433SOL    HW263324   9.612   3.724  11.867
54434SOL     OW63325  10.932   4.091  11.546
54434SOL    HW163326  10.934   4.015  11.610
54434SOL    HW263327  10.884   4.168  11.586
54435SOL     OW63328  10.333   4.490  12.138
54435SOL    HW163329  10.348   4.511  12.234
54435SOL    HW263330  10.303   4.395  12.129
54436SOL     OW63331  10.850   3.998  11.297
54436SOL    HW163332  10.789   3.923  11.320
54436SOL    HW263333  10.872   4.050  11.380
54437SOL     OW63334  10.613   4.562  11.214
54437SOL    HW163335  10.647   4.469  11.229
54437SOL    HW263336  10.631   4.589  11.119
54438SOL     OW63337  10.378   5.057  12.021
54438SOL    HW163338  10.385   4.973  11.966
54438SOL    HW263339  10.440   5.126  11.985
54439SOL     OW63340   9.629   4.534  12.121
54439SOL    HW163341   9.722   4.570  12.126
54439SOL    HW263342   9.623   4.449  12.173
54440SOL     OW63343   9.649   4.233  12.178
54440SOL    HW163344   9.597   4.150  12.161
54440SOL    HW263345   9.726   4.238  12.114
54441SOL     OW63346  10.470   3.931  12.649
54441SOL    HW163347  10.470   3.995  12.726
54441SOL    HW263348  10.498   3.979  12.566
54442SOL     OW63349   9.318   5.050  11.372
54442SOL    HW163350   9.225   5.071  11.341
54442SOL    HW263351   9.328   4.951  11.385
54443SOL     OW63352   9.398   5.525  12.099
54443SOL    HW163353   9.356   5.439  12.072
54443SOL    HW263354   9.492   5.528  12.065
54444SOL     OW63355   9.814   5.292  12.082
54444SOL    HW163356   9.880   5.366  12.091
54444SOL    HW263357   9.858   5.213  12.040
54445SOL     OW63358  10.312   4.520  12.410
54445SOL    HW163359  10.353   4.488  12.496
54445SOL    HW263360  10.216   4.493  12.407
54446SOL     OW63361   9.350   4.268  12.286
54446SOL    HW163362   9.435   4.235  12.245
54446SOL    HW263363   9.363   4.283  12.384
54447SOL     OW63364  10.125   4.296  11.497
54447SOL    HW163365  10.132   4.207  11.451
54447SOL    HW263366  10.031   4.330  11.489
54448SOL     OW63367  10.967   4.328  12.378
54448SOL    HW163368  10.929   4.259  12.440
54448SOL    HW263369  11.049   4.292  12.334
54449SOL     OW63370   9.562   5.288  12.916
54449SOL    HW163371   9.532   5.345  12.992
54449SOL    HW263372   9.555   5.191  12.942
54450SOL     OW63373   9.981   4.188  12.441
54450SOL    HW163374   9.947   4.099  12.411
54450SOL    HW263375  10.007   4.242  12.361
54451SOL     OW63376  10.240   5.402  12.637
54451SOL    HW163377  10.216   5.384  12.542
54451SOL    HW263378  10.270   5.496  12.647
54452SOL     OW63379   9.783   4.224  11.363
54452SOL    HW163380   9.844   4.304  11.367
54452SOL    HW263381   9.688   4.255  11.370
54453SOL     OW63382   9.469   4.861  12.638
54453SOL    HW163383   9.491   4.800  12.714
54453SOL    HW263384   9.479   4.812  12.552
54454SOL     OW63385  10.657   4.783  12.406
54454SOL    HW163386  10.681   4.720  12.332
54454SOL    HW263387  10.567   4.823  12.388
54455SOL     OW63388  10.612   4.579  11.481
54455SOL    HW163389  10.526   4.548  11.523
54455SOL    HW263390  10.608   4.565  11.382
54456SOL     OW63391  11.069   5.471  12.326
54456SOL    HW163392  11.130   5.501  12.253
54456SOL    HW263393  11.031   5.382  12.304
54457SOL     OW63394  10.562   5.455  12.300
54457SOL    HW163395  10.646   5.460  12.246
54457SOL    HW263396  10.539   5.359  12.318
54458SOL     OW63397   9.393   4.982  12.194
54458SOL    HW163398   9.388   4.981  12.294
54458SOL    HW263399   9.310   4.941  12.156
54459SOL     OW63400  11.036   3.859  11.695
54459SOL    HW163401  11.109   3.842  11.628
54459SOL    HW263402  11.005   3.772  11.733
54460SOL     OW63403  10.698   5.297  11.649
54460SOL    HW163404  10.765   5.309  11.575
54460SOL    HW263405  10.658   5.386  11.672
54461SOL     OW63406  10.590   4.651  11.844
54461SOL    HW163407  10.650   4.570  11.846
54461SOL    HW263408  10.630   4.720  11.784
54462SOL     OW63409  10.140   4.997  12.594
54462SOL    HW163410  10.135   5.030  12.689
54462SOL    HW263411  10.054   5.016  12.548
54463SOL     OW63412   9.982   5.340  11.326
54463SOL    HW163413   9.991   5.350  11.227
54463SOL    HW263414   9.942   5.251  11.347
54464SOL     OW63415  10.960   5.444  12.566
54464SOL    HW163416  11.013   5.454  12.482
54464SOL    HW263417  10.933   5.534  12.600
54465SOL     OW63418  11.151   3.899  12.135
54465SOL    HW163419  11.190   3.814  12.099
54465SOL    HW263420  11.053   3.901  12.116
54466SOL     OW63421   9.573   4.050  11.892
54466SOL    HW163422   9.494   4.101  11.858
54466SOL    HW263423   9.564   4.035  11.990
54467SOL     OW63424  10.504   5.336  11.203
54467SOL    HW163425  10.510   5.243  11.240
54467SOL    HW263426  10.445   5.336  11.123
54468SOL     OW63427  10.132   4.726  12.544
54468SOL    HW163428  10.172   4.725  12.452
54468SOL    HW263429  10.142   4.818  12.584
54469SOL     OW63430  10.226   4.634  11.463
54469SOL    HW163431  10.289   4.672  11.395
54469SOL    HW263432  10.266   4.551  11.502
54470SOL     OW63433  10.814   5.331  11.216
54470SOL    HW163434  10.722   5.368  11.223
54470SOL    HW263435  10.852   5.351  11.126
54471SOL     OW63436   9.682   5.012  12.662
54471SOL    HW163437   9.669   5.105  12.628
54471SOL    HW263438   9.598   4.960  12.649
54472SOL     OW63439  10.924   5.016  12.461
54472SOL    HW163440  10.984   5.019  12.541
54472SOL    HW263441  10.849   5.080  12.474
54473SOL     OW63442  10.349   4.822  11.868
54473SOL    HW163443  10.279   4.775  11.922
54473SOL    HW263444  10.408   4.754  11.825
54474SOL     OW63445  10.324   3.960  12.143
54474SOL    HW163446  10.316   3.924  12.050
54474SOL    HW263447  10.322   3.884  12.208
54475SOL     OW63448   9.900   5.211  11.663
54475SOL    HW163449   9.942   5.153  11.593
54475SOL    HW263450   9.856   5.290  11.619
54476SOL     OW63451  11.019   4.109  12.553
54476SOL    HW163452  11.092   4.178  12.557
54476SOL    HW263453  11.047   4.034  12.494
54477SOL     OW63454   9.565   5.072  11.462
54477SOL    HW163455   9.469   5.073  11.435
54477SOL    HW263456   9.577   5.125  11.546
54478SOL     OW63457   9.415   4.737  12.898
54478SOL    HW163458   9.338   4.704  12.952
54478SOL    HW263459   9.500   4.707  12.940
54479SOL     OW63460   9.982   3.927  12.661
54479SOL    HW163461  10.072   3.911  12.621
54479SOL    HW263462   9.990   3.932  12.760
54480SOL     OW63463   9.385   4.069  11.205
54480SOL    HW163464   9.293   4.041  11.176
54480SOL    HW263465   9.416   4.146  11.149
54481SOL     OW63466  10.750   4.580  12.570
54481SOL    HW163467  10.693   4.632  12.507
54481SOL    HW263468  10.846   4.592  12.546
54482SOL     OW63469   9.382   3.890  11.490
54482SOL    HW163470   9.365   3.973  11.436
54482SOL    HW263471   9.472   3.853  11.468
54483SOL     OW63472  10.493   5.059  11.291
54483SOL    HW163473  10.394   5.048  11.293
54483SOL    HW263474  10.527   5.074  11.384
54484SOL     OW63475   9.923   4.566  12.603
54484SOL    HW163476   9.979   4.647  12.586
54484SOL    HW263477   9.982   4.486  12.606
54485SOL     OW63478  10.803   5.491  12.131
54485SOL    HW163479  10.836   5.555  12.062
54485SOL    HW263480  10.869   5.485  12.206
54486SOL     OW63481  10.026   4.289  12.880
54486SOL    HW163482  10.045   4.354  12.954
54486SOL    HW263483  10.086   4.209  12.889
54487SOL     OW63484   9.700   5.465  12.732
54487SOL    HW163485   9.609   5.506  12.730
54487SOL    HW263486   9.693   5.371  12.764
54488SOL     OW63487  10.984   4.607  12.426
54488SOL    HW163488  10.957   4.518  12.389
54488SOL    HW263489  10.985   4.675  12.353
54489SOL     OW63490  10.535   4.049  11.621
54489SOL    HW163491  10.600   3.975  11.610
54489SOL    HW263492  10.555   4.099  11.705
54490SOL     OW63493   9.904   4.469  11.824
54490SOL    HW163494   9.954   4.554  11.805
54490SOL    HW263495   9.816   4.471  11.776
54491SOL     OW63496  11.087   4.066  12.814
54491SOL    HW163497  11.070   4.097  12.720
54491SOL    HW263498  11.003   4.029  12.852
54492SOL     OW63499  11.040   4.658  12.689
54492SOL    HW163500  11.078   4.749  12.704
54492SOL    HW263501  11.032   4.641  12.590
54493SOL     OW63502  10.169   5.098  11.188
54493SOL    HW163503  10.123   5.113  11.276
54493SOL    HW263504  10.213   5.183  11.158
54494SOL     OW63505   9.971   5.514  12.125
54494SOL    HW163506   9.925   5.602  12.112
54494SOL    HW263507  10.070   5.526  12.118
54495SOL     OW63508  10.169   4.680  12.033
54495SOL    HW163509  10.223   4.611  12.081
54495SOL    HW263510  10.137   4.749  12.099
54496SOL     OW63511  10.393   4.708  11.259
54496SOL    HW163512  10.370   4.761  11.177
54496SOL    HW263513  10.474   4.652  11.240
54497SOL     OW63514  11.171   5.293  12.023
54497SOL    HW163515  11.100   5.281  11.953
54497SOL    HW263516  11.172   5.214  12.083
54498SOL     OW63517   9.389   4.964  11.825
54498SOL    HW163518   9.388   4.917  11.913
54498SOL    HW263519   9.471   4.936  11.774
54499SOL     OW63520   9.982   5.115  12.796
54499SOL    HW163521   9.904   5.065  12.834
54499SOL    HW263522   9.979   5.210  12.827
54500SOL     OW63523  11.134   3.916  12.399
54500SOL    HW163524  11.130   3.826  12.443
54500SOL    HW263525  11.137   3.905  12.300
54501SOL     OW63526   9.738   4.148  11.692
54501SOL    HW163527   9.768   4.076  11.630
54501SOL    HW263528   9.699   4.108  11.775
54502SOL     OW63529  11.015   5.211  12.276
54502SOL    HW163530  10.922   5.186  12.249
54502SOL    HW263531  11.041   5.161  12.358
54503SOL     OW63532   9.627   4.271  12.452
54503SOL    HW163533   9.665   4.212  12.524
54503SOL    HW263534   9.667   4.245  12.364
54504SOL     OW63535  10.122   5.310  11.859
54504SOL    HW163536  10.154   5.320  11.765
54504SOL    HW263537  10.043   5.248  11.861
54505SOL     OW63538  10.734   3.938  12.284
54505SOL    HW163539  10.786   3.873  12.339
54505SOL    HW263540  10.685   4.001  12.345
54506SOL     OW63541  10.311   3.758  12.326
54506SOL    HW163542  10.248   3.686  12.295
54506SOL    HW263543  10.404   3.722  12.326
54507SOL     OW63544  10.080   5.054  11.473
54507SOL    HW163545  10.034   4.967  11.490
54507SOL    HW263546  10.171   5.051  11.514
54508SOL     OW63547   9.928   5.291  12.456
54508SOL    HW163548   9.923   5.373  12.513
54508SOL    HW263549  10.017   5.288  12.411
54509SOL     OW63550  10.662   3.776  11.340
54509SOL    HW163551  10.697   3.735  11.256
54509SOL    HW263552  10.572   3.738  11.360
54510SOL     OW63553  10.610   4.177  11.863
54510SOL    HW163554  10.551   4.257  11.867
54510SOL    HW263555  10.625   4.142  11.956
54511SOL     OW63556  10.903   3.945  12.054
54511SOL    HW163557  10.819   3.944  12.108
54511SOL    HW263558  10.905   4.028  11.998
54512SOL     OW63559   9.349   4.801  11.472
54512SOL    HW163560   9.448   4.790  11.463
54512SOL    HW263561   9.309   4.715  11.504
54513SOL     OW63562  10.185   5.370  11.509
54513SOL    HW163563  10.108   5.335  11.455
54513SOL    HW263564  10.153   5.441  11.571
54514SOL     OW63565   9.540   6.214   0.113
54514SOL    HW163566   9.447   6.212   0.150
54514SOL    HW263567   9.541   6.175   0.021
54515SOL     OW63568   9.535   5.861   0.996
54515SOL    HW163569   9.570   5.844   1.088
54515SOL    HW263570   9.447   5.816   0.984
54516SOL     OW63571   9.329   5.954   0.647
54516SOL    HW163572   9.247   5.997   0.686
54516SOL    HW263573   9.301   5.881   0.584
54517SOL     OW63574   9.879   6.861   1.165
54517SOL    HW163575   9.786   6.854   1.128
54517SOL    HW263576   9.890   6.950   1.209
54518SOL     OW63577  10.865   7.097   0.703
54518SOL    HW163578  10.808   7.081   0.784
54518SOL    HW263579  10.806   7.107   0.623
54519SOL     OW63580  10.445   6.289   0.717
54519SOL    HW163581  10.502   6.367   0.692
54519SOL    HW263582  10.385   6.315   0.793
54520SOL     OW63583  11.065   6.193   0.231
54520SOL    HW163584  11.053   6.180   0.132
54520SOL    HW263585  11.035   6.112   0.280
54521SOL     OW63586  10.078   6.730   1.023
54521SOL    HW163587  10.000   6.747   1.083
54521SOL    HW263588  10.112   6.817   0.987
54522SOL     OW63589  10.160   6.384   1.823
54522SOL    HW163590  10.156   6.460   1.888
54522SOL    HW263591  10.182   6.420   1.732
54523SOL     OW63592   9.995   6.598   0.665
54523SOL    HW163593  10.064   6.582   0.735
54523SOL    HW263594   9.922   6.655   0.703
54524SOL     OW63595   9.996   6.747   1.803
54524SOL    HW163596  10.056   6.826   1.817
54524SOL    HW263597   9.910   6.778   1.762
54525SOL     OW63598   9.645   7.021   1.061
54525SOL    HW163599   9.567   6.990   1.008
54525SOL    HW263600   9.703   7.079   1.004
54526SOL     OW63601  10.770   7.091   1.339
54526SOL    HW163602  10.794   7.185   1.365
54526SOL    HW263603  10.754   7.037   1.421
54527SOL     OW63604   9.748   5.978   1.499
54527SOL    HW163605   9.830   5.922   1.508
54527SOL    HW263606   9.667   5.920   1.503
54528SOL     OW63607  10.913   6.033   0.737
54528SOL    HW163608  10.839   6.079   0.687
54528SOL    HW263609  10.964   6.101   0.790
54529SOL     OW63610   9.541   7.299   0.483
54529SOL    HW163611   9.575   7.376   0.537
54529SOL    HW263612   9.585   7.299   0.393
54530SOL     OW63613  10.437   6.927   1.690
54530SOL    HW163614  10.484   6.927   1.778
54530SOL    HW263615  10.389   6.840   1.679
54531SOL     OW63616   9.540   7.020   0.538
54531SOL    HW163617   9.514   7.116   0.538
54531SOL    HW263618   9.469   6.966   0.583
54532SOL     OW63619   9.550   6.677   0.886
54532SOL    HW163620   9.564   6.593   0.938
54532SOL    HW263621   9.495   6.741   0.941
54533SOL     OW63622   9.930   7.372   1.439
54533SOL    HW163623   9.838   7.355   1.474
54533SOL    HW263624   9.958   7.464   1.465
54534SOL     OW63625   9.916   6.550   0.123
54534SOL    HW163626   9.923   6.634   0.069
54534SOL    HW263627   9.962   6.563   0.211
54535SOL     OW63628  10.904   5.700   1.480
54535SOL    HW163629  10.886   5.767   1.408
54535SOL    HW263630  10.901   5.746   1.569
54536SOL     OW63631   9.432   6.229   0.563
54536SOL    HW163632   9.387   6.141   0.580
54536SOL    HW263633   9.431   6.283   0.647
54537SOL     OW63634  11.152   7.353   0.359
54537SOL    HW163635  11.206   7.324   0.439
54537SOL    HW263636  11.182   7.443   0.330
54538SOL     OW63637   9.337   7.182   0.117
54538SOL    HW163638   9.318   7.086   0.138
54538SOL    HW263639   9.304   7.240   0.192
54539SOL     OW63640  10.999   6.508   0.612
54539SOL    HW163641  11.094   6.479   0.620
54539SOL    HW263642  10.991   6.573   0.537
54540SOL     OW63643  10.951   6.694   0.432
54540SOL    HW163644  11.037   6.696   0.380
54540SOL    HW263645  10.965   6.741   0.520
54541SOL     OW63646   9.423   6.323   1.597
54541SOL    HW163647   9.511   6.310   1.642
54541SOL    HW263648   9.410   6.420   1.575
54542SOL     OW63649   9.923   6.951   0.726
54542SOL    HW163650   9.874   6.864   0.735
54542SOL    HW263651   9.900   6.994   0.639
54543SOL     OW63652  10.603   6.814   1.423
54543SOL    HW163653  10.640   6.741   1.365
54543SOL    HW263654  10.655   6.819   1.508
54544SOL     OW63655  10.119   5.590   0.502
54544SOL    HW163656  10.159   5.681   0.493
54544SOL    HW263657  10.019   5.598   0.508
54545SOL     OW63658   9.507   6.562   1.264
54545SOL    HW163659   9.596   6.517   1.250
54545SOL    HW263660   9.434   6.497   1.245
54546SOL     OW63661  10.835   6.585   0.190
54546SOL    HW163662  10.772   6.509   0.203
54546SOL    HW263663  10.883   6.603   0.276
54547SOL     OW63664  10.497   7.378   1.616
54547SOL    HW163665  10.521   7.438   1.540
54547SOL    HW263666  10.504   7.283   1.586
54548SOL     OW63667   9.627   5.837   1.801
54548SOL    HW163668   9.698   5.908   1.807
54548SOL    HW263669   9.539   5.876   1.829
54549SOL     OW63670  10.776   7.003   0.953
54549SOL    HW163671  10.717   7.009   1.033
54549SOL    HW263672  10.761   6.915   0.907
54550SOL     OW63673  10.977   7.300   0.572
54550SOL    HW163674  10.936   7.277   0.484
54550SOL    HW263675  10.959   7.226   0.637
54551SOL     OW63676   9.908   6.315   0.270
54551SOL    HW163677   9.932   6.384   0.202
54551SOL    HW263678   9.830   6.348   0.324
54552SOL     OW63679  10.591   5.931   0.944
54552SOL    HW163680  10.505   5.881   0.931
54552SOL    HW263681  10.653   5.877   1.000
54553SOL     OW63682  10.886   7.248   0.307
54553SOL    HW163683  10.975   7.294   0.310
54553SOL    HW263684  10.865   7.224   0.212
54554SOL     OW63685  10.117   6.191   1.465
54554SOL    HW163686  10.070   6.188   1.554
54554SOL    HW263687  10.066   6.136   1.399
54555SOL     OW63688  10.704   6.055   1.674
54555SOL    HW163689  10.684   6.098   1.762
54555SOL    HW263690  10.782   5.993   1.683
54556SOL     OW63691  10.283   6.476   1.572
54556SOL    HW163692  10.329   6.392   1.543
54556SOL    HW263693  10.227   6.510   1.497
54557SOL     OW63694  10.301   5.996   1.242
54557SOL    HW163695  10.224   6.030   1.296
54557SOL    HW263696  10.267   5.945   1.163
54558SOL     OW63697  10.351   6.287   0.429
54558SOL    HW163698  10.377   6.283   0.525
54558SOL    HW263699  10.266   6.236   0.415
54559SOL     OW63700   9.386   6.397   0.789
54559SOL    HW163701   9.485   6.385   0.798
54559SOL    HW263702   9.362   6.492   0.810
54560SOL     OW63703   9.440   7.407   1.571
54560SOL    HW163704   9.430   7.392   1.670
54560SOL    HW263705   9.354   7.443   1.535
54561SOL     OW63706  10.175   5.934   0.195
54561SOL    HW163707  10.234   5.997   0.146
54561SOL    HW263708  10.194   5.840   0.166
54562SOL     OW63709  11.029   6.171   1.831
54562SOL    HW163710  11.003   6.260   1.795
54562SOL    HW263711  11.027   6.103   1.758
54563SOL     OW63712  10.672   6.730   0.545
54563SOL    HW163713  10.755   6.701   0.497
54563SOL    HW263714  10.623   6.797   0.489
54564SOL     OW63715   9.860   5.782   0.885
54564SOL    HW163716   9.855   5.777   0.985
54564SOL    HW263717   9.862   5.878   0.856
54565SOL     OW63718  10.318   7.042   0.477
54565SOL    HW163719  10.272   7.114   0.425
54565SOL    HW263720  10.314   7.062   0.575
54566SOL     OW63721   9.661   7.387   0.853
54566SOL    HW163722   9.711   7.301   0.859
54566SOL    HW263723   9.726   7.464   0.850
54567SOL     OW63724  11.105   6.652   0.873
54567SOL    HW163725  11.043   6.637   0.797
54567SOL    HW263726  11.053   6.663   0.958
54568SOL     OW63727  10.537   7.136   1.506
54568SOL    HW163728  10.543   7.059   1.570
54568SOL    HW263729  10.485   7.110   1.426
54569SOL     OW63730   9.631   6.529   0.242
54569SOL    HW163731   9.713   6.568   0.200
54569SOL    HW263732   9.604   6.447   0.193
54570SOL     OW63733  10.768   6.321   0.728
54570SOL    HW163734  10.763   6.256   0.803
54570SOL    HW263735  10.848   6.380   0.741
54571SOL     OW63736   9.771   6.852   1.727
54571SOL    HW163737   9.721   6.853   1.641
54571SOL    HW263738   9.708   6.834   1.803
54572SOL     OW63739  10.421   7.362   0.237
54572SOL    HW163740  10.361   7.300   0.287
54572SOL    HW263741  10.452   7.318   0.152
54573SOL     OW63742   9.512   5.871   1.498
54573SOL    HW163743   9.432   5.931   1.485
54573SOL    HW263744   9.502   5.822   1.584
54574SOL     OW63745  10.942   6.963   0.081
54574SOL    HW163746  10.910   7.057   0.071
54574SOL    HW263747  10.866   6.900   0.069
54575SOL     OW63748   9.774   7.329   0.323
54575SOL    HW163749   9.807   7.368   0.409
54575SOL    HW263750   9.850   7.322   0.258
54576SOL     OW63751  10.710   5.693   0.426
54576SOL    HW163752  10.686   5.656   0.336
54576SOL    HW263753  10.809   5.709   0.430
54577SOL     OW63754   9.559   7.371   1.241
54577SOL    HW163755   9.616   7.306   1.291
54577SOL    HW263756   9.543   7.338   1.148
54578SOL     OW63757  10.250   7.284   0.904
54578SOL    HW163758  10.330   7.227   0.925
54578SOL    HW263759  10.201   7.244   0.827
54579SOL     OW63760   9.692   6.286   0.480
54579SOL    HW163761   9.737   6.196   0.477
54579SOL    HW263762   9.598   6.275   0.513
54580SOL     OW63763  10.857   5.808   1.729
54580SOL    HW163764  10.852   5.845   1.821
54580SOL    HW263765  10.785   5.739   1.717
54581SOL     OW63766   9.924   5.708   0.117
54581SOL    HW163767  10.022   5.686   0.124
54581SOL    HW263768   9.893   5.691   0.024
54582SOL     OW63769  10.091   5.850   1.749
54582SOL    HW163770  10.158   5.789   1.792
54582SOL    HW263771  10.018   5.869   1.814
54583SOL     OW63772  10.198   7.100   1.195
54583SOL    HW163773  10.175   7.075   1.101
54583SOL    HW263774  10.259   7.031   1.234
54584SOL     OW63775  10.661   6.176   1.433
54584SOL    HW163776  10.689   6.133   1.518
54584SOL    HW263777  10.686   6.272   1.434
54585SOL     OW63778  10.113   6.988   0.924
54585SOL    HW163779  10.203   7.002   0.882
54585SOL    HW263780  10.042   6.990   0.853
54586SOL     OW63781  10.232   6.089   0.899
54586SOL    HW163782  10.207   6.080   0.803
54586SOL    HW263783  10.280   6.007   0.930
54587SOL     OW63784   9.849   5.650   0.512
54587SOL    HW163785   9.768   5.651   0.570
54587SOL    HW263786   9.852   5.733   0.457
54588SOL     OW63787  10.744   6.774   0.041
54588SOL    HW163788  10.776   6.698   0.098
54588SOL    HW263789  10.652   6.801   0.071
54589SOL     OW63790   9.607   5.621   0.171
54589SOL    HW163791   9.656   5.705   0.150
54589SOL    HW263792   9.669   5.556   0.216
54590SOL     OW63793  10.245   5.822   0.480
54590SOL    HW163794  10.197   5.863   0.402
54590SOL    HW263795  10.344   5.820   0.461
54591SOL     OW63796  10.386   6.269   1.464
54591SOL    HW163797  10.306   6.208   1.467
54591SOL    HW263798  10.467   6.216   1.440
54592SOL     OW63799  10.537   7.156   0.793
54592SOL    HW163800  10.558   7.230   0.728
54592SOL    HW263801  10.605   7.156   0.866
54593SOL     OW63802   9.769   6.738   0.741
54593SOL    HW163803   9.698   6.711   0.806
54593SOL    HW263804   9.743   6.710   0.648
54594SOL     OW63805  10.581   7.383   0.591
54594SOL    HW163806  10.625   7.447   0.527
54594SOL    HW263807  10.531   7.435   0.661
54595SOL     OW63808  10.342   6.135   0.016
54595SOL    HW163809  10.301   6.217  -0.023
54595SOL    HW263810  10.406   6.161   0.089
54596SOL     OW63811   9.388   6.142   1.386
54596SOL    HW163812   9.480   6.141   1.345
54596SOL    HW263813   9.382   6.216   1.453
54597SOL     OW63814   9.871   5.808   1.147
54597SOL    HW163815   9.909   5.724   1.184
54597SOL    HW263816   9.783   5.827   1.191
54598SOL     OW63817  10.176   6.040   0.642
54598SOL    HW163818  10.144   6.112   0.580
54598SOL    HW263819  10.200   5.959   0.589
54599SOL     OW63820  10.327   5.625   0.753
54599SOL    HW163821  10.255   5.630   0.684
54599SOL    HW263822  10.303   5.556   0.822
54600SOL     OW63823  10.739   6.759   0.867
54600SOL    HW163824  10.684   6.675   0.860
54600SOL    HW263825  10.765   6.788   0.775
54601SOL     OW63826  10.776   6.176   0.992
54601SOL    HW163827  10.746   6.081   0.999
54601SOL    HW263828  10.849   6.192   1.058
54602SOL     OW63829  11.167   6.419   0.377
54602SOL    HW163830  11.209   6.355   0.441
54602SOL    HW263831  11.129   6.368   0.299
54603SOL     OW63832   9.798   6.971   0.174
54603SOL    HW163833   9.711   6.956   0.221
54603SOL    HW263834   9.781   6.997   0.079
54604SOL     OW63835  10.974   6.866   0.657
54604SOL    HW163836  11.073   6.874   0.671
54604SOL    HW263837  10.929   6.950   0.688
54605SOL     OW63838  10.700   6.161   0.078
54605SOL    HW163839  10.646   6.140   0.159
54605SOL    HW263840  10.791   6.120   0.087
54606SOL     OW63841   9.837   5.842   0.328
54606SOL    HW163842   9.864   5.783   0.253
54606SOL    HW263843   9.837   5.937   0.297
54607SOL     OW63844  11.064   6.809   1.588
54607SOL    HW163845  11.155   6.770   1.575
54607SOL    HW263846  11.072   6.905   1.612
54608SOL     OW63847  10.374   6.933   1.340
54608SOL    HW163848  10.294   6.910   1.395
54608SOL    HW263849  10.457   6.907   1.389
54609SOL     OW63850  10.902   7.215   1.625
54609SOL    HW163851  10.929   7.249   1.535
54609SOL    HW263852  10.981   7.177   1.671
54610SOL     OW63853  10.421   6.781   1.100
54610SOL    HW163854  10.381   6.825   1.181
54610SOL    HW263855  10.380   6.818   1.017
54611SOL     OW63856  10.948   6.685   1.079
54611SOL    HW163857  10.953   6.766   1.138
54611SOL    HW263858  10.862   6.687   1.028
54612SOL     OW63859  10.225   5.675   1.402
54612SOL    HW163860  10.250   5.655   1.307
54612SOL    HW263861  10.297   5.731   1.444
54613SOL     OW63862  10.290   6.702   1.719
54613SOL    HW163863  10.191   6.708   1.729
54613SOL    HW263864  10.313   6.622   1.663
54614SOL     OW63865  10.015   6.636   0.368
54614SOL    HW163866  10.001   6.643   0.467
54614SOL    HW263867  10.099   6.585   0.350
54615SOL     OW63868   9.720   6.399   1.251
54615SOL    HW163869   9.806   6.411   1.301
54615SOL    HW263870   9.678   6.312   1.278
54616SOL     OW63871  10.584   5.972   1.262
54616SOL    HW163872  10.605   6.046   1.326
54616SOL    HW263873  10.495   5.989   1.219
54617SOL     OW63874   9.374   7.150   1.331
54617SOL    HW163875   9.328   7.232   1.297
54617SOL    HW263876   9.472   7.169   1.340
54618SOL     OW63877   9.677   6.686   0.501
54618SOL    HW163878   9.670   6.769   0.445
54618SOL    HW263879   9.681   6.606   0.441
54619SOL     OW63880   9.876   6.123   0.865
54619SOL    HW163881   9.888   6.189   0.791
54619SOL    HW263882   9.922   6.157   0.948
54620SOL     OW63883  10.562   6.934   0.388
54620SOL    HW163884  10.612   7.011   0.428
54620SOL    HW263885  10.467   6.936   0.420
54621SOL     OW63886  10.582   7.031   1.142
54621SOL    HW163887  10.629   7.044   1.229
54621SOL    HW263888  10.516   6.957   1.151
54622SOL     OW63889  10.892   6.225   0.472
54622SOL    HW163890  10.861   6.286   0.545
54622SOL    HW263891  10.942   6.277   0.403
54623SOL     OW63892   9.664   7.096   1.329
54623SOL    HW163893   9.643   7.052   1.242
54623SOL    HW263894   9.761   7.122   1.332
54624SOL     OW63895   9.712   6.337   1.598
54624SOL    HW163896   9.780   6.392   1.551
54624SOL    HW263897   9.752   6.249   1.625
54625SOL     OW63898  10.897   6.365   1.670
54625SOL    HW163899  10.805   6.403   1.665
54625SOL    HW263900  10.957   6.412   1.605
54626SOL     OW63901  10.323   5.691   1.770
54626SOL    HW163902  10.329   5.776   1.718
54626SOL    HW263903  10.355   5.615   1.713
54627SOL     OW63904   9.814   5.636   1.740
54627SOL    HW163905   9.772   5.579   1.670
54627SOL    HW263906   9.748   5.705   1.772
54628SOL     OW63907   9.883   6.456   1.029
54628SOL    HW163908   9.927   6.545   1.020
54628SOL    HW263909   9.820   6.456   1.106
54629SOL     OW63910  10.670   6.448   1.045
54629SOL    HW163911  10.595   6.448   0.979
54629SOL    HW263912  10.707   6.356   1.054
54630SOL     OW63913  10.519   6.111   0.275
54630SOL    HW163914  10.532   6.027   0.329
54630SOL    HW263915  10.490   6.185   0.335
54631SOL     OW63916   9.617   5.799   1.231
54631SOL    HW163917   9.594   5.836   1.321
54631SOL    HW263918   9.587   5.704   1.225
54632SOL     OW63919   9.347   6.896   1.282
54632SOL    HW163920   9.400   6.847   1.350
54632SOL    HW263921   9.369   6.994   1.287
54633SOL     OW63922  10.042   6.220   1.064
54633SOL    HW163923  10.101   6.194   0.988
54633SOL    HW263924  10.014   6.316   1.053
54634SOL     OW63925  11.038   6.521   1.854
54634SOL    HW163926  10.992   6.514   1.765
54634SOL    HW263927  10.976   6.565   1.920
54635SOL     OW63928   9.617   5.649   0.618
54635SOL    HW163929   9.606   5.743   0.651
54635SOL    HW263930   9.612   5.586   0.695
54636SOL     OW63931  10.932   5.953   0.374
54636SOL    HW163932  10.934   5.877   0.438
54636SOL    HW263933  10.884   6.030   0.414
54637SOL     OW63934  10.333   6.352   0.966
54637SOL    HW163935  10.348   6.373   1.062
54637SOL    HW263936  10.303   6.257   0.957
54638SOL     OW63937  10.290   7.159   1.700
54638SOL    HW163938  10.270   7.203   1.612
54638SOL    HW263939  10.329   7.068   1.684
54639SOL     OW63940  11.169   7.104   1.605
54639SOL    HW163941  11.183   7.131   1.510
54639SOL    HW263942  11.252   7.126   1.658
54640SOL     OW63943   9.660   6.484   1.804
54640SOL    HW163944   9.736   6.528   1.852
54640SOL    HW263945   9.695   6.437   1.722
54641SOL     OW63946  10.850   5.860   0.125
54641SOL    HW163947  10.789   5.785   0.148
54641SOL    HW263948  10.872   5.912   0.208
54642SOL     OW63949  10.613   6.424   0.042
54642SOL    HW163950  10.647   6.331   0.057
54642SOL    HW263951  10.631   6.451  -0.053
54643SOL     OW63952  10.378   6.919   0.849
54643SOL    HW163953  10.385   6.835   0.794
54643SOL    HW263954  10.440   6.988   0.813
54644SOL     OW63955   9.629   6.396   0.949
54644SOL    HW163956   9.722   6.432   0.954
54644SOL    HW263957   9.623   6.311   1.001
54645SOL     OW63958   9.649   6.095   1.006
54645SOL    HW163959   9.597   6.012   0.989
54645SOL    HW263960   9.726   6.100   0.942
54646SOL     OW63961  10.448   5.966   1.678
54646SOL    HW163962  10.403   6.029   1.742
54646SOL    HW263963  10.541   5.997   1.661
54647SOL     OW63964  10.470   5.793   1.477
54647SOL    HW163965  10.470   5.857   1.554
54647SOL    HW263966  10.498   5.841   1.394
54648SOL     OW63967   9.318   6.912   0.200
54648SOL    HW163968   9.225   6.933   0.169
54648SOL    HW263969   9.328   6.813   0.213
54649SOL     OW63970   9.398   7.387   0.927
54649SOL    HW163971   9.356   7.301   0.900
54649SOL    HW263972   9.492   7.390   0.893
54650SOL     OW63973   9.814   7.154   0.910
54650SOL    HW163974   9.880   7.228   0.919
54650SOL    HW263975   9.858   7.075   0.868
54651SOL     OW63976  10.312   6.382   1.238
54651SOL    HW163977  10.353   6.350   1.324
54651SOL    HW263978  10.216   6.355   1.235
54652SOL     OW63979   9.350   6.130   1.114
54652SOL    HW163980   9.435   6.097   1.073
54652SOL    HW263981   9.363   6.145   1.212
54653SOL     OW63982   9.499   6.106   1.722
54653SOL    HW163983   9.558   6.066   1.652
54653SOL    HW263984   9.441   6.177   1.681
54654SOL     OW63985  10.679   6.536   1.660
54654SOL    HW163986  10.718   6.625   1.680
54654SOL    HW263987  10.689   6.516   1.563
54655SOL     OW63988  10.125   6.158   0.325
54655SOL    HW163989  10.132   6.069   0.279
54655SOL    HW263990  10.031   6.192   0.317
54656SOL     OW63991  10.967   6.190   1.206
54656SOL    HW163992  10.929   6.121   1.268
54656SOL    HW263993  11.049   6.154   1.162
54657SOL     OW63994   9.562   7.150   1.744
54657SOL    HW163995   9.532   7.207   1.820
54657SOL    HW263996   9.555   7.053   1.770
54658SOL     OW63997   9.981   6.050   1.269
54658SOL    HW163998   9.947   5.961   1.239
54658SOL    HW263999  10.007   6.104   1.189
54659SOL     OW64000  10.240   7.264   1.465
54659SOL    HW164001  10.216   7.246   1.370
54659SOL    HW264002  10.270   7.358   1.475
54660SOL     OW64003   9.783   6.086   0.191
54660SOL    HW164004   9.844   6.166   0.195
54660SOL    HW264005   9.688   6.117   0.198
54661SOL     OW64006   9.469   6.723   1.466
54661SOL    HW164007   9.491   6.662   1.542
54661SOL    HW264008   9.479   6.674   1.380
54662SOL     OW64009  10.657   6.645   1.234
54662SOL    HW164010  10.681   6.582   1.160
54662SOL    HW264011  10.567   6.685   1.216
54663SOL     OW64012  10.612   6.441   0.309
54663SOL    HW164013  10.526   6.410   0.351
54663SOL    HW264014  10.608   6.427   0.210
54664SOL     OW64015  11.069   7.333   1.154
54664SOL    HW164016  11.130   7.363   1.081
54664SOL    HW264017  11.031   7.244   1.132
54665SOL     OW64018  10.562   7.317   1.128
54665SOL    HW164019  10.646   7.322   1.074
54665SOL    HW264020  10.539   7.221   1.146
54666SOL     OW64021   9.393   6.844   1.022
54666SOL    HW164022   9.388   6.843   1.122
54666SOL    HW264023   9.310   6.803   0.984
54667SOL     OW64024   9.998   7.248   1.716
54667SOL    HW164025   9.942   7.329   1.725
54667SOL    HW264026  10.050   7.252   1.630
54668SOL     OW64027  10.213   5.672   0.133
54668SOL    HW164028  10.264   5.673   0.047
54668SOL    HW264029  10.269   5.630   0.204
54669SOL     OW64030  11.036   5.721   0.523
54669SOL    HW164031  11.109   5.704   0.456
54669SOL    HW264032  11.005   5.634   0.561
54670SOL     OW64033  10.698   7.159   0.477
54670SOL    HW164034  10.765   7.171   0.403
54670SOL    HW264035  10.658   7.248   0.500
54671SOL     OW64036   9.440   7.380   1.851
54671SOL    HW164037   9.399   7.306   1.904
54671SOL    HW264038   9.504   7.431   1.909
54672SOL     OW64039  10.590   6.513   0.672
54672SOL    HW164040  10.650   6.432   0.674
54672SOL    HW264041  10.630   6.582   0.612
54673SOL     OW64042  10.140   6.859   1.422
54673SOL    HW164043  10.135   6.892   1.517
54673SOL    HW264044  10.054   6.878   1.376
54674SOL     OW64045   9.982   7.202   0.154
54674SOL    HW164046   9.991   7.212   0.055
54674SOL    HW264047   9.942   7.113   0.175
54675SOL     OW64048  10.960   7.306   1.394
54675SOL    HW164049  11.013   7.316   1.310
54675SOL    HW264050  10.933   7.396   1.428
54676SOL     OW64051  11.151   5.761   0.963
54676SOL    HW164052  11.190   5.676   0.927
54676SOL    HW264053  11.053   5.763   0.944
54677SOL     OW64054   9.573   5.912   0.720
54677SOL    HW164055   9.494   5.963   0.686
54677SOL    HW264056   9.564   5.897   0.818
54678SOL     OW64057  10.504   7.198   0.031
54678SOL    HW164058  10.510   7.105   0.068
54678SOL    HW264059  10.445   7.198  -0.049
54679SOL     OW64060  10.132   6.588   1.372
54679SOL    HW164061  10.172   6.587   1.280
54679SOL    HW264062  10.142   6.680   1.412
54680SOL     OW64063  10.226   6.496   0.291
54680SOL    HW164064  10.289   6.534   0.223
54680SOL    HW264065  10.266   6.413   0.330
54681SOL     OW64066  10.814   7.193   0.044
54681SOL    HW164067  10.722   7.230   0.051
54681SOL    HW264068  10.852   7.213  -0.046
54682SOL     OW64069   9.682   6.874   1.490
54682SOL    HW164070   9.669   6.967   1.456
54682SOL    HW264071   9.598   6.822   1.477
54683SOL     OW64072  10.924   6.878   1.289
54683SOL    HW164073  10.984   6.881   1.369
54683SOL    HW264074  10.849   6.942   1.302
54684SOL     OW64075  10.349   6.684   0.696
54684SOL    HW164076  10.279   6.637   0.750
54684SOL    HW264077  10.408   6.616   0.653
54685SOL     OW64078  10.324   5.822   0.971
54685SOL    HW164079  10.316   5.786   0.878
54685SOL    HW264080  10.322   5.746   1.036
54686SOL     OW64081   9.900   7.073   0.491
54686SOL    HW164082   9.942   7.015   0.421
54686SOL    HW264083   9.856   7.152   0.447
54687SOL     OW64084  11.019   5.971   1.381
54687SOL    HW164085  11.092   6.040   1.385
54687SOL    HW264086  11.047   5.896   1.322
54688SOL     OW64087   9.565   6.934   0.290
54688SOL    HW164088   9.469   6.935   0.263
54688SOL    HW264089   9.577   6.987   0.374
54689SOL     OW64090   9.415   6.599   1.726
54689SOL    HW164091   9.338   6.566   1.780
54689SOL    HW264092   9.500   6.569   1.768
54690SOL     OW64093   9.982   5.789   1.489
54690SOL    HW164094  10.072   5.773   1.449
54690SOL    HW264095   9.990   5.794   1.588
54691SOL     OW64096  10.750   6.442   1.398
54691SOL    HW164097  10.693   6.494   1.335
54691SOL    HW264098  10.846   6.454   1.374
54692SOL     OW64099   9.382   5.752   0.318
54692SOL    HW164100   9.365   5.835   0.264
54692SOL    HW264101   9.472   5.715   0.296
54693SOL     OW64102  10.493   6.921   0.119
54693SOL    HW164103  10.394   6.910   0.121
54693SOL    HW264104  10.527   6.936   0.212
54694SOL     OW64105   9.923   6.428   1.431
54694SOL    HW164106   9.979   6.509   1.414
54694SOL    HW264107   9.982   6.348   1.434
54695SOL     OW64108  10.803   7.353   0.959
54695SOL    HW164109  10.836   7.417   0.890
54695SOL    HW264110  10.869   7.347   1.034
54696SOL     OW64111  10.026   6.151   1.708
54696SOL    HW164112  10.045   6.216   1.782
54696SOL    HW264113  10.086   6.071   1.717
54697SOL     OW64114  10.760   6.806   1.633
54697SOL    HW164115  10.751   6.796   1.732
54697SOL    HW264116  10.856   6.799   1.607
54698SOL     OW64117   9.700   7.327   1.560
54698SOL    HW164118   9.609   7.368   1.558
54698SOL    HW264119   9.693   7.233   1.592
54699SOL     OW64120  10.984   6.469   1.254
54699SOL    HW164121  10.957   6.380   1.217
54699SOL    HW264122  10.985   6.537   1.181
54700SOL     OW64123  10.535   5.911   0.449
54700SOL    HW164124  10.600   5.837   0.438
54700SOL    HW264125  10.555   5.961   0.533
54701SOL     OW64126   9.904   6.331   0.652
54701SOL    HW164127   9.954   6.416   0.633
54701SOL    HW264128   9.816   6.333   0.604
54702SOL     OW64129  11.087   5.928   1.642
54702SOL    HW164130  11.070   5.959   1.548
54702SOL    HW264131  11.003   5.891   1.680
54703SOL     OW64132  11.040   6.520   1.517
54703SOL    HW164133  11.078   6.611   1.532
54703SOL    HW264134  11.032   6.503   1.418
54704SOL     OW64135  10.169   6.960   0.016
54704SOL    HW164136  10.123   6.975   0.104
54704SOL    HW264137  10.213   7.045  -0.014
54705SOL     OW64138   9.971   7.376   0.953
54705SOL    HW164139   9.925   7.464   0.940
54705SOL    HW264140  10.070   7.388   0.946
54706SOL     OW64141  10.169   6.542   0.861
54706SOL    HW164142  10.223   6.473   0.909
54706SOL    HW264143  10.137   6.611   0.927
54707SOL     OW64144  10.393   6.570   0.087
54707SOL    HW164145  10.370   6.623   0.005
54707SOL    HW264146  10.474   6.514   0.068
54708SOL     OW64147  11.171   7.155   0.851
54708SOL    HW164148  11.100   7.143   0.781
54708SOL    HW264149  11.172   7.076   0.911
54709SOL     OW64150   9.531   6.900   1.844
54709SOL    HW164151   9.466   6.827   1.823
54709SOL    HW264152   9.535   6.914   1.942
54710SOL     OW64153   9.389   6.826   0.653
54710SOL    HW164154   9.388   6.779   0.741
54710SOL    HW264155   9.471   6.798   0.602
54711SOL     OW64156   9.982   6.977   1.624
54711SOL    HW164157   9.904   6.927   1.662
54711SOL    HW264158   9.979   7.072   1.655
54712SOL     OW64159  11.134   5.778   1.227
54712SOL    HW164160  11.130   5.688   1.271
54712SOL    HW264161  11.137   5.767   1.128
54713SOL     OW64162   9.738   6.010   0.520
54713SOL    HW164163   9.768   5.938   0.458
54713SOL    HW264164   9.699   5.970   0.603
54714SOL     OW64165  11.015   7.073   1.104
54714SOL    HW164166  10.922   7.048   1.077
54714SOL    HW264167  11.041   7.023   1.186
54715SOL     OW64168   9.627   6.133   1.280
54715SOL    HW164169   9.665   6.074   1.352
54715SOL    HW264170   9.667   6.107   1.192
54716SOL     OW64171  10.122   7.172   0.687
54716SOL    HW164172  10.154   7.182   0.593
54716SOL    HW264173  10.043   7.110   0.689
54717SOL     OW64174  10.734   5.800   1.112
54717SOL    HW164175  10.786   5.735   1.167
54717SOL    HW264176  10.685   5.863   1.173
54718SOL     OW64177  10.311   5.620   1.154
54718SOL    HW164178  10.248   5.548   1.123
54718SOL    HW264179  10.404   5.584   1.154
54719SOL     OW64180  10.080   6.916   0.301
54719SOL    HW164181  10.034   6.829   0.318
54719SOL    HW264182  10.171   6.913   0.342
54720SOL     OW64183   9.928   7.153   1.284
54720SOL    HW164184   9.923   7.235   1.341
54720SOL    HW264185  10.017   7.150   1.239
54721SOL     OW64186  10.662   5.638   0.168
54721SOL    HW164187  10.697   5.597   0.084
54721SOL    HW264188  10.572   5.600   0.188
54722SOL     OW64189  10.610   6.039   0.691
54722SOL    HW164190  10.551   6.119   0.695
54722SOL    HW264191  10.625   6.004   0.784
54723SOL     OW64192  10.903   5.807   0.882
54723SOL    HW164193  10.819   5.806   0.936
54723SOL    HW264194  10.905   5.890   0.826
54724SOL     OW64195   9.349   6.663   0.300
54724SOL    HW164196   9.448   6.652   0.291
54724SOL    HW264197   9.309   6.577   0.332
54725SOL     OW64198  10.185   7.232   0.337
54725SOL    HW164199  10.108   7.197   0.283
54725SOL    HW264200  10.153   7.303   0.399
54726SOL     OW64201   9.540   6.214   1.975
54726SOL    HW164202   9.447   6.212   2.012
54726SOL    HW264203   9.541   6.175   1.883
54727SOL     OW64204   9.535   5.861   2.858
54727SOL    HW164205   9.570   5.844   2.950
54727SOL    HW264206   9.447   5.816   2.846
54728SOL     OW64207   9.329   5.954   2.509
54728SOL    HW164208   9.247   5.997   2.548
54728SOL    HW264209   9.301   5.881   2.446
54729SOL     OW64210   9.879   6.861   3.027
54729SOL    HW164211   9.786   6.854   2.990
54729SOL    HW264212   9.890   6.950   3.071
54730SOL     OW64213  10.865   7.097   2.565
54730SOL    HW164214  10.808   7.081   2.646
54730SOL    HW264215  10.806   7.107   2.485
54731SOL     OW64216  10.445   6.289   2.579
54731SOL    HW164217  10.502   6.367   2.554
54731SOL    HW264218  10.385   6.315   2.655
54732SOL     OW64219  11.065   6.193   2.093
54732SOL    HW164220  11.053   6.180   1.994
54732SOL    HW264221  11.035   6.112   2.142
54733SOL     OW64222  10.078   6.730   2.885
54733SOL    HW164223  10.000   6.747   2.945
54733SOL    HW264224  10.112   6.817   2.849
54734SOL     OW64225  10.160   6.384   3.685
54734SOL    HW164226  10.156   6.460   3.750
54734SOL    HW264227  10.182   6.420   3.594
54735SOL     OW64228   9.995   6.598   2.527
54735SOL    HW164229  10.064   6.582   2.597
54735SOL    HW264230   9.922   6.655   2.565
54736SOL     OW64231   9.996   6.747   3.665
54736SOL    HW164232  10.056   6.826   3.679
54736SOL    HW264233   9.910   6.778   3.624
54737SOL     OW64234   9.645   7.021   2.923
54737SOL    HW164235   9.567   6.990   2.870
54737SOL    HW264236   9.703   7.079   2.866
54738SOL     OW64237  10.770   7.091   3.201
54738SOL    HW164238  10.794   7.185   3.227
54738SOL    HW264239  10.754   7.037   3.283
54739SOL     OW64240   9.748   5.978   3.361
54739SOL    HW164241   9.830   5.922   3.370
54739SOL    HW264242   9.667   5.920   3.365
54740SOL     OW64243  10.913   6.033   2.599
54740SOL    HW164244  10.839   6.079   2.549
54740SOL    HW264245  10.964   6.101   2.652
54741SOL     OW64246   9.541   7.299   2.345
54741SOL    HW164247   9.575   7.376   2.399
54741SOL    HW264248   9.585   7.299   2.255
54742SOL     OW64249  10.437   6.927   3.552
54742SOL    HW164250  10.484   6.927   3.640
54742SOL    HW264251  10.389   6.840   3.541
54743SOL     OW64252   9.540   7.020   2.400
54743SOL    HW164253   9.514   7.116   2.400
54743SOL    HW264254   9.469   6.966   2.445
54744SOL     OW64255   9.550   6.677   2.748
54744SOL    HW164256   9.564   6.593   2.800
54744SOL    HW264257   9.495   6.741   2.803
54745SOL     OW64258   9.930   7.372   3.301
54745SOL    HW164259   9.838   7.355   3.336
54745SOL    HW264260   9.958   7.464   3.327
54746SOL     OW64261   9.916   6.550   1.985
54746SOL    HW164262   9.923   6.634   1.931
54746SOL    HW264263   9.962   6.563   2.073
54747SOL     OW64264  10.904   5.700   3.342
54747SOL    HW164265  10.886   5.767   3.270
54747SOL    HW264266  10.901   5.746   3.431
54748SOL     OW64267   9.432   6.229   2.425
54748SOL    HW164268   9.387   6.141   2.442
54748SOL    HW264269   9.431   6.283   2.509
54749SOL     OW64270  11.152   7.353   2.221
54749SOL    HW164271  11.206   7.324   2.301
54749SOL    HW264272  11.182   7.443   2.192
54750SOL     OW64273   9.337   7.182   1.979
54750SOL    HW164274   9.318   7.086   2.000
54750SOL    HW264275   9.304   7.240   2.054
54751SOL     OW64276  10.999   6.508   2.474
54751SOL    HW164277  11.094   6.479   2.482
54751SOL    HW264278  10.991   6.573   2.399
54752SOL     OW64279  10.951   6.694   2.294
54752SOL    HW164280  11.037   6.696   2.242
54752SOL    HW264281  10.965   6.741   2.382
54753SOL     OW64282   9.423   6.323   3.459
54753SOL    HW164283   9.511   6.310   3.504
54753SOL    HW264284   9.410   6.420   3.437
54754SOL     OW64285   9.923   6.951   2.588
54754SOL    HW164286   9.874   6.864   2.597
54754SOL    HW264287   9.900   6.994   2.501
54755SOL     OW64288  10.603   6.814   3.285
54755SOL    HW164289  10.640   6.741   3.227
54755SOL    HW264290  10.655   6.819   3.370
54756SOL     OW64291  10.119   5.590   2.364
54756SOL    HW164292  10.159   5.681   2.355
54756SOL    HW264293  10.019   5.598   2.370
54757SOL     OW64294   9.507   6.562   3.126
54757SOL    HW164295   9.596   6.517   3.112
54757SOL    HW264296   9.434   6.497   3.107
54758SOL     OW64297  10.835   6.585   2.052
54758SOL    HW164298  10.772   6.509   2.065
54758SOL    HW264299  10.883   6.603   2.138
54759SOL     OW64300  10.497   7.378   3.478
54759SOL    HW164301  10.521   7.438   3.402
54759SOL    HW264302  10.504   7.283   3.448
54760SOL     OW64303   9.627   5.837   3.663
54760SOL    HW164304   9.698   5.908   3.669
54760SOL    HW264305   9.539   5.876   3.691
54761SOL     OW64306  10.776   7.003   2.815
54761SOL    HW164307  10.717   7.009   2.895
54761SOL    HW264308  10.761   6.915   2.769
54762SOL     OW64309  10.977   7.300   2.434
54762SOL    HW164310  10.936   7.277   2.346
54762SOL    HW264311  10.959   7.226   2.499
54763SOL     OW64312   9.908   6.315   2.132
54763SOL    HW164313   9.932   6.384   2.064
54763SOL    HW264314   9.830   6.348   2.186
54764SOL     OW64315  10.591   5.931   2.806
54764SOL    HW164316  10.505   5.881   2.793
54764SOL    HW264317  10.653   5.877   2.862
54765SOL     OW64318  10.886   7.248   2.169
54765SOL    HW164319  10.975   7.294   2.172
54765SOL    HW264320  10.865   7.224   2.074
54766SOL     OW64321  10.117   6.191   3.327
54766SOL    HW164322  10.070   6.188   3.416
54766SOL    HW264323  10.066   6.136   3.261
54767SOL     OW64324  10.704   6.055   3.536
54767SOL    HW164325  10.684   6.098   3.624
54767SOL    HW264326  10.782   5.993   3.545
54768SOL     OW64327  10.283   6.476   3.434
54768SOL    HW164328  10.329   6.392   3.405
54768SOL    HW264329  10.227   6.510   3.359
54769SOL     OW64330  10.301   5.996   3.104
54769SOL    HW164331  10.224   6.030   3.158
54769SOL    HW264332  10.267   5.945   3.025
54770SOL     OW64333  10.351   6.287   2.291
54770SOL    HW164334  10.377   6.283   2.387
54770SOL    HW264335  10.266   6.236   2.277
54771SOL     OW64336   9.386   6.397   2.651
54771SOL    HW164337   9.485   6.385   2.660
54771SOL    HW264338   9.362   6.492   2.672
54772SOL     OW64339   9.440   7.407   3.433
54772SOL    HW164340   9.430   7.392   3.532
54772SOL    HW264341   9.354   7.443   3.397
54773SOL     OW64342  10.175   5.934   2.057
54773SOL    HW164343  10.234   5.997   2.008
54773SOL    HW264344  10.194   5.840   2.028
54774SOL     OW64345  11.029   6.171   3.693
54774SOL    HW164346  11.003   6.260   3.657
54774SOL    HW264347  11.027   6.103   3.620
54775SOL     OW64348  10.672   6.730   2.407
54775SOL    HW164349  10.755   6.701   2.359
54775SOL    HW264350  10.623   6.797   2.351
54776SOL     OW64351   9.860   5.782   2.747
54776SOL    HW164352   9.855   5.777   2.847
54776SOL    HW264353   9.862   5.878   2.718
54777SOL     OW64354  10.318   7.042   2.339
54777SOL    HW164355  10.272   7.114   2.287
54777SOL    HW264356  10.314   7.062   2.437
54778SOL     OW64357   9.661   7.387   2.715
54778SOL    HW164358   9.711   7.301   2.721
54778SOL    HW264359   9.726   7.464   2.712
54779SOL     OW64360  11.105   6.652   2.735
54779SOL    HW164361  11.043   6.637   2.659
54779SOL    HW264362  11.053   6.663   2.820
54780SOL     OW64363  10.537   7.136   3.368
54780SOL    HW164364  10.543   7.059   3.432
54780SOL    HW264365  10.485   7.110   3.288
54781SOL     OW64366   9.631   6.529   2.104
54781SOL    HW164367   9.713   6.568   2.062
54781SOL    HW264368   9.604   6.447   2.055
54782SOL     OW64369  10.768   6.321   2.590
54782SOL    HW164370  10.763   6.256   2.665
54782SOL    HW264371  10.848   6.380   2.603
54783SOL     OW64372   9.771   6.852   3.589
54783SOL    HW164373   9.721   6.853   3.503
54783SOL    HW264374   9.708   6.834   3.665
54784SOL     OW64375  10.421   7.362   2.099
54784SOL    HW164376  10.361   7.300   2.149
54784SOL    HW264377  10.452   7.318   2.014
54785SOL     OW64378   9.512   5.871   3.360
54785SOL    HW164379   9.432   5.931   3.347
54785SOL    HW264380   9.502   5.822   3.446
54786SOL     OW64381  10.942   6.963   1.943
54786SOL    HW164382  10.910   7.057   1.933
54786SOL    HW264383  10.866   6.900   1.931
54787SOL     OW64384   9.774   7.329   2.185
54787SOL    HW164385   9.807   7.368   2.271
54787SOL    HW264386   9.850   7.322   2.120
54788SOL     OW64387  10.710   5.693   2.288
54788SOL    HW164388  10.686   5.656   2.198
54788SOL    HW264389  10.809   5.709   2.292
54789SOL     OW64390   9.559   7.371   3.103
54789SOL    HW164391   9.616   7.306   3.153
54789SOL    HW264392   9.543   7.338   3.010
54790SOL     OW64393  10.250   7.284   2.766
54790SOL    HW164394  10.330   7.227   2.787
54790SOL    HW264395  10.201   7.244   2.689
54791SOL     OW64396   9.692   6.286   2.342
54791SOL    HW164397   9.737   6.196   2.339
54791SOL    HW264398   9.598   6.275   2.375
54792SOL     OW64399  10.857   5.808   3.591
54792SOL    HW164400  10.852   5.845   3.683
54792SOL    HW264401  10.785   5.739   3.579
54793SOL     OW64402   9.924   5.708   1.979
54793SOL    HW164403  10.022   5.686   1.986
54793SOL    HW264404   9.893   5.691   1.886
54794SOL     OW64405  10.091   5.850   3.611
54794SOL    HW164406  10.158   5.789   3.654
54794SOL    HW264407  10.018   5.869   3.676
54795SOL     OW64408  10.198   7.100   3.057
54795SOL    HW164409  10.175   7.075   2.963
54795SOL    HW264410  10.259   7.031   3.096
54796SOL     OW64411  10.661   6.176   3.295
54796SOL    HW164412  10.689   6.133   3.380
54796SOL    HW264413  10.686   6.272   3.296
54797SOL     OW64414  10.113   6.988   2.786
54797SOL    HW164415  10.203   7.002   2.744
54797SOL    HW264416  10.042   6.990   2.715
54798SOL     OW64417  10.232   6.089   2.761
54798SOL    HW164418  10.207   6.080   2.665
54798SOL    HW264419  10.280   6.007   2.792
54799SOL     OW64420   9.849   5.650   2.374
54799SOL    HW164421   9.768   5.651   2.432
54799SOL    HW264422   9.852   5.733   2.319
54800SOL     OW64423  10.744   6.774   1.903
54800SOL    HW164424  10.776   6.698   1.960
54800SOL    HW264425  10.652   6.801   1.933
54801SOL     OW64426   9.607   5.621   2.033
54801SOL    HW164427   9.656   5.705   2.012
54801SOL    HW264428   9.669   5.556   2.078
54802SOL     OW64429  10.245   5.822   2.342
54802SOL    HW164430  10.197   5.863   2.264
54802SOL    HW264431  10.344   5.820   2.323
54803SOL     OW64432  10.386   6.269   3.326
54803SOL    HW164433  10.306   6.208   3.329
54803SOL    HW264434  10.467   6.216   3.302
54804SOL     OW64435  10.537   7.156   2.655
54804SOL    HW164436  10.558   7.230   2.590
54804SOL    HW264437  10.605   7.156   2.728
54805SOL     OW64438   9.769   6.738   2.603
54805SOL    HW164439   9.698   6.711   2.668
54805SOL    HW264440   9.743   6.710   2.510
54806SOL     OW64441  10.581   7.383   2.453
54806SOL    HW164442  10.625   7.447   2.389
54806SOL    HW264443  10.531   7.435   2.523
54807SOL     OW64444  10.342   6.135   1.878
54807SOL    HW164445  10.301   6.217   1.839
54807SOL    HW264446  10.406   6.161   1.951
54808SOL     OW64447   9.388   6.142   3.248
54808SOL    HW164448   9.480   6.141   3.207
54808SOL    HW264449   9.382   6.216   3.315
54809SOL     OW64450   9.871   5.808   3.009
54809SOL    HW164451   9.909   5.724   3.046
54809SOL    HW264452   9.783   5.827   3.053
54810SOL     OW64453  10.176   6.040   2.504
54810SOL    HW164454  10.144   6.112   2.442
54810SOL    HW264455  10.200   5.959   2.451
54811SOL     OW64456  10.327   5.625   2.615
54811SOL    HW164457  10.255   5.630   2.546
54811SOL    HW264458  10.303   5.556   2.684
54812SOL     OW64459  10.739   6.759   2.729
54812SOL    HW164460  10.684   6.675   2.722
54812SOL    HW264461  10.765   6.788   2.637
54813SOL     OW64462  10.776   6.176   2.854
54813SOL    HW164463  10.746   6.081   2.861
54813SOL    HW264464  10.849   6.192   2.920
54814SOL     OW64465  11.167   6.419   2.239
54814SOL    HW164466  11.209   6.355   2.303
54814SOL    HW264467  11.129   6.368   2.161
54815SOL     OW64468   9.798   6.971   2.036
54815SOL    HW164469   9.711   6.956   2.083
54815SOL    HW264470   9.781   6.997   1.941
54816SOL     OW64471  10.974   6.866   2.519
54816SOL    HW164472  11.073   6.874   2.533
54816SOL    HW264473  10.929   6.950   2.550
54817SOL     OW64474  10.700   6.161   1.940
54817SOL    HW164475  10.646   6.140   2.021
54817SOL    HW264476  10.791   6.120   1.949
54818SOL     OW64477   9.837   5.842   2.190
54818SOL    HW164478   9.864   5.783   2.115
54818SOL    HW264479   9.837   5.937   2.159
54819SOL     OW64480  11.064   6.809   3.450
54819SOL    HW164481  11.155   6.770   3.437
54819SOL    HW264482  11.072   6.905   3.474
54820SOL     OW64483  10.374   6.933   3.202
54820SOL    HW164484  10.294   6.910   3.257
54820SOL    HW264485  10.457   6.907   3.251
54821SOL     OW64486  10.902   7.215   3.487
54821SOL    HW164487  10.929   7.249   3.397
54821SOL    HW264488  10.981   7.177   3.533
54822SOL     OW64489  10.421   6.781   2.962
54822SOL    HW164490  10.381   6.825   3.043
54822SOL    HW264491  10.380   6.818   2.879
54823SOL     OW64492  10.948   6.685   2.941
54823SOL    HW164493  10.953   6.766   3.000
54823SOL    HW264494  10.862   6.687   2.890
54824SOL     OW64495  10.225   5.675   3.264
54824SOL    HW164496  10.250   5.655   3.169
54824SOL    HW264497  10.297   5.731   3.306
54825SOL     OW64498  10.290   6.702   3.581
54825SOL    HW164499  10.191   6.708   3.591
54825SOL    HW264500  10.313   6.622   3.525
54826SOL     OW64501  10.015   6.636   2.230
54826SOL    HW164502  10.001   6.643   2.329
54826SOL    HW264503  10.099   6.585   2.212
54827SOL     OW64504   9.720   6.399   3.113
54827SOL    HW164505   9.806   6.411   3.163
54827SOL    HW264506   9.678   6.312   3.140
54828SOL     OW64507  10.584   5.972   3.124
54828SOL    HW164508  10.605   6.046   3.188
54828SOL    HW264509  10.495   5.989   3.081
54829SOL     OW64510   9.374   7.150   3.193
54829SOL    HW164511   9.328   7.232   3.159
54829SOL    HW264512   9.472   7.169   3.202
54830SOL     OW64513   9.677   6.686   2.363
54830SOL    HW164514   9.670   6.769   2.307
54830SOL    HW264515   9.681   6.606   2.303
54831SOL     OW64516   9.876   6.123   2.727
54831SOL    HW164517   9.888   6.189   2.653
54831SOL    HW264518   9.922   6.157   2.810
54832SOL     OW64519  10.562   6.934   2.250
54832SOL    HW164520  10.612   7.011   2.290
54832SOL    HW264521  10.467   6.936   2.282
54833SOL     OW64522  10.582   7.031   3.004
54833SOL    HW164523  10.629   7.044   3.091
54833SOL    HW264524  10.516   6.957   3.013
54834SOL     OW64525  10.892   6.225   2.334
54834SOL    HW164526  10.861   6.286   2.407
54834SOL    HW264527  10.942   6.277   2.265
54835SOL     OW64528   9.664   7.096   3.191
54835SOL    HW164529   9.643   7.052   3.104
54835SOL    HW264530   9.761   7.122   3.194
54836SOL     OW64531   9.712   6.337   3.460
54836SOL    HW164532   9.780   6.392   3.413
54836SOL    HW264533   9.752   6.249   3.487
54837SOL     OW64534  10.897   6.365   3.532
54837SOL    HW164535  10.805   6.403   3.527
54837SOL    HW264536  10.957   6.412   3.467
54838SOL     OW64537  10.323   5.691   3.632
54838SOL    HW164538  10.329   5.776   3.580
54838SOL    HW264539  10.355   5.615   3.575
54839SOL     OW64540   9.814   5.636   3.602
54839SOL    HW164541   9.772   5.579   3.532
54839SOL    HW264542   9.748   5.705   3.634
54840SOL     OW64543   9.883   6.456   2.891
54840SOL    HW164544   9.927   6.545   2.882
54840SOL    HW264545   9.820   6.456   2.968
54841SOL     OW64546  10.670   6.448   2.907
54841SOL    HW164547  10.595   6.448   2.841
54841SOL    HW264548  10.707   6.356   2.916
54842SOL     OW64549  10.519   6.111   2.137
54842SOL    HW164550  10.532   6.027   2.191
54842SOL    HW264551  10.490   6.185   2.197
54843SOL     OW64552   9.617   5.799   3.093
54843SOL    HW164553   9.594   5.836   3.183
54843SOL    HW264554   9.587   5.704   3.087
54844SOL     OW64555   9.347   6.896   3.144
54844SOL    HW164556   9.400   6.847   3.212
54844SOL    HW264557   9.369   6.994   3.149
54845SOL     OW64558  10.042   6.220   2.926
54845SOL    HW164559  10.101   6.194   2.850
54845SOL    HW264560  10.014   6.316   2.915
54846SOL     OW64561  11.038   6.521   3.716
54846SOL    HW164562  10.992   6.514   3.627
54846SOL    HW264563  10.976   6.565   3.782
54847SOL     OW64564   9.617   5.649   2.480
54847SOL    HW164565   9.606   5.743   2.513
54847SOL    HW264566   9.612   5.586   2.557
54848SOL     OW64567  10.932   5.953   2.236
54848SOL    HW164568  10.934   5.877   2.300
54848SOL    HW264569  10.884   6.030   2.276
54849SOL     OW64570  10.333   6.352   2.828
54849SOL    HW164571  10.348   6.373   2.924
54849SOL    HW264572  10.303   6.257   2.819
54850SOL     OW64573  10.290   7.159   3.562
54850SOL    HW164574  10.270   7.203   3.474
54850SOL    HW264575  10.329   7.068   3.546
54851SOL     OW64576  11.169   7.104   3.467
54851SOL    HW164577  11.183   7.131   3.372
54851SOL    HW264578  11.252   7.126   3.520
54852SOL     OW64579   9.660   6.484   3.666
54852SOL    HW164580   9.736   6.528   3.714
54852SOL    HW264581   9.695   6.437   3.584
54853SOL     OW64582  10.850   5.860   1.987
54853SOL    HW164583  10.789   5.785   2.010
54853SOL    HW264584  10.872   5.912   2.070
54854SOL     OW64585  10.613   6.424   1.904
54854SOL    HW164586  10.647   6.331   1.919
54854SOL    HW264587  10.631   6.451   1.809
54855SOL     OW64588  10.378   6.919   2.711
54855SOL    HW164589  10.385   6.835   2.656
54855SOL    HW264590  10.440   6.988   2.675
54856SOL     OW64591   9.629   6.396   2.811
54856SOL    HW164592   9.722   6.432   2.816
54856SOL    HW264593   9.623   6.311   2.863
54857SOL     OW64594   9.649   6.095   2.868
54857SOL    HW164595   9.597   6.012   2.851
54857SOL    HW264596   9.726   6.100   2.804
54858SOL     OW64597  10.448   5.966   3.540
54858SOL    HW164598  10.403   6.029   3.604
54858SOL    HW264599  10.541   5.997   3.523
54859SOL     OW64600  10.470   5.793   3.339
54859SOL    HW164601  10.470   5.857   3.416
54859SOL    HW264602  10.498   5.841   3.256
54860SOL     OW64603   9.318   6.912   2.062
54860SOL    HW164604   9.225   6.933   2.031
54860SOL    HW264605   9.328   6.813   2.075
54861SOL     OW64606   9.398   7.387   2.789
54861SOL    HW164607   9.356   7.301   2.762
54861SOL    HW264608   9.492   7.390   2.755
54862SOL     OW64609   9.814   7.154   2.772
54862SOL    HW164610   9.880   7.228   2.781
54862SOL    HW264611   9.858   7.075   2.730
54863SOL     OW64612  10.312   6.382   3.100
54863SOL    HW164613  10.353   6.350   3.186
54863SOL    HW264614  10.216   6.355   3.097
54864SOL     OW64615   9.350   6.130   2.976
54864SOL    HW164616   9.435   6.097   2.935
54864SOL    HW264617   9.363   6.145   3.074
54865SOL     OW64618   9.499   6.106   3.584
54865SOL    HW164619   9.558   6.066   3.514
54865SOL    HW264620   9.441   6.177   3.543
54866SOL     OW64621  10.679   6.536   3.522
54866SOL    HW164622  10.718   6.625   3.542
54866SOL    HW264623  10.689   6.516   3.425
54867SOL     OW64624  10.125   6.158   2.187
54867SOL    HW164625  10.132   6.069   2.141
54867SOL    HW264626  10.031   6.192   2.179
54868SOL     OW64627  10.967   6.190   3.068
54868SOL    HW164628  10.929   6.121   3.130
54868SOL    HW264629  11.049   6.154   3.024
54869SOL     OW64630   9.562   7.150   3.606
54869SOL    HW164631   9.532   7.207   3.682
54869SOL    HW264632   9.555   7.053   3.632
54870SOL     OW64633   9.981   6.050   3.131
54870SOL    HW164634   9.947   5.961   3.101
54870SOL    HW264635  10.007   6.104   3.051
54871SOL     OW64636  10.240   7.264   3.327
54871SOL    HW164637  10.216   7.246   3.232
54871SOL    HW264638  10.270   7.358   3.337
54872SOL     OW64639   9.783   6.086   2.053
54872SOL    HW164640   9.844   6.166   2.057
54872SOL    HW264641   9.688   6.117   2.060
54873SOL     OW64642   9.469   6.723   3.328
54873SOL    HW164643   9.491   6.662   3.404
54873SOL    HW264644   9.479   6.674   3.242
54874SOL     OW64645  10.657   6.645   3.096
54874SOL    HW164646  10.681   6.582   3.022
54874SOL    HW264647  10.567   6.685   3.078
54875SOL     OW64648  10.612   6.441   2.171
54875SOL    HW164649  10.526   6.410   2.213
54875SOL    HW264650  10.608   6.427   2.072
54876SOL     OW64651  11.069   7.333   3.016
54876SOL    HW164652  11.130   7.363   2.943
54876SOL    HW264653  11.031   7.244   2.994
54877SOL     OW64654  10.562   7.317   2.990
54877SOL    HW164655  10.646   7.322   2.936
54877SOL    HW264656  10.539   7.221   3.008
54878SOL     OW64657   9.393   6.844   2.884
54878SOL    HW164658   9.388   6.843   2.984
54878SOL    HW264659   9.310   6.803   2.846
54879SOL     OW64660   9.998   7.248   3.578
54879SOL    HW164661   9.942   7.329   3.587
54879SOL    HW264662  10.050   7.252   3.492
54880SOL     OW64663  11.036   5.721   2.385
54880SOL    HW164664  11.109   5.704   2.318
54880SOL    HW264665  11.005   5.634   2.423
54881SOL     OW64666  10.698   7.159   2.339
54881SOL    HW164667  10.765   7.171   2.265
54881SOL    HW264668  10.658   7.248   2.362
54882SOL     OW64669   9.440   7.380   3.713
54882SOL    HW164670   9.399   7.306   3.766
54882SOL    HW264671   9.504   7.431   3.771
54883SOL     OW64672  10.590   6.513   2.534
54883SOL    HW164673  10.650   6.432   2.536
54883SOL    HW264674  10.630   6.582   2.474
54884SOL     OW64675  10.140   6.859   3.284
54884SOL    HW164676  10.135   6.892   3.379
54884SOL    HW264677  10.054   6.878   3.238
54885SOL     OW64678   9.982   7.202   2.016
54885SOL    HW164679   9.991   7.212   1.917
54885SOL    HW264680   9.942   7.113   2.037
54886SOL     OW64681  10.960   7.306   3.256
54886SOL    HW164682  11.013   7.316   3.172
54886SOL    HW264683  10.933   7.396   3.290
54887SOL     OW64684  11.151   5.761   2.825
54887SOL    HW164685  11.190   5.676   2.789
54887SOL    HW264686  11.053   5.763   2.806
54888SOL     OW64687   9.573   5.912   2.582
54888SOL    HW164688   9.494   5.963   2.548
54888SOL    HW264689   9.564   5.897   2.680
54889SOL     OW64690  10.504   7.198   1.893
54889SOL    HW164691  10.510   7.105   1.930
54889SOL    HW264692  10.445   7.198   1.813
54890SOL     OW64693  10.132   6.588   3.234
54890SOL    HW164694  10.172   6.587   3.142
54890SOL    HW264695  10.142   6.680   3.274
54891SOL     OW64696  10.226   6.496   2.153
54891SOL    HW164697  10.289   6.534   2.085
54891SOL    HW264698  10.266   6.413   2.192
54892SOL     OW64699  10.814   7.193   1.906
54892SOL    HW164700  10.722   7.230   1.913
54892SOL    HW264701  10.852   7.213   1.816
54893SOL     OW64702   9.682   6.874   3.352
54893SOL    HW164703   9.669   6.967   3.318
54893SOL    HW264704   9.598   6.822   3.339
54894SOL     OW64705  10.924   6.878   3.151
54894SOL    HW164706  10.984   6.881   3.231
54894SOL    HW264707  10.849   6.942   3.164
54895SOL     OW64708  10.349   6.684   2.558
54895SOL    HW164709  10.279   6.637   2.612
54895SOL    HW264710  10.408   6.616   2.515
54896SOL     OW64711  10.324   5.822   2.833
54896SOL    HW164712  10.316   5.786   2.740
54896SOL    HW264713  10.322   5.746   2.898
54897SOL     OW64714   9.900   7.073   2.353
54897SOL    HW164715   9.942   7.015   2.283
54897SOL    HW264716   9.856   7.152   2.309
54898SOL     OW64717  11.019   5.971   3.243
54898SOL    HW164718  11.092   6.040   3.247
54898SOL    HW264719  11.047   5.896   3.184
54899SOL     OW64720   9.565   6.934   2.152
54899SOL    HW164721   9.469   6.935   2.125
54899SOL    HW264722   9.577   6.987   2.236
54900SOL     OW64723   9.415   6.599   3.588
54900SOL    HW164724   9.338   6.566   3.642
54900SOL    HW264725   9.500   6.569   3.630
54901SOL     OW64726   9.982   5.789   3.351
54901SOL    HW164727  10.072   5.773   3.311
54901SOL    HW264728   9.990   5.794   3.450
54902SOL     OW64729   9.385   5.931   1.895
54902SOL    HW164730   9.293   5.903   1.866
54902SOL    HW264731   9.416   6.008   1.839
54903SOL     OW64732  10.750   6.442   3.260
54903SOL    HW164733  10.693   6.494   3.197
54903SOL    HW264734  10.846   6.454   3.236
54904SOL     OW64735   9.382   5.752   2.180
54904SOL    HW164736   9.365   5.835   2.126
54904SOL    HW264737   9.472   5.715   2.158
54905SOL     OW64738  10.493   6.921   1.981
54905SOL    HW164739  10.394   6.910   1.983
54905SOL    HW264740  10.527   6.936   2.074
54906SOL     OW64741   9.923   6.428   3.293
54906SOL    HW164742   9.979   6.509   3.276
54906SOL    HW264743   9.982   6.348   3.296
54907SOL     OW64744  10.803   7.353   2.821
54907SOL    HW164745  10.836   7.417   2.752
54907SOL    HW264746  10.869   7.347   2.896
54908SOL     OW64747  10.026   6.151   3.570
54908SOL    HW164748  10.045   6.216   3.644
54908SOL    HW264749  10.086   6.071   3.579
54909SOL     OW64750  10.760   6.806   3.495
54909SOL    HW164751  10.751   6.796   3.594
54909SOL    HW264752  10.856   6.799   3.469
54910SOL     OW64753   9.700   7.327   3.422
54910SOL    HW164754   9.609   7.368   3.420
54910SOL    HW264755   9.693   7.233   3.454
54911SOL     OW64756  10.984   6.469   3.116
54911SOL    HW164757  10.957   6.380   3.079
54911SOL    HW264758  10.985   6.537   3.043
54912SOL     OW64759  10.535   5.911   2.311
54912SOL    HW164760  10.600   5.837   2.300
54912SOL    HW264761  10.555   5.961   2.395
54913SOL     OW64762   9.904   6.331   2.514
54913SOL    HW164763   9.954   6.416   2.495
54913SOL    HW264764   9.816   6.333   2.466
54914SOL     OW64765  11.087   5.928   3.504
54914SOL    HW164766  11.070   5.959   3.410
54914SOL    HW264767  11.003   5.891   3.542
54915SOL     OW64768  11.040   6.520   3.379
54915SOL    HW164769  11.078   6.611   3.394
54915SOL    HW264770  11.032   6.503   3.280
54916SOL     OW64771  10.169   6.960   1.878
54916SOL    HW164772  10.123   6.975   1.966
54916SOL    HW264773  10.213   7.045   1.848
54917SOL     OW64774   9.971   7.376   2.815
54917SOL    HW164775   9.925   7.464   2.802
54917SOL    HW264776  10.070   7.388   2.808
54918SOL     OW64777  10.169   6.542   2.723
54918SOL    HW164778  10.223   6.473   2.771
54918SOL    HW264779  10.137   6.611   2.789
54919SOL     OW64780  10.393   6.570   1.949
54919SOL    HW164781  10.370   6.623   1.867
54919SOL    HW264782  10.474   6.514   1.930
54920SOL     OW64783  11.171   7.155   2.713
54920SOL    HW164784  11.100   7.143   2.643
54920SOL    HW264785  11.172   7.076   2.773
54921SOL     OW64786   9.531   6.900   3.706
54921SOL    HW164787   9.466   6.827   3.685
54921SOL    HW264788   9.535   6.914   3.804
54922SOL     OW64789   9.389   6.826   2.515
54922SOL    HW164790   9.388   6.779   2.603
54922SOL    HW264791   9.471   6.798   2.464
54923SOL     OW64792   9.982   6.977   3.486
54923SOL    HW164793   9.904   6.927   3.524
54923SOL    HW264794   9.979   7.072   3.517
54924SOL     OW64795  11.134   5.778   3.089
54924SOL    HW164796  11.130   5.688   3.133
54924SOL    HW264797  11.137   5.767   2.990
54925SOL     OW64798   9.738   6.010   2.382
54925SOL    HW164799   9.768   5.938   2.320
54925SOL    HW264800   9.699   5.970   2.465
54926SOL     OW64801  11.015   7.073   2.966
54926SOL    HW164802  10.922   7.048   2.939
54926SOL    HW264803  11.041   7.023   3.048
54927SOL     OW64804   9.627   6.133   3.142
54927SOL    HW164805   9.665   6.074   3.214
54927SOL    HW264806   9.667   6.107   3.054
54928SOL     OW64807  10.122   7.172   2.549
54928SOL    HW164808  10.154   7.182   2.455
54928SOL    HW264809  10.043   7.110   2.551
54929SOL     OW64810  10.734   5.800   2.974
54929SOL    HW164811  10.786   5.735   3.029
54929SOL    HW264812  10.685   5.863   3.035
54930SOL     OW64813  10.311   5.620   3.016
54930SOL    HW164814  10.248   5.548   2.985
54930SOL    HW264815  10.404   5.584   3.016
54931SOL     OW64816  10.080   6.916   2.163
54931SOL    HW164817  10.034   6.829   2.180
54931SOL    HW264818  10.171   6.913   2.204
54932SOL     OW64819   9.928   7.153   3.146
54932SOL    HW164820   9.923   7.235   3.203
54932SOL    HW264821  10.017   7.150   3.101
54933SOL     OW64822  10.662   5.638   2.030
54933SOL    HW164823  10.697   5.597   1.946
54933SOL    HW264824  10.572   5.600   2.050
54934SOL     OW64825  10.610   6.039   2.553
54934SOL    HW164826  10.551   6.119   2.557
54934SOL    HW264827  10.625   6.004   2.646
54935SOL     OW64828  10.903   5.807   2.744
54935SOL    HW164829  10.819   5.806   2.798
54935SOL    HW264830  10.905   5.890   2.688
54936SOL     OW64831   9.349   6.663   2.162
54936SOL    HW164832   9.448   6.652   2.153
54936SOL    HW264833   9.309   6.577   2.194
54937SOL     OW64834  10.185   7.232   2.199
54937SOL    HW164835  10.108   7.197   2.145
54937SOL    HW264836  10.153   7.303   2.261
54938SOL     OW64837   9.540   6.214   3.837
54938SOL    HW164838   9.447   6.212   3.874
54938SOL    HW264839   9.541   6.175   3.745
54939SOL     OW64840   9.535   5.861   4.720
54939SOL    HW164841   9.570   5.844   4.812
54939SOL    HW264842   9.447   5.816   4.708
54940SOL     OW64843   9.329   5.954   4.371
54940SOL    HW164844   9.247   5.997   4.410
54940SOL    HW264845   9.301   5.881   4.308
54941SOL     OW64846   9.879   6.861   4.889
54941SOL    HW164847   9.786   6.854   4.852
54941SOL    HW264848   9.890   6.950   4.933
54942SOL     OW64849  10.865   7.097   4.427
54942SOL    HW164850  10.808   7.081   4.508
54942SOL    HW264851  10.806   7.107   4.347
54943SOL     OW64852  10.445   6.289   4.441
54943SOL    HW164853  10.502   6.367   4.416
54943SOL    HW264854  10.385   6.315   4.517
54944SOL     OW64855  11.065   6.193   3.955
54944SOL    HW164856  11.053   6.180   3.856
54944SOL    HW264857  11.035   6.112   4.004
54945SOL     OW64858  10.078   6.730   4.747
54945SOL    HW164859  10.000   6.747   4.807
54945SOL    HW264860  10.112   6.817   4.711
54946SOL     OW64861  10.160   6.384   5.547
54946SOL    HW164862  10.156   6.460   5.612
54946SOL    HW264863  10.182   6.420   5.456
54947SOL     OW64864   9.995   6.598   4.389
54947SOL    HW164865  10.064   6.582   4.459
54947SOL    HW264866   9.922   6.655   4.427
54948SOL     OW64867   9.996   6.747   5.527
54948SOL    HW164868  10.056   6.826   5.541
54948SOL    HW264869   9.910   6.778   5.486
54949SOL     OW64870   9.645   7.021   4.785
54949SOL    HW164871   9.567   6.990   4.732
54949SOL    HW264872   9.703   7.079   4.728
54950SOL     OW64873  10.770   7.091   5.063
54950SOL    HW164874  10.794   7.185   5.089
54950SOL    HW264875  10.754   7.037   5.145
54951SOL     OW64876   9.748   5.978   5.223
54951SOL    HW164877   9.830   5.922   5.232
54951SOL    HW264878   9.667   5.920   5.227
54952SOL     OW64879  10.913   6.033   4.461
54952SOL    HW164880  10.839   6.079   4.411
54952SOL    HW264881  10.964   6.101   4.514
54953SOL     OW64882   9.541   7.299   4.207
54953SOL    HW164883   9.575   7.376   4.261
54953SOL    HW264884   9.585   7.299   4.117
54954SOL     OW64885  10.437   6.927   5.414
54954SOL    HW164886  10.484   6.927   5.502
54954SOL    HW264887  10.389   6.840   5.403
54955SOL     OW64888   9.540   7.020   4.262
54955SOL    HW164889   9.514   7.116   4.262
54955SOL    HW264890   9.469   6.966   4.307
54956SOL     OW64891   9.550   6.677   4.610
54956SOL    HW164892   9.564   6.593   4.662
54956SOL    HW264893   9.495   6.741   4.665
54957SOL     OW64894   9.930   7.372   5.163
54957SOL    HW164895   9.838   7.355   5.198
54957SOL    HW264896   9.958   7.464   5.189
54958SOL     OW64897   9.916   6.550   3.847
54958SOL    HW164898   9.923   6.634   3.793
54958SOL    HW264899   9.962   6.563   3.935
54959SOL     OW64900  10.904   5.700   5.204
54959SOL    HW164901  10.886   5.767   5.132
54959SOL    HW264902  10.901   5.746   5.293
54960SOL     OW64903   9.432   6.229   4.287
54960SOL    HW164904   9.387   6.141   4.304
54960SOL    HW264905   9.431   6.283   4.371
54961SOL     OW64906  11.152   7.353   4.083
54961SOL    HW164907  11.206   7.324   4.163
54961SOL    HW264908  11.182   7.443   4.054
54962SOL     OW64909   9.337   7.182   3.841
54962SOL    HW164910   9.318   7.086   3.862
54962SOL    HW264911   9.304   7.240   3.916
54963SOL     OW64912  10.999   6.508   4.336
54963SOL    HW164913  11.094   6.479   4.344
54963SOL    HW264914  10.991   6.573   4.261
54964SOL     OW64915  10.951   6.694   4.156
54964SOL    HW164916  11.037   6.696   4.104
54964SOL    HW264917  10.965   6.741   4.244
54965SOL     OW64918   9.423   6.323   5.321
54965SOL    HW164919   9.511   6.310   5.366
54965SOL    HW264920   9.410   6.420   5.299
54966SOL     OW64921   9.923   6.951   4.450
54966SOL    HW164922   9.874   6.864   4.459
54966SOL    HW264923   9.900   6.994   4.363
54967SOL     OW64924  10.603   6.814   5.147
54967SOL    HW164925  10.640   6.741   5.089
54967SOL    HW264926  10.655   6.819   5.232
54968SOL     OW64927  10.119   5.590   4.226
54968SOL    HW164928  10.159   5.681   4.217
54968SOL    HW264929  10.019   5.598   4.232
54969SOL     OW64930   9.507   6.562   4.988
54969SOL    HW164931   9.596   6.517   4.974
54969SOL    HW264932   9.434   6.497   4.969
54970SOL     OW64933  10.835   6.585   3.914
54970SOL    HW164934  10.772   6.509   3.927
54970SOL    HW264935  10.883   6.603   4.000
54971SOL     OW64936  10.497   7.378   5.340
54971SOL    HW164937  10.521   7.438   5.264
54971SOL    HW264938  10.504   7.283   5.310
54972SOL     OW64939   9.627   5.837   5.525
54972SOL    HW164940   9.698   5.908   5.531
54972SOL    HW264941   9.539   5.876   5.553
54973SOL     OW64942  10.776   7.003   4.677
54973SOL    HW164943  10.717   7.009   4.757
54973SOL    HW264944  10.761   6.915   4.631
54974SOL     OW64945  10.977   7.300   4.296
54974SOL    HW164946  10.936   7.277   4.208
54974SOL    HW264947  10.959   7.226   4.361
54975SOL     OW64948   9.908   6.315   3.994
54975SOL    HW164949   9.932   6.384   3.926
54975SOL    HW264950   9.830   6.348   4.048
54976SOL     OW64951  10.591   5.931   4.668
54976SOL    HW164952  10.505   5.881   4.655
54976SOL    HW264953  10.653   5.877   4.724
54977SOL     OW64954  10.886   7.248   4.031
54977SOL    HW164955  10.975   7.294   4.034
54977SOL    HW264956  10.865   7.224   3.936
54978SOL     OW64957  10.117   6.191   5.189
54978SOL    HW164958  10.070   6.188   5.278
54978SOL    HW264959  10.066   6.136   5.123
54979SOL     OW64960  10.704   6.055   5.398
54979SOL    HW164961  10.684   6.098   5.486
54979SOL    HW264962  10.782   5.993   5.407
54980SOL     OW64963  10.283   6.476   5.296
54980SOL    HW164964  10.329   6.392   5.267
54980SOL    HW264965  10.227   6.510   5.221
54981SOL     OW64966  10.301   5.996   4.966
54981SOL    HW164967  10.224   6.030   5.020
54981SOL    HW264968  10.267   5.945   4.887
54982SOL     OW64969  10.351   6.287   4.153
54982SOL    HW164970  10.377   6.283   4.249
54982SOL    HW264971  10.266   6.236   4.139
54983SOL     OW64972   9.386   6.397   4.513
54983SOL    HW164973   9.485   6.385   4.522
54983SOL    HW264974   9.362   6.492   4.534
54984SOL     OW64975   9.440   7.407   5.295
54984SOL    HW164976   9.430   7.392   5.394
54984SOL    HW264977   9.354   7.443   5.259
54985SOL     OW64978  10.175   5.934   3.919
54985SOL    HW164979  10.234   5.997   3.870
54985SOL    HW264980  10.194   5.840   3.890
54986SOL     OW64981  11.029   6.171   5.555
54986SOL    HW164982  11.003   6.260   5.519
54986SOL    HW264983  11.027   6.103   5.482
54987SOL     OW64984  10.672   6.730   4.269
54987SOL    HW164985  10.755   6.701   4.221
54987SOL    HW264986  10.623   6.797   4.213
54988SOL     OW64987   9.860   5.782   4.609
54988SOL    HW164988   9.855   5.777   4.709
54988SOL    HW264989   9.862   5.878   4.580
54989SOL     OW64990  10.318   7.042   4.201
54989SOL    HW164991  10.272   7.114   4.149
54989SOL    HW264992  10.314   7.062   4.299
54990SOL     OW64993   9.661   7.387   4.577
54990SOL    HW164994   9.711   7.301   4.583
54990SOL    HW264995   9.726   7.464   4.574
54991SOL     OW64996  11.105   6.652   4.597
54991SOL    HW164997  11.043   6.637   4.521
54991SOL    HW264998  11.053   6.663   4.682
54992SOL     OW64999  10.537   7.136   5.230
54992SOL    HW165000  10.543   7.059   5.294
54992SOL    HW265001  10.485   7.110   5.150
54993SOL     OW65002   9.631   6.529   3.966
54993SOL    HW165003   9.713   6.568   3.924
54993SOL    HW265004   9.604   6.447   3.917
54994SOL     OW65005  10.768   6.321   4.452
54994SOL    HW165006  10.763   6.256   4.527
54994SOL    HW265007  10.848   6.380   4.465
54995SOL     OW65008   9.771   6.852   5.451
54995SOL    HW165009   9.721   6.853   5.365
54995SOL    HW265010   9.708   6.834   5.527
54996SOL     OW65011  10.421   7.362   3.961
54996SOL    HW165012  10.361   7.300   4.011
54996SOL    HW265013  10.452   7.318   3.876
54997SOL     OW65014   9.512   5.871   5.222
54997SOL    HW165015   9.432   5.931   5.209
54997SOL    HW265016   9.502   5.822   5.308
54998SOL     OW65017  10.942   6.963   3.805
54998SOL    HW165018  10.910   7.057   3.795
54998SOL    HW265019  10.866   6.900   3.793
54999SOL     OW65020   9.774   7.329   4.047
54999SOL    HW165021   9.807   7.368   4.133
54999SOL    HW265022   9.850   7.322   3.982
55000SOL     OW65023  10.710   5.693   4.150
55000SOL    HW165024  10.686   5.656   4.060
55000SOL    HW265025  10.809   5.709   4.154
55001SOL     OW65026   9.559   7.371   4.965
55001SOL    HW165027   9.616   7.306   5.015
55001SOL    HW265028   9.543   7.338   4.872
55002SOL     OW65029  10.250   7.284   4.628
55002SOL    HW165030  10.330   7.227   4.649
55002SOL    HW265031  10.201   7.244   4.551
55003SOL     OW65032   9.692   6.286   4.204
55003SOL    HW165033   9.737   6.196   4.201
55003SOL    HW265034   9.598   6.275   4.237
55004SOL     OW65035  10.857   5.808   5.453
55004SOL    HW165036  10.852   5.845   5.545
55004SOL    HW265037  10.785   5.739   5.441
55005SOL     OW65038   9.924   5.708   3.841
55005SOL    HW165039  10.022   5.686   3.848
55005SOL    HW265040   9.893   5.691   3.748
55006SOL     OW65041  10.091   5.850   5.473
55006SOL    HW165042  10.158   5.789   5.516
55006SOL    HW265043  10.018   5.869   5.538
55007SOL     OW65044  10.198   7.100   4.919
55007SOL    HW165045  10.175   7.075   4.825
55007SOL    HW265046  10.259   7.031   4.958
55008SOL     OW65047  10.661   6.176   5.157
55008SOL    HW165048  10.689   6.133   5.242
55008SOL    HW265049  10.686   6.272   5.158
55009SOL     OW65050  10.113   6.988   4.648
55009SOL    HW165051  10.203   7.002   4.606
55009SOL    HW265052  10.042   6.990   4.577
55010SOL     OW65053  10.232   6.089   4.623
55010SOL    HW165054  10.207   6.080   4.527
55010SOL    HW265055  10.280   6.007   4.654
55011SOL     OW65056   9.849   5.650   4.236
55011SOL    HW165057   9.768   5.651   4.294
55011SOL    HW265058   9.852   5.733   4.181
55012SOL     OW65059  10.744   6.774   3.765
55012SOL    HW165060  10.776   6.698   3.822
55012SOL    HW265061  10.652   6.801   3.795
55013SOL     OW65062   9.607   5.621   3.895
55013SOL    HW165063   9.656   5.705   3.874
55013SOL    HW265064   9.669   5.556   3.940
55014SOL     OW65065  10.245   5.822   4.204
55014SOL    HW165066  10.197   5.863   4.126
55014SOL    HW265067  10.344   5.820   4.185
55015SOL     OW65068  10.386   6.269   5.188
55015SOL    HW165069  10.306   6.208   5.191
55015SOL    HW265070  10.467   6.216   5.164
55016SOL     OW65071  10.537   7.156   4.517
55016SOL    HW165072  10.558   7.230   4.452
55016SOL    HW265073  10.605   7.156   4.590
55017SOL     OW65074   9.769   6.738   4.465
55017SOL    HW165075   9.698   6.711   4.530
55017SOL    HW265076   9.743   6.710   4.372
55018SOL     OW65077  10.581   7.383   4.315
55018SOL    HW165078  10.625   7.447   4.251
55018SOL    HW265079  10.531   7.435   4.385
55019SOL     OW65080  10.342   6.135   3.740
55019SOL    HW165081  10.301   6.217   3.701
55019SOL    HW265082  10.406   6.161   3.813
55020SOL     OW65083   9.388   6.142   5.110
55020SOL    HW165084   9.480   6.141   5.069
55020SOL    HW265085   9.382   6.216   5.177
55021SOL     OW65086   9.871   5.808   4.871
55021SOL    HW165087   9.909   5.724   4.908
55021SOL    HW265088   9.783   5.827   4.915
55022SOL     OW65089  10.176   6.040   4.366
55022SOL    HW165090  10.144   6.112   4.304
55022SOL    HW265091  10.200   5.959   4.313
55023SOL     OW65092  10.327   5.625   4.477
55023SOL    HW165093  10.255   5.630   4.408
55023SOL    HW265094  10.303   5.556   4.546
55024SOL     OW65095  10.739   6.759   4.591
55024SOL    HW165096  10.684   6.675   4.584
55024SOL    HW265097  10.765   6.788   4.499
55025SOL     OW65098  10.776   6.176   4.716
55025SOL    HW165099  10.746   6.081   4.723
55025SOL    HW265100  10.849   6.192   4.782
55026SOL     OW65101  11.167   6.419   4.101
55026SOL    HW165102  11.209   6.355   4.165
55026SOL    HW265103  11.129   6.368   4.023
55027SOL     OW65104   9.798   6.971   3.898
55027SOL    HW165105   9.711   6.956   3.945
55027SOL    HW265106   9.781   6.997   3.803
55028SOL     OW65107  10.974   6.866   4.381
55028SOL    HW165108  11.073   6.874   4.395
55028SOL    HW265109  10.929   6.950   4.412
55029SOL     OW65110  10.700   6.161   3.802
55029SOL    HW165111  10.646   6.140   3.883
55029SOL    HW265112  10.791   6.120   3.811
55030SOL     OW65113   9.837   5.842   4.052
55030SOL    HW165114   9.864   5.783   3.977
55030SOL    HW265115   9.837   5.937   4.021
55031SOL     OW65116  11.064   6.809   5.312
55031SOL    HW165117  11.155   6.770   5.299
55031SOL    HW265118  11.072   6.905   5.336
55032SOL     OW65119  10.374   6.933   5.064
55032SOL    HW165120  10.294   6.910   5.119
55032SOL    HW265121  10.457   6.907   5.113
55033SOL     OW65122  10.902   7.215   5.349
55033SOL    HW165123  10.929   7.249   5.259
55033SOL    HW265124  10.981   7.177   5.395
55034SOL     OW65125  10.421   6.781   4.824
55034SOL    HW165126  10.381   6.825   4.905
55034SOL    HW265127  10.380   6.818   4.741
55035SOL     OW65128  10.948   6.685   4.803
55035SOL    HW165129  10.953   6.766   4.862
55035SOL    HW265130  10.862   6.687   4.752
55036SOL     OW65131  10.225   5.675   5.126
55036SOL    HW165132  10.250   5.655   5.031
55036SOL    HW265133  10.297   5.731   5.168
55037SOL     OW65134  10.290   6.702   5.443
55037SOL    HW165135  10.191   6.708   5.453
55037SOL    HW265136  10.313   6.622   5.387
55038SOL     OW65137  10.015   6.636   4.092
55038SOL    HW165138  10.001   6.643   4.191
55038SOL    HW265139  10.099   6.585   4.074
55039SOL     OW65140   9.720   6.399   4.975
55039SOL    HW165141   9.806   6.411   5.025
55039SOL    HW265142   9.678   6.312   5.002
55040SOL     OW65143  10.584   5.972   4.986
55040SOL    HW165144  10.605   6.046   5.050
55040SOL    HW265145  10.495   5.989   4.943
55041SOL     OW65146   9.374   7.150   5.055
55041SOL    HW165147   9.328   7.232   5.021
55041SOL    HW265148   9.472   7.169   5.064
55042SOL     OW65149   9.677   6.686   4.225
55042SOL    HW165150   9.670   6.769   4.169
55042SOL    HW265151   9.681   6.606   4.165
55043SOL     OW65152   9.876   6.123   4.589
55043SOL    HW165153   9.888   6.189   4.515
55043SOL    HW265154   9.922   6.157   4.672
55044SOL     OW65155  10.562   6.934   4.112
55044SOL    HW165156  10.612   7.011   4.152
55044SOL    HW265157  10.467   6.936   4.144
55045SOL     OW65158  10.582   7.031   4.866
55045SOL    HW165159  10.629   7.044   4.953
55045SOL    HW265160  10.516   6.957   4.875
55046SOL     OW65161  10.892   6.225   4.196
55046SOL    HW165162  10.861   6.286   4.269
55046SOL    HW265163  10.942   6.277   4.127
55047SOL     OW65164   9.664   7.096   5.053
55047SOL    HW165165   9.643   7.052   4.966
55047SOL    HW265166   9.761   7.122   5.056
55048SOL     OW65167   9.712   6.337   5.322
55048SOL    HW165168   9.780   6.392   5.275
55048SOL    HW265169   9.752   6.249   5.349
55049SOL     OW65170  10.897   6.365   5.394
55049SOL    HW165171  10.805   6.403   5.389
55049SOL    HW265172  10.957   6.412   5.329
55050SOL     OW65173  10.323   5.691   5.494
55050SOL    HW165174  10.329   5.776   5.442
55050SOL    HW265175  10.355   5.615   5.437
55051SOL     OW65176   9.814   5.636   5.464
55051SOL    HW165177   9.772   5.579   5.394
55051SOL    HW265178   9.748   5.705   5.496
55052SOL     OW65179   9.883   6.456   4.753
55052SOL    HW165180   9.927   6.545   4.744
55052SOL    HW265181   9.820   6.456   4.830
55053SOL     OW65182  10.670   6.448   4.769
55053SOL    HW165183  10.595   6.448   4.703
55053SOL    HW265184  10.707   6.356   4.778
55054SOL     OW65185  10.519   6.111   3.999
55054SOL    HW165186  10.532   6.027   4.053
55054SOL    HW265187  10.490   6.185   4.059
55055SOL     OW65188   9.617   5.799   4.955
55055SOL    HW165189   9.594   5.836   5.045
55055SOL    HW265190   9.587   5.704   4.949
55056SOL     OW65191   9.347   6.896   5.006
55056SOL    HW165192   9.400   6.847   5.074
55056SOL    HW265193   9.369   6.994   5.011
55057SOL     OW65194  10.042   6.220   4.788
55057SOL    HW165195  10.101   6.194   4.712
55057SOL    HW265196  10.014   6.316   4.777
55058SOL     OW65197  11.038   6.521   5.578
55058SOL    HW165198  10.992   6.514   5.489
55058SOL    HW265199  10.976   6.565   5.644
55059SOL     OW65200   9.617   5.649   4.342
55059SOL    HW165201   9.606   5.743   4.375
55059SOL    HW265202   9.612   5.586   4.419
55060SOL     OW65203  10.932   5.953   4.098
55060SOL    HW165204  10.934   5.877   4.162
55060SOL    HW265205  10.884   6.030   4.138
55061SOL     OW65206  10.333   6.352   4.690
55061SOL    HW165207  10.348   6.373   4.786
55061SOL    HW265208  10.303   6.257   4.681
55062SOL     OW65209  10.290   7.159   5.424
55062SOL    HW165210  10.270   7.203   5.336
55062SOL    HW265211  10.329   7.068   5.408
55063SOL     OW65212  11.169   7.104   5.329
55063SOL    HW165213  11.183   7.131   5.234
55063SOL    HW265214  11.252   7.126   5.382
55064SOL     OW65215   9.660   6.484   5.528
55064SOL    HW165216   9.736   6.528   5.576
55064SOL    HW265217   9.695   6.437   5.446
55065SOL     OW65218  10.850   5.860   3.849
55065SOL    HW165219  10.789   5.785   3.872
55065SOL    HW265220  10.872   5.912   3.932
55066SOL     OW65221  10.613   6.424   3.766
55066SOL    HW165222  10.647   6.331   3.781
55066SOL    HW265223  10.631   6.451   3.671
55067SOL     OW65224  10.378   6.919   4.573
55067SOL    HW165225  10.385   6.835   4.518
55067SOL    HW265226  10.440   6.988   4.537
55068SOL     OW65227   9.629   6.396   4.673
55068SOL    HW165228   9.722   6.432   4.678
55068SOL    HW265229   9.623   6.311   4.725
55069SOL     OW65230   9.649   6.095   4.730
55069SOL    HW165231   9.597   6.012   4.713
55069SOL    HW265232   9.726   6.100   4.666
55070SOL     OW65233  10.448   5.966   5.402
55070SOL    HW165234  10.403   6.029   5.466
55070SOL    HW265235  10.541   5.997   5.385
55071SOL     OW65236  10.470   5.793   5.201
55071SOL    HW165237  10.470   5.857   5.278
55071SOL    HW265238  10.498   5.841   5.118
55072SOL     OW65239   9.318   6.912   3.924
55072SOL    HW165240   9.225   6.933   3.893
55072SOL    HW265241   9.328   6.813   3.937
55073SOL     OW65242   9.398   7.387   4.651
55073SOL    HW165243   9.356   7.301   4.624
55073SOL    HW265244   9.492   7.390   4.617
55074SOL     OW65245   9.814   7.154   4.634
55074SOL    HW165246   9.880   7.228   4.643
55074SOL    HW265247   9.858   7.075   4.592
55075SOL     OW65248  10.312   6.382   4.962
55075SOL    HW165249  10.353   6.350   5.048
55075SOL    HW265250  10.216   6.355   4.959
55076SOL     OW65251   9.350   6.130   4.838
55076SOL    HW165252   9.435   6.097   4.797
55076SOL    HW265253   9.363   6.145   4.936
55077SOL     OW65254   9.499   6.106   5.446
55077SOL    HW165255   9.558   6.066   5.376
55077SOL    HW265256   9.441   6.177   5.405
55078SOL     OW65257  10.679   6.536   5.384
55078SOL    HW165258  10.718   6.625   5.404
55078SOL    HW265259  10.689   6.516   5.287
55079SOL     OW65260  10.125   6.158   4.049
55079SOL    HW165261  10.132   6.069   4.003
55079SOL    HW265262  10.031   6.192   4.041
55080SOL     OW65263  10.967   6.190   4.930
55080SOL    HW165264  10.929   6.121   4.992
55080SOL    HW265265  11.049   6.154   4.886
55081SOL     OW65266   9.562   7.150   5.468
55081SOL    HW165267   9.532   7.207   5.544
55081SOL    HW265268   9.555   7.053   5.494
55082SOL     OW65269   9.981   6.050   4.993
55082SOL    HW165270   9.947   5.961   4.963
55082SOL    HW265271  10.007   6.104   4.913
55083SOL     OW65272  10.240   7.264   5.189
55083SOL    HW165273  10.216   7.246   5.094
55083SOL    HW265274  10.270   7.358   5.199
55084SOL     OW65275   9.783   6.086   3.915
55084SOL    HW165276   9.844   6.166   3.919
55084SOL    HW265277   9.688   6.117   3.922
55085SOL     OW65278   9.469   6.723   5.190
55085SOL    HW165279   9.491   6.662   5.266
55085SOL    HW265280   9.479   6.674   5.104
55086SOL     OW65281  10.657   6.645   4.958
55086SOL    HW165282  10.681   6.582   4.884
55086SOL    HW265283  10.567   6.685   4.940
55087SOL     OW65284  10.612   6.441   4.033
55087SOL    HW165285  10.526   6.410   4.075
55087SOL    HW265286  10.608   6.427   3.934
55088SOL     OW65287  11.069   7.333   4.878
55088SOL    HW165288  11.130   7.363   4.805
55088SOL    HW265289  11.031   7.244   4.856
55089SOL     OW65290  10.562   7.317   4.852
55089SOL    HW165291  10.646   7.322   4.798
55089SOL    HW265292  10.539   7.221   4.870
55090SOL     OW65293   9.393   6.844   4.746
55090SOL    HW165294   9.388   6.843   4.846
55090SOL    HW265295   9.310   6.803   4.708
55091SOL     OW65296   9.998   7.248   5.440
55091SOL    HW165297   9.942   7.329   5.449
55091SOL    HW265298  10.050   7.252   5.354
55092SOL     OW65299  11.036   5.721   4.247
55092SOL    HW165300  11.109   5.704   4.180
55092SOL    HW265301  11.005   5.634   4.285
55093SOL     OW65302  10.698   7.159   4.201
55093SOL    HW165303  10.765   7.171   4.127
55093SOL    HW265304  10.658   7.248   4.224
55094SOL     OW65305   9.440   7.380   5.575
55094SOL    HW165306   9.399   7.306   5.628
55094SOL    HW265307   9.504   7.431   5.633
55095SOL     OW65308  10.590   6.513   4.396
55095SOL    HW165309  10.650   6.432   4.398
55095SOL    HW265310  10.630   6.582   4.336
55096SOL     OW65311  10.140   6.859   5.146
55096SOL    HW165312  10.135   6.892   5.241
55096SOL    HW265313  10.054   6.878   5.100
55097SOL     OW65314   9.982   7.202   3.878
55097SOL    HW165315   9.991   7.212   3.779
55097SOL    HW265316   9.942   7.113   3.899
55098SOL     OW65317  10.960   7.306   5.118
55098SOL    HW165318  11.013   7.316   5.034
55098SOL    HW265319  10.933   7.396   5.152
55099SOL     OW65320  11.151   5.761   4.687
55099SOL    HW165321  11.190   5.676   4.651
55099SOL    HW265322  11.053   5.763   4.668
55100SOL     OW65323   9.573   5.912   4.444
55100SOL    HW165324   9.494   5.963   4.410
55100SOL    HW265325   9.564   5.897   4.542
55101SOL     OW65326  10.504   7.198   3.755
55101SOL    HW165327  10.510   7.105   3.792
55101SOL    HW265328  10.445   7.198   3.675
55102SOL     OW65329  10.132   6.588   5.096
55102SOL    HW165330  10.172   6.587   5.004
55102SOL    HW265331  10.142   6.680   5.136
55103SOL     OW65332  10.226   6.496   4.015
55103SOL    HW165333  10.289   6.534   3.947
55103SOL    HW265334  10.266   6.413   4.054
55104SOL     OW65335  10.814   7.193   3.768
55104SOL    HW165336  10.722   7.230   3.775
55104SOL    HW265337  10.852   7.213   3.678
55105SOL     OW65338   9.682   6.874   5.214
55105SOL    HW165339   9.669   6.967   5.180
55105SOL    HW265340   9.598   6.822   5.201
55106SOL     OW65341  10.924   6.878   5.013
55106SOL    HW165342  10.984   6.881   5.093
55106SOL    HW265343  10.849   6.942   5.026
55107SOL     OW65344  10.349   6.684   4.420
55107SOL    HW165345  10.279   6.637   4.474
55107SOL    HW265346  10.408   6.616   4.377
55108SOL     OW65347  10.324   5.822   4.695
55108SOL    HW165348  10.316   5.786   4.602
55108SOL    HW265349  10.322   5.746   4.760
55109SOL     OW65350   9.900   7.073   4.215
55109SOL    HW165351   9.942   7.015   4.145
55109SOL    HW265352   9.856   7.152   4.171
55110SOL     OW65353  11.019   5.971   5.105
55110SOL    HW165354  11.092   6.040   5.109
55110SOL    HW265355  11.047   5.896   5.046
55111SOL     OW65356   9.565   6.934   4.014
55111SOL    HW165357   9.469   6.935   3.987
55111SOL    HW265358   9.577   6.987   4.098
55112SOL     OW65359   9.415   6.599   5.450
55112SOL    HW165360   9.338   6.566   5.504
55112SOL    HW265361   9.500   6.569   5.492
55113SOL     OW65362   9.982   5.789   5.213
55113SOL    HW165363  10.072   5.773   5.173
55113SOL    HW265364   9.990   5.794   5.312
55114SOL     OW65365   9.385   5.931   3.757
55114SOL    HW165366   9.293   5.903   3.728
55114SOL    HW265367   9.416   6.008   3.701
55115SOL     OW65368  10.750   6.442   5.122
55115SOL    HW165369  10.693   6.494   5.059
55115SOL    HW265370  10.846   6.454   5.098
55116SOL     OW65371   9.382   5.752   4.042
55116SOL    HW165372   9.365   5.835   3.988
55116SOL    HW265373   9.472   5.715   4.020
55117SOL     OW65374  10.493   6.921   3.843
55117SOL    HW165375  10.394   6.910   3.845
55117SOL    HW265376  10.527   6.936   3.936
55118SOL     OW65377   9.923   6.428   5.155
55118SOL    HW165378   9.979   6.509   5.138
55118SOL    HW265379   9.982   6.348   5.158
55119SOL     OW65380  10.803   7.353   4.683
55119SOL    HW165381  10.836   7.417   4.614
55119SOL    HW265382  10.869   7.347   4.758
55120SOL     OW65383  10.026   6.151   5.432
55120SOL    HW165384  10.045   6.216   5.506
55120SOL    HW265385  10.086   6.071   5.441
55121SOL     OW65386  10.760   6.806   5.357
55121SOL    HW165387  10.751   6.796   5.456
55121SOL    HW265388  10.856   6.799   5.331
55122SOL     OW65389   9.700   7.327   5.284
55122SOL    HW165390   9.609   7.368   5.282
55122SOL    HW265391   9.693   7.233   5.316
55123SOL     OW65392  10.984   6.469   4.978
55123SOL    HW165393  10.957   6.380   4.941
55123SOL    HW265394  10.985   6.537   4.905
55124SOL     OW65395  10.535   5.911   4.173
55124SOL    HW165396  10.600   5.837   4.162
55124SOL    HW265397  10.555   5.961   4.257
55125SOL     OW65398   9.904   6.331   4.376
55125SOL    HW165399   9.954   6.416   4.357
55125SOL    HW265400   9.816   6.333   4.328
55126SOL     OW65401  11.087   5.928   5.366
55126SOL    HW165402  11.070   5.959   5.272
55126SOL    HW265403  11.003   5.891   5.404
55127SOL     OW65404  11.040   6.520   5.241
55127SOL    HW165405  11.078   6.611   5.256
55127SOL    HW265406  11.032   6.503   5.142
55128SOL     OW65407  10.169   6.960   3.740
55128SOL    HW165408  10.123   6.975   3.828
55128SOL    HW265409  10.213   7.045   3.710
55129SOL     OW65410   9.971   7.376   4.677
55129SOL    HW165411   9.925   7.464   4.664
55129SOL    HW265412  10.070   7.388   4.670
55130SOL     OW65413  10.169   6.542   4.585
55130SOL    HW165414  10.223   6.473   4.633
55130SOL    HW265415  10.137   6.611   4.651
55131SOL     OW65416  10.393   6.570   3.811
55131SOL    HW165417  10.370   6.623   3.729
55131SOL    HW265418  10.474   6.514   3.792
55132SOL     OW65419  11.171   7.155   4.575
55132SOL    HW165420  11.100   7.143   4.505
55132SOL    HW265421  11.172   7.076   4.635
55133SOL     OW65422   9.531   6.900   5.568
55133SOL    HW165423   9.466   6.827   5.547
55133SOL    HW265424   9.535   6.914   5.666
55134SOL     OW65425   9.389   6.826   4.377
55134SOL    HW165426   9.388   6.779   4.465
55134SOL    HW265427   9.471   6.798   4.326
55135SOL     OW65428   9.982   6.977   5.348
55135SOL    HW165429   9.904   6.927   5.386
55135SOL    HW265430   9.979   7.072   5.379
55136SOL     OW65431  11.134   5.778   4.951
55136SOL    HW165432  11.130   5.688   4.995
55136SOL    HW265433  11.137   5.767   4.852
55137SOL     OW65434   9.738   6.010   4.244
55137SOL    HW165435   9.768   5.938   4.182
55137SOL    HW265436   9.699   5.970   4.327
55138SOL     OW65437  11.015   7.073   4.828
55138SOL    HW165438  10.922   7.048   4.801
55138SOL    HW265439  11.041   7.023   4.910
55139SOL     OW65440   9.627   6.133   5.004
55139SOL    HW165441   9.665   6.074   5.076
55139SOL    HW265442   9.667   6.107   4.916
55140SOL     OW65443  10.122   7.172   4.411
55140SOL    HW165444  10.154   7.182   4.317
55140SOL    HW265445  10.043   7.110   4.413
55141SOL     OW65446  10.734   5.800   4.836
55141SOL    HW165447  10.786   5.735   4.891
55141SOL    HW265448  10.685   5.863   4.897
55142SOL     OW65449  10.311   5.620   4.878
55142SOL    HW165450  10.248   5.548   4.847
55142SOL    HW265451  10.404   5.584   4.878
55143SOL     OW65452  10.080   6.916   4.025
55143SOL    HW165453  10.034   6.829   4.042
55143SOL    HW265454  10.171   6.913   4.066
55144SOL     OW65455   9.928   7.153   5.008
55144SOL    HW165456   9.923   7.235   5.065
55144SOL    HW265457  10.017   7.150   4.963
55145SOL     OW65458  10.662   5.638   3.892
55145SOL    HW165459  10.697   5.597   3.808
55145SOL    HW265460  10.572   5.600   3.912
55146SOL     OW65461  10.610   6.039   4.415
55146SOL    HW165462  10.551   6.119   4.419
55146SOL    HW265463  10.625   6.004   4.508
55147SOL     OW65464  10.903   5.807   4.606
55147SOL    HW165465  10.819   5.806   4.660
55147SOL    HW265466  10.905   5.890   4.550
55148SOL     OW65467   9.349   6.663   4.024
55148SOL    HW165468   9.448   6.652   4.015
55148SOL    HW265469   9.309   6.577   4.056
55149SOL     OW65470  10.185   7.232   4.061
55149SOL    HW165471  10.108   7.197   4.007
55149SOL    HW265472  10.153   7.303   4.123
55150SOL     OW65473   9.540   6.214   5.699
55150SOL    HW165474   9.447   6.212   5.736
55150SOL    HW265475   9.541   6.175   5.607
55151SOL     OW65476   9.535   5.861   6.582
55151SOL    HW165477   9.570   5.844   6.674
55151SOL    HW265478   9.447   5.816   6.570
55152SOL     OW65479   9.329   5.954   6.233
55152SOL    HW165480   9.247   5.997   6.272
55152SOL    HW265481   9.301   5.881   6.170
55153SOL     OW65482   9.879   6.861   6.751
55153SOL    HW165483   9.786   6.854   6.714
55153SOL    HW265484   9.890   6.950   6.795
55154SOL     OW65485  10.865   7.097   6.289
55154SOL    HW165486  10.808   7.081   6.370
55154SOL    HW265487  10.806   7.107   6.209
55155SOL     OW65488  10.445   6.289   6.303
55155SOL    HW165489  10.502   6.367   6.278
55155SOL    HW265490  10.385   6.315   6.379
55156SOL     OW65491  11.065   6.193   5.817
55156SOL    HW165492  11.053   6.180   5.718
55156SOL    HW265493  11.035   6.112   5.866
55157SOL     OW65494  10.078   6.730   6.609
55157SOL    HW165495  10.000   6.747   6.669
55157SOL    HW265496  10.112   6.817   6.573
55158SOL     OW65497  10.160   6.384   7.409
55158SOL    HW165498  10.156   6.460   7.474
55158SOL    HW265499  10.182   6.420   7.318
55159SOL     OW65500   9.995   6.598   6.251
55159SOL    HW165501  10.064   6.582   6.321
55159SOL    HW265502   9.922   6.655   6.289
55160SOL     OW65503   9.996   6.747   7.389
55160SOL    HW165504  10.056   6.826   7.403
55160SOL    HW265505   9.910   6.778   7.348
55161SOL     OW65506   9.645   7.021   6.647
55161SOL    HW165507   9.567   6.990   6.594
55161SOL    HW265508   9.703   7.079   6.590
55162SOL     OW65509  10.770   7.091   6.925
55162SOL    HW165510  10.794   7.185   6.951
55162SOL    HW265511  10.754   7.037   7.007
55163SOL     OW65512   9.748   5.978   7.085
55163SOL    HW165513   9.830   5.922   7.094
55163SOL    HW265514   9.667   5.920   7.089
55164SOL     OW65515  10.913   6.033   6.323
55164SOL    HW165516  10.839   6.079   6.273
55164SOL    HW265517  10.964   6.101   6.376
55165SOL     OW65518   9.541   7.299   6.069
55165SOL    HW165519   9.575   7.376   6.123
55165SOL    HW265520   9.585   7.299   5.979
55166SOL     OW65521  10.437   6.927   7.276
55166SOL    HW165522  10.484   6.927   7.364
55166SOL    HW265523  10.389   6.840   7.265
55167SOL     OW65524   9.540   7.020   6.124
55167SOL    HW165525   9.514   7.116   6.124
55167SOL    HW265526   9.469   6.966   6.169
55168SOL     OW65527   9.550   6.677   6.472
55168SOL    HW165528   9.564   6.593   6.524
55168SOL    HW265529   9.495   6.741   6.527
55169SOL     OW65530   9.930   7.372   7.025
55169SOL    HW165531   9.838   7.355   7.060
55169SOL    HW265532   9.958   7.464   7.051
55170SOL     OW65533   9.916   6.550   5.709
55170SOL    HW165534   9.923   6.634   5.655
55170SOL    HW265535   9.962   6.563   5.797
55171SOL     OW65536  10.904   5.700   7.066
55171SOL    HW165537  10.886   5.767   6.994
55171SOL    HW265538  10.901   5.746   7.155
55172SOL     OW65539   9.432   6.229   6.149
55172SOL    HW165540   9.387   6.141   6.166
55172SOL    HW265541   9.431   6.283   6.233
55173SOL     OW65542  11.152   7.353   5.945
55173SOL    HW165543  11.206   7.324   6.025
55173SOL    HW265544  11.182   7.443   5.916
55174SOL     OW65545   9.337   7.182   5.703
55174SOL    HW165546   9.318   7.086   5.724
55174SOL    HW265547   9.304   7.240   5.778
55175SOL     OW65548  10.999   6.508   6.198
55175SOL    HW165549  11.094   6.479   6.206
55175SOL    HW265550  10.991   6.573   6.123
55176SOL     OW65551  10.951   6.694   6.018
55176SOL    HW165552  11.037   6.696   5.966
55176SOL    HW265553  10.965   6.741   6.106
55177SOL     OW65554   9.423   6.323   7.183
55177SOL    HW165555   9.511   6.310   7.228
55177SOL    HW265556   9.410   6.420   7.161
55178SOL     OW65557   9.923   6.951   6.312
55178SOL    HW165558   9.874   6.864   6.321
55178SOL    HW265559   9.900   6.994   6.225
55179SOL     OW65560  10.603   6.814   7.009
55179SOL    HW165561  10.640   6.741   6.951
55179SOL    HW265562  10.655   6.819   7.094
55180SOL     OW65563  10.119   5.590   6.088
55180SOL    HW165564  10.159   5.681   6.079
55180SOL    HW265565  10.019   5.598   6.094
55181SOL     OW65566   9.507   6.562   6.850
55181SOL    HW165567   9.596   6.517   6.836
55181SOL    HW265568   9.434   6.497   6.831
55182SOL     OW65569  10.835   6.585   5.776
55182SOL    HW165570  10.772   6.509   5.789
55182SOL    HW265571  10.883   6.603   5.862
55183SOL     OW65572  10.497   7.378   7.202
55183SOL    HW165573  10.521   7.438   7.126
55183SOL    HW265574  10.504   7.283   7.172
55184SOL     OW65575   9.627   5.837   7.387
55184SOL    HW165576   9.698   5.908   7.393
55184SOL    HW265577   9.539   5.876   7.415
55185SOL     OW65578  10.776   7.003   6.539
55185SOL    HW165579  10.717   7.009   6.619
55185SOL    HW265580  10.761   6.915   6.493
55186SOL     OW65581  10.977   7.300   6.158
55186SOL    HW165582  10.936   7.277   6.070
55186SOL    HW265583  10.959   7.226   6.223
55187SOL     OW65584   9.908   6.315   5.856
55187SOL    HW165585   9.932   6.384   5.788
55187SOL    HW265586   9.830   6.348   5.910
55188SOL     OW65587  10.591   5.931   6.530
55188SOL    HW165588  10.505   5.881   6.517
55188SOL    HW265589  10.653   5.877   6.586
55189SOL     OW65590  10.886   7.248   5.893
55189SOL    HW165591  10.975   7.294   5.896
55189SOL    HW265592  10.865   7.224   5.798
55190SOL     OW65593  10.117   6.191   7.051
55190SOL    HW165594  10.070   6.188   7.140
55190SOL    HW265595  10.066   6.136   6.985
55191SOL     OW65596  10.704   6.055   7.260
55191SOL    HW165597  10.684   6.098   7.348
55191SOL    HW265598  10.782   5.993   7.269
55192SOL     OW65599  10.283   6.476   7.158
55192SOL    HW165600  10.329   6.392   7.129
55192SOL    HW265601  10.227   6.510   7.083
55193SOL     OW65602  10.301   5.996   6.828
55193SOL    HW165603  10.224   6.030   6.882
55193SOL    HW265604  10.267   5.945   6.749
55194SOL     OW65605  10.351   6.287   6.015
55194SOL    HW165606  10.377   6.283   6.111
55194SOL    HW265607  10.266   6.236   6.001
55195SOL     OW65608   9.386   6.397   6.375
55195SOL    HW165609   9.485   6.385   6.384
55195SOL    HW265610   9.362   6.492   6.396
55196SOL     OW65611   9.440   7.407   7.157
55196SOL    HW165612   9.430   7.392   7.256
55196SOL    HW265613   9.354   7.443   7.121
55197SOL     OW65614  10.175   5.934   5.781
55197SOL    HW165615  10.234   5.997   5.732
55197SOL    HW265616  10.194   5.840   5.752
55198SOL     OW65617  11.029   6.171   7.417
55198SOL    HW165618  11.003   6.260   7.381
55198SOL    HW265619  11.027   6.103   7.344
55199SOL     OW65620  10.672   6.730   6.131
55199SOL    HW165621  10.755   6.701   6.083
55199SOL    HW265622  10.623   6.797   6.075
55200SOL     OW65623   9.860   5.782   6.471
55200SOL    HW165624   9.855   5.777   6.571
55200SOL    HW265625   9.862   5.878   6.442
55201SOL     OW65626  10.318   7.042   6.063
55201SOL    HW165627  10.272   7.114   6.011
55201SOL    HW265628  10.314   7.062   6.161
55202SOL     OW65629   9.661   7.387   6.439
55202SOL    HW165630   9.711   7.301   6.445
55202SOL    HW265631   9.726   7.464   6.436
55203SOL     OW65632  11.105   6.652   6.459
55203SOL    HW165633  11.043   6.637   6.383
55203SOL    HW265634  11.053   6.663   6.544
55204SOL     OW65635  10.537   7.136   7.092
55204SOL    HW165636  10.543   7.059   7.156
55204SOL    HW265637  10.485   7.110   7.012
55205SOL     OW65638   9.631   6.529   5.828
55205SOL    HW165639   9.713   6.568   5.786
55205SOL    HW265640   9.604   6.447   5.779
55206SOL     OW65641  10.768   6.321   6.314
55206SOL    HW165642  10.763   6.256   6.389
55206SOL    HW265643  10.848   6.380   6.327
55207SOL     OW65644   9.771   6.852   7.313
55207SOL    HW165645   9.721   6.853   7.227
55207SOL    HW265646   9.708   6.834   7.389
55208SOL     OW65647  10.421   7.362   5.823
55208SOL    HW165648  10.361   7.300   5.873
55208SOL    HW265649  10.452   7.318   5.738
55209SOL     OW65650   9.512   5.871   7.084
55209SOL    HW165651   9.432   5.931   7.071
55209SOL    HW265652   9.502   5.822   7.170
55210SOL     OW65653  10.942   6.963   5.667
55210SOL    HW165654  10.910   7.057   5.657
55210SOL    HW265655  10.866   6.900   5.655
55211SOL     OW65656   9.774   7.329   5.909
55211SOL    HW165657   9.807   7.368   5.995
55211SOL    HW265658   9.850   7.322   5.844
55212SOL     OW65659  10.710   5.693   6.012
55212SOL    HW165660  10.686   5.656   5.922
55212SOL    HW265661  10.809   5.709   6.016
55213SOL     OW65662   9.559   7.371   6.827
55213SOL    HW165663   9.616   7.306   6.877
55213SOL    HW265664   9.543   7.338   6.734
55214SOL     OW65665  10.250   7.284   6.490
55214SOL    HW165666  10.330   7.227   6.511
55214SOL    HW265667  10.201   7.244   6.413
55215SOL     OW65668   9.692   6.286   6.066
55215SOL    HW165669   9.737   6.196   6.063
55215SOL    HW265670   9.598   6.275   6.099
55216SOL     OW65671  10.857   5.808   7.315
55216SOL    HW165672  10.852   5.845   7.407
55216SOL    HW265673  10.785   5.739   7.303
55217SOL     OW65674   9.924   5.708   5.703
55217SOL    HW165675  10.022   5.686   5.710
55217SOL    HW265676   9.893   5.691   5.610
55218SOL     OW65677  10.091   5.850   7.335
55218SOL    HW165678  10.158   5.789   7.378
55218SOL    HW265679  10.018   5.869   7.400
55219SOL     OW65680  10.198   7.100   6.781
55219SOL    HW165681  10.175   7.075   6.687
55219SOL    HW265682  10.259   7.031   6.820
55220SOL     OW65683  10.661   6.176   7.019
55220SOL    HW165684  10.689   6.133   7.104
55220SOL    HW265685  10.686   6.272   7.020
55221SOL     OW65686  10.113   6.988   6.510
55221SOL    HW165687  10.203   7.002   6.468
55221SOL    HW265688  10.042   6.990   6.439
55222SOL     OW65689  10.232   6.089   6.485
55222SOL    HW165690  10.207   6.080   6.389
55222SOL    HW265691  10.280   6.007   6.516
55223SOL     OW65692   9.849   5.650   6.098
55223SOL    HW165693   9.768   5.651   6.156
55223SOL    HW265694   9.852   5.733   6.043
55224SOL     OW65695  10.744   6.774   5.627
55224SOL    HW165696  10.776   6.698   5.684
55224SOL    HW265697  10.652   6.801   5.657
55225SOL     OW65698   9.607   5.621   5.757
55225SOL    HW165699   9.656   5.705   5.736
55225SOL    HW265700   9.669   5.556   5.802
55226SOL     OW65701  10.245   5.822   6.066
55226SOL    HW165702  10.197   5.863   5.988
55226SOL    HW265703  10.344   5.820   6.047
55227SOL     OW65704  10.386   6.269   7.050
55227SOL    HW165705  10.306   6.208   7.053
55227SOL    HW265706  10.467   6.216   7.026
55228SOL     OW65707  10.537   7.156   6.379
55228SOL    HW165708  10.558   7.230   6.314
55228SOL    HW265709  10.605   7.156   6.452
55229SOL     OW65710   9.769   6.738   6.327
55229SOL    HW165711   9.698   6.711   6.392
55229SOL    HW265712   9.743   6.710   6.234
55230SOL     OW65713  10.581   7.383   6.177
55230SOL    HW165714  10.625   7.447   6.113
55230SOL    HW265715  10.531   7.435   6.247
55231SOL     OW65716  10.342   6.135   5.602
55231SOL    HW165717  10.301   6.217   5.563
55231SOL    HW265718  10.406   6.161   5.675
55232SOL     OW65719   9.388   6.142   6.972
55232SOL    HW165720   9.480   6.141   6.931
55232SOL    HW265721   9.382   6.216   7.039
55233SOL     OW65722   9.871   5.808   6.733
55233SOL    HW165723   9.909   5.724   6.770
55233SOL    HW265724   9.783   5.827   6.777
55234SOL     OW65725  10.176   6.040   6.228
55234SOL    HW165726  10.144   6.112   6.166
55234SOL    HW265727  10.200   5.959   6.175
55235SOL     OW65728  10.327   5.625   6.339
55235SOL    HW165729  10.255   5.630   6.270
55235SOL    HW265730  10.303   5.556   6.408
55236SOL     OW65731  10.739   6.759   6.453
55236SOL    HW165732  10.684   6.675   6.446
55236SOL    HW265733  10.765   6.788   6.361
55237SOL     OW65734  10.776   6.176   6.578
55237SOL    HW165735  10.746   6.081   6.585
55237SOL    HW265736  10.849   6.192   6.644
55238SOL     OW65737  11.167   6.419   5.963
55238SOL    HW165738  11.209   6.355   6.027
55238SOL    HW265739  11.129   6.368   5.885
55239SOL     OW65740   9.798   6.971   5.760
55239SOL    HW165741   9.711   6.956   5.807
55239SOL    HW265742   9.781   6.997   5.665
55240SOL     OW65743  10.974   6.866   6.243
55240SOL    HW165744  11.073   6.874   6.257
55240SOL    HW265745  10.929   6.950   6.274
55241SOL     OW65746  10.700   6.161   5.664
55241SOL    HW165747  10.646   6.140   5.745
55241SOL    HW265748  10.791   6.120   5.673
55242SOL     OW65749   9.837   5.842   5.914
55242SOL    HW165750   9.864   5.783   5.839
55242SOL    HW265751   9.837   5.937   5.883
55243SOL     OW65752  11.064   6.809   7.174
55243SOL    HW165753  11.155   6.770   7.161
55243SOL    HW265754  11.072   6.905   7.198
55244SOL     OW65755  10.374   6.933   6.926
55244SOL    HW165756  10.294   6.910   6.981
55244SOL    HW265757  10.457   6.907   6.975
55245SOL     OW65758  10.902   7.215   7.211
55245SOL    HW165759  10.929   7.249   7.121
55245SOL    HW265760  10.981   7.177   7.257
55246SOL     OW65761  10.421   6.781   6.686
55246SOL    HW165762  10.381   6.825   6.767
55246SOL    HW265763  10.380   6.818   6.603
55247SOL     OW65764  10.948   6.685   6.665
55247SOL    HW165765  10.953   6.766   6.724
55247SOL    HW265766  10.862   6.687   6.614
55248SOL     OW65767  10.225   5.675   6.988
55248SOL    HW165768  10.250   5.655   6.893
55248SOL    HW265769  10.297   5.731   7.030
55249SOL     OW65770  10.290   6.702   7.305
55249SOL    HW165771  10.191   6.708   7.315
55249SOL    HW265772  10.313   6.622   7.249
55250SOL     OW65773  10.015   6.636   5.954
55250SOL    HW165774  10.001   6.643   6.053
55250SOL    HW265775  10.099   6.585   5.936
55251SOL     OW65776   9.720   6.399   6.837
55251SOL    HW165777   9.806   6.411   6.887
55251SOL    HW265778   9.678   6.312   6.864
55252SOL     OW65779  10.584   5.972   6.848
55252SOL    HW165780  10.605   6.046   6.912
55252SOL    HW265781  10.495   5.989   6.805
55253SOL     OW65782   9.374   7.150   6.917
55253SOL    HW165783   9.328   7.232   6.883
55253SOL    HW265784   9.472   7.169   6.926
55254SOL     OW65785   9.677   6.686   6.087
55254SOL    HW165786   9.670   6.769   6.031
55254SOL    HW265787   9.681   6.606   6.027
55255SOL     OW65788   9.876   6.123   6.451
55255SOL    HW165789   9.888   6.189   6.377
55255SOL    HW265790   9.922   6.157   6.534
55256SOL     OW65791  10.562   6.934   5.974
55256SOL    HW165792  10.612   7.011   6.014
55256SOL    HW265793  10.467   6.936   6.006
55257SOL     OW65794  10.582   7.031   6.728
55257SOL    HW165795  10.629   7.044   6.815
55257SOL    HW265796  10.516   6.957   6.737
55258SOL     OW65797  10.892   6.225   6.058
55258SOL    HW165798  10.861   6.286   6.131
55258SOL    HW265799  10.942   6.277   5.989
55259SOL     OW65800   9.664   7.096   6.915
55259SOL    HW165801   9.643   7.052   6.828
55259SOL    HW265802   9.761   7.122   6.918
55260SOL     OW65803   9.712   6.337   7.184
55260SOL    HW165804   9.780   6.392   7.137
55260SOL    HW265805   9.752   6.249   7.211
55261SOL     OW65806  10.897   6.365   7.256
55261SOL    HW165807  10.805   6.403   7.251
55261SOL    HW265808  10.957   6.412   7.191
55262SOL     OW65809  10.323   5.691   7.356
55262SOL    HW165810  10.329   5.776   7.304
55262SOL    HW265811  10.355   5.615   7.299
55263SOL     OW65812   9.814   5.636   7.326
55263SOL    HW165813   9.772   5.579   7.256
55263SOL    HW265814   9.748   5.705   7.358
55264SOL     OW65815   9.883   6.456   6.615
55264SOL    HW165816   9.927   6.545   6.606
55264SOL    HW265817   9.820   6.456   6.692
55265SOL     OW65818  10.670   6.448   6.631
55265SOL    HW165819  10.595   6.448   6.565
55265SOL    HW265820  10.707   6.356   6.640
55266SOL     OW65821  10.519   6.111   5.861
55266SOL    HW165822  10.532   6.027   5.915
55266SOL    HW265823  10.490   6.185   5.921
55267SOL     OW65824   9.617   5.799   6.817
55267SOL    HW165825   9.594   5.836   6.907
55267SOL    HW265826   9.587   5.704   6.811
55268SOL     OW65827   9.347   6.896   6.868
55268SOL    HW165828   9.400   6.847   6.936
55268SOL    HW265829   9.369   6.994   6.873
55269SOL     OW65830  10.042   6.220   6.650
55269SOL    HW165831  10.101   6.194   6.574
55269SOL    HW265832  10.014   6.316   6.639
55270SOL     OW65833  11.038   6.521   7.440
55270SOL    HW165834  10.992   6.514   7.351
55270SOL    HW265835  10.976   6.565   7.506
55271SOL     OW65836   9.617   5.649   6.204
55271SOL    HW165837   9.606   5.743   6.237
55271SOL    HW265838   9.612   5.586   6.281
55272SOL     OW65839  10.932   5.953   5.960
55272SOL    HW165840  10.934   5.877   6.024
55272SOL    HW265841  10.884   6.030   6.000
55273SOL     OW65842  10.333   6.352   6.552
55273SOL    HW165843  10.348   6.373   6.648
55273SOL    HW265844  10.303   6.257   6.543
55274SOL     OW65845  10.290   7.159   7.286
55274SOL    HW165846  10.270   7.203   7.198
55274SOL    HW265847  10.329   7.068   7.270
55275SOL     OW65848  11.169   7.104   7.191
55275SOL    HW165849  11.183   7.131   7.096
55275SOL    HW265850  11.252   7.126   7.244
55276SOL     OW65851   9.660   6.484   7.390
55276SOL    HW165852   9.736   6.528   7.438
55276SOL    HW265853   9.695   6.437   7.308
55277SOL     OW65854  10.850   5.860   5.711
55277SOL    HW165855  10.789   5.785   5.734
55277SOL    HW265856  10.872   5.912   5.794
55278SOL     OW65857  10.613   6.424   5.628
55278SOL    HW165858  10.647   6.331   5.643
55278SOL    HW265859  10.631   6.451   5.533
55279SOL     OW65860  10.378   6.919   6.435
55279SOL    HW165861  10.385   6.835   6.380
55279SOL    HW265862  10.440   6.988   6.399
55280SOL     OW65863   9.629   6.396   6.535
55280SOL    HW165864   9.722   6.432   6.540
55280SOL    HW265865   9.623   6.311   6.587
55281SOL     OW65866   9.649   6.095   6.592
55281SOL    HW165867   9.597   6.012   6.575
55281SOL    HW265868   9.726   6.100   6.528
55282SOL     OW65869  10.448   5.966   7.264
55282SOL    HW165870  10.403   6.029   7.328
55282SOL    HW265871  10.541   5.997   7.247
55283SOL     OW65872  10.470   5.793   7.063
55283SOL    HW165873  10.470   5.857   7.140
55283SOL    HW265874  10.498   5.841   6.980
55284SOL     OW65875   9.318   6.912   5.786
55284SOL    HW165876   9.225   6.933   5.755
55284SOL    HW265877   9.328   6.813   5.799
55285SOL     OW65878   9.398   7.387   6.513
55285SOL    HW165879   9.356   7.301   6.486
55285SOL    HW265880   9.492   7.390   6.479
55286SOL     OW65881   9.814   7.154   6.496
55286SOL    HW165882   9.880   7.228   6.505
55286SOL    HW265883   9.858   7.075   6.454
55287SOL     OW65884  10.312   6.382   6.824
55287SOL    HW165885  10.353   6.350   6.910
55287SOL    HW265886  10.216   6.355   6.821
55288SOL     OW65887   9.350   6.130   6.700
55288SOL    HW165888   9.435   6.097   6.659
55288SOL    HW265889   9.363   6.145   6.798
55289SOL     OW65890   9.499   6.106   7.308
55289SOL    HW165891   9.558   6.066   7.238
55289SOL    HW265892   9.441   6.177   7.267
55290SOL     OW65893  10.679   6.536   7.246
55290SOL    HW165894  10.718   6.625   7.266
55290SOL    HW265895  10.689   6.516   7.149
55291SOL     OW65896  10.125   6.158   5.911
55291SOL    HW165897  10.132   6.069   5.865
55291SOL    HW265898  10.031   6.192   5.903
55292SOL     OW65899  10.967   6.190   6.792
55292SOL    HW165900  10.929   6.121   6.854
55292SOL    HW265901  11.049   6.154   6.748
55293SOL     OW65902   9.562   7.150   7.330
55293SOL    HW165903   9.532   7.207   7.406
55293SOL    HW265904   9.555   7.053   7.356
55294SOL     OW65905   9.981   6.050   6.855
55294SOL    HW165906   9.947   5.961   6.825
55294SOL    HW265907  10.007   6.104   6.775
55295SOL     OW65908  10.240   7.264   7.051
55295SOL    HW165909  10.216   7.246   6.956
55295SOL    HW265910  10.270   7.358   7.061
55296SOL     OW65911   9.783   6.086   5.777
55296SOL    HW165912   9.844   6.166   5.781
55296SOL    HW265913   9.688   6.117   5.784
55297SOL     OW65914   9.469   6.723   7.052
55297SOL    HW165915   9.491   6.662   7.128
55297SOL    HW265916   9.479   6.674   6.966
55298SOL     OW65917  10.657   6.645   6.820
55298SOL    HW165918  10.681   6.582   6.746
55298SOL    HW265919  10.567   6.685   6.802
55299SOL     OW65920  10.612   6.441   5.895
55299SOL    HW165921  10.526   6.410   5.937
55299SOL    HW265922  10.608   6.427   5.796
55300SOL     OW65923  11.069   7.333   6.740
55300SOL    HW165924  11.130   7.363   6.667
55300SOL    HW265925  11.031   7.244   6.718
55301SOL     OW65926  10.562   7.317   6.714
55301SOL    HW165927  10.646   7.322   6.660
55301SOL    HW265928  10.539   7.221   6.732
55302SOL     OW65929   9.393   6.844   6.608
55302SOL    HW165930   9.388   6.843   6.708
55302SOL    HW265931   9.310   6.803   6.570
55303SOL     OW65932   9.998   7.248   7.302
55303SOL    HW165933   9.942   7.329   7.311
55303SOL    HW265934  10.050   7.252   7.216
55304SOL     OW65935  11.036   5.721   6.109
55304SOL    HW165936  11.109   5.704   6.042
55304SOL    HW265937  11.005   5.634   6.147
55305SOL     OW65938  10.698   7.159   6.063
55305SOL    HW165939  10.765   7.171   5.989
55305SOL    HW265940  10.658   7.248   6.086
55306SOL     OW65941   9.440   7.380   7.437
55306SOL    HW165942   9.399   7.306   7.490
55306SOL    HW265943   9.504   7.431   7.495
55307SOL     OW65944  10.590   6.513   6.258
55307SOL    HW165945  10.650   6.432   6.260
55307SOL    HW265946  10.630   6.582   6.198
55308SOL     OW65947  10.140   6.859   7.008
55308SOL    HW165948  10.135   6.892   7.103
55308SOL    HW265949  10.054   6.878   6.962
55309SOL     OW65950   9.982   7.202   5.740
55309SOL    HW165951   9.991   7.212   5.641
55309SOL    HW265952   9.942   7.113   5.761
55310SOL     OW65953  10.960   7.306   6.980
55310SOL    HW165954  11.013   7.316   6.896
55310SOL    HW265955  10.933   7.396   7.014
55311SOL     OW65956  11.151   5.761   6.549
55311SOL    HW165957  11.190   5.676   6.513
55311SOL    HW265958  11.053   5.763   6.530
55312SOL     OW65959   9.573   5.912   6.306
55312SOL    HW165960   9.494   5.963   6.272
55312SOL    HW265961   9.564   5.897   6.404
55313SOL     OW65962  10.504   7.198   5.617
55313SOL    HW165963  10.510   7.105   5.654
55313SOL    HW265964  10.445   7.198   5.537
55314SOL     OW65965  10.132   6.588   6.958
55314SOL    HW165966  10.172   6.587   6.866
55314SOL    HW265967  10.142   6.680   6.998
55315SOL     OW65968  10.226   6.496   5.877
55315SOL    HW165969  10.289   6.534   5.809
55315SOL    HW265970  10.266   6.413   5.916
55316SOL     OW65971  10.814   7.193   5.630
55316SOL    HW165972  10.722   7.230   5.637
55316SOL    HW265973  10.852   7.213   5.540
55317SOL     OW65974   9.682   6.874   7.076
55317SOL    HW165975   9.669   6.967   7.042
55317SOL    HW265976   9.598   6.822   7.063
55318SOL     OW65977  10.924   6.878   6.875
55318SOL    HW165978  10.984   6.881   6.955
55318SOL    HW265979  10.849   6.942   6.888
55319SOL     OW65980  10.349   6.684   6.282
55319SOL    HW165981  10.279   6.637   6.336
55319SOL    HW265982  10.408   6.616   6.239
55320SOL     OW65983  10.324   5.822   6.557
55320SOL    HW165984  10.316   5.786   6.464
55320SOL    HW265985  10.322   5.746   6.622
55321SOL     OW65986   9.900   7.073   6.077
55321SOL    HW165987   9.942   7.015   6.007
55321SOL    HW265988   9.856   7.152   6.033
55322SOL     OW65989  11.019   5.971   6.967
55322SOL    HW165990  11.092   6.040   6.971
55322SOL    HW265991  11.047   5.896   6.908
55323SOL     OW65992   9.565   6.934   5.876
55323SOL    HW165993   9.469   6.935   5.849
55323SOL    HW265994   9.577   6.987   5.960
55324SOL     OW65995   9.415   6.599   7.312
55324SOL    HW165996   9.338   6.566   7.366
55324SOL    HW265997   9.500   6.569   7.354
55325SOL     OW65998   9.982   5.789   7.075
55325SOL    HW165999  10.072   5.773   7.035
55325SOL    HW266000   9.990   5.794   7.174
55326SOL     OW66001   9.385   5.931   5.619
55326SOL    HW166002   9.293   5.903   5.590
55326SOL    HW266003   9.416   6.008   5.563
55327SOL     OW66004  10.750   6.442   6.984
55327SOL    HW166005  10.693   6.494   6.921
55327SOL    HW266006  10.846   6.454   6.960
55328SOL     OW66007   9.382   5.752   5.904
55328SOL    HW166008   9.365   5.835   5.850
55328SOL    HW266009   9.472   5.715   5.882
55329SOL     OW66010  10.493   6.921   5.705
55329SOL    HW166011  10.394   6.910   5.707
55329SOL    HW266012  10.527   6.936   5.798
55330SOL     OW66013   9.923   6.428   7.017
55330SOL    HW166014   9.979   6.509   7.000
55330SOL    HW266015   9.982   6.348   7.020
55331SOL     OW66016  10.803   7.353   6.545
55331SOL    HW166017  10.836   7.417   6.476
55331SOL    HW266018  10.869   7.347   6.620
55332SOL     OW66019  10.026   6.151   7.294
55332SOL    HW166020  10.045   6.216   7.368
55332SOL    HW266021  10.086   6.071   7.303
55333SOL     OW66022  10.760   6.806   7.219
55333SOL    HW166023  10.751   6.796   7.318
55333SOL    HW266024  10.856   6.799   7.193
55334SOL     OW66025   9.700   7.327   7.146
55334SOL    HW166026   9.609   7.368   7.144
55334SOL    HW266027   9.693   7.233   7.178
55335SOL     OW66028  10.984   6.469   6.840
55335SOL    HW166029  10.957   6.380   6.803
55335SOL    HW266030  10.985   6.537   6.767
55336SOL     OW66031  10.535   5.911   6.035
55336SOL    HW166032  10.600   5.837   6.024
55336SOL    HW266033  10.555   5.961   6.119
55337SOL     OW66034   9.904   6.331   6.238
55337SOL    HW166035   9.954   6.416   6.219
55337SOL    HW266036   9.816   6.333   6.190
55338SOL     OW66037  11.087   5.928   7.228
55338SOL    HW166038  11.070   5.959   7.134
55338SOL    HW266039  11.003   5.891   7.266
55339SOL     OW66040  11.040   6.520   7.103
55339SOL    HW166041  11.078   6.611   7.118
55339SOL    HW266042  11.032   6.503   7.004
55340SOL     OW66043  10.169   6.960   5.602
55340SOL    HW166044  10.123   6.975   5.690
55340SOL    HW266045  10.213   7.045   5.572
55341SOL     OW66046   9.971   7.376   6.539
55341SOL    HW166047   9.925   7.464   6.526
55341SOL    HW266048  10.070   7.388   6.532
55342SOL     OW66049  10.169   6.542   6.447
55342SOL    HW166050  10.223   6.473   6.495
55342SOL    HW266051  10.137   6.611   6.513
55343SOL     OW66052  10.393   6.570   5.673
55343SOL    HW166053  10.370   6.623   5.591
55343SOL    HW266054  10.474   6.514   5.654
55344SOL     OW66055  11.171   7.155   6.437
55344SOL    HW166056  11.100   7.143   6.367
55344SOL    HW266057  11.172   7.076   6.497
55345SOL     OW66058   9.531   6.900   7.430
55345SOL    HW166059   9.466   6.827   7.409
55345SOL    HW266060   9.535   6.914   7.528
55346SOL     OW66061   9.389   6.826   6.239
55346SOL    HW166062   9.388   6.779   6.327
55346SOL    HW266063   9.471   6.798   6.188
55347SOL     OW66064   9.982   6.977   7.210
55347SOL    HW166065   9.904   6.927   7.248
55347SOL    HW266066   9.979   7.072   7.241
55348SOL     OW66067  11.134   5.778   6.813
55348SOL    HW166068  11.130   5.688   6.857
55348SOL    HW266069  11.137   5.767   6.714
55349SOL     OW66070   9.738   6.010   6.106
55349SOL    HW166071   9.768   5.938   6.044
55349SOL    HW266072   9.699   5.970   6.189
55350SOL     OW66073  11.015   7.073   6.690
55350SOL    HW166074  10.922   7.048   6.663
55350SOL    HW266075  11.041   7.023   6.772
55351SOL     OW66076   9.627   6.133   6.866
55351SOL    HW166077   9.665   6.074   6.938
55351SOL    HW266078   9.667   6.107   6.778
55352SOL     OW66079  10.122   7.172   6.273
55352SOL    HW166080  10.154   7.182   6.179
55352SOL    HW266081  10.043   7.110   6.275
55353SOL     OW66082  10.734   5.800   6.698
55353SOL    HW166083  10.786   5.735   6.753
55353SOL    HW266084  10.685   5.863   6.759
55354SOL     OW66085  10.311   5.620   6.740
55354SOL    HW166086  10.248   5.548   6.709
55354SOL    HW266087  10.404   5.584   6.740
55355SOL     OW66088  10.080   6.916   5.887
55355SOL    HW166089  10.034   6.829   5.904
55355SOL    HW266090  10.171   6.913   5.928
55356SOL     OW66091   9.928   7.153   6.870
55356SOL    HW166092   9.923   7.235   6.927
55356SOL    HW266093  10.017   7.150   6.825
55357SOL     OW66094  10.662   5.638   5.754
55357SOL    HW166095  10.697   5.597   5.670
55357SOL    HW266096  10.572   5.600   5.774
55358SOL     OW66097  10.610   6.039   6.277
55358SOL    HW166098  10.551   6.119   6.281
55358SOL    HW266099  10.625   6.004   6.370
55359SOL     OW66100  10.903   5.807   6.468
55359SOL    HW166101  10.819   5.806   6.522
55359SOL    HW266102  10.905   5.890   6.412
55360SOL     OW66103   9.349   6.663   5.886
55360SOL    HW166104   9.448   6.652   5.877
55360SOL    HW266105   9.309   6.577   5.918
55361SOL     OW66106  10.185   7.232   5.923
55361SOL    HW166107  10.108   7.197   5.869
55361SOL    HW266108  10.153   7.303   5.985
55362SOL     OW66109   9.540   6.214   7.561
55362SOL    HW166110   9.447   6.212   7.598
55362SOL    HW266111   9.541   6.175   7.469
55363SOL     OW66112   9.535   5.861   8.444
55363SOL    HW166113   9.570   5.844   8.536
55363SOL    HW266114   9.447   5.816   8.432
55364SOL     OW66115   9.329   5.954   8.095
55364SOL    HW166116   9.247   5.997   8.134
55364SOL    HW266117   9.301   5.881   8.032
55365SOL     OW66118   9.879   6.861   8.613
55365SOL    HW166119   9.786   6.854   8.576
55365SOL    HW266120   9.890   6.950   8.657
55366SOL     OW66121  10.865   7.097   8.151
55366SOL    HW166122  10.808   7.081   8.232
55366SOL    HW266123  10.806   7.107   8.071
55367SOL     OW66124  10.445   6.289   8.165
55367SOL    HW166125  10.502   6.367   8.140
55367SOL    HW266126  10.385   6.315   8.241
55368SOL     OW66127  11.065   6.193   7.679
55368SOL    HW166128  11.053   6.180   7.580
55368SOL    HW266129  11.035   6.112   7.728
55369SOL     OW66130  10.078   6.730   8.471
55369SOL    HW166131  10.000   6.747   8.531
55369SOL    HW266132  10.112   6.817   8.435
55370SOL     OW66133  10.160   6.384   9.271
55370SOL    HW166134  10.156   6.460   9.336
55370SOL    HW266135  10.182   6.420   9.180
55371SOL     OW66136   9.995   6.598   8.113
55371SOL    HW166137  10.064   6.582   8.183
55371SOL    HW266138   9.922   6.655   8.151
55372SOL     OW66139   9.996   6.747   9.251
55372SOL    HW166140  10.056   6.826   9.265
55372SOL    HW266141   9.910   6.778   9.210
55373SOL     OW66142   9.645   7.021   8.509
55373SOL    HW166143   9.567   6.990   8.456
55373SOL    HW266144   9.703   7.079   8.452
55374SOL     OW66145  10.770   7.091   8.787
55374SOL    HW166146  10.794   7.185   8.813
55374SOL    HW266147  10.754   7.037   8.869
55375SOL     OW66148   9.748   5.978   8.947
55375SOL    HW166149   9.830   5.922   8.956
55375SOL    HW266150   9.667   5.920   8.951
55376SOL     OW66151  10.913   6.033   8.185
55376SOL    HW166152  10.839   6.079   8.135
55376SOL    HW266153  10.964   6.101   8.238
55377SOL     OW66154   9.541   7.299   7.931
55377SOL    HW166155   9.575   7.376   7.985
55377SOL    HW266156   9.585   7.299   7.841
55378SOL     OW66157  10.437   6.927   9.138
55378SOL    HW166158  10.484   6.927   9.226
55378SOL    HW266159  10.389   6.840   9.127
55379SOL     OW66160   9.540   7.020   7.986
55379SOL    HW166161   9.514   7.116   7.986
55379SOL    HW266162   9.469   6.966   8.031
55380SOL     OW66163   9.550   6.677   8.334
55380SOL    HW166164   9.564   6.593   8.386
55380SOL    HW266165   9.495   6.741   8.389
55381SOL     OW66166   9.930   7.372   8.887
55381SOL    HW166167   9.838   7.355   8.922
55381SOL    HW266168   9.958   7.464   8.913
55382SOL     OW66169   9.916   6.550   7.571
55382SOL    HW166170   9.923   6.634   7.517
55382SOL    HW266171   9.962   6.563   7.659
55383SOL     OW66172  10.904   5.700   8.928
55383SOL    HW166173  10.886   5.767   8.856
55383SOL    HW266174  10.901   5.746   9.017
55384SOL     OW66175   9.432   6.229   8.011
55384SOL    HW166176   9.387   6.141   8.028
55384SOL    HW266177   9.431   6.283   8.095
55385SOL     OW66178  11.152   7.353   7.807
55385SOL    HW166179  11.206   7.324   7.887
55385SOL    HW266180  11.182   7.443   7.778
55386SOL     OW66181   9.337   7.182   7.565
55386SOL    HW166182   9.318   7.086   7.586
55386SOL    HW266183   9.304   7.240   7.640
55387SOL     OW66184  10.999   6.508   8.060
55387SOL    HW166185  11.094   6.479   8.068
55387SOL    HW266186  10.991   6.573   7.985
55388SOL     OW66187  10.951   6.694   7.880
55388SOL    HW166188  11.037   6.696   7.828
55388SOL    HW266189  10.965   6.741   7.968
55389SOL     OW66190   9.423   6.323   9.045
55389SOL    HW166191   9.511   6.310   9.090
55389SOL    HW266192   9.410   6.420   9.023
55390SOL     OW66193   9.923   6.951   8.174
55390SOL    HW166194   9.874   6.864   8.183
55390SOL    HW266195   9.900   6.994   8.087
55391SOL     OW66196  10.603   6.814   8.871
55391SOL    HW166197  10.640   6.741   8.813
55391SOL    HW266198  10.655   6.819   8.956
55392SOL     OW66199  10.119   5.590   7.950
55392SOL    HW166200  10.159   5.681   7.941
55392SOL    HW266201  10.019   5.598   7.956
55393SOL     OW66202   9.507   6.562   8.712
55393SOL    HW166203   9.596   6.517   8.698
55393SOL    HW266204   9.434   6.497   8.693
55394SOL     OW66205  10.835   6.585   7.638
55394SOL    HW166206  10.772   6.509   7.651
55394SOL    HW266207  10.883   6.603   7.724
55395SOL     OW66208  10.497   7.378   9.064
55395SOL    HW166209  10.521   7.438   8.988
55395SOL    HW266210  10.504   7.283   9.034
55396SOL     OW66211   9.627   5.837   9.249
55396SOL    HW166212   9.698   5.908   9.255
55396SOL    HW266213   9.539   5.876   9.277
55397SOL     OW66214  10.776   7.003   8.401
55397SOL    HW166215  10.717   7.009   8.481
55397SOL    HW266216  10.761   6.915   8.355
55398SOL     OW66217  10.977   7.300   8.020
55398SOL    HW166218  10.936   7.277   7.932
55398SOL    HW266219  10.959   7.226   8.085
55399SOL     OW66220   9.908   6.315   7.718
55399SOL    HW166221   9.932   6.384   7.650
55399SOL    HW266222   9.830   6.348   7.772
55400SOL     OW66223  10.591   5.931   8.392
55400SOL    HW166224  10.505   5.881   8.379
55400SOL    HW266225  10.653   5.877   8.448
55401SOL     OW66226  10.886   7.248   7.755
55401SOL    HW166227  10.975   7.294   7.758
55401SOL    HW266228  10.865   7.224   7.660
55402SOL     OW66229  10.117   6.191   8.913
55402SOL    HW166230  10.070   6.188   9.002
55402SOL    HW266231  10.066   6.136   8.847
55403SOL     OW66232  10.704   6.055   9.122
55403SOL    HW166233  10.684   6.098   9.210
55403SOL    HW266234  10.782   5.993   9.131
55404SOL     OW66235  10.283   6.476   9.020
55404SOL    HW166236  10.329   6.392   8.991
55404SOL    HW266237  10.227   6.510   8.945
55405SOL     OW66238  10.301   5.996   8.690
55405SOL    HW166239  10.224   6.030   8.744
55405SOL    HW266240  10.267   5.945   8.611
55406SOL     OW66241  10.351   6.287   7.877
55406SOL    HW166242  10.377   6.283   7.973
55406SOL    HW266243  10.266   6.236   7.863
55407SOL     OW66244   9.386   6.397   8.237
55407SOL    HW166245   9.485   6.385   8.246
55407SOL    HW266246   9.362   6.492   8.258
55408SOL     OW66247   9.440   7.407   9.019
55408SOL    HW166248   9.430   7.392   9.118
55408SOL    HW266249   9.354   7.443   8.983
55409SOL     OW66250  10.175   5.934   7.643
55409SOL    HW166251  10.234   5.997   7.594
55409SOL    HW266252  10.194   5.840   7.614
55410SOL     OW66253  11.029   6.171   9.279
55410SOL    HW166254  11.003   6.260   9.243
55410SOL    HW266255  11.027   6.103   9.206
55411SOL     OW66256  10.672   6.730   7.993
55411SOL    HW166257  10.755   6.701   7.945
55411SOL    HW266258  10.623   6.797   7.937
55412SOL     OW66259   9.860   5.782   8.333
55412SOL    HW166260   9.855   5.777   8.433
55412SOL    HW266261   9.862   5.878   8.304
55413SOL     OW66262  10.318   7.042   7.925
55413SOL    HW166263  10.272   7.114   7.873
55413SOL    HW266264  10.314   7.062   8.023
55414SOL     OW66265   9.661   7.387   8.301
55414SOL    HW166266   9.711   7.301   8.307
55414SOL    HW266267   9.726   7.464   8.298
55415SOL     OW66268  11.105   6.652   8.321
55415SOL    HW166269  11.043   6.637   8.245
55415SOL    HW266270  11.053   6.663   8.406
55416SOL     OW66271  10.537   7.136   8.954
55416SOL    HW166272  10.543   7.059   9.018
55416SOL    HW266273  10.485   7.110   8.874
55417SOL     OW66274   9.631   6.529   7.690
55417SOL    HW166275   9.713   6.568   7.648
55417SOL    HW266276   9.604   6.447   7.641
55418SOL     OW66277  10.768   6.321   8.176
55418SOL    HW166278  10.763   6.256   8.251
55418SOL    HW266279  10.848   6.380   8.189
55419SOL     OW66280   9.771   6.852   9.175
55419SOL    HW166281   9.721   6.853   9.089
55419SOL    HW266282   9.708   6.834   9.251
55420SOL     OW66283  10.421   7.362   7.685
55420SOL    HW166284  10.361   7.300   7.735
55420SOL    HW266285  10.452   7.318   7.600
55421SOL     OW66286   9.512   5.871   8.946
55421SOL    HW166287   9.432   5.931   8.933
55421SOL    HW266288   9.502   5.822   9.032
55422SOL     OW66289  10.942   6.963   7.529
55422SOL    HW166290  10.910   7.057   7.519
55422SOL    HW266291  10.866   6.900   7.517
55423SOL     OW66292   9.774   7.329   7.771
55423SOL    HW166293   9.807   7.368   7.857
55423SOL    HW266294   9.850   7.322   7.706
55424SOL     OW66295  10.710   5.693   7.874
55424SOL    HW166296  10.686   5.656   7.784
55424SOL    HW266297  10.809   5.709   7.878
55425SOL     OW66298   9.559   7.371   8.689
55425SOL    HW166299   9.616   7.306   8.739
55425SOL    HW266300   9.543   7.338   8.596
55426SOL     OW66301  10.250   7.284   8.352
55426SOL    HW166302  10.330   7.227   8.373
55426SOL    HW266303  10.201   7.244   8.275
55427SOL     OW66304   9.692   6.286   7.928
55427SOL    HW166305   9.737   6.196   7.925
55427SOL    HW266306   9.598   6.275   7.961
55428SOL     OW66307  10.857   5.808   9.177
55428SOL    HW166308  10.852   5.845   9.269
55428SOL    HW266309  10.785   5.739   9.165
55429SOL     OW66310   9.924   5.708   7.565
55429SOL    HW166311  10.022   5.686   7.572
55429SOL    HW266312   9.893   5.691   7.472
55430SOL     OW66313  10.091   5.850   9.197
55430SOL    HW166314  10.158   5.789   9.240
55430SOL    HW266315  10.018   5.869   9.262
55431SOL     OW66316  10.198   7.100   8.643
55431SOL    HW166317  10.175   7.075   8.549
55431SOL    HW266318  10.259   7.031   8.682
55432SOL     OW66319  10.661   6.176   8.881
55432SOL    HW166320  10.689   6.133   8.966
55432SOL    HW266321  10.686   6.272   8.882
55433SOL     OW66322  10.113   6.988   8.372
55433SOL    HW166323  10.203   7.002   8.330
55433SOL    HW266324  10.042   6.990   8.301
55434SOL     OW66325  10.232   6.089   8.347
55434SOL    HW166326  10.207   6.080   8.251
55434SOL    HW266327  10.280   6.007   8.378
55435SOL     OW66328   9.849   5.650   7.960
55435SOL    HW166329   9.768   5.651   8.018
55435SOL    HW266330   9.852   5.733   7.905
55436SOL     OW66331  10.744   6.774   7.489
55436SOL    HW166332  10.776   6.698   7.546
55436SOL    HW266333  10.652   6.801   7.519
55437SOL     OW66334   9.607   5.621   7.619
55437SOL    HW166335   9.656   5.705   7.598
55437SOL    HW266336   9.669   5.556   7.664
55438SOL     OW66337  10.245   5.822   7.928
55438SOL    HW166338  10.197   5.863   7.850
55438SOL    HW266339  10.344   5.820   7.909
55439SOL     OW66340  10.386   6.269   8.912
55439SOL    HW166341  10.306   6.208   8.915
55439SOL    HW266342  10.467   6.216   8.888
55440SOL     OW66343  10.537   7.156   8.241
55440SOL    HW166344  10.558   7.230   8.176
55440SOL    HW266345  10.605   7.156   8.314
55441SOL     OW66346   9.769   6.738   8.189
55441SOL    HW166347   9.698   6.711   8.254
55441SOL    HW266348   9.743   6.710   8.096
55442SOL     OW66349  10.581   7.383   8.039
55442SOL    HW166350  10.625   7.447   7.975
55442SOL    HW266351  10.531   7.435   8.109
55443SOL     OW66352  10.342   6.135   7.464
55443SOL    HW166353  10.301   6.217   7.425
55443SOL    HW266354  10.406   6.161   7.537
55444SOL     OW66355   9.388   6.142   8.834
55444SOL    HW166356   9.480   6.141   8.793
55444SOL    HW266357   9.382   6.216   8.901
55445SOL     OW66358   9.871   5.808   8.595
55445SOL    HW166359   9.909   5.724   8.632
55445SOL    HW266360   9.783   5.827   8.639
55446SOL     OW66361  10.176   6.040   8.090
55446SOL    HW166362  10.144   6.112   8.028
55446SOL    HW266363  10.200   5.959   8.037
55447SOL     OW66364  10.327   5.625   8.201
55447SOL    HW166365  10.255   5.630   8.132
55447SOL    HW266366  10.303   5.556   8.270
55448SOL     OW66367  10.739   6.759   8.315
55448SOL    HW166368  10.684   6.675   8.308
55448SOL    HW266369  10.765   6.788   8.223
55449SOL     OW66370  10.776   6.176   8.440
55449SOL    HW166371  10.746   6.081   8.447
55449SOL    HW266372  10.849   6.192   8.506
55450SOL     OW66373  11.167   6.419   7.825
55450SOL    HW166374  11.209   6.355   7.889
55450SOL    HW266375  11.129   6.368   7.747
55451SOL     OW66376   9.798   6.971   7.622
55451SOL    HW166377   9.711   6.956   7.669
55451SOL    HW266378   9.781   6.997   7.527
55452SOL     OW66379  10.974   6.866   8.105
55452SOL    HW166380  11.073   6.874   8.119
55452SOL    HW266381  10.929   6.950   8.136
55453SOL     OW66382  10.700   6.161   7.526
55453SOL    HW166383  10.646   6.140   7.607
55453SOL    HW266384  10.791   6.120   7.535
55454SOL     OW66385   9.837   5.842   7.776
55454SOL    HW166386   9.864   5.783   7.701
55454SOL    HW266387   9.837   5.937   7.745
55455SOL     OW66388  11.064   6.809   9.036
55455SOL    HW166389  11.155   6.770   9.023
55455SOL    HW266390  11.072   6.905   9.060
55456SOL     OW66391  10.374   6.933   8.788
55456SOL    HW166392  10.294   6.910   8.843
55456SOL    HW266393  10.457   6.907   8.837
55457SOL     OW66394  10.902   7.215   9.073
55457SOL    HW166395  10.929   7.249   8.983
55457SOL    HW266396  10.981   7.177   9.119
55458SOL     OW66397  10.421   6.781   8.548
55458SOL    HW166398  10.381   6.825   8.629
55458SOL    HW266399  10.380   6.818   8.465
55459SOL     OW66400  10.948   6.685   8.527
55459SOL    HW166401  10.953   6.766   8.586
55459SOL    HW266402  10.862   6.687   8.476
55460SOL     OW66403  10.225   5.675   8.850
55460SOL    HW166404  10.250   5.655   8.755
55460SOL    HW266405  10.297   5.731   8.892
55461SOL     OW66406  10.290   6.702   9.167
55461SOL    HW166407  10.191   6.708   9.177
55461SOL    HW266408  10.313   6.622   9.111
55462SOL     OW66409  10.015   6.636   7.816
55462SOL    HW166410  10.001   6.643   7.915
55462SOL    HW266411  10.099   6.585   7.798
55463SOL     OW66412   9.720   6.399   8.699
55463SOL    HW166413   9.806   6.411   8.749
55463SOL    HW266414   9.678   6.312   8.726
55464SOL     OW66415  10.584   5.972   8.710
55464SOL    HW166416  10.605   6.046   8.774
55464SOL    HW266417  10.495   5.989   8.667
55465SOL     OW66418   9.374   7.150   8.779
55465SOL    HW166419   9.328   7.232   8.745
55465SOL    HW266420   9.472   7.169   8.788
55466SOL     OW66421   9.677   6.686   7.949
55466SOL    HW166422   9.670   6.769   7.893
55466SOL    HW266423   9.681   6.606   7.889
55467SOL     OW66424   9.876   6.123   8.313
55467SOL    HW166425   9.888   6.189   8.239
55467SOL    HW266426   9.922   6.157   8.396
55468SOL     OW66427  10.562   6.934   7.836
55468SOL    HW166428  10.612   7.011   7.876
55468SOL    HW266429  10.467   6.936   7.868
55469SOL     OW66430  10.582   7.031   8.590
55469SOL    HW166431  10.629   7.044   8.677
55469SOL    HW266432  10.516   6.957   8.599
55470SOL     OW66433  10.892   6.225   7.920
55470SOL    HW166434  10.861   6.286   7.993
55470SOL    HW266435  10.942   6.277   7.851
55471SOL     OW66436   9.664   7.096   8.777
55471SOL    HW166437   9.643   7.052   8.690
55471SOL    HW266438   9.761   7.122   8.780
55472SOL     OW66439   9.712   6.337   9.046
55472SOL    HW166440   9.780   6.392   8.999
55472SOL    HW266441   9.752   6.249   9.073
55473SOL     OW66442  10.897   6.365   9.118
55473SOL    HW166443  10.805   6.403   9.113
55473SOL    HW266444  10.957   6.412   9.053
55474SOL     OW66445  10.323   5.691   9.218
55474SOL    HW166446  10.329   5.776   9.166
55474SOL    HW266447  10.355   5.615   9.161
55475SOL     OW66448   9.814   5.636   9.188
55475SOL    HW166449   9.772   5.579   9.118
55475SOL    HW266450   9.748   5.705   9.220
55476SOL     OW66451   9.883   6.456   8.477
55476SOL    HW166452   9.927   6.545   8.468
55476SOL    HW266453   9.820   6.456   8.554
55477SOL     OW66454  10.670   6.448   8.493
55477SOL    HW166455  10.595   6.448   8.427
55477SOL    HW266456  10.707   6.356   8.502
55478SOL     OW66457  10.519   6.111   7.723
55478SOL    HW166458  10.532   6.027   7.777
55478SOL    HW266459  10.490   6.185   7.783
55479SOL     OW66460   9.617   5.799   8.679
55479SOL    HW166461   9.594   5.836   8.769
55479SOL    HW266462   9.587   5.704   8.673
55480SOL     OW66463   9.347   6.896   8.730
55480SOL    HW166464   9.400   6.847   8.798
55480SOL    HW266465   9.369   6.994   8.735
55481SOL     OW66466  10.042   6.220   8.512
55481SOL    HW166467  10.101   6.194   8.436
55481SOL    HW266468  10.014   6.316   8.501
55482SOL     OW66469  11.038   6.521   9.302
55482SOL    HW166470  10.992   6.514   9.213
55482SOL    HW266471  10.976   6.565   9.368
55483SOL     OW66472   9.617   5.649   8.066
55483SOL    HW166473   9.606   5.743   8.099
55483SOL    HW266474   9.612   5.586   8.143
55484SOL     OW66475  10.932   5.953   7.822
55484SOL    HW166476  10.934   5.877   7.886
55484SOL    HW266477  10.884   6.030   7.862
55485SOL     OW66478  10.333   6.352   8.414
55485SOL    HW166479  10.348   6.373   8.510
55485SOL    HW266480  10.303   6.257   8.405
55486SOL     OW66481  10.290   7.159   9.148
55486SOL    HW166482  10.270   7.203   9.060
55486SOL    HW266483  10.329   7.068   9.132
55487SOL     OW66484  11.169   7.104   9.053
55487SOL    HW166485  11.183   7.131   8.958
55487SOL    HW266486  11.252   7.126   9.106
55488SOL     OW66487   9.660   6.484   9.252
55488SOL    HW166488   9.736   6.528   9.300
55488SOL    HW266489   9.695   6.437   9.170
55489SOL     OW66490  10.850   5.860   7.573
55489SOL    HW166491  10.789   5.785   7.596
55489SOL    HW266492  10.872   5.912   7.656
55490SOL     OW66493  10.613   6.424   7.490
55490SOL    HW166494  10.647   6.331   7.505
55490SOL    HW266495  10.631   6.451   7.395
55491SOL     OW66496  10.378   6.919   8.297
55491SOL    HW166497  10.385   6.835   8.242
55491SOL    HW266498  10.440   6.988   8.261
55492SOL     OW66499   9.629   6.396   8.397
55492SOL    HW166500   9.722   6.432   8.402
55492SOL    HW266501   9.623   6.311   8.449
55493SOL     OW66502   9.649   6.095   8.454
55493SOL    HW166503   9.597   6.012   8.437
55493SOL    HW266504   9.726   6.100   8.390
55494SOL     OW66505  10.448   5.966   9.126
55494SOL    HW166506  10.403   6.029   9.190
55494SOL    HW266507  10.541   5.997   9.109
55495SOL     OW66508  10.470   5.793   8.925
55495SOL    HW166509  10.470   5.857   9.002
55495SOL    HW266510  10.498   5.841   8.842
55496SOL     OW66511   9.318   6.912   7.648
55496SOL    HW166512   9.225   6.933   7.617
55496SOL    HW266513   9.328   6.813   7.661
55497SOL     OW66514   9.398   7.387   8.375
55497SOL    HW166515   9.356   7.301   8.348
55497SOL    HW266516   9.492   7.390   8.341
55498SOL     OW66517   9.814   7.154   8.358
55498SOL    HW166518   9.880   7.228   8.367
55498SOL    HW266519   9.858   7.075   8.316
55499SOL     OW66520  10.312   6.382   8.686
55499SOL    HW166521  10.353   6.350   8.772
55499SOL    HW266522  10.216   6.355   8.683
55500SOL     OW66523   9.350   6.130   8.562
55500SOL    HW166524   9.435   6.097   8.521
55500SOL    HW266525   9.363   6.145   8.660
55501SOL     OW66526   9.499   6.106   9.170
55501SOL    HW166527   9.558   6.066   9.100
55501SOL    HW266528   9.441   6.177   9.129
55502SOL     OW66529  10.679   6.536   9.108
55502SOL    HW166530  10.718   6.625   9.128
55502SOL    HW266531  10.689   6.516   9.011
55503SOL     OW66532  10.125   6.158   7.773
55503SOL    HW166533  10.132   6.069   7.727
55503SOL    HW266534  10.031   6.192   7.765
55504SOL     OW66535  10.967   6.190   8.654
55504SOL    HW166536  10.929   6.121   8.716
55504SOL    HW266537  11.049   6.154   8.610
55505SOL     OW66538   9.562   7.150   9.192
55505SOL    HW166539   9.532   7.207   9.268
55505SOL    HW266540   9.555   7.053   9.218
55506SOL     OW66541   9.981   6.050   8.717
55506SOL    HW166542   9.947   5.961   8.687
55506SOL    HW266543  10.007   6.104   8.637
55507SOL     OW66544  10.240   7.264   8.913
55507SOL    HW166545  10.216   7.246   8.818
55507SOL    HW266546  10.270   7.358   8.923
55508SOL     OW66547   9.783   6.086   7.639
55508SOL    HW166548   9.844   6.166   7.643
55508SOL    HW266549   9.688   6.117   7.646
55509SOL     OW66550   9.469   6.723   8.914
55509SOL    HW166551   9.491   6.662   8.990
55509SOL    HW266552   9.479   6.674   8.828
55510SOL     OW66553  10.657   6.645   8.682
55510SOL    HW166554  10.681   6.582   8.608
55510SOL    HW266555  10.567   6.685   8.664
55511SOL     OW66556  10.612   6.441   7.757
55511SOL    HW166557  10.526   6.410   7.799
55511SOL    HW266558  10.608   6.427   7.658
55512SOL     OW66559  11.069   7.333   8.602
55512SOL    HW166560  11.130   7.363   8.529
55512SOL    HW266561  11.031   7.244   8.580
55513SOL     OW66562  10.562   7.317   8.576
55513SOL    HW166563  10.646   7.322   8.522
55513SOL    HW266564  10.539   7.221   8.594
55514SOL     OW66565   9.393   6.844   8.470
55514SOL    HW166566   9.388   6.843   8.570
55514SOL    HW266567   9.310   6.803   8.432
55515SOL     OW66568   9.998   7.248   9.164
55515SOL    HW166569   9.942   7.329   9.173
55515SOL    HW266570  10.050   7.252   9.078
55516SOL     OW66571  11.036   5.721   7.971
55516SOL    HW166572  11.109   5.704   7.904
55516SOL    HW266573  11.005   5.634   8.009
55517SOL     OW66574  10.698   7.159   7.925
55517SOL    HW166575  10.765   7.171   7.851
55517SOL    HW266576  10.658   7.248   7.948
55518SOL     OW66577   9.440   7.380   9.299
55518SOL    HW166578   9.399   7.306   9.352
55518SOL    HW266579   9.504   7.431   9.357
55519SOL     OW66580  10.590   6.513   8.120
55519SOL    HW166581  10.650   6.432   8.122
55519SOL    HW266582  10.630   6.582   8.060
55520SOL     OW66583  10.140   6.859   8.870
55520SOL    HW166584  10.135   6.892   8.965
55520SOL    HW266585  10.054   6.878   8.824
55521SOL     OW66586   9.982   7.202   7.602
55521SOL    HW166587   9.991   7.212   7.503
55521SOL    HW266588   9.942   7.113   7.623
55522SOL     OW66589  10.960   7.306   8.842
55522SOL    HW166590  11.013   7.316   8.758
55522SOL    HW266591  10.933   7.396   8.876
55523SOL     OW66592  11.151   5.761   8.411
55523SOL    HW166593  11.190   5.676   8.375
55523SOL    HW266594  11.053   5.763   8.392
55524SOL     OW66595   9.573   5.912   8.168
55524SOL    HW166596   9.494   5.963   8.134
55524SOL    HW266597   9.564   5.897   8.266
55525SOL     OW66598  10.504   7.198   7.479
55525SOL    HW166599  10.510   7.105   7.516
55525SOL    HW266600  10.445   7.198   7.399
55526SOL     OW66601  10.132   6.588   8.820
55526SOL    HW166602  10.172   6.587   8.728
55526SOL    HW266603  10.142   6.680   8.860
55527SOL     OW66604  10.226   6.496   7.739
55527SOL    HW166605  10.289   6.534   7.671
55527SOL    HW266606  10.266   6.413   7.778
55528SOL     OW66607  10.814   7.193   7.492
55528SOL    HW166608  10.722   7.230   7.499
55528SOL    HW266609  10.852   7.213   7.402
55529SOL     OW66610   9.682   6.874   8.938
55529SOL    HW166611   9.669   6.967   8.904
55529SOL    HW266612   9.598   6.822   8.925
55530SOL     OW66613  10.924   6.878   8.737
55530SOL    HW166614  10.984   6.881   8.817
55530SOL    HW266615  10.849   6.942   8.750
55531SOL     OW66616  10.349   6.684   8.144
55531SOL    HW166617  10.279   6.637   8.198
55531SOL    HW266618  10.408   6.616   8.101
55532SOL     OW66619  10.324   5.822   8.419
55532SOL    HW166620  10.316   5.786   8.326
55532SOL    HW266621  10.322   5.746   8.484
55533SOL     OW66622   9.900   7.073   7.939
55533SOL    HW166623   9.942   7.015   7.869
55533SOL    HW266624   9.856   7.152   7.895
55534SOL     OW66625  11.019   5.971   8.829
55534SOL    HW166626  11.092   6.040   8.833
55534SOL    HW266627  11.047   5.896   8.770
55535SOL     OW66628   9.565   6.934   7.738
55535SOL    HW166629   9.469   6.935   7.711
55535SOL    HW266630   9.577   6.987   7.822
55536SOL     OW66631   9.415   6.599   9.174
55536SOL    HW166632   9.338   6.566   9.228
55536SOL    HW266633   9.500   6.569   9.216
55537SOL     OW66634   9.982   5.789   8.937
55537SOL    HW166635  10.072   5.773   8.897
55537SOL    HW266636   9.990   5.794   9.036
55538SOL     OW66637   9.385   5.931   7.481
55538SOL    HW166638   9.293   5.903   7.452
55538SOL    HW266639   9.416   6.008   7.425
55539SOL     OW66640  10.750   6.442   8.846
55539SOL    HW166641  10.693   6.494   8.783
55539SOL    HW266642  10.846   6.454   8.822
55540SOL     OW66643   9.382   5.752   7.766
55540SOL    HW166644   9.365   5.835   7.712
55540SOL    HW266645   9.472   5.715   7.744
55541SOL     OW66646  10.493   6.921   7.567
55541SOL    HW166647  10.394   6.910   7.569
55541SOL    HW266648  10.527   6.936   7.660
55542SOL     OW66649   9.923   6.428   8.879
55542SOL    HW166650   9.979   6.509   8.862
55542SOL    HW266651   9.982   6.348   8.882
55543SOL     OW66652  10.803   7.353   8.407
55543SOL    HW166653  10.836   7.417   8.338
55543SOL    HW266654  10.869   7.347   8.482
55544SOL     OW66655  10.026   6.151   9.156
55544SOL    HW166656  10.045   6.216   9.230
55544SOL    HW266657  10.086   6.071   9.165
55545SOL     OW66658  10.760   6.806   9.081
55545SOL    HW166659  10.751   6.796   9.180
55545SOL    HW266660  10.856   6.799   9.055
55546SOL     OW66661   9.700   7.327   9.008
55546SOL    HW166662   9.609   7.368   9.006
55546SOL    HW266663   9.693   7.233   9.040
55547SOL     OW66664  10.984   6.469   8.702
55547SOL    HW166665  10.957   6.380   8.665
55547SOL    HW266666  10.985   6.537   8.629
55548SOL     OW66667  10.535   5.911   7.897
55548SOL    HW166668  10.600   5.837   7.886
55548SOL    HW266669  10.555   5.961   7.981
55549SOL     OW66670   9.904   6.331   8.100
55549SOL    HW166671   9.954   6.416   8.081
55549SOL    HW266672   9.816   6.333   8.052
55550SOL     OW66673  11.087   5.928   9.090
55550SOL    HW166674  11.070   5.959   8.996
55550SOL    HW266675  11.003   5.891   9.128
55551SOL     OW66676  11.040   6.520   8.965
55551SOL    HW166677  11.078   6.611   8.980
55551SOL    HW266678  11.032   6.503   8.866
55552SOL     OW66679  10.169   6.960   7.464
55552SOL    HW166680  10.123   6.975   7.552
55552SOL    HW266681  10.213   7.045   7.434
55553SOL     OW66682   9.971   7.376   8.401
55553SOL    HW166683   9.925   7.464   8.388
55553SOL    HW266684  10.070   7.388   8.394
55554SOL     OW66685  10.169   6.542   8.309
55554SOL    HW166686  10.223   6.473   8.357
55554SOL    HW266687  10.137   6.611   8.375
55555SOL     OW66688  10.393   6.570   7.535
55555SOL    HW166689  10.370   6.623   7.453
55555SOL    HW266690  10.474   6.514   7.516
55556SOL     OW66691  11.171   7.155   8.299
55556SOL    HW166692  11.100   7.143   8.229
55556SOL    HW266693  11.172   7.076   8.359
55557SOL     OW66694   9.531   6.900   9.292
55557SOL    HW166695   9.466   6.827   9.271
55557SOL    HW266696   9.535   6.914   9.390
55558SOL     OW66697   9.389   6.826   8.101
55558SOL    HW166698   9.388   6.779   8.189
55558SOL    HW266699   9.471   6.798   8.050
55559SOL     OW66700   9.982   6.977   9.072
55559SOL    HW166701   9.904   6.927   9.110
55559SOL    HW266702   9.979   7.072   9.103
55560SOL     OW66703  11.134   5.778   8.675
55560SOL    HW166704  11.130   5.688   8.719
55560SOL    HW266705  11.137   5.767   8.576
55561SOL     OW66706   9.738   6.010   7.968
55561SOL    HW166707   9.768   5.938   7.906
55561SOL    HW266708   9.699   5.970   8.051
55562SOL     OW66709  11.015   7.073   8.552
55562SOL    HW166710  10.922   7.048   8.525
55562SOL    HW266711  11.041   7.023   8.634
55563SOL     OW66712   9.627   6.133   8.728
55563SOL    HW166713   9.665   6.074   8.800
55563SOL    HW266714   9.667   6.107   8.640
55564SOL     OW66715  10.122   7.172   8.135
55564SOL    HW166716  10.154   7.182   8.041
55564SOL    HW266717  10.043   7.110   8.137
55565SOL     OW66718  10.734   5.800   8.560
55565SOL    HW166719  10.786   5.735   8.615
55565SOL    HW266720  10.685   5.863   8.621
55566SOL     OW66721  10.311   5.620   8.602
55566SOL    HW166722  10.248   5.548   8.571
55566SOL    HW266723  10.404   5.584   8.602
55567SOL     OW66724  10.080   6.916   7.749
55567SOL    HW166725  10.034   6.829   7.766
55567SOL    HW266726  10.171   6.913   7.790
55568SOL     OW66727   9.928   7.153   8.732
55568SOL    HW166728   9.923   7.235   8.789
55568SOL    HW266729  10.017   7.150   8.687
55569SOL     OW66730  10.662   5.638   7.616
55569SOL    HW166731  10.697   5.597   7.532
55569SOL    HW266732  10.572   5.600   7.636
55570SOL     OW66733  10.610   6.039   8.139
55570SOL    HW166734  10.551   6.119   8.143
55570SOL    HW266735  10.625   6.004   8.232
55571SOL     OW66736  10.903   5.807   8.330
55571SOL    HW166737  10.819   5.806   8.384
55571SOL    HW266738  10.905   5.890   8.274
55572SOL     OW66739   9.349   6.663   7.748
55572SOL    HW166740   9.448   6.652   7.739
55572SOL    HW266741   9.309   6.577   7.780
55573SOL     OW66742  10.185   7.232   7.785
55573SOL    HW166743  10.108   7.197   7.731
55573SOL    HW266744  10.153   7.303   7.847
55574SOL     OW66745   9.540   6.214   9.423
55574SOL    HW166746   9.447   6.212   9.460
55574SOL    HW266747   9.541   6.175   9.331
55575SOL     OW66748   9.535   5.861  10.306
55575SOL    HW166749   9.570   5.844  10.398
55575SOL    HW266750   9.447   5.816  10.294
55576SOL     OW66751   9.329   5.954   9.957
55576SOL    HW166752   9.247   5.997   9.996
55576SOL    HW266753   9.301   5.881   9.894
55577SOL     OW66754   9.879   6.861  10.475
55577SOL    HW166755   9.786   6.854  10.438
55577SOL    HW266756   9.890   6.950  10.519
55578SOL     OW66757  10.865   7.097  10.013
55578SOL    HW166758  10.808   7.081  10.094
55578SOL    HW266759  10.806   7.107   9.933
55579SOL     OW66760  10.445   6.289  10.027
55579SOL    HW166761  10.502   6.367  10.002
55579SOL    HW266762  10.385   6.315  10.103
55580SOL     OW66763  11.065   6.193   9.541
55580SOL    HW166764  11.053   6.180   9.442
55580SOL    HW266765  11.035   6.112   9.590
55581SOL     OW66766  10.078   6.730  10.333
55581SOL    HW166767  10.000   6.747  10.393
55581SOL    HW266768  10.112   6.817  10.297
55582SOL     OW66769  10.160   6.384  11.133
55582SOL    HW166770  10.156   6.460  11.198
55582SOL    HW266771  10.182   6.420  11.042
55583SOL     OW66772   9.995   6.598   9.975
55583SOL    HW166773  10.064   6.582  10.045
55583SOL    HW266774   9.922   6.655  10.013
55584SOL     OW66775   9.996   6.747  11.113
55584SOL    HW166776  10.056   6.826  11.127
55584SOL    HW266777   9.910   6.778  11.072
55585SOL     OW66778   9.645   7.021  10.371
55585SOL    HW166779   9.567   6.990  10.318
55585SOL    HW266780   9.703   7.079  10.314
55586SOL     OW66781  10.770   7.091  10.649
55586SOL    HW166782  10.794   7.185  10.675
55586SOL    HW266783  10.754   7.037  10.731
55587SOL     OW66784   9.748   5.978  10.809
55587SOL    HW166785   9.830   5.922  10.818
55587SOL    HW266786   9.667   5.920  10.813
55588SOL     OW66787  10.913   6.033  10.047
55588SOL    HW166788  10.839   6.079   9.997
55588SOL    HW266789  10.964   6.101  10.100
55589SOL     OW66790   9.541   7.299   9.793
55589SOL    HW166791   9.575   7.376   9.847
55589SOL    HW266792   9.585   7.299   9.703
55590SOL     OW66793  10.437   6.927  11.000
55590SOL    HW166794  10.484   6.927  11.088
55590SOL    HW266795  10.389   6.840  10.989
55591SOL     OW66796   9.540   7.020   9.848
55591SOL    HW166797   9.514   7.116   9.848
55591SOL    HW266798   9.469   6.966   9.893
55592SOL     OW66799   9.550   6.677  10.196
55592SOL    HW166800   9.564   6.593  10.248
55592SOL    HW266801   9.495   6.741  10.251
55593SOL     OW66802   9.930   7.372  10.749
55593SOL    HW166803   9.838   7.355  10.784
55593SOL    HW266804   9.958   7.464  10.775
55594SOL     OW66805   9.916   6.550   9.433
55594SOL    HW166806   9.923   6.634   9.379
55594SOL    HW266807   9.962   6.563   9.521
55595SOL     OW66808  10.904   5.700  10.790
55595SOL    HW166809  10.886   5.767  10.718
55595SOL    HW266810  10.901   5.746  10.879
55596SOL     OW66811   9.432   6.229   9.873
55596SOL    HW166812   9.387   6.141   9.890
55596SOL    HW266813   9.431   6.283   9.957
55597SOL     OW66814  11.152   7.353   9.669
55597SOL    HW166815  11.206   7.324   9.749
55597SOL    HW266816  11.182   7.443   9.640
55598SOL     OW66817   9.337   7.182   9.427
55598SOL    HW166818   9.318   7.086   9.448
55598SOL    HW266819   9.304   7.240   9.502
55599SOL     OW66820  10.999   6.508   9.922
55599SOL    HW166821  11.094   6.479   9.930
55599SOL    HW266822  10.991   6.573   9.847
55600SOL     OW66823  10.951   6.694   9.742
55600SOL    HW166824  11.037   6.696   9.690
55600SOL    HW266825  10.965   6.741   9.830
55601SOL     OW66826   9.423   6.323  10.907
55601SOL    HW166827   9.511   6.310  10.952
55601SOL    HW266828   9.410   6.420  10.885
55602SOL     OW66829   9.923   6.951  10.036
55602SOL    HW166830   9.874   6.864  10.045
55602SOL    HW266831   9.900   6.994   9.949
55603SOL     OW66832  10.603   6.814  10.733
55603SOL    HW166833  10.640   6.741  10.675
55603SOL    HW266834  10.655   6.819  10.818
55604SOL     OW66835  10.119   5.590   9.812
55604SOL    HW166836  10.159   5.681   9.803
55604SOL    HW266837  10.019   5.598   9.818
55605SOL     OW66838   9.507   6.562  10.574
55605SOL    HW166839   9.596   6.517  10.560
55605SOL    HW266840   9.434   6.497  10.555
55606SOL     OW66841  10.835   6.585   9.500
55606SOL    HW166842  10.772   6.509   9.513
55606SOL    HW266843  10.883   6.603   9.586
55607SOL     OW66844  10.497   7.378  10.926
55607SOL    HW166845  10.521   7.438  10.850
55607SOL    HW266846  10.504   7.283  10.896
55608SOL     OW66847   9.627   5.837  11.111
55608SOL    HW166848   9.698   5.908  11.117
55608SOL    HW266849   9.539   5.876  11.139
55609SOL     OW66850  10.776   7.003  10.263
55609SOL    HW166851  10.717   7.009  10.343
55609SOL    HW266852  10.761   6.915  10.217
55610SOL     OW66853  10.977   7.300   9.882
55610SOL    HW166854  10.936   7.277   9.794
55610SOL    HW266855  10.959   7.226   9.947
55611SOL     OW66856   9.908   6.315   9.580
55611SOL    HW166857   9.932   6.384   9.512
55611SOL    HW266858   9.830   6.348   9.634
55612SOL     OW66859  10.591   5.931  10.254
55612SOL    HW166860  10.505   5.881  10.241
55612SOL    HW266861  10.653   5.877  10.310
55613SOL     OW66862  10.886   7.248   9.617
55613SOL    HW166863  10.975   7.294   9.620
55613SOL    HW266864  10.865   7.224   9.522
55614SOL     OW66865  10.117   6.191  10.775
55614SOL    HW166866  10.070   6.188  10.864
55614SOL    HW266867  10.066   6.136  10.709
55615SOL     OW66868  10.704   6.055  10.984
55615SOL    HW166869  10.684   6.098  11.072
55615SOL    HW266870  10.782   5.993  10.993
55616SOL     OW66871  10.283   6.476  10.882
55616SOL    HW166872  10.329   6.392  10.853
55616SOL    HW266873  10.227   6.510  10.807
55617SOL     OW66874  10.301   5.996  10.552
55617SOL    HW166875  10.224   6.030  10.606
55617SOL    HW266876  10.267   5.945  10.473
55618SOL     OW66877  10.351   6.287   9.739
55618SOL    HW166878  10.377   6.283   9.835
55618SOL    HW266879  10.266   6.236   9.725
55619SOL     OW66880   9.386   6.397  10.099
55619SOL    HW166881   9.485   6.385  10.108
55619SOL    HW266882   9.362   6.492  10.120
55620SOL     OW66883   9.440   7.407  10.881
55620SOL    HW166884   9.430   7.392  10.980
55620SOL    HW266885   9.354   7.443  10.845
55621SOL     OW66886  10.175   5.934   9.505
55621SOL    HW166887  10.234   5.997   9.456
55621SOL    HW266888  10.194   5.840   9.476
55622SOL     OW66889  11.029   6.171  11.141
55622SOL    HW166890  11.003   6.260  11.105
55622SOL    HW266891  11.027   6.103  11.068
55623SOL     OW66892  10.672   6.730   9.855
55623SOL    HW166893  10.755   6.701   9.807
55623SOL    HW266894  10.623   6.797   9.799
55624SOL     OW66895   9.860   5.782  10.195
55624SOL    HW166896   9.855   5.777  10.295
55624SOL    HW266897   9.862   5.878  10.166
55625SOL     OW66898  10.318   7.042   9.787
55625SOL    HW166899  10.272   7.114   9.735
55625SOL    HW266900  10.314   7.062   9.885
55626SOL     OW66901   9.661   7.387  10.163
55626SOL    HW166902   9.711   7.301  10.169
55626SOL    HW266903   9.726   7.464  10.160
55627SOL     OW66904  11.105   6.652  10.183
55627SOL    HW166905  11.043   6.637  10.107
55627SOL    HW266906  11.053   6.663  10.268
55628SOL     OW66907  10.537   7.136  10.816
55628SOL    HW166908  10.543   7.059  10.880
55628SOL    HW266909  10.485   7.110  10.736
55629SOL     OW66910   9.631   6.529   9.552
55629SOL    HW166911   9.713   6.568   9.510
55629SOL    HW266912   9.604   6.447   9.503
55630SOL     OW66913  10.768   6.321  10.038
55630SOL    HW166914  10.763   6.256  10.113
55630SOL    HW266915  10.848   6.380  10.051
55631SOL     OW66916   9.771   6.852  11.037
55631SOL    HW166917   9.721   6.853  10.951
55631SOL    HW266918   9.708   6.834  11.113
55632SOL     OW66919  10.421   7.362   9.547
55632SOL    HW166920  10.361   7.300   9.597
55632SOL    HW266921  10.452   7.318   9.462
55633SOL     OW66922   9.512   5.871  10.808
55633SOL    HW166923   9.432   5.931  10.795
55633SOL    HW266924   9.502   5.822  10.894
55634SOL     OW66925  10.942   6.963   9.391
55634SOL    HW166926  10.910   7.057   9.381
55634SOL    HW266927  10.866   6.900   9.379
55635SOL     OW66928   9.774   7.329   9.633
55635SOL    HW166929   9.807   7.368   9.719
55635SOL    HW266930   9.850   7.322   9.568
55636SOL     OW66931  10.710   5.693   9.736
55636SOL    HW166932  10.686   5.656   9.646
55636SOL    HW266933  10.809   5.709   9.740
55637SOL     OW66934   9.559   7.371  10.551
55637SOL    HW166935   9.616   7.306  10.601
55637SOL    HW266936   9.543   7.338  10.458
55638SOL     OW66937  10.250   7.284  10.214
55638SOL    HW166938  10.330   7.227  10.235
55638SOL    HW266939  10.201   7.244  10.137
55639SOL     OW66940   9.692   6.286   9.790
55639SOL    HW166941   9.737   6.196   9.787
55639SOL    HW266942   9.598   6.275   9.823
55640SOL     OW66943  10.857   5.808  11.039
55640SOL    HW166944  10.852   5.845  11.131
55640SOL    HW266945  10.785   5.739  11.027
55641SOL     OW66946   9.924   5.708   9.427
55641SOL    HW166947  10.022   5.686   9.434
55641SOL    HW266948   9.893   5.691   9.334
55642SOL     OW66949  10.091   5.850  11.059
55642SOL    HW166950  10.158   5.789  11.102
55642SOL    HW266951  10.018   5.869  11.124
55643SOL     OW66952  10.198   7.100  10.505
55643SOL    HW166953  10.175   7.075  10.411
55643SOL    HW266954  10.259   7.031  10.544
55644SOL     OW66955  10.661   6.176  10.743
55644SOL    HW166956  10.689   6.133  10.828
55644SOL    HW266957  10.686   6.272  10.744
55645SOL     OW66958  10.113   6.988  10.234
55645SOL    HW166959  10.203   7.002  10.192
55645SOL    HW266960  10.042   6.990  10.163
55646SOL     OW66961  10.232   6.089  10.209
55646SOL    HW166962  10.207   6.080  10.113
55646SOL    HW266963  10.280   6.007  10.240
55647SOL     OW66964   9.849   5.650   9.822
55647SOL    HW166965   9.768   5.651   9.880
55647SOL    HW266966   9.852   5.733   9.767
55648SOL     OW66967  10.744   6.774   9.351
55648SOL    HW166968  10.776   6.698   9.408
55648SOL    HW266969  10.652   6.801   9.381
55649SOL     OW66970   9.607   5.621   9.481
55649SOL    HW166971   9.656   5.705   9.460
55649SOL    HW266972   9.669   5.556   9.526
55650SOL     OW66973  10.245   5.822   9.790
55650SOL    HW166974  10.197   5.863   9.712
55650SOL    HW266975  10.344   5.820   9.771
55651SOL     OW66976  10.386   6.269  10.774
55651SOL    HW166977  10.306   6.208  10.777
55651SOL    HW266978  10.467   6.216  10.750
55652SOL     OW66979  10.537   7.156  10.103
55652SOL    HW166980  10.558   7.230  10.038
55652SOL    HW266981  10.605   7.156  10.176
55653SOL     OW66982   9.769   6.738  10.051
55653SOL    HW166983   9.698   6.711  10.116
55653SOL    HW266984   9.743   6.710   9.958
55654SOL     OW66985  10.581   7.383   9.901
55654SOL    HW166986  10.625   7.447   9.837
55654SOL    HW266987  10.531   7.435   9.971
55655SOL     OW66988  10.342   6.135   9.326
55655SOL    HW166989  10.301   6.217   9.287
55655SOL    HW266990  10.406   6.161   9.399
55656SOL     OW66991   9.388   6.142  10.696
55656SOL    HW166992   9.480   6.141  10.655
55656SOL    HW266993   9.382   6.216  10.763
55657SOL     OW66994   9.871   5.808  10.457
55657SOL    HW166995   9.909   5.724  10.494
55657SOL    HW266996   9.783   5.827  10.501
55658SOL     OW66997  10.176   6.040   9.952
55658SOL    HW166998  10.144   6.112   9.890
55658SOL    HW266999  10.200   5.959   9.899
55659SOL     OW67000  10.327   5.625  10.063
55659SOL    HW167001  10.255   5.630   9.994
55659SOL    HW267002  10.303   5.556  10.132
55660SOL     OW67003  10.739   6.759  10.177
55660SOL    HW167004  10.684   6.675  10.170
55660SOL    HW267005  10.765   6.788  10.085
55661SOL     OW67006  10.776   6.176  10.302
55661SOL    HW167007  10.746   6.081  10.309
55661SOL    HW267008  10.849   6.192  10.368
55662SOL     OW67009  11.167   6.419   9.687
55662SOL    HW167010  11.209   6.355   9.751
55662SOL    HW267011  11.129   6.368   9.609
55663SOL     OW67012   9.798   6.971   9.484
55663SOL    HW167013   9.711   6.956   9.531
55663SOL    HW267014   9.781   6.997   9.389
55664SOL     OW67015  10.974   6.866   9.967
55664SOL    HW167016  11.073   6.874   9.981
55664SOL    HW267017  10.929   6.950   9.998
55665SOL     OW67018  10.700   6.161   9.388
55665SOL    HW167019  10.646   6.140   9.469
55665SOL    HW267020  10.791   6.120   9.397
55666SOL     OW67021   9.837   5.842   9.638
55666SOL    HW167022   9.864   5.783   9.563
55666SOL    HW267023   9.837   5.937   9.607
55667SOL     OW67024  11.064   6.809  10.898
55667SOL    HW167025  11.155   6.770  10.885
55667SOL    HW267026  11.072   6.905  10.922
55668SOL     OW67027  10.374   6.933  10.650
55668SOL    HW167028  10.294   6.910  10.705
55668SOL    HW267029  10.457   6.907  10.699
55669SOL     OW67030  10.902   7.215  10.935
55669SOL    HW167031  10.929   7.249  10.845
55669SOL    HW267032  10.981   7.177  10.981
55670SOL     OW67033  10.421   6.781  10.410
55670SOL    HW167034  10.381   6.825  10.491
55670SOL    HW267035  10.380   6.818  10.327
55671SOL     OW67036  10.948   6.685  10.389
55671SOL    HW167037  10.953   6.766  10.448
55671SOL    HW267038  10.862   6.687  10.338
55672SOL     OW67039  10.225   5.675  10.712
55672SOL    HW167040  10.250   5.655  10.617
55672SOL    HW267041  10.297   5.731  10.754
55673SOL     OW67042  10.290   6.702  11.029
55673SOL    HW167043  10.191   6.708  11.039
55673SOL    HW267044  10.313   6.622  10.973
55674SOL     OW67045  10.015   6.636   9.678
55674SOL    HW167046  10.001   6.643   9.777
55674SOL    HW267047  10.099   6.585   9.660
55675SOL     OW67048   9.720   6.399  10.561
55675SOL    HW167049   9.806   6.411  10.611
55675SOL    HW267050   9.678   6.312  10.588
55676SOL     OW67051  10.584   5.972  10.572
55676SOL    HW167052  10.605   6.046  10.636
55676SOL    HW267053  10.495   5.989  10.529
55677SOL     OW67054   9.374   7.150  10.641
55677SOL    HW167055   9.328   7.232  10.607
55677SOL    HW267056   9.472   7.169  10.650
55678SOL     OW67057   9.677   6.686   9.811
55678SOL    HW167058   9.670   6.769   9.755
55678SOL    HW267059   9.681   6.606   9.751
55679SOL     OW67060   9.876   6.123  10.175
55679SOL    HW167061   9.888   6.189  10.101
55679SOL    HW267062   9.922   6.157  10.258
55680SOL     OW67063  10.562   6.934   9.698
55680SOL    HW167064  10.612   7.011   9.738
55680SOL    HW267065  10.467   6.936   9.730
55681SOL     OW67066  10.582   7.031  10.452
55681SOL    HW167067  10.629   7.044  10.539
55681SOL    HW267068  10.516   6.957  10.461
55682SOL     OW67069  10.892   6.225   9.782
55682SOL    HW167070  10.861   6.286   9.855
55682SOL    HW267071  10.942   6.277   9.713
55683SOL     OW67072   9.664   7.096  10.639
55683SOL    HW167073   9.643   7.052  10.552
55683SOL    HW267074   9.761   7.122  10.642
55684SOL     OW67075   9.712   6.337  10.908
55684SOL    HW167076   9.780   6.392  10.861
55684SOL    HW267077   9.752   6.249  10.935
55685SOL     OW67078  10.897   6.365  10.980
55685SOL    HW167079  10.805   6.403  10.975
55685SOL    HW267080  10.957   6.412  10.915
55686SOL     OW67081  10.323   5.691  11.080
55686SOL    HW167082  10.329   5.776  11.028
55686SOL    HW267083  10.355   5.615  11.023
55687SOL     OW67084   9.814   5.636  11.050
55687SOL    HW167085   9.772   5.579  10.980
55687SOL    HW267086   9.748   5.705  11.082
55688SOL     OW67087   9.883   6.456  10.339
55688SOL    HW167088   9.927   6.545  10.330
55688SOL    HW267089   9.820   6.456  10.416
55689SOL     OW67090  10.670   6.448  10.355
55689SOL    HW167091  10.595   6.448  10.289
55689SOL    HW267092  10.707   6.356  10.364
55690SOL     OW67093  10.519   6.111   9.585
55690SOL    HW167094  10.532   6.027   9.639
55690SOL    HW267095  10.490   6.185   9.645
55691SOL     OW67096   9.617   5.799  10.541
55691SOL    HW167097   9.594   5.836  10.631
55691SOL    HW267098   9.587   5.704  10.535
55692SOL     OW67099   9.347   6.896  10.592
55692SOL    HW167100   9.400   6.847  10.660
55692SOL    HW267101   9.369   6.994  10.597
55693SOL     OW67102  10.042   6.220  10.374
55693SOL    HW167103  10.101   6.194  10.298
55693SOL    HW267104  10.014   6.316  10.363
55694SOL     OW67105  11.038   6.521  11.164
55694SOL    HW167106  10.992   6.514  11.075
55694SOL    HW267107  10.976   6.565  11.230
55695SOL     OW67108   9.617   5.649   9.928
55695SOL    HW167109   9.606   5.743   9.961
55695SOL    HW267110   9.612   5.586  10.005
55696SOL     OW67111  10.932   5.953   9.684
55696SOL    HW167112  10.934   5.877   9.748
55696SOL    HW267113  10.884   6.030   9.724
55697SOL     OW67114  10.333   6.352  10.276
55697SOL    HW167115  10.348   6.373  10.372
55697SOL    HW267116  10.303   6.257  10.267
55698SOL     OW67117  10.290   7.159  11.010
55698SOL    HW167118  10.270   7.203  10.922
55698SOL    HW267119  10.329   7.068  10.994
55699SOL     OW67120  11.169   7.104  10.915
55699SOL    HW167121  11.183   7.131  10.820
55699SOL    HW267122  11.252   7.126  10.968
55700SOL     OW67123   9.660   6.484  11.114
55700SOL    HW167124   9.736   6.528  11.162
55700SOL    HW267125   9.695   6.437  11.032
55701SOL     OW67126  10.850   5.860   9.435
55701SOL    HW167127  10.789   5.785   9.458
55701SOL    HW267128  10.872   5.912   9.518
55702SOL     OW67129  10.613   6.424   9.352
55702SOL    HW167130  10.647   6.331   9.367
55702SOL    HW267131  10.631   6.451   9.257
55703SOL     OW67132  10.378   6.919  10.159
55703SOL    HW167133  10.385   6.835  10.104
55703SOL    HW267134  10.440   6.988  10.123
55704SOL     OW67135   9.629   6.396  10.259
55704SOL    HW167136   9.722   6.432  10.264
55704SOL    HW267137   9.623   6.311  10.311
55705SOL     OW67138   9.649   6.095  10.316
55705SOL    HW167139   9.597   6.012  10.299
55705SOL    HW267140   9.726   6.100  10.252
55706SOL     OW67141  10.448   5.966  10.988
55706SOL    HW167142  10.403   6.029  11.052
55706SOL    HW267143  10.541   5.997  10.971
55707SOL     OW67144  10.470   5.793  10.787
55707SOL    HW167145  10.470   5.857  10.864
55707SOL    HW267146  10.498   5.841  10.704
55708SOL     OW67147   9.318   6.912   9.510
55708SOL    HW167148   9.225   6.933   9.479
55708SOL    HW267149   9.328   6.813   9.523
55709SOL     OW67150   9.398   7.387  10.237
55709SOL    HW167151   9.356   7.301  10.210
55709SOL    HW267152   9.492   7.390  10.203
55710SOL     OW67153   9.814   7.154  10.220
55710SOL    HW167154   9.880   7.228  10.229
55710SOL    HW267155   9.858   7.075  10.178
55711SOL     OW67156  10.312   6.382  10.548
55711SOL    HW167157  10.353   6.350  10.634
55711SOL    HW267158  10.216   6.355  10.545
55712SOL     OW67159   9.350   6.130  10.424
55712SOL    HW167160   9.435   6.097  10.383
55712SOL    HW267161   9.363   6.145  10.522
55713SOL     OW67162   9.499   6.106  11.032
55713SOL    HW167163   9.558   6.066  10.962
55713SOL    HW267164   9.441   6.177  10.991
55714SOL     OW67165  10.679   6.536  10.970
55714SOL    HW167166  10.718   6.625  10.990
55714SOL    HW267167  10.689   6.516  10.873
55715SOL     OW67168  10.125   6.158   9.635
55715SOL    HW167169  10.132   6.069   9.589
55715SOL    HW267170  10.031   6.192   9.627
55716SOL     OW67171  10.967   6.190  10.516
55716SOL    HW167172  10.929   6.121  10.578
55716SOL    HW267173  11.049   6.154  10.472
55717SOL     OW67174   9.562   7.150  11.054
55717SOL    HW167175   9.532   7.207  11.130
55717SOL    HW267176   9.555   7.053  11.080
55718SOL     OW67177   9.981   6.050  10.579
55718SOL    HW167178   9.947   5.961  10.549
55718SOL    HW267179  10.007   6.104  10.499
55719SOL     OW67180  10.240   7.264  10.775
55719SOL    HW167181  10.216   7.246  10.680
55719SOL    HW267182  10.270   7.358  10.785
55720SOL     OW67183   9.783   6.086   9.501
55720SOL    HW167184   9.844   6.166   9.505
55720SOL    HW267185   9.688   6.117   9.508
55721SOL     OW67186   9.469   6.723  10.776
55721SOL    HW167187   9.491   6.662  10.852
55721SOL    HW267188   9.479   6.674  10.690
55722SOL     OW67189  10.657   6.645  10.544
55722SOL    HW167190  10.681   6.582  10.470
55722SOL    HW267191  10.567   6.685  10.526
55723SOL     OW67192  10.612   6.441   9.619
55723SOL    HW167193  10.526   6.410   9.661
55723SOL    HW267194  10.608   6.427   9.520
55724SOL     OW67195  11.069   7.333  10.464
55724SOL    HW167196  11.130   7.363  10.391
55724SOL    HW267197  11.031   7.244  10.442
55725SOL     OW67198  10.562   7.317  10.438
55725SOL    HW167199  10.646   7.322  10.384
55725SOL    HW267200  10.539   7.221  10.456
55726SOL     OW67201   9.393   6.844  10.332
55726SOL    HW167202   9.388   6.843  10.432
55726SOL    HW267203   9.310   6.803  10.294
55727SOL     OW67204   9.998   7.248  11.026
55727SOL    HW167205   9.942   7.329  11.035
55727SOL    HW267206  10.050   7.252  10.940
55728SOL     OW67207  11.036   5.721   9.833
55728SOL    HW167208  11.109   5.704   9.766
55728SOL    HW267209  11.005   5.634   9.871
55729SOL     OW67210  10.698   7.159   9.787
55729SOL    HW167211  10.765   7.171   9.713
55729SOL    HW267212  10.658   7.248   9.810
55730SOL     OW67213   9.440   7.380  11.161
55730SOL    HW167214   9.399   7.306  11.214
55730SOL    HW267215   9.504   7.431  11.219
55731SOL     OW67216  10.590   6.513   9.982
55731SOL    HW167217  10.650   6.432   9.984
55731SOL    HW267218  10.630   6.582   9.922
55732SOL     OW67219  10.140   6.859  10.732
55732SOL    HW167220  10.135   6.892  10.827
55732SOL    HW267221  10.054   6.878  10.686
55733SOL     OW67222   9.982   7.202   9.464
55733SOL    HW167223   9.991   7.212   9.365
55733SOL    HW267224   9.942   7.113   9.485
55734SOL     OW67225  10.960   7.306  10.704
55734SOL    HW167226  11.013   7.316  10.620
55734SOL    HW267227  10.933   7.396  10.738
55735SOL     OW67228  11.151   5.761  10.273
55735SOL    HW167229  11.190   5.676  10.237
55735SOL    HW267230  11.053   5.763  10.254
55736SOL     OW67231   9.573   5.912  10.030
55736SOL    HW167232   9.494   5.963   9.996
55736SOL    HW267233   9.564   5.897  10.128
55737SOL     OW67234  10.504   7.198   9.341
55737SOL    HW167235  10.510   7.105   9.378
55737SOL    HW267236  10.445   7.198   9.261
55738SOL     OW67237  10.132   6.588  10.682
55738SOL    HW167238  10.172   6.587  10.590
55738SOL    HW267239  10.142   6.680  10.722
55739SOL     OW67240  10.226   6.496   9.601
55739SOL    HW167241  10.289   6.534   9.533
55739SOL    HW267242  10.266   6.413   9.640
55740SOL     OW67243  10.814   7.193   9.354
55740SOL    HW167244  10.722   7.230   9.361
55740SOL    HW267245  10.852   7.213   9.264
55741SOL     OW67246   9.682   6.874  10.800
55741SOL    HW167247   9.669   6.967  10.766
55741SOL    HW267248   9.598   6.822  10.787
55742SOL     OW67249  10.924   6.878  10.599
55742SOL    HW167250  10.984   6.881  10.679
55742SOL    HW267251  10.849   6.942  10.612
55743SOL     OW67252  10.349   6.684  10.006
55743SOL    HW167253  10.279   6.637  10.060
55743SOL    HW267254  10.408   6.616   9.963
55744SOL     OW67255  10.324   5.822  10.281
55744SOL    HW167256  10.316   5.786  10.188
55744SOL    HW267257  10.322   5.746  10.346
55745SOL     OW67258   9.900   7.073   9.801
55745SOL    HW167259   9.942   7.015   9.731
55745SOL    HW267260   9.856   7.152   9.757
55746SOL     OW67261  11.019   5.971  10.691
55746SOL    HW167262  11.092   6.040  10.695
55746SOL    HW267263  11.047   5.896  10.632
55747SOL     OW67264   9.565   6.934   9.600
55747SOL    HW167265   9.469   6.935   9.573
55747SOL    HW267266   9.577   6.987   9.684
55748SOL     OW67267   9.415   6.599  11.036
55748SOL    HW167268   9.338   6.566  11.090
55748SOL    HW267269   9.500   6.569  11.078
55749SOL     OW67270   9.982   5.789  10.799
55749SOL    HW167271  10.072   5.773  10.759
55749SOL    HW267272   9.990   5.794  10.898
55750SOL     OW67273   9.385   5.931   9.343
55750SOL    HW167274   9.293   5.903   9.314
55750SOL    HW267275   9.416   6.008   9.287
55751SOL     OW67276  10.750   6.442  10.708
55751SOL    HW167277  10.693   6.494  10.645
55751SOL    HW267278  10.846   6.454  10.684
55752SOL     OW67279   9.382   5.752   9.628
55752SOL    HW167280   9.365   5.835   9.574
55752SOL    HW267281   9.472   5.715   9.606
55753SOL     OW67282  10.493   6.921   9.429
55753SOL    HW167283  10.394   6.910   9.431
55753SOL    HW267284  10.527   6.936   9.522
55754SOL     OW67285   9.923   6.428  10.741
55754SOL    HW167286   9.979   6.509  10.724
55754SOL    HW267287   9.982   6.348  10.744
55755SOL     OW67288  10.803   7.353  10.269
55755SOL    HW167289  10.836   7.417  10.200
55755SOL    HW267290  10.869   7.347  10.344
55756SOL     OW67291  10.026   6.151  11.018
55756SOL    HW167292  10.045   6.216  11.092
55756SOL    HW267293  10.086   6.071  11.027
55757SOL     OW67294  10.760   6.806  10.943
55757SOL    HW167295  10.751   6.796  11.042
55757SOL    HW267296  10.856   6.799  10.917
55758SOL     OW67297   9.700   7.327  10.870
55758SOL    HW167298   9.609   7.368  10.868
55758SOL    HW267299   9.693   7.233  10.902
55759SOL     OW67300  10.984   6.469  10.564
55759SOL    HW167301  10.957   6.380  10.527
55759SOL    HW267302  10.985   6.537  10.491
55760SOL     OW67303  10.535   5.911   9.759
55760SOL    HW167304  10.600   5.837   9.748
55760SOL    HW267305  10.555   5.961   9.843
55761SOL     OW67306   9.904   6.331   9.962
55761SOL    HW167307   9.954   6.416   9.943
55761SOL    HW267308   9.816   6.333   9.914
55762SOL     OW67309  11.087   5.928  10.952
55762SOL    HW167310  11.070   5.959  10.858
55762SOL    HW267311  11.003   5.891  10.990
55763SOL     OW67312  11.040   6.520  10.827
55763SOL    HW167313  11.078   6.611  10.842
55763SOL    HW267314  11.032   6.503  10.728
55764SOL     OW67315  10.169   6.960   9.326
55764SOL    HW167316  10.123   6.975   9.414
55764SOL    HW267317  10.213   7.045   9.296
55765SOL     OW67318   9.971   7.376  10.263
55765SOL    HW167319   9.925   7.464  10.250
55765SOL    HW267320  10.070   7.388  10.256
55766SOL     OW67321  10.169   6.542  10.171
55766SOL    HW167322  10.223   6.473  10.219
55766SOL    HW267323  10.137   6.611  10.237
55767SOL     OW67324  10.393   6.570   9.397
55767SOL    HW167325  10.370   6.623   9.315
55767SOL    HW267326  10.474   6.514   9.378
55768SOL     OW67327  11.171   7.155  10.161
55768SOL    HW167328  11.100   7.143  10.091
55768SOL    HW267329  11.172   7.076  10.221
55769SOL     OW67330   9.531   6.900  11.154
55769SOL    HW167331   9.466   6.827  11.133
55769SOL    HW267332   9.535   6.914  11.252
55770SOL     OW67333   9.389   6.826   9.963
55770SOL    HW167334   9.388   6.779  10.051
55770SOL    HW267335   9.471   6.798   9.912
55771SOL     OW67336   9.982   6.977  10.934
55771SOL    HW167337   9.904   6.927  10.972
55771SOL    HW267338   9.979   7.072  10.965
55772SOL     OW67339  11.134   5.778  10.537
55772SOL    HW167340  11.130   5.688  10.581
55772SOL    HW267341  11.137   5.767  10.438
55773SOL     OW67342   9.738   6.010   9.830
55773SOL    HW167343   9.768   5.938   9.768
55773SOL    HW267344   9.699   5.970   9.913
55774SOL     OW67345  11.015   7.073  10.414
55774SOL    HW167346  10.922   7.048  10.387
55774SOL    HW267347  11.041   7.023  10.496
55775SOL     OW67348   9.627   6.133  10.590
55775SOL    HW167349   9.665   6.074  10.662
55775SOL    HW267350   9.667   6.107  10.502
55776SOL     OW67351  10.122   7.172   9.997
55776SOL    HW167352  10.154   7.182   9.903
55776SOL    HW267353  10.043   7.110   9.999
55777SOL     OW67354  10.734   5.800  10.422
55777SOL    HW167355  10.786   5.735  10.477
55777SOL    HW267356  10.685   5.863  10.483
55778SOL     OW67357  10.311   5.620  10.464
55778SOL    HW167358  10.248   5.548  10.433
55778SOL    HW267359  10.404   5.584  10.464
55779SOL     OW67360  10.080   6.916   9.611
55779SOL    HW167361  10.034   6.829   9.628
55779SOL    HW267362  10.171   6.913   9.652
55780SOL     OW67363   9.928   7.153  10.594
55780SOL    HW167364   9.923   7.235  10.651
55780SOL    HW267365  10.017   7.150  10.549
55781SOL     OW67366  10.662   5.638   9.478
55781SOL    HW167367  10.697   5.597   9.394
55781SOL    HW267368  10.572   5.600   9.498
55782SOL     OW67369  10.610   6.039  10.001
55782SOL    HW167370  10.551   6.119  10.005
55782SOL    HW267371  10.625   6.004  10.094
55783SOL     OW67372  10.903   5.807  10.192
55783SOL    HW167373  10.819   5.806  10.246
55783SOL    HW267374  10.905   5.890  10.136
55784SOL     OW67375   9.349   6.663   9.610
55784SOL    HW167376   9.448   6.652   9.601
55784SOL    HW267377   9.309   6.577   9.642
55785SOL     OW67378  10.185   7.232   9.647
55785SOL    HW167379  10.108   7.197   9.593
55785SOL    HW267380  10.153   7.303   9.709
55786SOL     OW67381   9.540   6.214  11.285
55786SOL    HW167382   9.447   6.212  11.322
55786SOL    HW267383   9.541   6.175  11.193
55787SOL     OW67384   9.535   5.861  12.168
55787SOL    HW167385   9.570   5.844  12.260
55787SOL    HW267386   9.447   5.816  12.156
55788SOL     OW67387   9.329   5.954  11.819
55788SOL    HW167388   9.247   5.997  11.858
55788SOL    HW267389   9.301   5.881  11.756
55789SOL     OW67390   9.879   6.861  12.337
55789SOL    HW167391   9.786   6.854  12.300
55789SOL    HW267392   9.890   6.950  12.381
55790SOL     OW67393  10.865   7.097  11.875
55790SOL    HW167394  10.808   7.081  11.956
55790SOL    HW267395  10.806   7.107  11.795
55791SOL     OW67396  10.445   6.289  11.889
55791SOL    HW167397  10.502   6.367  11.864
55791SOL    HW267398  10.385   6.315  11.965
55792SOL     OW67399  11.065   6.193  11.403
55792SOL    HW167400  11.053   6.180  11.304
55792SOL    HW267401  11.035   6.112  11.452
55793SOL     OW67402  10.078   6.730  12.195
55793SOL    HW167403  10.000   6.747  12.255
55793SOL    HW267404  10.112   6.817  12.159
55794SOL     OW67405   9.995   6.598  11.837
55794SOL    HW167406  10.064   6.582  11.907
55794SOL    HW267407   9.922   6.655  11.875
55795SOL     OW67408   9.645   7.021  12.233
55795SOL    HW167409   9.567   6.990  12.180
55795SOL    HW267410   9.703   7.079  12.176
55796SOL     OW67411  10.770   7.091  12.511
55796SOL    HW167412  10.794   7.185  12.537
55796SOL    HW267413  10.754   7.037  12.593
55797SOL     OW67414   9.748   5.978  12.671
55797SOL    HW167415   9.830   5.922  12.680
55797SOL    HW267416   9.667   5.920  12.675
55798SOL     OW67417  10.913   6.033  11.909
55798SOL    HW167418  10.839   6.079  11.859
55798SOL    HW267419  10.964   6.101  11.962
55799SOL     OW67420   9.541   7.299  11.655
55799SOL    HW167421   9.575   7.376  11.709
55799SOL    HW267422   9.585   7.299  11.565
55800SOL     OW67423   9.540   7.020  11.710
55800SOL    HW167424   9.514   7.116  11.710
55800SOL    HW267425   9.469   6.966  11.755
55801SOL     OW67426   9.550   6.677  12.058
55801SOL    HW167427   9.564   6.593  12.110
55801SOL    HW267428   9.495   6.741  12.113
55802SOL     OW67429   9.930   7.372  12.611
55802SOL    HW167430   9.838   7.355  12.646
55802SOL    HW267431   9.958   7.464  12.637
55803SOL     OW67432   9.916   6.550  11.295
55803SOL    HW167433   9.923   6.634  11.241
55803SOL    HW267434   9.962   6.563  11.383
55804SOL     OW67435  10.904   5.700  12.652
55804SOL    HW167436  10.886   5.767  12.580
55804SOL    HW267437  10.901   5.746  12.741
55805SOL     OW67438   9.432   6.229  11.735
55805SOL    HW167439   9.387   6.141  11.752
55805SOL    HW267440   9.431   6.283  11.819
55806SOL     OW67441  11.152   7.353  11.531
55806SOL    HW167442  11.206   7.324  11.611
55806SOL    HW267443  11.182   7.443  11.502
55807SOL     OW67444   9.337   7.182  11.289
55807SOL    HW167445   9.318   7.086  11.310
55807SOL    HW267446   9.304   7.240  11.364
55808SOL     OW67447  10.999   6.508  11.784
55808SOL    HW167448  11.094   6.479  11.792
55808SOL    HW267449  10.991   6.573  11.709
55809SOL     OW67450  10.951   6.694  11.604
55809SOL    HW167451  11.037   6.696  11.552
55809SOL    HW267452  10.965   6.741  11.692
55810SOL     OW67453   9.423   6.323  12.769
55810SOL    HW167454   9.511   6.310  12.814
55810SOL    HW267455   9.410   6.420  12.747
55811SOL     OW67456   9.923   6.951  11.898
55811SOL    HW167457   9.874   6.864  11.907
55811SOL    HW267458   9.900   6.994  11.811
55812SOL     OW67459  10.603   6.814  12.595
55812SOL    HW167460  10.640   6.741  12.537
55812SOL    HW267461  10.655   6.819  12.680
55813SOL     OW67462  10.119   5.590  11.674
55813SOL    HW167463  10.159   5.681  11.665
55813SOL    HW267464  10.019   5.598  11.680
55814SOL     OW67465   9.507   6.562  12.436
55814SOL    HW167466   9.596   6.517  12.422
55814SOL    HW267467   9.434   6.497  12.417
55815SOL     OW67468  10.835   6.585  11.362
55815SOL    HW167469  10.772   6.509  11.375
55815SOL    HW267470  10.883   6.603  11.448
55816SOL     OW67471  10.776   7.003  12.125
55816SOL    HW167472  10.717   7.009  12.205
55816SOL    HW267473  10.761   6.915  12.079
55817SOL     OW67474  10.977   7.300  11.744
55817SOL    HW167475  10.936   7.277  11.656
55817SOL    HW267476  10.959   7.226  11.809
55818SOL     OW67477   9.908   6.315  11.442
55818SOL    HW167478   9.932   6.384  11.374
55818SOL    HW267479   9.830   6.348  11.496
55819SOL     OW67480  10.591   5.931  12.116
55819SOL    HW167481  10.505   5.881  12.103
55819SOL    HW267482  10.653   5.877  12.172
55820SOL     OW67483  10.886   7.248  11.479
55820SOL    HW167484  10.975   7.294  11.482
55820SOL    HW267485  10.865   7.224  11.384
55821SOL     OW67486  10.117   6.191  12.637
55821SOL    HW167487  10.070   6.188  12.726
55821SOL    HW267488  10.066   6.136  12.571
55822SOL     OW67489  10.283   6.476  12.744
55822SOL    HW167490  10.329   6.392  12.715
55822SOL    HW267491  10.227   6.510  12.669
55823SOL     OW67492  10.301   5.996  12.414
55823SOL    HW167493  10.224   6.030  12.468
55823SOL    HW267494  10.267   5.945  12.335
55824SOL     OW67495  10.351   6.287  11.601
55824SOL    HW167496  10.377   6.283  11.697
55824SOL    HW267497  10.266   6.236  11.587
55825SOL     OW67498   9.386   6.397  11.961
55825SOL    HW167499   9.485   6.385  11.970
55825SOL    HW267500   9.362   6.492  11.982
55826SOL     OW67501   9.440   7.407  12.743
55826SOL    HW167502   9.430   7.392  12.842
55826SOL    HW267503   9.354   7.443  12.707
55827SOL     OW67504  10.175   5.934  11.367
55827SOL    HW167505  10.234   5.997  11.318
55827SOL    HW267506  10.194   5.840  11.338
55828SOL     OW67507  10.672   6.730  11.717
55828SOL    HW167508  10.755   6.701  11.669
55828SOL    HW267509  10.623   6.797  11.661
55829SOL     OW67510   9.860   5.782  12.057
55829SOL    HW167511   9.855   5.777  12.157
55829SOL    HW267512   9.862   5.878  12.028
55830SOL     OW67513  10.318   7.042  11.649
55830SOL    HW167514  10.272   7.114  11.597
55830SOL    HW267515  10.314   7.062  11.747
55831SOL     OW67516   9.661   7.387  12.025
55831SOL    HW167517   9.711   7.301  12.031
55831SOL    HW267518   9.726   7.464  12.022
55832SOL     OW67519  11.105   6.652  12.045
55832SOL    HW167520  11.043   6.637  11.969
55832SOL    HW267521  11.053   6.663  12.130
55833SOL     OW67522  10.537   7.136  12.678
55833SOL    HW167523  10.543   7.059  12.742
55833SOL    HW267524  10.485   7.110  12.598
55834SOL     OW67525   9.631   6.529  11.414
55834SOL    HW167526   9.713   6.568  11.372
55834SOL    HW267527   9.604   6.447  11.365
55835SOL     OW67528  10.768   6.321  11.900
55835SOL    HW167529  10.763   6.256  11.975
55835SOL    HW267530  10.848   6.380  11.913
55836SOL     OW67531  10.421   7.362  11.409
55836SOL    HW167532  10.361   7.300  11.459
55836SOL    HW267533  10.452   7.318  11.324
55837SOL     OW67534   9.512   5.871  12.670
55837SOL    HW167535   9.432   5.931  12.657
55837SOL    HW267536   9.502   5.822  12.756
55838SOL     OW67537  10.942   6.963  11.253
55838SOL    HW167538  10.910   7.057  11.243
55838SOL    HW267539  10.866   6.900  11.241
55839SOL     OW67540   9.774   7.329  11.495
55839SOL    HW167541   9.807   7.368  11.581
55839SOL    HW267542   9.850   7.322  11.430
55840SOL     OW67543  10.710   5.693  11.598
55840SOL    HW167544  10.686   5.656  11.508
55840SOL    HW267545  10.809   5.709  11.602
55841SOL     OW67546   9.559   7.371  12.413
55841SOL    HW167547   9.616   7.306  12.463
55841SOL    HW267548   9.543   7.338  12.320
55842SOL     OW67549  10.250   7.284  12.076
55842SOL    HW167550  10.330   7.227  12.097
55842SOL    HW267551  10.201   7.244  11.999
55843SOL     OW67552   9.692   6.286  11.652
55843SOL    HW167553   9.737   6.196  11.649
55843SOL    HW267554   9.598   6.275  11.685
55844SOL     OW67555   9.924   5.708  11.289
55844SOL    HW167556  10.022   5.686  11.296
55844SOL    HW267557   9.893   5.691  11.196
55845SOL     OW67558  10.198   7.100  12.367
55845SOL    HW167559  10.175   7.075  12.273
55845SOL    HW267560  10.259   7.031  12.406
55846SOL     OW67561  10.661   6.176  12.605
55846SOL    HW167562  10.689   6.133  12.690
55846SOL    HW267563  10.686   6.272  12.606
55847SOL     OW67564  10.113   6.988  12.096
55847SOL    HW167565  10.203   7.002  12.054
55847SOL    HW267566  10.042   6.990  12.025
55848SOL     OW67567  10.232   6.089  12.071
55848SOL    HW167568  10.207   6.080  11.975
55848SOL    HW267569  10.280   6.007  12.102
55849SOL     OW67570   9.849   5.650  11.684
55849SOL    HW167571   9.768   5.651  11.742
55849SOL    HW267572   9.852   5.733  11.629
55850SOL     OW67573  10.744   6.774  11.213
55850SOL    HW167574  10.776   6.698  11.270
55850SOL    HW267575  10.652   6.801  11.243
55851SOL     OW67576   9.607   5.621  11.343
55851SOL    HW167577   9.656   5.705  11.322
55851SOL    HW267578   9.669   5.556  11.388
55852SOL     OW67579  10.245   5.822  11.652
55852SOL    HW167580  10.197   5.863  11.574
55852SOL    HW267581  10.344   5.820  11.633
55853SOL     OW67582  10.386   6.269  12.636
55853SOL    HW167583  10.306   6.208  12.639
55853SOL    HW267584  10.467   6.216  12.612
55854SOL     OW67585  10.537   7.156  11.965
55854SOL    HW167586  10.558   7.230  11.900
55854SOL    HW267587  10.605   7.156  12.038
55855SOL     OW67588   9.769   6.738  11.913
55855SOL    HW167589   9.698   6.711  11.978
55855SOL    HW267590   9.743   6.710  11.820
55856SOL     OW67591  10.581   7.383  11.763
55856SOL    HW167592  10.625   7.447  11.699
55856SOL    HW267593  10.531   7.435  11.833
55857SOL     OW67594  10.342   6.135  11.188
55857SOL    HW167595  10.301   6.217  11.149
55857SOL    HW267596  10.406   6.161  11.261
55858SOL     OW67597   9.388   6.142  12.558
55858SOL    HW167598   9.480   6.141  12.517
55858SOL    HW267599   9.382   6.216  12.625
55859SOL     OW67600   9.871   5.808  12.319
55859SOL    HW167601   9.909   5.724  12.356
55859SOL    HW267602   9.783   5.827  12.363
55860SOL     OW67603  10.176   6.040  11.814
55860SOL    HW167604  10.144   6.112  11.752
55860SOL    HW267605  10.200   5.959  11.761
55861SOL     OW67606  10.327   5.625  11.925
55861SOL    HW167607  10.255   5.630  11.856
55861SOL    HW267608  10.303   5.556  11.994
55862SOL     OW67609  10.739   6.759  12.039
55862SOL    HW167610  10.684   6.675  12.032
55862SOL    HW267611  10.765   6.788  11.947
55863SOL     OW67612  10.776   6.176  12.164
55863SOL    HW167613  10.746   6.081  12.171
55863SOL    HW267614  10.849   6.192  12.230
55864SOL     OW67615  11.167   6.419  11.549
55864SOL    HW167616  11.209   6.355  11.613
55864SOL    HW267617  11.129   6.368  11.471
55865SOL     OW67618   9.798   6.971  11.346
55865SOL    HW167619   9.711   6.956  11.393
55865SOL    HW267620   9.781   6.997  11.251
55866SOL     OW67621  10.974   6.866  11.829
55866SOL    HW167622  11.073   6.874  11.843
55866SOL    HW267623  10.929   6.950  11.860
55867SOL     OW67624  10.700   6.161  11.250
55867SOL    HW167625  10.646   6.140  11.331
55867SOL    HW267626  10.791   6.120  11.259
55868SOL     OW67627   9.837   5.842  11.500
55868SOL    HW167628   9.864   5.783  11.425
55868SOL    HW267629   9.837   5.937  11.469
55869SOL     OW67630  11.064   6.809  12.760
55869SOL    HW167631  11.155   6.770  12.747
55869SOL    HW267632  11.072   6.905  12.784
55870SOL     OW67633  10.374   6.933  12.512
55870SOL    HW167634  10.294   6.910  12.567
55870SOL    HW267635  10.457   6.907  12.561
55871SOL     OW67636  10.421   6.781  12.272
55871SOL    HW167637  10.381   6.825  12.353
55871SOL    HW267638  10.380   6.818  12.189
55872SOL     OW67639  10.948   6.685  12.251
55872SOL    HW167640  10.953   6.766  12.310
55872SOL    HW267641  10.862   6.687  12.200
55873SOL     OW67642  10.225   5.675  12.574
55873SOL    HW167643  10.250   5.655  12.479
55873SOL    HW267644  10.297   5.731  12.616
55874SOL     OW67645  10.015   6.636  11.540
55874SOL    HW167646  10.001   6.643  11.639
55874SOL    HW267647  10.099   6.585  11.522
55875SOL     OW67648   9.720   6.399  12.423
55875SOL    HW167649   9.806   6.411  12.473
55875SOL    HW267650   9.678   6.312  12.450
55876SOL     OW67651  10.584   5.972  12.434
55876SOL    HW167652  10.605   6.046  12.498
55876SOL    HW267653  10.495   5.989  12.391
55877SOL     OW67654   9.374   7.150  12.503
55877SOL    HW167655   9.328   7.232  12.469
55877SOL    HW267656   9.472   7.169  12.512
55878SOL     OW67657   9.677   6.686  11.673
55878SOL    HW167658   9.670   6.769  11.617
55878SOL    HW267659   9.681   6.606  11.613
55879SOL     OW67660   9.876   6.123  12.037
55879SOL    HW167661   9.888   6.189  11.963
55879SOL    HW267662   9.922   6.157  12.120
55880SOL     OW67663  10.562   6.934  11.560
55880SOL    HW167664  10.612   7.011  11.600
55880SOL    HW267665  10.467   6.936  11.592
55881SOL     OW67666  10.582   7.031  12.314
55881SOL    HW167667  10.629   7.044  12.401
55881SOL    HW267668  10.516   6.957  12.323
55882SOL     OW67669  10.892   6.225  11.644
55882SOL    HW167670  10.861   6.286  11.717
55882SOL    HW267671  10.942   6.277  11.575
55883SOL     OW67672   9.664   7.096  12.501
55883SOL    HW167673   9.643   7.052  12.414
55883SOL    HW267674   9.761   7.122  12.504
55884SOL     OW67675   9.712   6.337  12.770
55884SOL    HW167676   9.780   6.392  12.723
55884SOL    HW267677   9.752   6.249  12.797
55885SOL     OW67678  10.897   6.365  12.842
55885SOL    HW167679  10.805   6.403  12.837
55885SOL    HW267680  10.957   6.412  12.777
55886SOL     OW67681   9.883   6.456  12.201
55886SOL    HW167682   9.927   6.545  12.192
55886SOL    HW267683   9.820   6.456  12.278
55887SOL     OW67684  10.670   6.448  12.217
55887SOL    HW167685  10.595   6.448  12.151
55887SOL    HW267686  10.707   6.356  12.226
55888SOL     OW67687  10.519   6.111  11.447
55888SOL    HW167688  10.532   6.027  11.501
55888SOL    HW267689  10.490   6.185  11.507
55889SOL     OW67690   9.617   5.799  12.403
55889SOL    HW167691   9.594   5.836  12.493
55889SOL    HW267692   9.587   5.704  12.397
55890SOL     OW67693   9.347   6.896  12.454
55890SOL    HW167694   9.400   6.847  12.522
55890SOL    HW267695   9.369   6.994  12.459
55891SOL     OW67696  10.042   6.220  12.236
55891SOL    HW167697  10.101   6.194  12.160
55891SOL    HW267698  10.014   6.316  12.225
55892SOL     OW67699   9.617   5.649  11.790
55892SOL    HW167700   9.606   5.743  11.823
55892SOL    HW267701   9.612   5.586  11.867
55893SOL     OW67702  10.932   5.953  11.546
55893SOL    HW167703  10.934   5.877  11.610
55893SOL    HW267704  10.884   6.030  11.586
55894SOL     OW67705  10.333   6.352  12.138
55894SOL    HW167706  10.348   6.373  12.234
55894SOL    HW267707  10.303   6.257  12.129
55895SOL     OW67708  10.850   5.860  11.297
55895SOL    HW167709  10.789   5.785  11.320
55895SOL    HW267710  10.872   5.912  11.380
55896SOL     OW67711  10.613   6.424  11.214
55896SOL    HW167712  10.647   6.331  11.229
55896SOL    HW267713  10.631   6.451  11.119
55897SOL     OW67714  10.378   6.919  12.021
55897SOL    HW167715  10.385   6.835  11.966
55897SOL    HW267716  10.440   6.988  11.985
55898SOL     OW67717   9.629   6.396  12.121
55898SOL    HW167718   9.722   6.432  12.126
55898SOL    HW267719   9.623   6.311  12.173
55899SOL     OW67720   9.649   6.095  12.178
55899SOL    HW167721   9.597   6.012  12.161
55899SOL    HW267722   9.726   6.100  12.114
55900SOL     OW67723  10.470   5.793  12.649
55900SOL    HW167724  10.470   5.857  12.726
55900SOL    HW267725  10.498   5.841  12.566
55901SOL     OW67726   9.318   6.912  11.372
55901SOL    HW167727   9.225   6.933  11.341
55901SOL    HW267728   9.328   6.813  11.385
55902SOL     OW67729   9.398   7.387  12.099
55902SOL    HW167730   9.356   7.301  12.072
55902SOL    HW267731   9.492   7.390  12.065
55903SOL     OW67732   9.814   7.154  12.082
55903SOL    HW167733   9.880   7.228  12.091
55903SOL    HW267734   9.858   7.075  12.040
55904SOL     OW67735  10.312   6.382  12.410
55904SOL    HW167736  10.353   6.350  12.496
55904SOL    HW267737  10.216   6.355  12.407
55905SOL     OW67738   9.350   6.130  12.286
55905SOL    HW167739   9.435   6.097  12.245
55905SOL    HW267740   9.363   6.145  12.384
55906SOL     OW67741  10.125   6.158  11.497
55906SOL    HW167742  10.132   6.069  11.451
55906SOL    HW267743  10.031   6.192  11.489
55907SOL     OW67744  10.967   6.190  12.378
55907SOL    HW167745  10.929   6.121  12.440
55907SOL    HW267746  11.049   6.154  12.334
55908SOL     OW67747   9.562   7.150  12.916
55908SOL    HW167748   9.532   7.207  12.992
55908SOL    HW267749   9.555   7.053  12.942
55909SOL     OW67750   9.981   6.050  12.441
55909SOL    HW167751   9.947   5.961  12.411
55909SOL    HW267752  10.007   6.104  12.361
55910SOL     OW67753  10.240   7.264  12.637
55910SOL    HW167754  10.216   7.246  12.542
55910SOL    HW267755  10.270   7.358  12.647
55911SOL     OW67756   9.783   6.086  11.363
55911SOL    HW167757   9.844   6.166  11.367
55911SOL    HW267758   9.688   6.117  11.370
55912SOL     OW67759   9.469   6.723  12.638
55912SOL    HW167760   9.491   6.662  12.714
55912SOL    HW267761   9.479   6.674  12.552
55913SOL     OW67762  10.657   6.645  12.406
55913SOL    HW167763  10.681   6.582  12.332
55913SOL    HW267764  10.567   6.685  12.388
55914SOL     OW67765  10.612   6.441  11.481
55914SOL    HW167766  10.526   6.410  11.523
55914SOL    HW267767  10.608   6.427  11.382
55915SOL     OW67768  11.069   7.333  12.326
55915SOL    HW167769  11.130   7.363  12.253
55915SOL    HW267770  11.031   7.244  12.304
55916SOL     OW67771  10.562   7.317  12.300
55916SOL    HW167772  10.646   7.322  12.246
55916SOL    HW267773  10.539   7.221  12.318
55917SOL     OW67774   9.393   6.844  12.194
55917SOL    HW167775   9.388   6.843  12.294
55917SOL    HW267776   9.310   6.803  12.156
55918SOL     OW67777  11.036   5.721  11.695
55918SOL    HW167778  11.109   5.704  11.628
55918SOL    HW267779  11.005   5.634  11.733
55919SOL     OW67780  10.698   7.159  11.649
55919SOL    HW167781  10.765   7.171  11.575
55919SOL    HW267782  10.658   7.248  11.672
55920SOL     OW67783  10.590   6.513  11.844
55920SOL    HW167784  10.650   6.432  11.846
55920SOL    HW267785  10.630   6.582  11.784
55921SOL     OW67786  10.140   6.859  12.594
55921SOL    HW167787  10.135   6.892  12.689
55921SOL    HW267788  10.054   6.878  12.548
55922SOL     OW67789   9.982   7.202  11.326
55922SOL    HW167790   9.991   7.212  11.227
55922SOL    HW267791   9.942   7.113  11.347
55923SOL     OW67792  10.960   7.306  12.566
55923SOL    HW167793  11.013   7.316  12.482
55923SOL    HW267794  10.933   7.396  12.600
55924SOL     OW67795  11.151   5.761  12.135
55924SOL    HW167796  11.190   5.676  12.099
55924SOL    HW267797  11.053   5.763  12.116
55925SOL     OW67798   9.573   5.912  11.892
55925SOL    HW167799   9.494   5.963  11.858
55925SOL    HW267800   9.564   5.897  11.990
55926SOL     OW67801  10.504   7.198  11.203
55926SOL    HW167802  10.510   7.105  11.240
55926SOL    HW267803  10.445   7.198  11.123
55927SOL     OW67804  10.132   6.588  12.544
55927SOL    HW167805  10.172   6.587  12.452
55927SOL    HW267806  10.142   6.680  12.584
55928SOL     OW67807  10.226   6.496  11.463
55928SOL    HW167808  10.289   6.534  11.395
55928SOL    HW267809  10.266   6.413  11.502
55929SOL     OW67810  10.814   7.193  11.216
55929SOL    HW167811  10.722   7.230  11.223
55929SOL    HW267812  10.852   7.213  11.126
55930SOL     OW67813   9.682   6.874  12.662
55930SOL    HW167814   9.669   6.967  12.628
55930SOL    HW267815   9.598   6.822  12.649
55931SOL     OW67816  10.924   6.878  12.461
55931SOL    HW167817  10.984   6.881  12.541
55931SOL    HW267818  10.849   6.942  12.474
55932SOL     OW67819  10.349   6.684  11.868
55932SOL    HW167820  10.279   6.637  11.922
55932SOL    HW267821  10.408   6.616  11.825
55933SOL     OW67822  10.324   5.822  12.143
55933SOL    HW167823  10.316   5.786  12.050
55933SOL    HW267824  10.322   5.746  12.208
55934SOL     OW67825   9.900   7.073  11.663
55934SOL    HW167826   9.942   7.015  11.593
55934SOL    HW267827   9.856   7.152  11.619
55935SOL     OW67828  11.019   5.971  12.553
55935SOL    HW167829  11.092   6.040  12.557
55935SOL    HW267830  11.047   5.896  12.494
55936SOL     OW67831   9.565   6.934  11.462
55936SOL    HW167832   9.469   6.935  11.435
55936SOL    HW267833   9.577   6.987  11.546
55937SOL     OW67834   9.415   6.599  12.898
55937SOL    HW167835   9.338   6.566  12.952
55937SOL    HW267836   9.500   6.569  12.940
55938SOL     OW67837   9.982   5.789  12.661
55938SOL    HW167838  10.072   5.773  12.621
55938SOL    HW267839   9.990   5.794  12.760
55939SOL     OW67840   9.385   5.931  11.205
55939SOL    HW167841   9.293   5.903  11.176
55939SOL    HW267842   9.416   6.008  11.149
55940SOL     OW67843  10.750   6.442  12.570
55940SOL    HW167844  10.693   6.494  12.507
55940SOL    HW267845  10.846   6.454  12.546
55941SOL     OW67846   9.382   5.752  11.490
55941SOL    HW167847   9.365   5.835  11.436
55941SOL    HW267848   9.472   5.715  11.468
55942SOL     OW67849  10.493   6.921  11.291
55942SOL    HW167850  10.394   6.910  11.293
55942SOL    HW267851  10.527   6.936  11.384
55943SOL     OW67852   9.923   6.428  12.603
55943SOL    HW167853   9.979   6.509  12.586
55943SOL    HW267854   9.982   6.348  12.606
55944SOL     OW67855  10.803   7.353  12.131
55944SOL    HW167856  10.836   7.417  12.062
55944SOL    HW267857  10.869   7.347  12.206
55945SOL     OW67858  10.026   6.151  12.880
55945SOL    HW167859  10.045   6.216  12.954
55945SOL    HW267860  10.086   6.071  12.889
55946SOL     OW67861   9.700   7.327  12.732
55946SOL    HW167862   9.609   7.368  12.730
55946SOL    HW267863   9.693   7.233  12.764
55947SOL     OW67864  10.984   6.469  12.426
55947SOL    HW167865  10.957   6.380  12.389
55947SOL    HW267866  10.985   6.537  12.353
55948SOL     OW67867  10.535   5.911  11.621
55948SOL    HW167868  10.600   5.837  11.610
55948SOL    HW267869  10.555   5.961  11.705
55949SOL     OW67870   9.904   6.331  11.824
55949SOL    HW167871   9.954   6.416  11.805
55949SOL    HW267872   9.816   6.333  11.776
55950SOL     OW67873  11.087   5.928  12.814
55950SOL    HW167874  11.070   5.959  12.720
55950SOL    HW267875  11.003   5.891  12.852
55951SOL     OW67876  11.040   6.520  12.689
55951SOL    HW167877  11.078   6.611  12.704
55951SOL    HW267878  11.032   6.503  12.590
55952SOL     OW67879  10.169   6.960  11.188
55952SOL    HW167880  10.123   6.975  11.276
55952SOL    HW267881  10.213   7.045  11.158
55953SOL     OW67882   9.971   7.376  12.125
55953SOL    HW167883   9.925   7.464  12.112
55953SOL    HW267884  10.070   7.388  12.118
55954SOL     OW67885  10.169   6.542  12.033
55954SOL    HW167886  10.223   6.473  12.081
55954SOL    HW267887  10.137   6.611  12.099
55955SOL     OW67888  10.393   6.570  11.259
55955SOL    HW167889  10.370   6.623  11.177
55955SOL    HW267890  10.474   6.514  11.240
55956SOL     OW67891  11.171   7.155  12.023
55956SOL    HW167892  11.100   7.143  11.953
55956SOL    HW267893  11.172   7.076  12.083
55957SOL     OW67894   9.389   6.826  11.825
55957SOL    HW167895   9.388   6.779  11.913
55957SOL    HW267896   9.471   6.798  11.774
55958SOL     OW67897   9.982   6.977  12.796
55958SOL    HW167898   9.904   6.927  12.834
55958SOL    HW267899   9.979   7.072  12.827
55959SOL     OW67900  11.134   5.778  12.399
55959SOL    HW167901  11.130   5.688  12.443
55959SOL    HW267902  11.137   5.767  12.300
55960SOL     OW67903   9.738   6.010  11.692
55960SOL    HW167904   9.768   5.938  11.630
55960SOL    HW267905   9.699   5.970  11.775
55961SOL     OW67906  11.015   7.073  12.276
55961SOL    HW167907  10.922   7.048  12.249
55961SOL    HW267908  11.041   7.023  12.358
55962SOL     OW67909   9.627   6.133  12.452
55962SOL    HW167910   9.665   6.074  12.524
55962SOL    HW267911   9.667   6.107  12.364
55963SOL     OW67912  10.122   7.172  11.859
55963SOL    HW167913  10.154   7.182  11.765
55963SOL    HW267914  10.043   7.110  11.861
55964SOL     OW67915  10.734   5.800  12.284
55964SOL    HW167916  10.786   5.735  12.339
55964SOL    HW267917  10.685   5.863  12.345
55965SOL     OW67918  10.311   5.620  12.326
55965SOL    HW167919  10.248   5.548  12.295
55965SOL    HW267920  10.404   5.584  12.326
55966SOL     OW67921  10.080   6.916  11.473
55966SOL    HW167922  10.034   6.829  11.490
55966SOL    HW267923  10.171   6.913  11.514
55967SOL     OW67924   9.928   7.153  12.456
55967SOL    HW167925   9.923   7.235  12.513
55967SOL    HW267926  10.017   7.150  12.411
55968SOL     OW67927  10.662   5.638  11.340
55968SOL    HW167928  10.697   5.597  11.256
55968SOL    HW267929  10.572   5.600  11.360
55969SOL     OW67930  10.610   6.039  11.863
55969SOL    HW167931  10.551   6.119  11.867
55969SOL    HW267932  10.625   6.004  11.956
55970SOL     OW67933  10.903   5.807  12.054
55970SOL    HW167934  10.819   5.806  12.108
55970SOL    HW267935  10.905   5.890  11.998
55971SOL     OW67936   9.349   6.663  11.472
55971SOL    HW167937   9.448   6.652  11.463
55971SOL    HW267938   9.309   6.577  11.504
55972SOL     OW67939  10.185   7.232  11.509
55972SOL    HW167940  10.108   7.197  11.455
55972SOL    HW267941  10.153   7.303  11.571
55973SOL     OW67942   9.540   8.076   0.113
55973SOL    HW167943   9.447   8.074   0.150
55973SOL    HW267944   9.541   8.037   0.021
55974SOL     OW67945   9.535   7.723   0.996
55974SOL    HW167946   9.570   7.706   1.088
55974SOL    HW267947   9.447   7.678   0.984
55975SOL     OW67948   9.329   7.816   0.647
55975SOL    HW167949   9.247   7.859   0.686
55975SOL    HW267950   9.301   7.743   0.584
55976SOL     OW67951   9.879   8.723   1.165
55976SOL    HW167952   9.786   8.716   1.128
55976SOL    HW267953   9.890   8.812   1.209
55977SOL     OW67954  10.865   8.959   0.703
55977SOL    HW167955  10.808   8.943   0.784
55977SOL    HW267956  10.806   8.969   0.623
55978SOL     OW67957  10.445   8.151   0.717
55978SOL    HW167958  10.502   8.229   0.692
55978SOL    HW267959  10.385   8.177   0.793
55979SOL     OW67960  11.065   8.055   0.231
55979SOL    HW167961  11.053   8.042   0.132
55979SOL    HW267962  11.035   7.974   0.280
55980SOL     OW67963  10.078   8.592   1.023
55980SOL    HW167964  10.000   8.609   1.083
55980SOL    HW267965  10.112   8.679   0.987
55981SOL     OW67966  10.160   8.246   1.823
55981SOL    HW167967  10.156   8.322   1.888
55981SOL    HW267968  10.182   8.282   1.732
55982SOL     OW67969   9.995   8.460   0.665
55982SOL    HW167970  10.064   8.444   0.735
55982SOL    HW267971   9.922   8.517   0.703
55983SOL     OW67972   9.996   8.609   1.803
55983SOL    HW167973  10.056   8.688   1.817
55983SOL    HW267974   9.910   8.640   1.762
55984SOL     OW67975   9.645   8.883   1.061
55984SOL    HW167976   9.567   8.852   1.008
55984SOL    HW267977   9.703   8.941   1.004
55985SOL     OW67978  10.770   8.953   1.339
55985SOL    HW167979  10.794   9.047   1.365
55985SOL    HW267980  10.754   8.899   1.421
55986SOL     OW67981   9.748   7.840   1.499
55986SOL    HW167982   9.830   7.784   1.508
55986SOL    HW267983   9.667   7.782   1.503
55987SOL     OW67984  10.913   7.895   0.737
55987SOL    HW167985  10.839   7.941   0.687
55987SOL    HW267986  10.964   7.963   0.790
55988SOL     OW67987   9.541   9.161   0.483
55988SOL    HW167988   9.575   9.238   0.537
55988SOL    HW267989   9.585   9.161   0.393
55989SOL     OW67990  10.437   8.789   1.690
55989SOL    HW167991  10.484   8.789   1.778
55989SOL    HW267992  10.389   8.702   1.679
55990SOL     OW67993   9.540   8.882   0.538
55990SOL    HW167994   9.514   8.978   0.538
55990SOL    HW267995   9.469   8.828   0.583
55991SOL     OW67996   9.550   8.539   0.886
55991SOL    HW167997   9.564   8.455   0.938
55991SOL    HW267998   9.495   8.603   0.941
55992SOL     OW67999   9.930   9.234   1.439
55992SOL    HW168000   9.838   9.217   1.474
55992SOL    HW268001   9.958   9.326   1.465
55993SOL     OW68002   9.916   8.412   0.123
55993SOL    HW168003   9.923   8.496   0.069
55993SOL    HW268004   9.962   8.425   0.211
55994SOL     OW68005  10.904   7.562   1.480
55994SOL    HW168006  10.886   7.629   1.408
55994SOL    HW268007  10.901   7.608   1.569
55995SOL     OW68008   9.432   8.091   0.563
55995SOL    HW168009   9.387   8.003   0.580
55995SOL    HW268010   9.431   8.145   0.647
55996SOL     OW68011  11.152   9.215   0.359
55996SOL    HW168012  11.206   9.186   0.439
55996SOL    HW268013  11.182   9.305   0.330
55997SOL     OW68014   9.337   9.044   0.117
55997SOL    HW168015   9.318   8.948   0.138
55997SOL    HW268016   9.304   9.102   0.192
55998SOL     OW68017  10.999   8.370   0.612
55998SOL    HW168018  11.094   8.341   0.620
55998SOL    HW268019  10.991   8.435   0.537
55999SOL     OW68020  10.951   8.556   0.432
55999SOL    HW168021  11.037   8.558   0.380
55999SOL    HW268022  10.965   8.603   0.520
56000SOL     OW68023   9.423   8.185   1.597
56000SOL    HW168024   9.511   8.172   1.642
56000SOL    HW268025   9.410   8.282   1.575
56001SOL     OW68026   9.923   8.813   0.726
56001SOL    HW168027   9.874   8.726   0.735
56001SOL    HW268028   9.900   8.856   0.639
56002SOL     OW68029  10.603   8.676   1.423
56002SOL    HW168030  10.640   8.603   1.365
56002SOL    HW268031  10.655   8.681   1.508
56003SOL     OW68032  10.119   7.452   0.502
56003SOL    HW168033  10.159   7.543   0.493
56003SOL    HW268034  10.019   7.460   0.508
56004SOL     OW68035   9.507   8.424   1.264
56004SOL    HW168036   9.596   8.379   1.250
56004SOL    HW268037   9.434   8.359   1.245
56005SOL     OW68038  10.835   8.447   0.190
56005SOL    HW168039  10.772   8.371   0.203
56005SOL    HW268040  10.883   8.465   0.276
56006SOL     OW68041  10.497   9.240   1.616
56006SOL    HW168042  10.521   9.300   1.540
56006SOL    HW268043  10.504   9.145   1.586
56007SOL     OW68044   9.627   7.699   1.801
56007SOL    HW168045   9.698   7.770   1.807
56007SOL    HW268046   9.539   7.738   1.829
56008SOL     OW68047  10.776   8.865   0.953
56008SOL    HW168048  10.717   8.871   1.033
56008SOL    HW268049  10.761   8.777   0.907
56009SOL     OW68050  10.977   9.162   0.572
56009SOL    HW168051  10.936   9.139   0.484
56009SOL    HW268052  10.959   9.088   0.637
56010SOL     OW68053   9.908   8.177   0.270
56010SOL    HW168054   9.932   8.246   0.202
56010SOL    HW268055   9.830   8.210   0.324
56011SOL     OW68056  10.591   7.793   0.944
56011SOL    HW168057  10.505   7.743   0.931
56011SOL    HW268058  10.653   7.739   1.000
56012SOL     OW68059  10.886   9.110   0.307
56012SOL    HW168060  10.975   9.156   0.310
56012SOL    HW268061  10.865   9.086   0.212
56013SOL     OW68062  10.117   8.053   1.465
56013SOL    HW168063  10.070   8.050   1.554
56013SOL    HW268064  10.066   7.998   1.399
56014SOL     OW68065  10.704   7.917   1.674
56014SOL    HW168066  10.684   7.960   1.762
56014SOL    HW268067  10.782   7.855   1.683
56015SOL     OW68068  10.283   8.338   1.572
56015SOL    HW168069  10.329   8.254   1.543
56015SOL    HW268070  10.227   8.372   1.497
56016SOL     OW68071  10.301   7.858   1.242
56016SOL    HW168072  10.224   7.892   1.296
56016SOL    HW268073  10.267   7.807   1.163
56017SOL     OW68074  10.351   8.149   0.429
56017SOL    HW168075  10.377   8.145   0.525
56017SOL    HW268076  10.266   8.098   0.415
56018SOL     OW68077   9.386   8.259   0.789
56018SOL    HW168078   9.485   8.247   0.798
56018SOL    HW268079   9.362   8.354   0.810
56019SOL     OW68080   9.440   9.269   1.571
56019SOL    HW168081   9.430   9.254   1.670
56019SOL    HW268082   9.354   9.305   1.535
56020SOL     OW68083  10.175   7.796   0.195
56020SOL    HW168084  10.234   7.859   0.146
56020SOL    HW268085  10.194   7.702   0.166
56021SOL     OW68086  11.029   8.033   1.831
56021SOL    HW168087  11.003   8.122   1.795
56021SOL    HW268088  11.027   7.965   1.758
56022SOL     OW68089  10.672   8.592   0.545
56022SOL    HW168090  10.755   8.563   0.497
56022SOL    HW268091  10.623   8.659   0.489
56023SOL     OW68092   9.860   7.644   0.885
56023SOL    HW168093   9.855   7.639   0.985
56023SOL    HW268094   9.862   7.740   0.856
56024SOL     OW68095  10.318   8.904   0.477
56024SOL    HW168096  10.272   8.976   0.425
56024SOL    HW268097  10.314   8.924   0.575
56025SOL     OW68098   9.661   9.249   0.853
56025SOL    HW168099   9.711   9.163   0.859
56025SOL    HW268100   9.726   9.326   0.850
56026SOL     OW68101  11.105   8.514   0.873
56026SOL    HW168102  11.043   8.499   0.797
56026SOL    HW268103  11.053   8.525   0.958
56027SOL     OW68104  10.537   8.998   1.506
56027SOL    HW168105  10.543   8.921   1.570
56027SOL    HW268106  10.485   8.972   1.426
56028SOL     OW68107   9.631   8.391   0.242
56028SOL    HW168108   9.713   8.430   0.200
56028SOL    HW268109   9.604   8.309   0.193
56029SOL     OW68110  10.768   8.183   0.728
56029SOL    HW168111  10.763   8.118   0.803
56029SOL    HW268112  10.848   8.242   0.741
56030SOL     OW68113   9.771   8.714   1.727
56030SOL    HW168114   9.721   8.715   1.641
56030SOL    HW268115   9.708   8.696   1.803
56031SOL     OW68116  10.421   9.224   0.237
56031SOL    HW168117  10.361   9.162   0.287
56031SOL    HW268118  10.452   9.180   0.152
56032SOL     OW68119   9.512   7.733   1.498
56032SOL    HW168120   9.432   7.793   1.485
56032SOL    HW268121   9.502   7.684   1.584
56033SOL     OW68122  10.942   8.825   0.081
56033SOL    HW168123  10.910   8.919   0.071
56033SOL    HW268124  10.866   8.762   0.069
56034SOL     OW68125   9.774   9.191   0.323
56034SOL    HW168126   9.807   9.230   0.409
56034SOL    HW268127   9.850   9.184   0.258
56035SOL     OW68128  10.710   7.555   0.426
56035SOL    HW168129  10.686   7.518   0.336
56035SOL    HW268130  10.809   7.571   0.430
56036SOL     OW68131   9.559   9.233   1.241
56036SOL    HW168132   9.616   9.168   1.291
56036SOL    HW268133   9.543   9.200   1.148
56037SOL     OW68134  10.250   9.146   0.904
56037SOL    HW168135  10.330   9.089   0.925
56037SOL    HW268136  10.201   9.106   0.827
56038SOL     OW68137   9.692   8.148   0.480
56038SOL    HW168138   9.737   8.058   0.477
56038SOL    HW268139   9.598   8.137   0.513
56039SOL     OW68140  10.857   7.670   1.729
56039SOL    HW168141  10.852   7.707   1.821
56039SOL    HW268142  10.785   7.601   1.717
56040SOL     OW68143   9.924   7.570   0.117
56040SOL    HW168144  10.022   7.548   0.124
56040SOL    HW268145   9.893   7.553   0.024
56041SOL     OW68146  10.091   7.712   1.749
56041SOL    HW168147  10.158   7.651   1.792
56041SOL    HW268148  10.018   7.731   1.814
56042SOL     OW68149  10.198   8.962   1.195
56042SOL    HW168150  10.175   8.937   1.101
56042SOL    HW268151  10.259   8.893   1.234
56043SOL     OW68152  10.661   8.038   1.433
56043SOL    HW168153  10.689   7.995   1.518
56043SOL    HW268154  10.686   8.134   1.434
56044SOL     OW68155  10.113   8.850   0.924
56044SOL    HW168156  10.203   8.864   0.882
56044SOL    HW268157  10.042   8.852   0.853
56045SOL     OW68158  10.232   7.951   0.899
56045SOL    HW168159  10.207   7.942   0.803
56045SOL    HW268160  10.280   7.869   0.930
56046SOL     OW68161   9.849   7.512   0.512
56046SOL    HW168162   9.768   7.513   0.570
56046SOL    HW268163   9.852   7.595   0.457
56047SOL     OW68164  10.744   8.636   0.041
56047SOL    HW168165  10.776   8.560   0.098
56047SOL    HW268166  10.652   8.663   0.071
56048SOL     OW68167   9.607   7.483   0.171
56048SOL    HW168168   9.656   7.567   0.150
56048SOL    HW268169   9.669   7.418   0.216
56049SOL     OW68170  10.245   7.684   0.480
56049SOL    HW168171  10.197   7.725   0.402
56049SOL    HW268172  10.344   7.682   0.461
56050SOL     OW68173  10.386   8.131   1.464
56050SOL    HW168174  10.306   8.070   1.467
56050SOL    HW268175  10.467   8.078   1.440
56051SOL     OW68176  10.537   9.018   0.793
56051SOL    HW168177  10.558   9.092   0.728
56051SOL    HW268178  10.605   9.018   0.866
56052SOL     OW68179   9.769   8.600   0.741
56052SOL    HW168180   9.698   8.573   0.806
56052SOL    HW268181   9.743   8.572   0.648
56053SOL     OW68182  10.581   9.245   0.591
56053SOL    HW168183  10.625   9.309   0.527
56053SOL    HW268184  10.531   9.297   0.661
56054SOL     OW68185  10.342   7.997   0.016
56054SOL    HW168186  10.301   8.079  -0.023
56054SOL    HW268187  10.406   8.023   0.089
56055SOL     OW68188   9.388   8.004   1.386
56055SOL    HW168189   9.480   8.003   1.345
56055SOL    HW268190   9.382   8.078   1.453
56056SOL     OW68191   9.871   7.670   1.147
56056SOL    HW168192   9.909   7.586   1.184
56056SOL    HW268193   9.783   7.689   1.191
56057SOL     OW68194  10.176   7.902   0.642
56057SOL    HW168195  10.144   7.974   0.580
56057SOL    HW268196  10.200   7.821   0.589
56058SOL     OW68197  10.327   7.487   0.753
56058SOL    HW168198  10.255   7.492   0.684
56058SOL    HW268199  10.303   7.418   0.822
56059SOL     OW68200  10.739   8.621   0.867
56059SOL    HW168201  10.684   8.537   0.860
56059SOL    HW268202  10.765   8.650   0.775
56060SOL     OW68203  10.776   8.038   0.992
56060SOL    HW168204  10.746   7.943   0.999
56060SOL    HW268205  10.849   8.054   1.058
56061SOL     OW68206  11.167   8.281   0.377
56061SOL    HW168207  11.209   8.217   0.441
56061SOL    HW268208  11.129   8.230   0.299
56062SOL     OW68209   9.798   8.833   0.174
56062SOL    HW168210   9.711   8.818   0.221
56062SOL    HW268211   9.781   8.859   0.079
56063SOL     OW68212  10.974   8.728   0.657
56063SOL    HW168213  11.073   8.736   0.671
56063SOL    HW268214  10.929   8.812   0.688
56064SOL     OW68215  10.700   8.023   0.078
56064SOL    HW168216  10.646   8.002   0.159
56064SOL    HW268217  10.791   7.982   0.087
56065SOL     OW68218   9.837   7.704   0.328
56065SOL    HW168219   9.864   7.645   0.253
56065SOL    HW268220   9.837   7.799   0.297
56066SOL     OW68221  11.064   8.671   1.588
56066SOL    HW168222  11.155   8.632   1.575
56066SOL    HW268223  11.072   8.767   1.612
56067SOL     OW68224  10.374   8.795   1.340
56067SOL    HW168225  10.294   8.772   1.395
56067SOL    HW268226  10.457   8.769   1.389
56068SOL     OW68227  10.902   9.077   1.625
56068SOL    HW168228  10.929   9.111   1.535
56068SOL    HW268229  10.981   9.039   1.671
56069SOL     OW68230  10.421   8.643   1.100
56069SOL    HW168231  10.381   8.687   1.181
56069SOL    HW268232  10.380   8.680   1.017
56070SOL     OW68233  10.948   8.547   1.079
56070SOL    HW168234  10.953   8.628   1.138
56070SOL    HW268235  10.862   8.549   1.028
56071SOL     OW68236  10.225   7.537   1.402
56071SOL    HW168237  10.250   7.517   1.307
56071SOL    HW268238  10.297   7.593   1.444
56072SOL     OW68239  10.290   8.564   1.719
56072SOL    HW168240  10.191   8.570   1.729
56072SOL    HW268241  10.313   8.484   1.663
56073SOL     OW68242  10.015   8.498   0.368
56073SOL    HW168243  10.001   8.505   0.467
56073SOL    HW268244  10.099   8.447   0.350
56074SOL     OW68245   9.720   8.261   1.251
56074SOL    HW168246   9.806   8.273   1.301
56074SOL    HW268247   9.678   8.174   1.278
56075SOL     OW68248  10.584   7.834   1.262
56075SOL    HW168249  10.605   7.908   1.326
56075SOL    HW268250  10.495   7.851   1.219
56076SOL     OW68251   9.374   9.012   1.331
56076SOL    HW168252   9.328   9.094   1.297
56076SOL    HW268253   9.472   9.031   1.340
56077SOL     OW68254   9.677   8.548   0.501
56077SOL    HW168255   9.670   8.631   0.445
56077SOL    HW268256   9.681   8.468   0.441
56078SOL     OW68257   9.876   7.985   0.865
56078SOL    HW168258   9.888   8.051   0.791
56078SOL    HW268259   9.922   8.019   0.948
56079SOL     OW68260  10.562   8.796   0.388
56079SOL    HW168261  10.612   8.873   0.428
56079SOL    HW268262  10.467   8.798   0.420
56080SOL     OW68263  10.582   8.893   1.142
56080SOL    HW168264  10.629   8.906   1.229
56080SOL    HW268265  10.516   8.819   1.151
56081SOL     OW68266  10.892   8.087   0.472
56081SOL    HW168267  10.861   8.148   0.545
56081SOL    HW268268  10.942   8.139   0.403
56082SOL     OW68269   9.664   8.958   1.329
56082SOL    HW168270   9.643   8.914   1.242
56082SOL    HW268271   9.761   8.984   1.332
56083SOL     OW68272   9.712   8.199   1.598
56083SOL    HW168273   9.780   8.254   1.551
56083SOL    HW268274   9.752   8.111   1.625
56084SOL     OW68275  10.897   8.227   1.670
56084SOL    HW168276  10.805   8.265   1.665
56084SOL    HW268277  10.957   8.274   1.605
56085SOL     OW68278  10.323   7.553   1.770
56085SOL    HW168279  10.329   7.638   1.718
56085SOL    HW268280  10.355   7.477   1.713
56086SOL     OW68281   9.814   7.498   1.740
56086SOL    HW168282   9.772   7.441   1.670
56086SOL    HW268283   9.748   7.567   1.772
56087SOL     OW68284   9.883   8.318   1.029
56087SOL    HW168285   9.927   8.407   1.020
56087SOL    HW268286   9.820   8.318   1.106
56088SOL     OW68287  10.670   8.310   1.045
56088SOL    HW168288  10.595   8.310   0.979
56088SOL    HW268289  10.707   8.218   1.054
56089SOL     OW68290  10.519   7.973   0.275
56089SOL    HW168291  10.532   7.889   0.329
56089SOL    HW268292  10.490   8.047   0.335
56090SOL     OW68293   9.617   7.661   1.231
56090SOL    HW168294   9.594   7.698   1.321
56090SOL    HW268295   9.587   7.566   1.225
56091SOL     OW68296   9.347   8.758   1.282
56091SOL    HW168297   9.400   8.709   1.350
56091SOL    HW268298   9.369   8.856   1.287
56092SOL     OW68299  10.042   8.082   1.064
56092SOL    HW168300  10.101   8.056   0.988
56092SOL    HW268301  10.014   8.178   1.053
56093SOL     OW68302  11.038   8.383   1.854
56093SOL    HW168303  10.992   8.376   1.765
56093SOL    HW268304  10.976   8.427   1.920
56094SOL     OW68305   9.617   7.511   0.618
56094SOL    HW168306   9.606   7.605   0.651
56094SOL    HW268307   9.612   7.448   0.695
56095SOL     OW68308  10.932   7.815   0.374
56095SOL    HW168309  10.934   7.739   0.438
56095SOL    HW268310  10.884   7.892   0.414
56096SOL     OW68311  10.333   8.214   0.966
56096SOL    HW168312  10.348   8.235   1.062
56096SOL    HW268313  10.303   8.119   0.957
56097SOL     OW68314  10.290   9.021   1.700
56097SOL    HW168315  10.270   9.065   1.612
56097SOL    HW268316  10.329   8.930   1.684
56098SOL     OW68317  11.169   8.966   1.605
56098SOL    HW168318  11.183   8.993   1.510
56098SOL    HW268319  11.252   8.988   1.658
56099SOL     OW68320   9.660   8.346   1.804
56099SOL    HW168321   9.736   8.390   1.852
56099SOL    HW268322   9.695   8.299   1.722
56100SOL     OW68323  10.850   7.722   0.125
56100SOL    HW168324  10.789   7.647   0.148
56100SOL    HW268325  10.872   7.774   0.208
56101SOL     OW68326  10.613   8.286   0.042
56101SOL    HW168327  10.647   8.193   0.057
56101SOL    HW268328  10.631   8.313  -0.053
56102SOL     OW68329  10.378   8.781   0.849
56102SOL    HW168330  10.385   8.697   0.794
56102SOL    HW268331  10.440   8.850   0.813
56103SOL     OW68332   9.629   8.258   0.949
56103SOL    HW168333   9.722   8.294   0.954
56103SOL    HW268334   9.623   8.173   1.001
56104SOL     OW68335   9.649   7.957   1.006
56104SOL    HW168336   9.597   7.874   0.989
56104SOL    HW268337   9.726   7.962   0.942
56105SOL     OW68338  10.448   7.828   1.678
56105SOL    HW168339  10.403   7.891   1.742
56105SOL    HW268340  10.541   7.859   1.661
56106SOL     OW68341  10.470   7.655   1.477
56106SOL    HW168342  10.470   7.719   1.554
56106SOL    HW268343  10.498   7.703   1.394
56107SOL     OW68344   9.318   8.774   0.200
56107SOL    HW168345   9.225   8.795   0.169
56107SOL    HW268346   9.328   8.675   0.213
56108SOL     OW68347   9.398   9.249   0.927
56108SOL    HW168348   9.356   9.163   0.900
56108SOL    HW268349   9.492   9.252   0.893
56109SOL     OW68350   9.814   9.016   0.910
56109SOL    HW168351   9.880   9.090   0.919
56109SOL    HW268352   9.858   8.937   0.868
56110SOL     OW68353  10.312   8.244   1.238
56110SOL    HW168354  10.353   8.212   1.324
56110SOL    HW268355  10.216   8.217   1.235
56111SOL     OW68356   9.350   7.992   1.114
56111SOL    HW168357   9.435   7.959   1.073
56111SOL    HW268358   9.363   8.007   1.212
56112SOL     OW68359   9.499   7.968   1.722
56112SOL    HW168360   9.558   7.928   1.652
56112SOL    HW268361   9.441   8.039   1.681
56113SOL     OW68362  10.679   8.398   1.660
56113SOL    HW168363  10.718   8.487   1.680
56113SOL    HW268364  10.689   8.378   1.563
56114SOL     OW68365  10.125   8.020   0.325
56114SOL    HW168366  10.132   7.931   0.279
56114SOL    HW268367  10.031   8.054   0.317
56115SOL     OW68368  10.967   8.052   1.206
56115SOL    HW168369  10.929   7.983   1.268
56115SOL    HW268370  11.049   8.016   1.162
56116SOL     OW68371   9.562   9.012   1.744
56116SOL    HW168372   9.532   9.069   1.820
56116SOL    HW268373   9.555   8.915   1.770
56117SOL     OW68374   9.981   7.912   1.269
56117SOL    HW168375   9.947   7.823   1.239
56117SOL    HW268376  10.007   7.966   1.189
56118SOL     OW68377  10.240   9.126   1.465
56118SOL    HW168378  10.216   9.108   1.370
56118SOL    HW268379  10.270   9.220   1.475
56119SOL     OW68380   9.783   7.948   0.191
56119SOL    HW168381   9.844   8.028   0.195
56119SOL    HW268382   9.688   7.979   0.198
56120SOL     OW68383   9.469   8.585   1.466
56120SOL    HW168384   9.491   8.524   1.542
56120SOL    HW268385   9.479   8.536   1.380
56121SOL     OW68386  10.657   8.507   1.234
56121SOL    HW168387  10.681   8.444   1.160
56121SOL    HW268388  10.567   8.547   1.216
56122SOL     OW68389  10.612   8.303   0.309
56122SOL    HW168390  10.526   8.272   0.351
56122SOL    HW268391  10.608   8.289   0.210
56123SOL     OW68392  11.069   9.195   1.154
56123SOL    HW168393  11.130   9.225   1.081
56123SOL    HW268394  11.031   9.106   1.132
56124SOL     OW68395  10.562   9.179   1.128
56124SOL    HW168396  10.646   9.184   1.074
56124SOL    HW268397  10.539   9.083   1.146
56125SOL     OW68398   9.393   8.706   1.022
56125SOL    HW168399   9.388   8.705   1.122
56125SOL    HW268400   9.310   8.665   0.984
56126SOL     OW68401   9.998   9.110   1.716
56126SOL    HW168402   9.942   9.191   1.725
56126SOL    HW268403  10.050   9.114   1.630
56127SOL     OW68404  10.213   7.534   0.133
56127SOL    HW168405  10.264   7.535   0.047
56127SOL    HW268406  10.269   7.492   0.204
56128SOL     OW68407  11.036   7.583   0.523
56128SOL    HW168408  11.109   7.566   0.456
56128SOL    HW268409  11.005   7.496   0.561
56129SOL     OW68410  10.698   9.021   0.477
56129SOL    HW168411  10.765   9.033   0.403
56129SOL    HW268412  10.658   9.110   0.500
56130SOL     OW68413   9.440   9.242   1.851
56130SOL    HW168414   9.399   9.168   1.904
56130SOL    HW268415   9.504   9.293   1.909
56131SOL     OW68416  10.590   8.375   0.672
56131SOL    HW168417  10.650   8.294   0.674
56131SOL    HW268418  10.630   8.444   0.612
56132SOL     OW68419  10.140   8.721   1.422
56132SOL    HW168420  10.135   8.754   1.517
56132SOL    HW268421  10.054   8.740   1.376
56133SOL     OW68422   9.982   9.064   0.154
56133SOL    HW168423   9.991   9.074   0.055
56133SOL    HW268424   9.942   8.975   0.175
56134SOL     OW68425  10.960   9.168   1.394
56134SOL    HW168426  11.013   9.178   1.310
56134SOL    HW268427  10.933   9.258   1.428
56135SOL     OW68428  11.151   7.623   0.963
56135SOL    HW168429  11.190   7.538   0.927
56135SOL    HW268430  11.053   7.625   0.944
56136SOL     OW68431   9.573   7.774   0.720
56136SOL    HW168432   9.494   7.825   0.686
56136SOL    HW268433   9.564   7.759   0.818
56137SOL     OW68434  10.504   9.060   0.031
56137SOL    HW168435  10.510   8.967   0.068
56137SOL    HW268436  10.445   9.060  -0.049
56138SOL     OW68437  10.132   8.450   1.372
56138SOL    HW168438  10.172   8.449   1.280
56138SOL    HW268439  10.142   8.542   1.412
56139SOL     OW68440  10.226   8.358   0.291
56139SOL    HW168441  10.289   8.396   0.223
56139SOL    HW268442  10.266   8.275   0.330
56140SOL     OW68443  10.814   9.055   0.044
56140SOL    HW168444  10.722   9.092   0.051
56140SOL    HW268445  10.852   9.075  -0.046
56141SOL     OW68446   9.682   8.736   1.490
56141SOL    HW168447   9.669   8.829   1.456
56141SOL    HW268448   9.598   8.684   1.477
56142SOL     OW68449  10.924   8.740   1.289
56142SOL    HW168450  10.984   8.743   1.369
56142SOL    HW268451  10.849   8.804   1.302
56143SOL     OW68452  10.349   8.546   0.696
56143SOL    HW168453  10.279   8.499   0.750
56143SOL    HW268454  10.408   8.478   0.653
56144SOL     OW68455  10.324   7.684   0.971
56144SOL    HW168456  10.316   7.648   0.878
56144SOL    HW268457  10.322   7.608   1.036
56145SOL     OW68458   9.900   8.935   0.491
56145SOL    HW168459   9.942   8.877   0.421
56145SOL    HW268460   9.856   9.014   0.447
56146SOL     OW68461  11.019   7.833   1.381
56146SOL    HW168462  11.092   7.902   1.385
56146SOL    HW268463  11.047   7.758   1.322
56147SOL     OW68464   9.565   8.796   0.290
56147SOL    HW168465   9.469   8.797   0.263
56147SOL    HW268466   9.577   8.849   0.374
56148SOL     OW68467   9.415   8.461   1.726
56148SOL    HW168468   9.338   8.428   1.780
56148SOL    HW268469   9.500   8.431   1.768
56149SOL     OW68470   9.982   7.651   1.489
56149SOL    HW168471  10.072   7.635   1.449
56149SOL    HW268472   9.990   7.656   1.588
56150SOL     OW68473  10.750   8.304   1.398
56150SOL    HW168474  10.693   8.356   1.335
56150SOL    HW268475  10.846   8.316   1.374
56151SOL     OW68476   9.382   7.614   0.318
56151SOL    HW168477   9.365   7.697   0.264
56151SOL    HW268478   9.472   7.577   0.296
56152SOL     OW68479  10.493   8.783   0.119
56152SOL    HW168480  10.394   8.772   0.121
56152SOL    HW268481  10.527   8.798   0.212
56153SOL     OW68482   9.923   8.290   1.431
56153SOL    HW168483   9.979   8.371   1.414
56153SOL    HW268484   9.982   8.210   1.434
56154SOL     OW68485  10.803   9.215   0.959
56154SOL    HW168486  10.836   9.279   0.890
56154SOL    HW268487  10.869   9.209   1.034
56155SOL     OW68488  10.026   8.013   1.708
56155SOL    HW168489  10.045   8.078   1.782
56155SOL    HW268490  10.086   7.933   1.717
56156SOL     OW68491  10.760   8.668   1.633
56156SOL    HW168492  10.751   8.658   1.732
56156SOL    HW268493  10.856   8.661   1.607
56157SOL     OW68494   9.700   9.189   1.560
56157SOL    HW168495   9.609   9.230   1.558
56157SOL    HW268496   9.693   9.095   1.592
56158SOL     OW68497  10.984   8.331   1.254
56158SOL    HW168498  10.957   8.242   1.217
56158SOL    HW268499  10.985   8.399   1.181
56159SOL     OW68500  10.535   7.773   0.449
56159SOL    HW168501  10.600   7.699   0.438
56159SOL    HW268502  10.555   7.823   0.533
56160SOL     OW68503   9.904   8.193   0.652
56160SOL    HW168504   9.954   8.278   0.633
56160SOL    HW268505   9.816   8.195   0.604
56161SOL     OW68506  11.087   7.790   1.642
56161SOL    HW168507  11.070   7.821   1.548
56161SOL    HW268508  11.003   7.753   1.680
56162SOL     OW68509  11.040   8.382   1.517
56162SOL    HW168510  11.078   8.473   1.532
56162SOL    HW268511  11.032   8.365   1.418
56163SOL     OW68512  10.169   8.822   0.016
56163SOL    HW168513  10.123   8.837   0.104
56163SOL    HW268514  10.213   8.907  -0.014
56164SOL     OW68515   9.971   9.238   0.953
56164SOL    HW168516   9.925   9.326   0.940
56164SOL    HW268517  10.070   9.250   0.946
56165SOL     OW68518  10.169   8.404   0.861
56165SOL    HW168519  10.223   8.335   0.909
56165SOL    HW268520  10.137   8.473   0.927
56166SOL     OW68521  10.393   8.432   0.087
56166SOL    HW168522  10.370   8.485   0.005
56166SOL    HW268523  10.474   8.376   0.068
56167SOL     OW68524  11.171   9.017   0.851
56167SOL    HW168525  11.100   9.005   0.781
56167SOL    HW268526  11.172   8.938   0.911
56168SOL     OW68527   9.531   8.762   1.844
56168SOL    HW168528   9.466   8.689   1.823
56168SOL    HW268529   9.535   8.776   1.942
56169SOL     OW68530   9.389   8.688   0.653
56169SOL    HW168531   9.388   8.641   0.741
56169SOL    HW268532   9.471   8.660   0.602
56170SOL     OW68533   9.982   8.839   1.624
56170SOL    HW168534   9.904   8.789   1.662
56170SOL    HW268535   9.979   8.934   1.655
56171SOL     OW68536  11.134   7.640   1.227
56171SOL    HW168537  11.130   7.550   1.271
56171SOL    HW268538  11.137   7.629   1.128
56172SOL     OW68539   9.738   7.872   0.520
56172SOL    HW168540   9.768   7.800   0.458
56172SOL    HW268541   9.699   7.832   0.603
56173SOL     OW68542  11.015   8.935   1.104
56173SOL    HW168543  10.922   8.910   1.077
56173SOL    HW268544  11.041   8.885   1.186
56174SOL     OW68545   9.627   7.995   1.280
56174SOL    HW168546   9.665   7.936   1.352
56174SOL    HW268547   9.667   7.969   1.192
56175SOL     OW68548  10.122   9.034   0.687
56175SOL    HW168549  10.154   9.044   0.593
56175SOL    HW268550  10.043   8.972   0.689
56176SOL     OW68551  10.734   7.662   1.112
56176SOL    HW168552  10.786   7.597   1.167
56176SOL    HW268553  10.685   7.725   1.173
56177SOL     OW68554  10.311   7.482   1.154
56177SOL    HW168555  10.248   7.410   1.123
56177SOL    HW268556  10.404   7.446   1.154
56178SOL     OW68557  10.080   8.778   0.301
56178SOL    HW168558  10.034   8.691   0.318
56178SOL    HW268559  10.171   8.775   0.342
56179SOL     OW68560   9.928   9.015   1.284
56179SOL    HW168561   9.923   9.097   1.341
56179SOL    HW268562  10.017   9.012   1.239
56180SOL     OW68563  10.662   7.500   0.168
56180SOL    HW168564  10.697   7.459   0.084
56180SOL    HW268565  10.572   7.462   0.188
56181SOL     OW68566  10.610   7.901   0.691
56181SOL    HW168567  10.551   7.981   0.695
56181SOL    HW268568  10.625   7.866   0.784
56182SOL     OW68569  10.903   7.669   0.882
56182SOL    HW168570  10.819   7.668   0.936
56182SOL    HW268571  10.905   7.752   0.826
56183SOL     OW68572   9.349   8.525   0.300
56183SOL    HW168573   9.448   8.514   0.291
56183SOL    HW268574   9.309   8.439   0.332
56184SOL     OW68575  10.185   9.094   0.337
56184SOL    HW168576  10.108   9.059   0.283
56184SOL    HW268577  10.153   9.165   0.399
56185SOL     OW68578   9.540   8.076   1.975
56185SOL    HW168579   9.447   8.074   2.012
56185SOL    HW268580   9.541   8.037   1.883
56186SOL     OW68581   9.535   7.723   2.858
56186SOL    HW168582   9.570   7.706   2.950
56186SOL    HW268583   9.447   7.678   2.846
56187SOL     OW68584   9.329   7.816   2.509
56187SOL    HW168585   9.247   7.859   2.548
56187SOL    HW268586   9.301   7.743   2.446
56188SOL     OW68587   9.879   8.723   3.027
56188SOL    HW168588   9.786   8.716   2.990
56188SOL    HW268589   9.890   8.812   3.071
56189SOL     OW68590  10.865   8.959   2.565
56189SOL    HW168591  10.808   8.943   2.646
56189SOL    HW268592  10.806   8.969   2.485
56190SOL     OW68593  10.445   8.151   2.579
56190SOL    HW168594  10.502   8.229   2.554
56190SOL    HW268595  10.385   8.177   2.655
56191SOL     OW68596  11.065   8.055   2.093
56191SOL    HW168597  11.053   8.042   1.994
56191SOL    HW268598  11.035   7.974   2.142
56192SOL     OW68599  10.078   8.592   2.885
56192SOL    HW168600  10.000   8.609   2.945
56192SOL    HW268601  10.112   8.679   2.849
56193SOL     OW68602  10.160   8.246   3.685
56193SOL    HW168603  10.156   8.322   3.750
56193SOL    HW268604  10.182   8.282   3.594
56194SOL     OW68605   9.995   8.460   2.527
56194SOL    HW168606  10.064   8.444   2.597
56194SOL    HW268607   9.922   8.517   2.565
56195SOL     OW68608   9.996   8.609   3.665
56195SOL    HW168609  10.056   8.688   3.679
56195SOL    HW268610   9.910   8.640   3.624
56196SOL     OW68611   9.645   8.883   2.923
56196SOL    HW168612   9.567   8.852   2.870
56196SOL    HW268613   9.703   8.941   2.866
56197SOL     OW68614  10.770   8.953   3.201
56197SOL    HW168615  10.794   9.047   3.227
56197SOL    HW268616  10.754   8.899   3.283
56198SOL     OW68617   9.748   7.840   3.361
56198SOL    HW168618   9.830   7.784   3.370
56198SOL    HW268619   9.667   7.782   3.365
56199SOL     OW68620  10.913   7.895   2.599
56199SOL    HW168621  10.839   7.941   2.549
56199SOL    HW268622  10.964   7.963   2.652
56200SOL     OW68623   9.541   9.161   2.345
56200SOL    HW168624   9.575   9.238   2.399
56200SOL    HW268625   9.585   9.161   2.255
56201SOL     OW68626  10.437   8.789   3.552
56201SOL    HW168627  10.484   8.789   3.640
56201SOL    HW268628  10.389   8.702   3.541
56202SOL     OW68629   9.540   8.882   2.400
56202SOL    HW168630   9.514   8.978   2.400
56202SOL    HW268631   9.469   8.828   2.445
56203SOL     OW68632   9.550   8.539   2.748
56203SOL    HW168633   9.564   8.455   2.800
56203SOL    HW268634   9.495   8.603   2.803
56204SOL     OW68635   9.930   9.234   3.301
56204SOL    HW168636   9.838   9.217   3.336
56204SOL    HW268637   9.958   9.326   3.327
56205SOL     OW68638   9.916   8.412   1.985
56205SOL    HW168639   9.923   8.496   1.931
56205SOL    HW268640   9.962   8.425   2.073
56206SOL     OW68641  10.904   7.562   3.342
56206SOL    HW168642  10.886   7.629   3.270
56206SOL    HW268643  10.901   7.608   3.431
56207SOL     OW68644   9.432   8.091   2.425
56207SOL    HW168645   9.387   8.003   2.442
56207SOL    HW268646   9.431   8.145   2.509
56208SOL     OW68647  11.152   9.215   2.221
56208SOL    HW168648  11.206   9.186   2.301
56208SOL    HW268649  11.182   9.305   2.192
56209SOL     OW68650   9.337   9.044   1.979
56209SOL    HW168651   9.318   8.948   2.000
56209SOL    HW268652   9.304   9.102   2.054
56210SOL     OW68653  10.999   8.370   2.474
56210SOL    HW168654  11.094   8.341   2.482
56210SOL    HW268655  10.991   8.435   2.399
56211SOL     OW68656  10.951   8.556   2.294
56211SOL    HW168657  11.037   8.558   2.242
56211SOL    HW268658  10.965   8.603   2.382
56212SOL     OW68659   9.423   8.185   3.459
56212SOL    HW168660   9.511   8.172   3.504
56212SOL    HW268661   9.410   8.282   3.437
56213SOL     OW68662   9.923   8.813   2.588
56213SOL    HW168663   9.874   8.726   2.597
56213SOL    HW268664   9.900   8.856   2.501
56214SOL     OW68665  10.603   8.676   3.285
56214SOL    HW168666  10.640   8.603   3.227
56214SOL    HW268667  10.655   8.681   3.370
56215SOL     OW68668  10.119   7.452   2.364
56215SOL    HW168669  10.159   7.543   2.355
56215SOL    HW268670  10.019   7.460   2.370
56216SOL     OW68671   9.507   8.424   3.126
56216SOL    HW168672   9.596   8.379   3.112
56216SOL    HW268673   9.434   8.359   3.107
56217SOL     OW68674  10.835   8.447   2.052
56217SOL    HW168675  10.772   8.371   2.065
56217SOL    HW268676  10.883   8.465   2.138
56218SOL     OW68677  10.497   9.240   3.478
56218SOL    HW168678  10.521   9.300   3.402
56218SOL    HW268679  10.504   9.145   3.448
56219SOL     OW68680   9.627   7.699   3.663
56219SOL    HW168681   9.698   7.770   3.669
56219SOL    HW268682   9.539   7.738   3.691
56220SOL     OW68683  10.776   8.865   2.815
56220SOL    HW168684  10.717   8.871   2.895
56220SOL    HW268685  10.761   8.777   2.769
56221SOL     OW68686  10.977   9.162   2.434
56221SOL    HW168687  10.936   9.139   2.346
56221SOL    HW268688  10.959   9.088   2.499
56222SOL     OW68689   9.908   8.177   2.132
56222SOL    HW168690   9.932   8.246   2.064
56222SOL    HW268691   9.830   8.210   2.186
56223SOL     OW68692  10.591   7.793   2.806
56223SOL    HW168693  10.505   7.743   2.793
56223SOL    HW268694  10.653   7.739   2.862
56224SOL     OW68695  10.886   9.110   2.169
56224SOL    HW168696  10.975   9.156   2.172
56224SOL    HW268697  10.865   9.086   2.074
56225SOL     OW68698  10.117   8.053   3.327
56225SOL    HW168699  10.070   8.050   3.416
56225SOL    HW268700  10.066   7.998   3.261
56226SOL     OW68701  10.704   7.917   3.536
56226SOL    HW168702  10.684   7.960   3.624
56226SOL    HW268703  10.782   7.855   3.545
56227SOL     OW68704  10.283   8.338   3.434
56227SOL    HW168705  10.329   8.254   3.405
56227SOL    HW268706  10.227   8.372   3.359
56228SOL     OW68707  10.301   7.858   3.104
56228SOL    HW168708  10.224   7.892   3.158
56228SOL    HW268709  10.267   7.807   3.025
56229SOL     OW68710  10.351   8.149   2.291
56229SOL    HW168711  10.377   8.145   2.387
56229SOL    HW268712  10.266   8.098   2.277
56230SOL     OW68713   9.386   8.259   2.651
56230SOL    HW168714   9.485   8.247   2.660
56230SOL    HW268715   9.362   8.354   2.672
56231SOL     OW68716   9.440   9.269   3.433
56231SOL    HW168717   9.430   9.254   3.532
56231SOL    HW268718   9.354   9.305   3.397
56232SOL     OW68719  10.175   7.796   2.057
56232SOL    HW168720  10.234   7.859   2.008
56232SOL    HW268721  10.194   7.702   2.028
56233SOL     OW68722  11.029   8.033   3.693
56233SOL    HW168723  11.003   8.122   3.657
56233SOL    HW268724  11.027   7.965   3.620
56234SOL     OW68725  10.672   8.592   2.407
56234SOL    HW168726  10.755   8.563   2.359
56234SOL    HW268727  10.623   8.659   2.351
56235SOL     OW68728   9.860   7.644   2.747
56235SOL    HW168729   9.855   7.639   2.847
56235SOL    HW268730   9.862   7.740   2.718
56236SOL     OW68731  10.318   8.904   2.339
56236SOL    HW168732  10.272   8.976   2.287
56236SOL    HW268733  10.314   8.924   2.437
56237SOL     OW68734   9.661   9.249   2.715
56237SOL    HW168735   9.711   9.163   2.721
56237SOL    HW268736   9.726   9.326   2.712
56238SOL     OW68737  11.105   8.514   2.735
56238SOL    HW168738  11.043   8.499   2.659
56238SOL    HW268739  11.053   8.525   2.820
56239SOL     OW68740  10.537   8.998   3.368
56239SOL    HW168741  10.543   8.921   3.432
56239SOL    HW268742  10.485   8.972   3.288
56240SOL     OW68743   9.631   8.391   2.104
56240SOL    HW168744   9.713   8.430   2.062
56240SOL    HW268745   9.604   8.309   2.055
56241SOL     OW68746  10.768   8.183   2.590
56241SOL    HW168747  10.763   8.118   2.665
56241SOL    HW268748  10.848   8.242   2.603
56242SOL     OW68749   9.771   8.714   3.589
56242SOL    HW168750   9.721   8.715   3.503
56242SOL    HW268751   9.708   8.696   3.665
56243SOL     OW68752  10.421   9.224   2.099
56243SOL    HW168753  10.361   9.162   2.149
56243SOL    HW268754  10.452   9.180   2.014
56244SOL     OW68755   9.512   7.733   3.360
56244SOL    HW168756   9.432   7.793   3.347
56244SOL    HW268757   9.502   7.684   3.446
56245SOL     OW68758  10.942   8.825   1.943
56245SOL    HW168759  10.910   8.919   1.933
56245SOL    HW268760  10.866   8.762   1.931
56246SOL     OW68761   9.774   9.191   2.185
56246SOL    HW168762   9.807   9.230   2.271
56246SOL    HW268763   9.850   9.184   2.120
56247SOL     OW68764  10.710   7.555   2.288
56247SOL    HW168765  10.686   7.518   2.198
56247SOL    HW268766  10.809   7.571   2.292
56248SOL     OW68767   9.559   9.233   3.103
56248SOL    HW168768   9.616   9.168   3.153
56248SOL    HW268769   9.543   9.200   3.010
56249SOL     OW68770  10.250   9.146   2.766
56249SOL    HW168771  10.330   9.089   2.787
56249SOL    HW268772  10.201   9.106   2.689
56250SOL     OW68773   9.692   8.148   2.342
56250SOL    HW168774   9.737   8.058   2.339
56250SOL    HW268775   9.598   8.137   2.375
56251SOL     OW68776  10.857   7.670   3.591
56251SOL    HW168777  10.852   7.707   3.683
56251SOL    HW268778  10.785   7.601   3.579
56252SOL     OW68779   9.924   7.570   1.979
56252SOL    HW168780  10.022   7.548   1.986
56252SOL    HW268781   9.893   7.553   1.886
56253SOL     OW68782  10.091   7.712   3.611
56253SOL    HW168783  10.158   7.651   3.654
56253SOL    HW268784  10.018   7.731   3.676
56254SOL     OW68785  10.198   8.962   3.057
56254SOL    HW168786  10.175   8.937   2.963
56254SOL    HW268787  10.259   8.893   3.096
56255SOL     OW68788  10.661   8.038   3.295
56255SOL    HW168789  10.689   7.995   3.380
56255SOL    HW268790  10.686   8.134   3.296
56256SOL     OW68791  10.113   8.850   2.786
56256SOL    HW168792  10.203   8.864   2.744
56256SOL    HW268793  10.042   8.852   2.715
56257SOL     OW68794  10.232   7.951   2.761
56257SOL    HW168795  10.207   7.942   2.665
56257SOL    HW268796  10.280   7.869   2.792
56258SOL     OW68797   9.849   7.512   2.374
56258SOL    HW168798   9.768   7.513   2.432
56258SOL    HW268799   9.852   7.595   2.319
56259SOL     OW68800  10.744   8.636   1.903
56259SOL    HW168801  10.776   8.560   1.960
56259SOL    HW268802  10.652   8.663   1.933
56260SOL     OW68803   9.607   7.483   2.033
56260SOL    HW168804   9.656   7.567   2.012
56260SOL    HW268805   9.669   7.418   2.078
56261SOL     OW68806  10.245   7.684   2.342
56261SOL    HW168807  10.197   7.725   2.264
56261SOL    HW268808  10.344   7.682   2.323
56262SOL     OW68809  10.386   8.131   3.326
56262SOL    HW168810  10.306   8.070   3.329
56262SOL    HW268811  10.467   8.078   3.302
56263SOL     OW68812  10.537   9.018   2.655
56263SOL    HW168813  10.558   9.092   2.590
56263SOL    HW268814  10.605   9.018   2.728
56264SOL     OW68815   9.769   8.600   2.603
56264SOL    HW168816   9.698   8.573   2.668
56264SOL    HW268817   9.743   8.572   2.510
56265SOL     OW68818  10.581   9.245   2.453
56265SOL    HW168819  10.625   9.309   2.389
56265SOL    HW268820  10.531   9.297   2.523
56266SOL     OW68821  10.342   7.997   1.878
56266SOL    HW168822  10.301   8.079   1.839
56266SOL    HW268823  10.406   8.023   1.951
56267SOL     OW68824   9.388   8.004   3.248
56267SOL    HW168825   9.480   8.003   3.207
56267SOL    HW268826   9.382   8.078   3.315
56268SOL     OW68827   9.871   7.670   3.009
56268SOL    HW168828   9.909   7.586   3.046
56268SOL    HW268829   9.783   7.689   3.053
56269SOL     OW68830  10.176   7.902   2.504
56269SOL    HW168831  10.144   7.974   2.442
56269SOL    HW268832  10.200   7.821   2.451
56270SOL     OW68833  10.327   7.487   2.615
56270SOL    HW168834  10.255   7.492   2.546
56270SOL    HW268835  10.303   7.418   2.684
56271SOL     OW68836  10.739   8.621   2.729
56271SOL    HW168837  10.684   8.537   2.722
56271SOL    HW268838  10.765   8.650   2.637
56272SOL     OW68839  10.776   8.038   2.854
56272SOL    HW168840  10.746   7.943   2.861
56272SOL    HW268841  10.849   8.054   2.920
56273SOL     OW68842  11.167   8.281   2.239
56273SOL    HW168843  11.209   8.217   2.303
56273SOL    HW268844  11.129   8.230   2.161
56274SOL     OW68845   9.798   8.833   2.036
56274SOL    HW168846   9.711   8.818   2.083
56274SOL    HW268847   9.781   8.859   1.941
56275SOL     OW68848  10.974   8.728   2.519
56275SOL    HW168849  11.073   8.736   2.533
56275SOL    HW268850  10.929   8.812   2.550
56276SOL     OW68851  10.700   8.023   1.940
56276SOL    HW168852  10.646   8.002   2.021
56276SOL    HW268853  10.791   7.982   1.949
56277SOL     OW68854   9.837   7.704   2.190
56277SOL    HW168855   9.864   7.645   2.115
56277SOL    HW268856   9.837   7.799   2.159
56278SOL     OW68857  11.064   8.671   3.450
56278SOL    HW168858  11.155   8.632   3.437
56278SOL    HW268859  11.072   8.767   3.474
56279SOL     OW68860  10.374   8.795   3.202
56279SOL    HW168861  10.294   8.772   3.257
56279SOL    HW268862  10.457   8.769   3.251
56280SOL     OW68863  10.902   9.077   3.487
56280SOL    HW168864  10.929   9.111   3.397
56280SOL    HW268865  10.981   9.039   3.533
56281SOL     OW68866  10.421   8.643   2.962
56281SOL    HW168867  10.381   8.687   3.043
56281SOL    HW268868  10.380   8.680   2.879
56282SOL     OW68869  10.948   8.547   2.941
56282SOL    HW168870  10.953   8.628   3.000
56282SOL    HW268871  10.862   8.549   2.890
56283SOL     OW68872  10.225   7.537   3.264
56283SOL    HW168873  10.250   7.517   3.169
56283SOL    HW268874  10.297   7.593   3.306
56284SOL     OW68875  10.290   8.564   3.581
56284SOL    HW168876  10.191   8.570   3.591
56284SOL    HW268877  10.313   8.484   3.525
56285SOL     OW68878  10.015   8.498   2.230
56285SOL    HW168879  10.001   8.505   2.329
56285SOL    HW268880  10.099   8.447   2.212
56286SOL     OW68881   9.720   8.261   3.113
56286SOL    HW168882   9.806   8.273   3.163
56286SOL    HW268883   9.678   8.174   3.140
56287SOL     OW68884  10.584   7.834   3.124
56287SOL    HW168885  10.605   7.908   3.188
56287SOL    HW268886  10.495   7.851   3.081
56288SOL     OW68887   9.374   9.012   3.193
56288SOL    HW168888   9.328   9.094   3.159
56288SOL    HW268889   9.472   9.031   3.202
56289SOL     OW68890   9.677   8.548   2.363
56289SOL    HW168891   9.670   8.631   2.307
56289SOL    HW268892   9.681   8.468   2.303
56290SOL     OW68893   9.876   7.985   2.727
56290SOL    HW168894   9.888   8.051   2.653
56290SOL    HW268895   9.922   8.019   2.810
56291SOL     OW68896  10.562   8.796   2.250
56291SOL    HW168897  10.612   8.873   2.290
56291SOL    HW268898  10.467   8.798   2.282
56292SOL     OW68899  10.582   8.893   3.004
56292SOL    HW168900  10.629   8.906   3.091
56292SOL    HW268901  10.516   8.819   3.013
56293SOL     OW68902  10.892   8.087   2.334
56293SOL    HW168903  10.861   8.148   2.407
56293SOL    HW268904  10.942   8.139   2.265
56294SOL     OW68905   9.664   8.958   3.191
56294SOL    HW168906   9.643   8.914   3.104
56294SOL    HW268907   9.761   8.984   3.194
56295SOL     OW68908   9.712   8.199   3.460
56295SOL    HW168909   9.780   8.254   3.413
56295SOL    HW268910   9.752   8.111   3.487
56296SOL     OW68911  10.897   8.227   3.532
56296SOL    HW168912  10.805   8.265   3.527
56296SOL    HW268913  10.957   8.274   3.467
56297SOL     OW68914  10.323   7.553   3.632
56297SOL    HW168915  10.329   7.638   3.580
56297SOL    HW268916  10.355   7.477   3.575
56298SOL     OW68917   9.814   7.498   3.602
56298SOL    HW168918   9.772   7.441   3.532
56298SOL    HW268919   9.748   7.567   3.634
56299SOL     OW68920   9.883   8.318   2.891
56299SOL    HW168921   9.927   8.407   2.882
56299SOL    HW268922   9.820   8.318   2.968
56300SOL     OW68923  10.670   8.310   2.907
56300SOL    HW168924  10.595   8.310   2.841
56300SOL    HW268925  10.707   8.218   2.916
56301SOL     OW68926  10.519   7.973   2.137
56301SOL    HW168927  10.532   7.889   2.191
56301SOL    HW268928  10.490   8.047   2.197
56302SOL     OW68929   9.617   7.661   3.093
56302SOL    HW168930   9.594   7.698   3.183
56302SOL    HW268931   9.587   7.566   3.087
56303SOL     OW68932   9.347   8.758   3.144
56303SOL    HW168933   9.400   8.709   3.212
56303SOL    HW268934   9.369   8.856   3.149
56304SOL     OW68935  10.042   8.082   2.926
56304SOL    HW168936  10.101   8.056   2.850
56304SOL    HW268937  10.014   8.178   2.915
56305SOL     OW68938  11.038   8.383   3.716
56305SOL    HW168939  10.992   8.376   3.627
56305SOL    HW268940  10.976   8.427   3.782
56306SOL     OW68941   9.617   7.511   2.480
56306SOL    HW168942   9.606   7.605   2.513
56306SOL    HW268943   9.612   7.448   2.557
56307SOL     OW68944  10.932   7.815   2.236
56307SOL    HW168945  10.934   7.739   2.300
56307SOL    HW268946  10.884   7.892   2.276
56308SOL     OW68947  10.333   8.214   2.828
56308SOL    HW168948  10.348   8.235   2.924
56308SOL    HW268949  10.303   8.119   2.819
56309SOL     OW68950  10.290   9.021   3.562
56309SOL    HW168951  10.270   9.065   3.474
56309SOL    HW268952  10.329   8.930   3.546
56310SOL     OW68953  11.169   8.966   3.467
56310SOL    HW168954  11.183   8.993   3.372
56310SOL    HW268955  11.252   8.988   3.520
56311SOL     OW68956   9.660   8.346   3.666
56311SOL    HW168957   9.736   8.390   3.714
56311SOL    HW268958   9.695   8.299   3.584
56312SOL     OW68959  10.850   7.722   1.987
56312SOL    HW168960  10.789   7.647   2.010
56312SOL    HW268961  10.872   7.774   2.070
56313SOL     OW68962  10.613   8.286   1.904
56313SOL    HW168963  10.647   8.193   1.919
56313SOL    HW268964  10.631   8.313   1.809
56314SOL     OW68965  10.378   8.781   2.711
56314SOL    HW168966  10.385   8.697   2.656
56314SOL    HW268967  10.440   8.850   2.675
56315SOL     OW68968   9.629   8.258   2.811
56315SOL    HW168969   9.722   8.294   2.816
56315SOL    HW268970   9.623   8.173   2.863
56316SOL     OW68971   9.649   7.957   2.868
56316SOL    HW168972   9.597   7.874   2.851
56316SOL    HW268973   9.726   7.962   2.804
56317SOL     OW68974  10.448   7.828   3.540
56317SOL    HW168975  10.403   7.891   3.604
56317SOL    HW268976  10.541   7.859   3.523
56318SOL     OW68977  10.470   7.655   3.339
56318SOL    HW168978  10.470   7.719   3.416
56318SOL    HW268979  10.498   7.703   3.256
56319SOL     OW68980   9.318   8.774   2.062
56319SOL    HW168981   9.225   8.795   2.031
56319SOL    HW268982   9.328   8.675   2.075
56320SOL     OW68983   9.398   9.249   2.789
56320SOL    HW168984   9.356   9.163   2.762
56320SOL    HW268985   9.492   9.252   2.755
56321SOL     OW68986   9.814   9.016   2.772
56321SOL    HW168987   9.880   9.090   2.781
56321SOL    HW268988   9.858   8.937   2.730
56322SOL     OW68989  10.312   8.244   3.100
56322SOL    HW168990  10.353   8.212   3.186
56322SOL    HW268991  10.216   8.217   3.097
56323SOL     OW68992   9.350   7.992   2.976
56323SOL    HW168993   9.435   7.959   2.935
56323SOL    HW268994   9.363   8.007   3.074
56324SOL     OW68995   9.499   7.968   3.584
56324SOL    HW168996   9.558   7.928   3.514
56324SOL    HW268997   9.441   8.039   3.543
56325SOL     OW68998  10.679   8.398   3.522
56325SOL    HW168999  10.718   8.487   3.542
56325SOL    HW269000  10.689   8.378   3.425
56326SOL     OW69001  10.125   8.020   2.187
56326SOL    HW169002  10.132   7.931   2.141
56326SOL    HW269003  10.031   8.054   2.179
56327SOL     OW69004  10.967   8.052   3.068
56327SOL    HW169005  10.929   7.983   3.130
56327SOL    HW269006  11.049   8.016   3.024
56328SOL     OW69007   9.562   9.012   3.606
56328SOL    HW169008   9.532   9.069   3.682
56328SOL    HW269009   9.555   8.915   3.632
56329SOL     OW69010   9.981   7.912   3.131
56329SOL    HW169011   9.947   7.823   3.101
56329SOL    HW269012  10.007   7.966   3.051
56330SOL     OW69013  10.240   9.126   3.327
56330SOL    HW169014  10.216   9.108   3.232
56330SOL    HW269015  10.270   9.220   3.337
56331SOL     OW69016   9.783   7.948   2.053
56331SOL    HW169017   9.844   8.028   2.057
56331SOL    HW269018   9.688   7.979   2.060
56332SOL     OW69019   9.469   8.585   3.328
56332SOL    HW169020   9.491   8.524   3.404
56332SOL    HW269021   9.479   8.536   3.242
56333SOL     OW69022  10.657   8.507   3.096
56333SOL    HW169023  10.681   8.444   3.022
56333SOL    HW269024  10.567   8.547   3.078
56334SOL     OW69025  10.612   8.303   2.171
56334SOL    HW169026  10.526   8.272   2.213
56334SOL    HW269027  10.608   8.289   2.072
56335SOL     OW69028  11.069   9.195   3.016
56335SOL    HW169029  11.130   9.225   2.943
56335SOL    HW269030  11.031   9.106   2.994
56336SOL     OW69031  10.562   9.179   2.990
56336SOL    HW169032  10.646   9.184   2.936
56336SOL    HW269033  10.539   9.083   3.008
56337SOL     OW69034   9.393   8.706   2.884
56337SOL    HW169035   9.388   8.705   2.984
56337SOL    HW269036   9.310   8.665   2.846
56338SOL     OW69037   9.998   9.110   3.578
56338SOL    HW169038   9.942   9.191   3.587
56338SOL    HW269039  10.050   9.114   3.492
56339SOL     OW69040  11.036   7.583   2.385
56339SOL    HW169041  11.109   7.566   2.318
56339SOL    HW269042  11.005   7.496   2.423
56340SOL     OW69043  10.698   9.021   2.339
56340SOL    HW169044  10.765   9.033   2.265
56340SOL    HW269045  10.658   9.110   2.362
56341SOL     OW69046   9.440   9.242   3.713
56341SOL    HW169047   9.399   9.168   3.766
56341SOL    HW269048   9.504   9.293   3.771
56342SOL     OW69049  10.590   8.375   2.534
56342SOL    HW169050  10.650   8.294   2.536
56342SOL    HW269051  10.630   8.444   2.474
56343SOL     OW69052  10.140   8.721   3.284
56343SOL    HW169053  10.135   8.754   3.379
56343SOL    HW269054  10.054   8.740   3.238
56344SOL     OW69055   9.982   9.064   2.016
56344SOL    HW169056   9.991   9.074   1.917
56344SOL    HW269057   9.942   8.975   2.037
56345SOL     OW69058  10.960   9.168   3.256
56345SOL    HW169059  11.013   9.178   3.172
56345SOL    HW269060  10.933   9.258   3.290
56346SOL     OW69061  11.151   7.623   2.825
56346SOL    HW169062  11.190   7.538   2.789
56346SOL    HW269063  11.053   7.625   2.806
56347SOL     OW69064   9.573   7.774   2.582
56347SOL    HW169065   9.494   7.825   2.548
56347SOL    HW269066   9.564   7.759   2.680
56348SOL     OW69067  10.504   9.060   1.893
56348SOL    HW169068  10.510   8.967   1.930
56348SOL    HW269069  10.445   9.060   1.813
56349SOL     OW69070  10.132   8.450   3.234
56349SOL    HW169071  10.172   8.449   3.142
56349SOL    HW269072  10.142   8.542   3.274
56350SOL     OW69073  10.226   8.358   2.153
56350SOL    HW169074  10.289   8.396   2.085
56350SOL    HW269075  10.266   8.275   2.192
56351SOL     OW69076  10.814   9.055   1.906
56351SOL    HW169077  10.722   9.092   1.913
56351SOL    HW269078  10.852   9.075   1.816
56352SOL     OW69079   9.682   8.736   3.352
56352SOL    HW169080   9.669   8.829   3.318
56352SOL    HW269081   9.598   8.684   3.339
56353SOL     OW69082  10.924   8.740   3.151
56353SOL    HW169083  10.984   8.743   3.231
56353SOL    HW269084  10.849   8.804   3.164
56354SOL     OW69085  10.349   8.546   2.558
56354SOL    HW169086  10.279   8.499   2.612
56354SOL    HW269087  10.408   8.478   2.515
56355SOL     OW69088  10.324   7.684   2.833
56355SOL    HW169089  10.316   7.648   2.740
56355SOL    HW269090  10.322   7.608   2.898
56356SOL     OW69091   9.900   8.935   2.353
56356SOL    HW169092   9.942   8.877   2.283
56356SOL    HW269093   9.856   9.014   2.309
56357SOL     OW69094  11.019   7.833   3.243
56357SOL    HW169095  11.092   7.902   3.247
56357SOL    HW269096  11.047   7.758   3.184
56358SOL     OW69097   9.565   8.796   2.152
56358SOL    HW169098   9.469   8.797   2.125
56358SOL    HW269099   9.577   8.849   2.236
56359SOL     OW69100   9.415   8.461   3.588
56359SOL    HW169101   9.338   8.428   3.642
56359SOL    HW269102   9.500   8.431   3.630
56360SOL     OW69103   9.982   7.651   3.351
56360SOL    HW169104  10.072   7.635   3.311
56360SOL    HW269105   9.990   7.656   3.450
56361SOL     OW69106   9.385   7.793   1.895
56361SOL    HW169107   9.293   7.765   1.866
56361SOL    HW269108   9.416   7.870   1.839
56362SOL     OW69109  10.750   8.304   3.260
56362SOL    HW169110  10.693   8.356   3.197
56362SOL    HW269111  10.846   8.316   3.236
56363SOL     OW69112   9.382   7.614   2.180
56363SOL    HW169113   9.365   7.697   2.126
56363SOL    HW269114   9.472   7.577   2.158
56364SOL     OW69115  10.493   8.783   1.981
56364SOL    HW169116  10.394   8.772   1.983
56364SOL    HW269117  10.527   8.798   2.074
56365SOL     OW69118   9.923   8.290   3.293
56365SOL    HW169119   9.979   8.371   3.276
56365SOL    HW269120   9.982   8.210   3.296
56366SOL     OW69121  10.803   9.215   2.821
56366SOL    HW169122  10.836   9.279   2.752
56366SOL    HW269123  10.869   9.209   2.896
56367SOL     OW69124  10.026   8.013   3.570
56367SOL    HW169125  10.045   8.078   3.644
56367SOL    HW269126  10.086   7.933   3.579
56368SOL     OW69127  10.760   8.668   3.495
56368SOL    HW169128  10.751   8.658   3.594
56368SOL    HW269129  10.856   8.661   3.469
56369SOL     OW69130   9.700   9.189   3.422
56369SOL    HW169131   9.609   9.230   3.420
56369SOL    HW269132   9.693   9.095   3.454
56370SOL     OW69133  10.984   8.331   3.116
56370SOL    HW169134  10.957   8.242   3.079
56370SOL    HW269135  10.985   8.399   3.043
56371SOL     OW69136  10.535   7.773   2.311
56371SOL    HW169137  10.600   7.699   2.300
56371SOL    HW269138  10.555   7.823   2.395
56372SOL     OW69139   9.904   8.193   2.514
56372SOL    HW169140   9.954   8.278   2.495
56372SOL    HW269141   9.816   8.195   2.466
56373SOL     OW69142  11.087   7.790   3.504
56373SOL    HW169143  11.070   7.821   3.410
56373SOL    HW269144  11.003   7.753   3.542
56374SOL     OW69145  11.040   8.382   3.379
56374SOL    HW169146  11.078   8.473   3.394
56374SOL    HW269147  11.032   8.365   3.280
56375SOL     OW69148  10.169   8.822   1.878
56375SOL    HW169149  10.123   8.837   1.966
56375SOL    HW269150  10.213   8.907   1.848
56376SOL     OW69151   9.971   9.238   2.815
56376SOL    HW169152   9.925   9.326   2.802
56376SOL    HW269153  10.070   9.250   2.808
56377SOL     OW69154  10.169   8.404   2.723
56377SOL    HW169155  10.223   8.335   2.771
56377SOL    HW269156  10.137   8.473   2.789
56378SOL     OW69157  10.393   8.432   1.949
56378SOL    HW169158  10.370   8.485   1.867
56378SOL    HW269159  10.474   8.376   1.930
56379SOL     OW69160  11.171   9.017   2.713
56379SOL    HW169161  11.100   9.005   2.643
56379SOL    HW269162  11.172   8.938   2.773
56380SOL     OW69163   9.531   8.762   3.706
56380SOL    HW169164   9.466   8.689   3.685
56380SOL    HW269165   9.535   8.776   3.804
56381SOL     OW69166   9.389   8.688   2.515
56381SOL    HW169167   9.388   8.641   2.603
56381SOL    HW269168   9.471   8.660   2.464
56382SOL     OW69169   9.982   8.839   3.486
56382SOL    HW169170   9.904   8.789   3.524
56382SOL    HW269171   9.979   8.934   3.517
56383SOL     OW69172  11.134   7.640   3.089
56383SOL    HW169173  11.130   7.550   3.133
56383SOL    HW269174  11.137   7.629   2.990
56384SOL     OW69175   9.738   7.872   2.382
56384SOL    HW169176   9.768   7.800   2.320
56384SOL    HW269177   9.699   7.832   2.465
56385SOL     OW69178  11.015   8.935   2.966
56385SOL    HW169179  10.922   8.910   2.939
56385SOL    HW269180  11.041   8.885   3.048
56386SOL     OW69181   9.627   7.995   3.142
56386SOL    HW169182   9.665   7.936   3.214
56386SOL    HW269183   9.667   7.969   3.054
56387SOL     OW69184  10.122   9.034   2.549
56387SOL    HW169185  10.154   9.044   2.455
56387SOL    HW269186  10.043   8.972   2.551
56388SOL     OW69187  10.734   7.662   2.974
56388SOL    HW169188  10.786   7.597   3.029
56388SOL    HW269189  10.685   7.725   3.035
56389SOL     OW69190  10.311   7.482   3.016
56389SOL    HW169191  10.248   7.410   2.985
56389SOL    HW269192  10.404   7.446   3.016
56390SOL     OW69193  10.080   8.778   2.163
56390SOL    HW169194  10.034   8.691   2.180
56390SOL    HW269195  10.171   8.775   2.204
56391SOL     OW69196   9.928   9.015   3.146
56391SOL    HW169197   9.923   9.097   3.203
56391SOL    HW269198  10.017   9.012   3.101
56392SOL     OW69199  10.662   7.500   2.030
56392SOL    HW169200  10.697   7.459   1.946
56392SOL    HW269201  10.572   7.462   2.050
56393SOL     OW69202  10.610   7.901   2.553
56393SOL    HW169203  10.551   7.981   2.557
56393SOL    HW269204  10.625   7.866   2.646
56394SOL     OW69205  10.903   7.669   2.744
56394SOL    HW169206  10.819   7.668   2.798
56394SOL    HW269207  10.905   7.752   2.688
56395SOL     OW69208   9.349   8.525   2.162
56395SOL    HW169209   9.448   8.514   2.153
56395SOL    HW269210   9.309   8.439   2.194
56396SOL     OW69211  10.185   9.094   2.199
56396SOL    HW169212  10.108   9.059   2.145
56396SOL    HW269213  10.153   9.165   2.261
56397SOL     OW69214   9.540   8.076   3.837
56397SOL    HW169215   9.447   8.074   3.874
56397SOL    HW269216   9.541   8.037   3.745
56398SOL     OW69217   9.535   7.723   4.720
56398SOL    HW169218   9.570   7.706   4.812
56398SOL    HW269219   9.447   7.678   4.708
56399SOL     OW69220   9.329   7.816   4.371
56399SOL    HW169221   9.247   7.859   4.410
56399SOL    HW269222   9.301   7.743   4.308
56400SOL     OW69223   9.879   8.723   4.889
56400SOL    HW169224   9.786   8.716   4.852
56400SOL    HW269225   9.890   8.812   4.933
56401SOL     OW69226  10.865   8.959   4.427
56401SOL    HW169227  10.808   8.943   4.508
56401SOL    HW269228  10.806   8.969   4.347
56402SOL     OW69229  10.445   8.151   4.441
56402SOL    HW169230  10.502   8.229   4.416
56402SOL    HW269231  10.385   8.177   4.517
56403SOL     OW69232  11.065   8.055   3.955
56403SOL    HW169233  11.053   8.042   3.856
56403SOL    HW269234  11.035   7.974   4.004
56404SOL     OW69235  10.078   8.592   4.747
56404SOL    HW169236  10.000   8.609   4.807
56404SOL    HW269237  10.112   8.679   4.711
56405SOL     OW69238  10.160   8.246   5.547
56405SOL    HW169239  10.156   8.322   5.612
56405SOL    HW269240  10.182   8.282   5.456
56406SOL     OW69241   9.995   8.460   4.389
56406SOL    HW169242  10.064   8.444   4.459
56406SOL    HW269243   9.922   8.517   4.427
56407SOL     OW69244   9.996   8.609   5.527
56407SOL    HW169245  10.056   8.688   5.541
56407SOL    HW269246   9.910   8.640   5.486
56408SOL     OW69247   9.645   8.883   4.785
56408SOL    HW169248   9.567   8.852   4.732
56408SOL    HW269249   9.703   8.941   4.728
56409SOL     OW69250  10.770   8.953   5.063
56409SOL    HW169251  10.794   9.047   5.089
56409SOL    HW269252  10.754   8.899   5.145
56410SOL     OW69253   9.748   7.840   5.223
56410SOL    HW169254   9.830   7.784   5.232
56410SOL    HW269255   9.667   7.782   5.227
56411SOL     OW69256  10.913   7.895   4.461
56411SOL    HW169257  10.839   7.941   4.411
56411SOL    HW269258  10.964   7.963   4.514
56412SOL     OW69259   9.541   9.161   4.207
56412SOL    HW169260   9.575   9.238   4.261
56412SOL    HW269261   9.585   9.161   4.117
56413SOL     OW69262  10.437   8.789   5.414
56413SOL    HW169263  10.484   8.789   5.502
56413SOL    HW269264  10.389   8.702   5.403
56414SOL     OW69265   9.540   8.882   4.262
56414SOL    HW169266   9.514   8.978   4.262
56414SOL    HW269267   9.469   8.828   4.307
56415SOL     OW69268   9.550   8.539   4.610
56415SOL    HW169269   9.564   8.455   4.662
56415SOL    HW269270   9.495   8.603   4.665
56416SOL     OW69271   9.930   9.234   5.163
56416SOL    HW169272   9.838   9.217   5.198
56416SOL    HW269273   9.958   9.326   5.189
56417SOL     OW69274   9.916   8.412   3.847
56417SOL    HW169275   9.923   8.496   3.793
56417SOL    HW269276   9.962   8.425   3.935
56418SOL     OW69277  10.904   7.562   5.204
56418SOL    HW169278  10.886   7.629   5.132
56418SOL    HW269279  10.901   7.608   5.293
56419SOL     OW69280   9.432   8.091   4.287
56419SOL    HW169281   9.387   8.003   4.304
56419SOL    HW269282   9.431   8.145   4.371
56420SOL     OW69283  11.152   9.215   4.083
56420SOL    HW169284  11.206   9.186   4.163
56420SOL    HW269285  11.182   9.305   4.054
56421SOL     OW69286   9.337   9.044   3.841
56421SOL    HW169287   9.318   8.948   3.862
56421SOL    HW269288   9.304   9.102   3.916
56422SOL     OW69289  10.999   8.370   4.336
56422SOL    HW169290  11.094   8.341   4.344
56422SOL    HW269291  10.991   8.435   4.261
56423SOL     OW69292  10.951   8.556   4.156
56423SOL    HW169293  11.037   8.558   4.104
56423SOL    HW269294  10.965   8.603   4.244
56424SOL     OW69295   9.423   8.185   5.321
56424SOL    HW169296   9.511   8.172   5.366
56424SOL    HW269297   9.410   8.282   5.299
56425SOL     OW69298   9.923   8.813   4.450
56425SOL    HW169299   9.874   8.726   4.459
56425SOL    HW269300   9.900   8.856   4.363
56426SOL     OW69301  10.603   8.676   5.147
56426SOL    HW169302  10.640   8.603   5.089
56426SOL    HW269303  10.655   8.681   5.232
56427SOL     OW69304  10.119   7.452   4.226
56427SOL    HW169305  10.159   7.543   4.217
56427SOL    HW269306  10.019   7.460   4.232
56428SOL     OW69307   9.507   8.424   4.988
56428SOL    HW169308   9.596   8.379   4.974
56428SOL    HW269309   9.434   8.359   4.969
56429SOL     OW69310  10.835   8.447   3.914
56429SOL    HW169311  10.772   8.371   3.927
56429SOL    HW269312  10.883   8.465   4.000
56430SOL     OW69313  10.497   9.240   5.340
56430SOL    HW169314  10.521   9.300   5.264
56430SOL    HW269315  10.504   9.145   5.310
56431SOL     OW69316   9.627   7.699   5.525
56431SOL    HW169317   9.698   7.770   5.531
56431SOL    HW269318   9.539   7.738   5.553
56432SOL     OW69319  10.776   8.865   4.677
56432SOL    HW169320  10.717   8.871   4.757
56432SOL    HW269321  10.761   8.777   4.631
56433SOL     OW69322  10.977   9.162   4.296
56433SOL    HW169323  10.936   9.139   4.208
56433SOL    HW269324  10.959   9.088   4.361
56434SOL     OW69325   9.908   8.177   3.994
56434SOL    HW169326   9.932   8.246   3.926
56434SOL    HW269327   9.830   8.210   4.048
56435SOL     OW69328  10.591   7.793   4.668
56435SOL    HW169329  10.505   7.743   4.655
56435SOL    HW269330  10.653   7.739   4.724
56436SOL     OW69331  10.886   9.110   4.031
56436SOL    HW169332  10.975   9.156   4.034
56436SOL    HW269333  10.865   9.086   3.936
56437SOL     OW69334  10.117   8.053   5.189
56437SOL    HW169335  10.070   8.050   5.278
56437SOL    HW269336  10.066   7.998   5.123
56438SOL     OW69337  10.704   7.917   5.398
56438SOL    HW169338  10.684   7.960   5.486
56438SOL    HW269339  10.782   7.855   5.407
56439SOL     OW69340  10.283   8.338   5.296
56439SOL    HW169341  10.329   8.254   5.267
56439SOL    HW269342  10.227   8.372   5.221
56440SOL     OW69343  10.301   7.858   4.966
56440SOL    HW169344  10.224   7.892   5.020
56440SOL    HW269345  10.267   7.807   4.887
56441SOL     OW69346  10.351   8.149   4.153
56441SOL    HW169347  10.377   8.145   4.249
56441SOL    HW269348  10.266   8.098   4.139
56442SOL     OW69349   9.386   8.259   4.513
56442SOL    HW169350   9.485   8.247   4.522
56442SOL    HW269351   9.362   8.354   4.534
56443SOL     OW69352   9.440   9.269   5.295
56443SOL    HW169353   9.430   9.254   5.394
56443SOL    HW269354   9.354   9.305   5.259
56444SOL     OW69355  10.175   7.796   3.919
56444SOL    HW169356  10.234   7.859   3.870
56444SOL    HW269357  10.194   7.702   3.890
56445SOL     OW69358  11.029   8.033   5.555
56445SOL    HW169359  11.003   8.122   5.519
56445SOL    HW269360  11.027   7.965   5.482
56446SOL     OW69361  10.672   8.592   4.269
56446SOL    HW169362  10.755   8.563   4.221
56446SOL    HW269363  10.623   8.659   4.213
56447SOL     OW69364   9.860   7.644   4.609
56447SOL    HW169365   9.855   7.639   4.709
56447SOL    HW269366   9.862   7.740   4.580
56448SOL     OW69367  10.318   8.904   4.201
56448SOL    HW169368  10.272   8.976   4.149
56448SOL    HW269369  10.314   8.924   4.299
56449SOL     OW69370   9.661   9.249   4.577
56449SOL    HW169371   9.711   9.163   4.583
56449SOL    HW269372   9.726   9.326   4.574
56450SOL     OW69373  11.105   8.514   4.597
56450SOL    HW169374  11.043   8.499   4.521
56450SOL    HW269375  11.053   8.525   4.682
56451SOL     OW69376  10.537   8.998   5.230
56451SOL    HW169377  10.543   8.921   5.294
56451SOL    HW269378  10.485   8.972   5.150
56452SOL     OW69379   9.631   8.391   3.966
56452SOL    HW169380   9.713   8.430   3.924
56452SOL    HW269381   9.604   8.309   3.917
56453SOL     OW69382  10.768   8.183   4.452
56453SOL    HW169383  10.763   8.118   4.527
56453SOL    HW269384  10.848   8.242   4.465
56454SOL     OW69385   9.771   8.714   5.451
56454SOL    HW169386   9.721   8.715   5.365
56454SOL    HW269387   9.708   8.696   5.527
56455SOL     OW69388  10.421   9.224   3.961
56455SOL    HW169389  10.361   9.162   4.011
56455SOL    HW269390  10.452   9.180   3.876
56456SOL     OW69391   9.512   7.733   5.222
56456SOL    HW169392   9.432   7.793   5.209
56456SOL    HW269393   9.502   7.684   5.308
56457SOL     OW69394  10.942   8.825   3.805
56457SOL    HW169395  10.910   8.919   3.795
56457SOL    HW269396  10.866   8.762   3.793
56458SOL     OW69397   9.774   9.191   4.047
56458SOL    HW169398   9.807   9.230   4.133
56458SOL    HW269399   9.850   9.184   3.982
56459SOL     OW69400  10.710   7.555   4.150
56459SOL    HW169401  10.686   7.518   4.060
56459SOL    HW269402  10.809   7.571   4.154
56460SOL     OW69403   9.559   9.233   4.965
56460SOL    HW169404   9.616   9.168   5.015
56460SOL    HW269405   9.543   9.200   4.872
56461SOL     OW69406  10.250   9.146   4.628
56461SOL    HW169407  10.330   9.089   4.649
56461SOL    HW269408  10.201   9.106   4.551
56462SOL     OW69409   9.692   8.148   4.204
56462SOL    HW169410   9.737   8.058   4.201
56462SOL    HW269411   9.598   8.137   4.237
56463SOL     OW69412  10.857   7.670   5.453
56463SOL    HW169413  10.852   7.707   5.545
56463SOL    HW269414  10.785   7.601   5.441
56464SOL     OW69415   9.924   7.570   3.841
56464SOL    HW169416  10.022   7.548   3.848
56464SOL    HW269417   9.893   7.553   3.748
56465SOL     OW69418  10.091   7.712   5.473
56465SOL    HW169419  10.158   7.651   5.516
56465SOL    HW269420  10.018   7.731   5.538
56466SOL     OW69421  10.198   8.962   4.919
56466SOL    HW169422  10.175   8.937   4.825
56466SOL    HW269423  10.259   8.893   4.958
56467SOL     OW69424  10.661   8.038   5.157
56467SOL    HW169425  10.689   7.995   5.242
56467SOL    HW269426  10.686   8.134   5.158
56468SOL     OW69427  10.113   8.850   4.648
56468SOL    HW169428  10.203   8.864   4.606
56468SOL    HW269429  10.042   8.852   4.577
56469SOL     OW69430  10.232   7.951   4.623
56469SOL    HW169431  10.207   7.942   4.527
56469SOL    HW269432  10.280   7.869   4.654
56470SOL     OW69433   9.849   7.512   4.236
56470SOL    HW169434   9.768   7.513   4.294
56470SOL    HW269435   9.852   7.595   4.181
56471SOL     OW69436  10.744   8.636   3.765
56471SOL    HW169437  10.776   8.560   3.822
56471SOL    HW269438  10.652   8.663   3.795
56472SOL     OW69439   9.607   7.483   3.895
56472SOL    HW169440   9.656   7.567   3.874
56472SOL    HW269441   9.669   7.418   3.940
56473SOL     OW69442  10.245   7.684   4.204
56473SOL    HW169443  10.197   7.725   4.126
56473SOL    HW269444  10.344   7.682   4.185
56474SOL     OW69445  10.386   8.131   5.188
56474SOL    HW169446  10.306   8.070   5.191
56474SOL    HW269447  10.467   8.078   5.164
56475SOL     OW69448  10.537   9.018   4.517
56475SOL    HW169449  10.558   9.092   4.452
56475SOL    HW269450  10.605   9.018   4.590
56476SOL     OW69451   9.769   8.600   4.465
56476SOL    HW169452   9.698   8.573   4.530
56476SOL    HW269453   9.743   8.572   4.372
56477SOL     OW69454  10.581   9.245   4.315
56477SOL    HW169455  10.625   9.309   4.251
56477SOL    HW269456  10.531   9.297   4.385
56478SOL     OW69457  10.342   7.997   3.740
56478SOL    HW169458  10.301   8.079   3.701
56478SOL    HW269459  10.406   8.023   3.813
56479SOL     OW69460   9.388   8.004   5.110
56479SOL    HW169461   9.480   8.003   5.069
56479SOL    HW269462   9.382   8.078   5.177
56480SOL     OW69463   9.871   7.670   4.871
56480SOL    HW169464   9.909   7.586   4.908
56480SOL    HW269465   9.783   7.689   4.915
56481SOL     OW69466  10.176   7.902   4.366
56481SOL    HW169467  10.144   7.974   4.304
56481SOL    HW269468  10.200   7.821   4.313
56482SOL     OW69469  10.327   7.487   4.477
56482SOL    HW169470  10.255   7.492   4.408
56482SOL    HW269471  10.303   7.418   4.546
56483SOL     OW69472  10.739   8.621   4.591
56483SOL    HW169473  10.684   8.537   4.584
56483SOL    HW269474  10.765   8.650   4.499
56484SOL     OW69475  10.776   8.038   4.716
56484SOL    HW169476  10.746   7.943   4.723
56484SOL    HW269477  10.849   8.054   4.782
56485SOL     OW69478  11.167   8.281   4.101
56485SOL    HW169479  11.209   8.217   4.165
56485SOL    HW269480  11.129   8.230   4.023
56486SOL     OW69481   9.798   8.833   3.898
56486SOL    HW169482   9.711   8.818   3.945
56486SOL    HW269483   9.781   8.859   3.803
56487SOL     OW69484  10.974   8.728   4.381
56487SOL    HW169485  11.073   8.736   4.395
56487SOL    HW269486  10.929   8.812   4.412
56488SOL     OW69487  10.700   8.023   3.802
56488SOL    HW169488  10.646   8.002   3.883
56488SOL    HW269489  10.791   7.982   3.811
56489SOL     OW69490   9.837   7.704   4.052
56489SOL    HW169491   9.864   7.645   3.977
56489SOL    HW269492   9.837   7.799   4.021
56490SOL     OW69493  11.064   8.671   5.312
56490SOL    HW169494  11.155   8.632   5.299
56490SOL    HW269495  11.072   8.767   5.336
56491SOL     OW69496  10.374   8.795   5.064
56491SOL    HW169497  10.294   8.772   5.119
56491SOL    HW269498  10.457   8.769   5.113
56492SOL     OW69499  10.902   9.077   5.349
56492SOL    HW169500  10.929   9.111   5.259
56492SOL    HW269501  10.981   9.039   5.395
56493SOL     OW69502  10.421   8.643   4.824
56493SOL    HW169503  10.381   8.687   4.905
56493SOL    HW269504  10.380   8.680   4.741
56494SOL     OW69505  10.948   8.547   4.803
56494SOL    HW169506  10.953   8.628   4.862
56494SOL    HW269507  10.862   8.549   4.752
56495SOL     OW69508  10.225   7.537   5.126
56495SOL    HW169509  10.250   7.517   5.031
56495SOL    HW269510  10.297   7.593   5.168
56496SOL     OW69511  10.290   8.564   5.443
56496SOL    HW169512  10.191   8.570   5.453
56496SOL    HW269513  10.313   8.484   5.387
56497SOL     OW69514  10.015   8.498   4.092
56497SOL    HW169515  10.001   8.505   4.191
56497SOL    HW269516  10.099   8.447   4.074
56498SOL     OW69517   9.720   8.261   4.975
56498SOL    HW169518   9.806   8.273   5.025
56498SOL    HW269519   9.678   8.174   5.002
56499SOL     OW69520  10.584   7.834   4.986
56499SOL    HW169521  10.605   7.908   5.050
56499SOL    HW269522  10.495   7.851   4.943
56500SOL     OW69523   9.374   9.012   5.055
56500SOL    HW169524   9.328   9.094   5.021
56500SOL    HW269525   9.472   9.031   5.064
56501SOL     OW69526   9.677   8.548   4.225
56501SOL    HW169527   9.670   8.631   4.169
56501SOL    HW269528   9.681   8.468   4.165
56502SOL     OW69529   9.876   7.985   4.589
56502SOL    HW169530   9.888   8.051   4.515
56502SOL    HW269531   9.922   8.019   4.672
56503SOL     OW69532  10.562   8.796   4.112
56503SOL    HW169533  10.612   8.873   4.152
56503SOL    HW269534  10.467   8.798   4.144
56504SOL     OW69535  10.582   8.893   4.866
56504SOL    HW169536  10.629   8.906   4.953
56504SOL    HW269537  10.516   8.819   4.875
56505SOL     OW69538  10.892   8.087   4.196
56505SOL    HW169539  10.861   8.148   4.269
56505SOL    HW269540  10.942   8.139   4.127
56506SOL     OW69541   9.664   8.958   5.053
56506SOL    HW169542   9.643   8.914   4.966
56506SOL    HW269543   9.761   8.984   5.056
56507SOL     OW69544   9.712   8.199   5.322
56507SOL    HW169545   9.780   8.254   5.275
56507SOL    HW269546   9.752   8.111   5.349
56508SOL     OW69547  10.897   8.227   5.394
56508SOL    HW169548  10.805   8.265   5.389
56508SOL    HW269549  10.957   8.274   5.329
56509SOL     OW69550  10.323   7.553   5.494
56509SOL    HW169551  10.329   7.638   5.442
56509SOL    HW269552  10.355   7.477   5.437
56510SOL     OW69553   9.814   7.498   5.464
56510SOL    HW169554   9.772   7.441   5.394
56510SOL    HW269555   9.748   7.567   5.496
56511SOL     OW69556   9.883   8.318   4.753
56511SOL    HW169557   9.927   8.407   4.744
56511SOL    HW269558   9.820   8.318   4.830
56512SOL     OW69559  10.670   8.310   4.769
56512SOL    HW169560  10.595   8.310   4.703
56512SOL    HW269561  10.707   8.218   4.778
56513SOL     OW69562  10.519   7.973   3.999
56513SOL    HW169563  10.532   7.889   4.053
56513SOL    HW269564  10.490   8.047   4.059
56514SOL     OW69565   9.617   7.661   4.955
56514SOL    HW169566   9.594   7.698   5.045
56514SOL    HW269567   9.587   7.566   4.949
56515SOL     OW69568   9.347   8.758   5.006
56515SOL    HW169569   9.400   8.709   5.074
56515SOL    HW269570   9.369   8.856   5.011
56516SOL     OW69571  10.042   8.082   4.788
56516SOL    HW169572  10.101   8.056   4.712
56516SOL    HW269573  10.014   8.178   4.777
56517SOL     OW69574  11.038   8.383   5.578
56517SOL    HW169575  10.992   8.376   5.489
56517SOL    HW269576  10.976   8.427   5.644
56518SOL     OW69577   9.617   7.511   4.342
56518SOL    HW169578   9.606   7.605   4.375
56518SOL    HW269579   9.612   7.448   4.419
56519SOL     OW69580  10.932   7.815   4.098
56519SOL    HW169581  10.934   7.739   4.162
56519SOL    HW269582  10.884   7.892   4.138
56520SOL     OW69583  10.333   8.214   4.690
56520SOL    HW169584  10.348   8.235   4.786
56520SOL    HW269585  10.303   8.119   4.681
56521SOL     OW69586  10.290   9.021   5.424
56521SOL    HW169587  10.270   9.065   5.336
56521SOL    HW269588  10.329   8.930   5.408
56522SOL     OW69589  11.169   8.966   5.329
56522SOL    HW169590  11.183   8.993   5.234
56522SOL    HW269591  11.252   8.988   5.382
56523SOL     OW69592   9.660   8.346   5.528
56523SOL    HW169593   9.736   8.390   5.576
56523SOL    HW269594   9.695   8.299   5.446
56524SOL     OW69595  10.850   7.722   3.849
56524SOL    HW169596  10.789   7.647   3.872
56524SOL    HW269597  10.872   7.774   3.932
56525SOL     OW69598  10.613   8.286   3.766
56525SOL    HW169599  10.647   8.193   3.781
56525SOL    HW269600  10.631   8.313   3.671
56526SOL     OW69601  10.378   8.781   4.573
56526SOL    HW169602  10.385   8.697   4.518
56526SOL    HW269603  10.440   8.850   4.537
56527SOL     OW69604   9.629   8.258   4.673
56527SOL    HW169605   9.722   8.294   4.678
56527SOL    HW269606   9.623   8.173   4.725
56528SOL     OW69607   9.649   7.957   4.730
56528SOL    HW169608   9.597   7.874   4.713
56528SOL    HW269609   9.726   7.962   4.666
56529SOL     OW69610  10.448   7.828   5.402
56529SOL    HW169611  10.403   7.891   5.466
56529SOL    HW269612  10.541   7.859   5.385
56530SOL     OW69613  10.470   7.655   5.201
56530SOL    HW169614  10.470   7.719   5.278
56530SOL    HW269615  10.498   7.703   5.118
56531SOL     OW69616   9.318   8.774   3.924
56531SOL    HW169617   9.225   8.795   3.893
56531SOL    HW269618   9.328   8.675   3.937
56532SOL     OW69619   9.398   9.249   4.651
56532SOL    HW169620   9.356   9.163   4.624
56532SOL    HW269621   9.492   9.252   4.617
56533SOL     OW69622   9.814   9.016   4.634
56533SOL    HW169623   9.880   9.090   4.643
56533SOL    HW269624   9.858   8.937   4.592
56534SOL     OW69625  10.312   8.244   4.962
56534SOL    HW169626  10.353   8.212   5.048
56534SOL    HW269627  10.216   8.217   4.959
56535SOL     OW69628   9.350   7.992   4.838
56535SOL    HW169629   9.435   7.959   4.797
56535SOL    HW269630   9.363   8.007   4.936
56536SOL     OW69631   9.499   7.968   5.446
56536SOL    HW169632   9.558   7.928   5.376
56536SOL    HW269633   9.441   8.039   5.405
56537SOL     OW69634  10.679   8.398   5.384
56537SOL    HW169635  10.718   8.487   5.404
56537SOL    HW269636  10.689   8.378   5.287
56538SOL     OW69637  10.125   8.020   4.049
56538SOL    HW169638  10.132   7.931   4.003
56538SOL    HW269639  10.031   8.054   4.041
56539SOL     OW69640  10.967   8.052   4.930
56539SOL    HW169641  10.929   7.983   4.992
56539SOL    HW269642  11.049   8.016   4.886
56540SOL     OW69643   9.562   9.012   5.468
56540SOL    HW169644   9.532   9.069   5.544
56540SOL    HW269645   9.555   8.915   5.494
56541SOL     OW69646   9.981   7.912   4.993
56541SOL    HW169647   9.947   7.823   4.963
56541SOL    HW269648  10.007   7.966   4.913
56542SOL     OW69649  10.240   9.126   5.189
56542SOL    HW169650  10.216   9.108   5.094
56542SOL    HW269651  10.270   9.220   5.199
56543SOL     OW69652   9.783   7.948   3.915
56543SOL    HW169653   9.844   8.028   3.919
56543SOL    HW269654   9.688   7.979   3.922
56544SOL     OW69655   9.469   8.585   5.190
56544SOL    HW169656   9.491   8.524   5.266
56544SOL    HW269657   9.479   8.536   5.104
56545SOL     OW69658  10.657   8.507   4.958
56545SOL    HW169659  10.681   8.444   4.884
56545SOL    HW269660  10.567   8.547   4.940
56546SOL     OW69661  10.612   8.303   4.033
56546SOL    HW169662  10.526   8.272   4.075
56546SOL    HW269663  10.608   8.289   3.934
56547SOL     OW69664  11.069   9.195   4.878
56547SOL    HW169665  11.130   9.225   4.805
56547SOL    HW269666  11.031   9.106   4.856
56548SOL     OW69667  10.562   9.179   4.852
56548SOL    HW169668  10.646   9.184   4.798
56548SOL    HW269669  10.539   9.083   4.870
56549SOL     OW69670   9.393   8.706   4.746
56549SOL    HW169671   9.388   8.705   4.846
56549SOL    HW269672   9.310   8.665   4.708
56550SOL     OW69673   9.998   9.110   5.440
56550SOL    HW169674   9.942   9.191   5.449
56550SOL    HW269675  10.050   9.114   5.354
56551SOL     OW69676  11.036   7.583   4.247
56551SOL    HW169677  11.109   7.566   4.180
56551SOL    HW269678  11.005   7.496   4.285
56552SOL     OW69679  10.698   9.021   4.201
56552SOL    HW169680  10.765   9.033   4.127
56552SOL    HW269681  10.658   9.110   4.224
56553SOL     OW69682   9.440   9.242   5.575
56553SOL    HW169683   9.399   9.168   5.628
56553SOL    HW269684   9.504   9.293   5.633
56554SOL     OW69685  10.590   8.375   4.396
56554SOL    HW169686  10.650   8.294   4.398
56554SOL    HW269687  10.630   8.444   4.336
56555SOL     OW69688  10.140   8.721   5.146
56555SOL    HW169689  10.135   8.754   5.241
56555SOL    HW269690  10.054   8.740   5.100
56556SOL     OW69691   9.982   9.064   3.878
56556SOL    HW169692   9.991   9.074   3.779
56556SOL    HW269693   9.942   8.975   3.899
56557SOL     OW69694  10.960   9.168   5.118
56557SOL    HW169695  11.013   9.178   5.034
56557SOL    HW269696  10.933   9.258   5.152
56558SOL     OW69697  11.151   7.623   4.687
56558SOL    HW169698  11.190   7.538   4.651
56558SOL    HW269699  11.053   7.625   4.668
56559SOL     OW69700   9.573   7.774   4.444
56559SOL    HW169701   9.494   7.825   4.410
56559SOL    HW269702   9.564   7.759   4.542
56560SOL     OW69703  10.504   9.060   3.755
56560SOL    HW169704  10.510   8.967   3.792
56560SOL    HW269705  10.445   9.060   3.675
56561SOL     OW69706  10.132   8.450   5.096
56561SOL    HW169707  10.172   8.449   5.004
56561SOL    HW269708  10.142   8.542   5.136
56562SOL     OW69709  10.226   8.358   4.015
56562SOL    HW169710  10.289   8.396   3.947
56562SOL    HW269711  10.266   8.275   4.054
56563SOL     OW69712  10.814   9.055   3.768
56563SOL    HW169713  10.722   9.092   3.775
56563SOL    HW269714  10.852   9.075   3.678
56564SOL     OW69715   9.682   8.736   5.214
56564SOL    HW169716   9.669   8.829   5.180
56564SOL    HW269717   9.598   8.684   5.201
56565SOL     OW69718  10.924   8.740   5.013
56565SOL    HW169719  10.984   8.743   5.093
56565SOL    HW269720  10.849   8.804   5.026
56566SOL     OW69721  10.349   8.546   4.420
56566SOL    HW169722  10.279   8.499   4.474
56566SOL    HW269723  10.408   8.478   4.377
56567SOL     OW69724  10.324   7.684   4.695
56567SOL    HW169725  10.316   7.648   4.602
56567SOL    HW269726  10.322   7.608   4.760
56568SOL     OW69727   9.900   8.935   4.215
56568SOL    HW169728   9.942   8.877   4.145
56568SOL    HW269729   9.856   9.014   4.171
56569SOL     OW69730  11.019   7.833   5.105
56569SOL    HW169731  11.092   7.902   5.109
56569SOL    HW269732  11.047   7.758   5.046
56570SOL     OW69733   9.565   8.796   4.014
56570SOL    HW169734   9.469   8.797   3.987
56570SOL    HW269735   9.577   8.849   4.098
56571SOL     OW69736   9.415   8.461   5.450
56571SOL    HW169737   9.338   8.428   5.504
56571SOL    HW269738   9.500   8.431   5.492
56572SOL     OW69739   9.982   7.651   5.213
56572SOL    HW169740  10.072   7.635   5.173
56572SOL    HW269741   9.990   7.656   5.312
56573SOL     OW69742   9.385   7.793   3.757
56573SOL    HW169743   9.293   7.765   3.728
56573SOL    HW269744   9.416   7.870   3.701
56574SOL     OW69745  10.750   8.304   5.122
56574SOL    HW169746  10.693   8.356   5.059
56574SOL    HW269747  10.846   8.316   5.098
56575SOL     OW69748   9.382   7.614   4.042
56575SOL    HW169749   9.365   7.697   3.988
56575SOL    HW269750   9.472   7.577   4.020
56576SOL     OW69751  10.493   8.783   3.843
56576SOL    HW169752  10.394   8.772   3.845
56576SOL    HW269753  10.527   8.798   3.936
56577SOL     OW69754   9.923   8.290   5.155
56577SOL    HW169755   9.979   8.371   5.138
56577SOL    HW269756   9.982   8.210   5.158
56578SOL     OW69757  10.803   9.215   4.683
56578SOL    HW169758  10.836   9.279   4.614
56578SOL    HW269759  10.869   9.209   4.758
56579SOL     OW69760  10.026   8.013   5.432
56579SOL    HW169761  10.045   8.078   5.506
56579SOL    HW269762  10.086   7.933   5.441
56580SOL     OW69763  10.760   8.668   5.357
56580SOL    HW169764  10.751   8.658   5.456
56580SOL    HW269765  10.856   8.661   5.331
56581SOL     OW69766   9.700   9.189   5.284
56581SOL    HW169767   9.609   9.230   5.282
56581SOL    HW269768   9.693   9.095   5.316
56582SOL     OW69769  10.984   8.331   4.978
56582SOL    HW169770  10.957   8.242   4.941
56582SOL    HW269771  10.985   8.399   4.905
56583SOL     OW69772  10.535   7.773   4.173
56583SOL    HW169773  10.600   7.699   4.162
56583SOL    HW269774  10.555   7.823   4.257
56584SOL     OW69775   9.904   8.193   4.376
56584SOL    HW169776   9.954   8.278   4.357
56584SOL    HW269777   9.816   8.195   4.328
56585SOL     OW69778  11.087   7.790   5.366
56585SOL    HW169779  11.070   7.821   5.272
56585SOL    HW269780  11.003   7.753   5.404
56586SOL     OW69781  11.040   8.382   5.241
56586SOL    HW169782  11.078   8.473   5.256
56586SOL    HW269783  11.032   8.365   5.142
56587SOL     OW69784  10.169   8.822   3.740
56587SOL    HW169785  10.123   8.837   3.828
56587SOL    HW269786  10.213   8.907   3.710
56588SOL     OW69787   9.971   9.238   4.677
56588SOL    HW169788   9.925   9.326   4.664
56588SOL    HW269789  10.070   9.250   4.670
56589SOL     OW69790  10.169   8.404   4.585
56589SOL    HW169791  10.223   8.335   4.633
56589SOL    HW269792  10.137   8.473   4.651
56590SOL     OW69793  10.393   8.432   3.811
56590SOL    HW169794  10.370   8.485   3.729
56590SOL    HW269795  10.474   8.376   3.792
56591SOL     OW69796  11.171   9.017   4.575
56591SOL    HW169797  11.100   9.005   4.505
56591SOL    HW269798  11.172   8.938   4.635
56592SOL     OW69799   9.531   8.762   5.568
56592SOL    HW169800   9.466   8.689   5.547
56592SOL    HW269801   9.535   8.776   5.666
56593SOL     OW69802   9.389   8.688   4.377
56593SOL    HW169803   9.388   8.641   4.465
56593SOL    HW269804   9.471   8.660   4.326
56594SOL     OW69805   9.982   8.839   5.348
56594SOL    HW169806   9.904   8.789   5.386
56594SOL    HW269807   9.979   8.934   5.379
56595SOL     OW69808  11.134   7.640   4.951
56595SOL    HW169809  11.130   7.550   4.995
56595SOL    HW269810  11.137   7.629   4.852
56596SOL     OW69811   9.738   7.872   4.244
56596SOL    HW169812   9.768   7.800   4.182
56596SOL    HW269813   9.699   7.832   4.327
56597SOL     OW69814  11.015   8.935   4.828
56597SOL    HW169815  10.922   8.910   4.801
56597SOL    HW269816  11.041   8.885   4.910
56598SOL     OW69817   9.627   7.995   5.004
56598SOL    HW169818   9.665   7.936   5.076
56598SOL    HW269819   9.667   7.969   4.916
56599SOL     OW69820  10.122   9.034   4.411
56599SOL    HW169821  10.154   9.044   4.317
56599SOL    HW269822  10.043   8.972   4.413
56600SOL     OW69823  10.734   7.662   4.836
56600SOL    HW169824  10.786   7.597   4.891
56600SOL    HW269825  10.685   7.725   4.897
56601SOL     OW69826  10.311   7.482   4.878
56601SOL    HW169827  10.248   7.410   4.847
56601SOL    HW269828  10.404   7.446   4.878
56602SOL     OW69829  10.080   8.778   4.025
56602SOL    HW169830  10.034   8.691   4.042
56602SOL    HW269831  10.171   8.775   4.066
56603SOL     OW69832   9.928   9.015   5.008
56603SOL    HW169833   9.923   9.097   5.065
56603SOL    HW269834  10.017   9.012   4.963
56604SOL     OW69835  10.662   7.500   3.892
56604SOL    HW169836  10.697   7.459   3.808
56604SOL    HW269837  10.572   7.462   3.912
56605SOL     OW69838  10.610   7.901   4.415
56605SOL    HW169839  10.551   7.981   4.419
56605SOL    HW269840  10.625   7.866   4.508
56606SOL     OW69841  10.903   7.669   4.606
56606SOL    HW169842  10.819   7.668   4.660
56606SOL    HW269843  10.905   7.752   4.550
56607SOL     OW69844   9.349   8.525   4.024
56607SOL    HW169845   9.448   8.514   4.015
56607SOL    HW269846   9.309   8.439   4.056
56608SOL     OW69847  10.185   9.094   4.061
56608SOL    HW169848  10.108   9.059   4.007
56608SOL    HW269849  10.153   9.165   4.123
56609SOL     OW69850   9.540   8.076   5.699
56609SOL    HW169851   9.447   8.074   5.736
56609SOL    HW269852   9.541   8.037   5.607
56610SOL     OW69853   9.535   7.723   6.582
56610SOL    HW169854   9.570   7.706   6.674
56610SOL    HW269855   9.447   7.678   6.570
56611SOL     OW69856   9.329   7.816   6.233
56611SOL    HW169857   9.247   7.859   6.272
56611SOL    HW269858   9.301   7.743   6.170
56612SOL     OW69859   9.879   8.723   6.751
56612SOL    HW169860   9.786   8.716   6.714
56612SOL    HW269861   9.890   8.812   6.795
56613SOL     OW69862  10.865   8.959   6.289
56613SOL    HW169863  10.808   8.943   6.370
56613SOL    HW269864  10.806   8.969   6.209
56614SOL     OW69865  10.445   8.151   6.303
56614SOL    HW169866  10.502   8.229   6.278
56614SOL    HW269867  10.385   8.177   6.379
56615SOL     OW69868  11.065   8.055   5.817
56615SOL    HW169869  11.053   8.042   5.718
56615SOL    HW269870  11.035   7.974   5.866
56616SOL     OW69871  10.078   8.592   6.609
56616SOL    HW169872  10.000   8.609   6.669
56616SOL    HW269873  10.112   8.679   6.573
56617SOL     OW69874  10.160   8.246   7.409
56617SOL    HW169875  10.156   8.322   7.474
56617SOL    HW269876  10.182   8.282   7.318
56618SOL     OW69877   9.995   8.460   6.251
56618SOL    HW169878  10.064   8.444   6.321
56618SOL    HW269879   9.922   8.517   6.289
56619SOL     OW69880   9.996   8.609   7.389
56619SOL    HW169881  10.056   8.688   7.403
56619SOL    HW269882   9.910   8.640   7.348
56620SOL     OW69883   9.645   8.883   6.647
56620SOL    HW169884   9.567   8.852   6.594
56620SOL    HW269885   9.703   8.941   6.590
56621SOL     OW69886  10.770   8.953   6.925
56621SOL    HW169887  10.794   9.047   6.951
56621SOL    HW269888  10.754   8.899   7.007
56622SOL     OW69889   9.748   7.840   7.085
56622SOL    HW169890   9.830   7.784   7.094
56622SOL    HW269891   9.667   7.782   7.089
56623SOL     OW69892  10.913   7.895   6.323
56623SOL    HW169893  10.839   7.941   6.273
56623SOL    HW269894  10.964   7.963   6.376
56624SOL     OW69895   9.541   9.161   6.069
56624SOL    HW169896   9.575   9.238   6.123
56624SOL    HW269897   9.585   9.161   5.979
56625SOL     OW69898  10.437   8.789   7.276
56625SOL    HW169899  10.484   8.789   7.364
56625SOL    HW269900  10.389   8.702   7.265
56626SOL     OW69901   9.540   8.882   6.124
56626SOL    HW169902   9.514   8.978   6.124
56626SOL    HW269903   9.469   8.828   6.169
56627SOL     OW69904   9.550   8.539   6.472
56627SOL    HW169905   9.564   8.455   6.524
56627SOL    HW269906   9.495   8.603   6.527
56628SOL     OW69907   9.930   9.234   7.025
56628SOL    HW169908   9.838   9.217   7.060
56628SOL    HW269909   9.958   9.326   7.051
56629SOL     OW69910   9.916   8.412   5.709
56629SOL    HW169911   9.923   8.496   5.655
56629SOL    HW269912   9.962   8.425   5.797
56630SOL     OW69913  10.904   7.562   7.066
56630SOL    HW169914  10.886   7.629   6.994
56630SOL    HW269915  10.901   7.608   7.155
56631SOL     OW69916   9.432   8.091   6.149
56631SOL    HW169917   9.387   8.003   6.166
56631SOL    HW269918   9.431   8.145   6.233
56632SOL     OW69919  11.152   9.215   5.945
56632SOL    HW169920  11.206   9.186   6.025
56632SOL    HW269921  11.182   9.305   5.916
56633SOL     OW69922   9.337   9.044   5.703
56633SOL    HW169923   9.318   8.948   5.724
56633SOL    HW269924   9.304   9.102   5.778
56634SOL     OW69925  10.999   8.370   6.198
56634SOL    HW169926  11.094   8.341   6.206
56634SOL    HW269927  10.991   8.435   6.123
56635SOL     OW69928  10.951   8.556   6.018
56635SOL    HW169929  11.037   8.558   5.966
56635SOL    HW269930  10.965   8.603   6.106
56636SOL     OW69931   9.423   8.185   7.183
56636SOL    HW169932   9.511   8.172   7.228
56636SOL    HW269933   9.410   8.282   7.161
56637SOL     OW69934   9.923   8.813   6.312
56637SOL    HW169935   9.874   8.726   6.321
56637SOL    HW269936   9.900   8.856   6.225
56638SOL     OW69937  10.603   8.676   7.009
56638SOL    HW169938  10.640   8.603   6.951
56638SOL    HW269939  10.655   8.681   7.094
56639SOL     OW69940  10.119   7.452   6.088
56639SOL    HW169941  10.159   7.543   6.079
56639SOL    HW269942  10.019   7.460   6.094
56640SOL     OW69943   9.507   8.424   6.850
56640SOL    HW169944   9.596   8.379   6.836
56640SOL    HW269945   9.434   8.359   6.831
56641SOL     OW69946  10.835   8.447   5.776
56641SOL    HW169947  10.772   8.371   5.789
56641SOL    HW269948  10.883   8.465   5.862
56642SOL     OW69949  10.497   9.240   7.202
56642SOL    HW169950  10.521   9.300   7.126
56642SOL    HW269951  10.504   9.145   7.172
56643SOL     OW69952   9.627   7.699   7.387
56643SOL    HW169953   9.698   7.770   7.393
56643SOL    HW269954   9.539   7.738   7.415
56644SOL     OW69955  10.776   8.865   6.539
56644SOL    HW169956  10.717   8.871   6.619
56644SOL    HW269957  10.761   8.777   6.493
56645SOL     OW69958  10.977   9.162   6.158
56645SOL    HW169959  10.936   9.139   6.070
56645SOL    HW269960  10.959   9.088   6.223
56646SOL     OW69961   9.908   8.177   5.856
56646SOL    HW169962   9.932   8.246   5.788
56646SOL    HW269963   9.830   8.210   5.910
56647SOL     OW69964  10.591   7.793   6.530
56647SOL    HW169965  10.505   7.743   6.517
56647SOL    HW269966  10.653   7.739   6.586
56648SOL     OW69967  10.886   9.110   5.893
56648SOL    HW169968  10.975   9.156   5.896
56648SOL    HW269969  10.865   9.086   5.798
56649SOL     OW69970  10.117   8.053   7.051
56649SOL    HW169971  10.070   8.050   7.140
56649SOL    HW269972  10.066   7.998   6.985
56650SOL     OW69973  10.704   7.917   7.260
56650SOL    HW169974  10.684   7.960   7.348
56650SOL    HW269975  10.782   7.855   7.269
56651SOL     OW69976  10.283   8.338   7.158
56651SOL    HW169977  10.329   8.254   7.129
56651SOL    HW269978  10.227   8.372   7.083
56652SOL     OW69979  10.301   7.858   6.828
56652SOL    HW169980  10.224   7.892   6.882
56652SOL    HW269981  10.267   7.807   6.749
56653SOL     OW69982  10.351   8.149   6.015
56653SOL    HW169983  10.377   8.145   6.111
56653SOL    HW269984  10.266   8.098   6.001
56654SOL     OW69985   9.386   8.259   6.375
56654SOL    HW169986   9.485   8.247   6.384
56654SOL    HW269987   9.362   8.354   6.396
56655SOL     OW69988   9.440   9.269   7.157
56655SOL    HW169989   9.430   9.254   7.256
56655SOL    HW269990   9.354   9.305   7.121
56656SOL     OW69991  10.175   7.796   5.781
56656SOL    HW169992  10.234   7.859   5.732
56656SOL    HW269993  10.194   7.702   5.752
56657SOL     OW69994  11.029   8.033   7.417
56657SOL    HW169995  11.003   8.122   7.381
56657SOL    HW269996  11.027   7.965   7.344
56658SOL     OW69997  10.672   8.592   6.131
56658SOL    HW169998  10.755   8.563   6.083
56658SOL    HW269999  10.623   8.659   6.075
56659SOL     OW70000   9.860   7.644   6.471
56659SOL    HW170001   9.855   7.639   6.571
56659SOL    HW270002   9.862   7.740   6.442
56660SOL     OW70003  10.318   8.904   6.063
56660SOL    HW170004  10.272   8.976   6.011
56660SOL    HW270005  10.314   8.924   6.161
56661SOL     OW70006   9.661   9.249   6.439
56661SOL    HW170007   9.711   9.163   6.445
56661SOL    HW270008   9.726   9.326   6.436
56662SOL     OW70009  11.105   8.514   6.459
56662SOL    HW170010  11.043   8.499   6.383
56662SOL    HW270011  11.053   8.525   6.544
56663SOL     OW70012  10.537   8.998   7.092
56663SOL    HW170013  10.543   8.921   7.156
56663SOL    HW270014  10.485   8.972   7.012
56664SOL     OW70015   9.631   8.391   5.828
56664SOL    HW170016   9.713   8.430   5.786
56664SOL    HW270017   9.604   8.309   5.779
56665SOL     OW70018  10.768   8.183   6.314
56665SOL    HW170019  10.763   8.118   6.389
56665SOL    HW270020  10.848   8.242   6.327
56666SOL     OW70021   9.771   8.714   7.313
56666SOL    HW170022   9.721   8.715   7.227
56666SOL    HW270023   9.708   8.696   7.389
56667SOL     OW70024  10.421   9.224   5.823
56667SOL    HW170025  10.361   9.162   5.873
56667SOL    HW270026  10.452   9.180   5.738
56668SOL     OW70027   9.512   7.733   7.084
56668SOL    HW170028   9.432   7.793   7.071
56668SOL    HW270029   9.502   7.684   7.170
56669SOL     OW70030  10.942   8.825   5.667
56669SOL    HW170031  10.910   8.919   5.657
56669SOL    HW270032  10.866   8.762   5.655
56670SOL     OW70033   9.774   9.191   5.909
56670SOL    HW170034   9.807   9.230   5.995
56670SOL    HW270035   9.850   9.184   5.844
56671SOL     OW70036  10.710   7.555   6.012
56671SOL    HW170037  10.686   7.518   5.922
56671SOL    HW270038  10.809   7.571   6.016
56672SOL     OW70039   9.559   9.233   6.827
56672SOL    HW170040   9.616   9.168   6.877
56672SOL    HW270041   9.543   9.200   6.734
56673SOL     OW70042  10.250   9.146   6.490
56673SOL    HW170043  10.330   9.089   6.511
56673SOL    HW270044  10.201   9.106   6.413
56674SOL     OW70045   9.692   8.148   6.066
56674SOL    HW170046   9.737   8.058   6.063
56674SOL    HW270047   9.598   8.137   6.099
56675SOL     OW70048  10.857   7.670   7.315
56675SOL    HW170049  10.852   7.707   7.407
56675SOL    HW270050  10.785   7.601   7.303
56676SOL     OW70051   9.924   7.570   5.703
56676SOL    HW170052  10.022   7.548   5.710
56676SOL    HW270053   9.893   7.553   5.610
56677SOL     OW70054  10.091   7.712   7.335
56677SOL    HW170055  10.158   7.651   7.378
56677SOL    HW270056  10.018   7.731   7.400
56678SOL     OW70057  10.198   8.962   6.781
56678SOL    HW170058  10.175   8.937   6.687
56678SOL    HW270059  10.259   8.893   6.820
56679SOL     OW70060  10.661   8.038   7.019
56679SOL    HW170061  10.689   7.995   7.104
56679SOL    HW270062  10.686   8.134   7.020
56680SOL     OW70063  10.113   8.850   6.510
56680SOL    HW170064  10.203   8.864   6.468
56680SOL    HW270065  10.042   8.852   6.439
56681SOL     OW70066  10.232   7.951   6.485
56681SOL    HW170067  10.207   7.942   6.389
56681SOL    HW270068  10.280   7.869   6.516
56682SOL     OW70069   9.849   7.512   6.098
56682SOL    HW170070   9.768   7.513   6.156
56682SOL    HW270071   9.852   7.595   6.043
56683SOL     OW70072  10.744   8.636   5.627
56683SOL    HW170073  10.776   8.560   5.684
56683SOL    HW270074  10.652   8.663   5.657
56684SOL     OW70075   9.607   7.483   5.757
56684SOL    HW170076   9.656   7.567   5.736
56684SOL    HW270077   9.669   7.418   5.802
56685SOL     OW70078  10.245   7.684   6.066
56685SOL    HW170079  10.197   7.725   5.988
56685SOL    HW270080  10.344   7.682   6.047
56686SOL     OW70081  10.386   8.131   7.050
56686SOL    HW170082  10.306   8.070   7.053
56686SOL    HW270083  10.467   8.078   7.026
56687SOL     OW70084  10.537   9.018   6.379
56687SOL    HW170085  10.558   9.092   6.314
56687SOL    HW270086  10.605   9.018   6.452
56688SOL     OW70087   9.769   8.600   6.327
56688SOL    HW170088   9.698   8.573   6.392
56688SOL    HW270089   9.743   8.572   6.234
56689SOL     OW70090  10.581   9.245   6.177
56689SOL    HW170091  10.625   9.309   6.113
56689SOL    HW270092  10.531   9.297   6.247
56690SOL     OW70093  10.342   7.997   5.602
56690SOL    HW170094  10.301   8.079   5.563
56690SOL    HW270095  10.406   8.023   5.675
56691SOL     OW70096   9.388   8.004   6.972
56691SOL    HW170097   9.480   8.003   6.931
56691SOL    HW270098   9.382   8.078   7.039
56692SOL     OW70099   9.871   7.670   6.733
56692SOL    HW170100   9.909   7.586   6.770
56692SOL    HW270101   9.783   7.689   6.777
56693SOL     OW70102  10.176   7.902   6.228
56693SOL    HW170103  10.144   7.974   6.166
56693SOL    HW270104  10.200   7.821   6.175
56694SOL     OW70105  10.327   7.487   6.339
56694SOL    HW170106  10.255   7.492   6.270
56694SOL    HW270107  10.303   7.418   6.408
56695SOL     OW70108  10.739   8.621   6.453
56695SOL    HW170109  10.684   8.537   6.446
56695SOL    HW270110  10.765   8.650   6.361
56696SOL     OW70111  10.776   8.038   6.578
56696SOL    HW170112  10.746   7.943   6.585
56696SOL    HW270113  10.849   8.054   6.644
56697SOL     OW70114  11.167   8.281   5.963
56697SOL    HW170115  11.209   8.217   6.027
56697SOL    HW270116  11.129   8.230   5.885
56698SOL     OW70117   9.798   8.833   5.760
56698SOL    HW170118   9.711   8.818   5.807
56698SOL    HW270119   9.781   8.859   5.665
56699SOL     OW70120  10.974   8.728   6.243
56699SOL    HW170121  11.073   8.736   6.257
56699SOL    HW270122  10.929   8.812   6.274
56700SOL     OW70123  10.700   8.023   5.664
56700SOL    HW170124  10.646   8.002   5.745
56700SOL    HW270125  10.791   7.982   5.673
56701SOL     OW70126   9.837   7.704   5.914
56701SOL    HW170127   9.864   7.645   5.839
56701SOL    HW270128   9.837   7.799   5.883
56702SOL     OW70129  11.064   8.671   7.174
56702SOL    HW170130  11.155   8.632   7.161
56702SOL    HW270131  11.072   8.767   7.198
56703SOL     OW70132  10.374   8.795   6.926
56703SOL    HW170133  10.294   8.772   6.981
56703SOL    HW270134  10.457   8.769   6.975
56704SOL     OW70135  10.902   9.077   7.211
56704SOL    HW170136  10.929   9.111   7.121
56704SOL    HW270137  10.981   9.039   7.257
56705SOL     OW70138  10.421   8.643   6.686
56705SOL    HW170139  10.381   8.687   6.767
56705SOL    HW270140  10.380   8.680   6.603
56706SOL     OW70141  10.948   8.547   6.665
56706SOL    HW170142  10.953   8.628   6.724
56706SOL    HW270143  10.862   8.549   6.614
56707SOL     OW70144  10.225   7.537   6.988
56707SOL    HW170145  10.250   7.517   6.893
56707SOL    HW270146  10.297   7.593   7.030
56708SOL     OW70147  10.290   8.564   7.305
56708SOL    HW170148  10.191   8.570   7.315
56708SOL    HW270149  10.313   8.484   7.249
56709SOL     OW70150  10.015   8.498   5.954
56709SOL    HW170151  10.001   8.505   6.053
56709SOL    HW270152  10.099   8.447   5.936
56710SOL     OW70153   9.720   8.261   6.837
56710SOL    HW170154   9.806   8.273   6.887
56710SOL    HW270155   9.678   8.174   6.864
56711SOL     OW70156  10.584   7.834   6.848
56711SOL    HW170157  10.605   7.908   6.912
56711SOL    HW270158  10.495   7.851   6.805
56712SOL     OW70159   9.374   9.012   6.917
56712SOL    HW170160   9.328   9.094   6.883
56712SOL    HW270161   9.472   9.031   6.926
56713SOL     OW70162   9.677   8.548   6.087
56713SOL    HW170163   9.670   8.631   6.031
56713SOL    HW270164   9.681   8.468   6.027
56714SOL     OW70165   9.876   7.985   6.451
56714SOL    HW170166   9.888   8.051   6.377
56714SOL    HW270167   9.922   8.019   6.534
56715SOL     OW70168  10.562   8.796   5.974
56715SOL    HW170169  10.612   8.873   6.014
56715SOL    HW270170  10.467   8.798   6.006
56716SOL     OW70171  10.582   8.893   6.728
56716SOL    HW170172  10.629   8.906   6.815
56716SOL    HW270173  10.516   8.819   6.737
56717SOL     OW70174  10.892   8.087   6.058
56717SOL    HW170175  10.861   8.148   6.131
56717SOL    HW270176  10.942   8.139   5.989
56718SOL     OW70177   9.664   8.958   6.915
56718SOL    HW170178   9.643   8.914   6.828
56718SOL    HW270179   9.761   8.984   6.918
56719SOL     OW70180   9.712   8.199   7.184
56719SOL    HW170181   9.780   8.254   7.137
56719SOL    HW270182   9.752   8.111   7.211
56720SOL     OW70183  10.897   8.227   7.256
56720SOL    HW170184  10.805   8.265   7.251
56720SOL    HW270185  10.957   8.274   7.191
56721SOL     OW70186  10.323   7.553   7.356
56721SOL    HW170187  10.329   7.638   7.304
56721SOL    HW270188  10.355   7.477   7.299
56722SOL     OW70189   9.814   7.498   7.326
56722SOL    HW170190   9.772   7.441   7.256
56722SOL    HW270191   9.748   7.567   7.358
56723SOL     OW70192   9.883   8.318   6.615
56723SOL    HW170193   9.927   8.407   6.606
56723SOL    HW270194   9.820   8.318   6.692
56724SOL     OW70195  10.670   8.310   6.631
56724SOL    HW170196  10.595   8.310   6.565
56724SOL    HW270197  10.707   8.218   6.640
56725SOL     OW70198  10.519   7.973   5.861
56725SOL    HW170199  10.532   7.889   5.915
56725SOL    HW270200  10.490   8.047   5.921
56726SOL     OW70201   9.617   7.661   6.817
56726SOL    HW170202   9.594   7.698   6.907
56726SOL    HW270203   9.587   7.566   6.811
56727SOL     OW70204   9.347   8.758   6.868
56727SOL    HW170205   9.400   8.709   6.936
56727SOL    HW270206   9.369   8.856   6.873
56728SOL     OW70207  10.042   8.082   6.650
56728SOL    HW170208  10.101   8.056   6.574
56728SOL    HW270209  10.014   8.178   6.639
56729SOL     OW70210  11.038   8.383   7.440
56729SOL    HW170211  10.992   8.376   7.351
56729SOL    HW270212  10.976   8.427   7.506
56730SOL     OW70213   9.617   7.511   6.204
56730SOL    HW170214   9.606   7.605   6.237
56730SOL    HW270215   9.612   7.448   6.281
56731SOL     OW70216  10.932   7.815   5.960
56731SOL    HW170217  10.934   7.739   6.024
56731SOL    HW270218  10.884   7.892   6.000
56732SOL     OW70219  10.333   8.214   6.552
56732SOL    HW170220  10.348   8.235   6.648
56732SOL    HW270221  10.303   8.119   6.543
56733SOL     OW70222  10.290   9.021   7.286
56733SOL    HW170223  10.270   9.065   7.198
56733SOL    HW270224  10.329   8.930   7.270
56734SOL     OW70225  11.169   8.966   7.191
56734SOL    HW170226  11.183   8.993   7.096
56734SOL    HW270227  11.252   8.988   7.244
56735SOL     OW70228   9.660   8.346   7.390
56735SOL    HW170229   9.736   8.390   7.438
56735SOL    HW270230   9.695   8.299   7.308
56736SOL     OW70231  10.850   7.722   5.711
56736SOL    HW170232  10.789   7.647   5.734
56736SOL    HW270233  10.872   7.774   5.794
56737SOL     OW70234  10.613   8.286   5.628
56737SOL    HW170235  10.647   8.193   5.643
56737SOL    HW270236  10.631   8.313   5.533
56738SOL     OW70237  10.378   8.781   6.435
56738SOL    HW170238  10.385   8.697   6.380
56738SOL    HW270239  10.440   8.850   6.399
56739SOL     OW70240   9.629   8.258   6.535
56739SOL    HW170241   9.722   8.294   6.540
56739SOL    HW270242   9.623   8.173   6.587
56740SOL     OW70243   9.649   7.957   6.592
56740SOL    HW170244   9.597   7.874   6.575
56740SOL    HW270245   9.726   7.962   6.528
56741SOL     OW70246  10.448   7.828   7.264
56741SOL    HW170247  10.403   7.891   7.328
56741SOL    HW270248  10.541   7.859   7.247
56742SOL     OW70249  10.470   7.655   7.063
56742SOL    HW170250  10.470   7.719   7.140
56742SOL    HW270251  10.498   7.703   6.980
56743SOL     OW70252   9.318   8.774   5.786
56743SOL    HW170253   9.225   8.795   5.755
56743SOL    HW270254   9.328   8.675   5.799
56744SOL     OW70255   9.398   9.249   6.513
56744SOL    HW170256   9.356   9.163   6.486
56744SOL    HW270257   9.492   9.252   6.479
56745SOL     OW70258   9.814   9.016   6.496
56745SOL    HW170259   9.880   9.090   6.505
56745SOL    HW270260   9.858   8.937   6.454
56746SOL     OW70261  10.312   8.244   6.824
56746SOL    HW170262  10.353   8.212   6.910
56746SOL    HW270263  10.216   8.217   6.821
56747SOL     OW70264   9.350   7.992   6.700
56747SOL    HW170265   9.435   7.959   6.659
56747SOL    HW270266   9.363   8.007   6.798
56748SOL     OW70267   9.499   7.968   7.308
56748SOL    HW170268   9.558   7.928   7.238
56748SOL    HW270269   9.441   8.039   7.267
56749SOL     OW70270  10.679   8.398   7.246
56749SOL    HW170271  10.718   8.487   7.266
56749SOL    HW270272  10.689   8.378   7.149
56750SOL     OW70273  10.125   8.020   5.911
56750SOL    HW170274  10.132   7.931   5.865
56750SOL    HW270275  10.031   8.054   5.903
56751SOL     OW70276  10.967   8.052   6.792
56751SOL    HW170277  10.929   7.983   6.854
56751SOL    HW270278  11.049   8.016   6.748
56752SOL     OW70279   9.562   9.012   7.330
56752SOL    HW170280   9.532   9.069   7.406
56752SOL    HW270281   9.555   8.915   7.356
56753SOL     OW70282   9.981   7.912   6.855
56753SOL    HW170283   9.947   7.823   6.825
56753SOL    HW270284  10.007   7.966   6.775
56754SOL     OW70285  10.240   9.126   7.051
56754SOL    HW170286  10.216   9.108   6.956
56754SOL    HW270287  10.270   9.220   7.061
56755SOL     OW70288   9.783   7.948   5.777
56755SOL    HW170289   9.844   8.028   5.781
56755SOL    HW270290   9.688   7.979   5.784
56756SOL     OW70291   9.469   8.585   7.052
56756SOL    HW170292   9.491   8.524   7.128
56756SOL    HW270293   9.479   8.536   6.966
56757SOL     OW70294  10.657   8.507   6.820
56757SOL    HW170295  10.681   8.444   6.746
56757SOL    HW270296  10.567   8.547   6.802
56758SOL     OW70297  10.612   8.303   5.895
56758SOL    HW170298  10.526   8.272   5.937
56758SOL    HW270299  10.608   8.289   5.796
56759SOL     OW70300  11.069   9.195   6.740
56759SOL    HW170301  11.130   9.225   6.667
56759SOL    HW270302  11.031   9.106   6.718
56760SOL     OW70303  10.562   9.179   6.714
56760SOL    HW170304  10.646   9.184   6.660
56760SOL    HW270305  10.539   9.083   6.732
56761SOL     OW70306   9.393   8.706   6.608
56761SOL    HW170307   9.388   8.705   6.708
56761SOL    HW270308   9.310   8.665   6.570
56762SOL     OW70309   9.998   9.110   7.302
56762SOL    HW170310   9.942   9.191   7.311
56762SOL    HW270311  10.050   9.114   7.216
56763SOL     OW70312  11.036   7.583   6.109
56763SOL    HW170313  11.109   7.566   6.042
56763SOL    HW270314  11.005   7.496   6.147
56764SOL     OW70315  10.698   9.021   6.063
56764SOL    HW170316  10.765   9.033   5.989
56764SOL    HW270317  10.658   9.110   6.086
56765SOL     OW70318   9.440   9.242   7.437
56765SOL    HW170319   9.399   9.168   7.490
56765SOL    HW270320   9.504   9.293   7.495
56766SOL     OW70321  10.590   8.375   6.258
56766SOL    HW170322  10.650   8.294   6.260
56766SOL    HW270323  10.630   8.444   6.198
56767SOL     OW70324  10.140   8.721   7.008
56767SOL    HW170325  10.135   8.754   7.103
56767SOL    HW270326  10.054   8.740   6.962
56768SOL     OW70327   9.982   9.064   5.740
56768SOL    HW170328   9.991   9.074   5.641
56768SOL    HW270329   9.942   8.975   5.761
56769SOL     OW70330  10.960   9.168   6.980
56769SOL    HW170331  11.013   9.178   6.896
56769SOL    HW270332  10.933   9.258   7.014
56770SOL     OW70333  11.151   7.623   6.549
56770SOL    HW170334  11.190   7.538   6.513
56770SOL    HW270335  11.053   7.625   6.530
56771SOL     OW70336   9.573   7.774   6.306
56771SOL    HW170337   9.494   7.825   6.272
56771SOL    HW270338   9.564   7.759   6.404
56772SOL     OW70339  10.504   9.060   5.617
56772SOL    HW170340  10.510   8.967   5.654
56772SOL    HW270341  10.445   9.060   5.537
56773SOL     OW70342  10.132   8.450   6.958
56773SOL    HW170343  10.172   8.449   6.866
56773SOL    HW270344  10.142   8.542   6.998
56774SOL     OW70345  10.226   8.358   5.877
56774SOL    HW170346  10.289   8.396   5.809
56774SOL    HW270347  10.266   8.275   5.916
56775SOL     OW70348  10.814   9.055   5.630
56775SOL    HW170349  10.722   9.092   5.637
56775SOL    HW270350  10.852   9.075   5.540
56776SOL     OW70351   9.682   8.736   7.076
56776SOL    HW170352   9.669   8.829   7.042
56776SOL    HW270353   9.598   8.684   7.063
56777SOL     OW70354  10.924   8.740   6.875
56777SOL    HW170355  10.984   8.743   6.955
56777SOL    HW270356  10.849   8.804   6.888
56778SOL     OW70357  10.349   8.546   6.282
56778SOL    HW170358  10.279   8.499   6.336
56778SOL    HW270359  10.408   8.478   6.239
56779SOL     OW70360  10.324   7.684   6.557
56779SOL    HW170361  10.316   7.648   6.464
56779SOL    HW270362  10.322   7.608   6.622
56780SOL     OW70363   9.900   8.935   6.077
56780SOL    HW170364   9.942   8.877   6.007
56780SOL    HW270365   9.856   9.014   6.033
56781SOL     OW70366  11.019   7.833   6.967
56781SOL    HW170367  11.092   7.902   6.971
56781SOL    HW270368  11.047   7.758   6.908
56782SOL     OW70369   9.565   8.796   5.876
56782SOL    HW170370   9.469   8.797   5.849
56782SOL    HW270371   9.577   8.849   5.960
56783SOL     OW70372   9.415   8.461   7.312
56783SOL    HW170373   9.338   8.428   7.366
56783SOL    HW270374   9.500   8.431   7.354
56784SOL     OW70375   9.982   7.651   7.075
56784SOL    HW170376  10.072   7.635   7.035
56784SOL    HW270377   9.990   7.656   7.174
56785SOL     OW70378   9.385   7.793   5.619
56785SOL    HW170379   9.293   7.765   5.590
56785SOL    HW270380   9.416   7.870   5.563
56786SOL     OW70381  10.750   8.304   6.984
56786SOL    HW170382  10.693   8.356   6.921
56786SOL    HW270383  10.846   8.316   6.960
56787SOL     OW70384   9.382   7.614   5.904
56787SOL    HW170385   9.365   7.697   5.850
56787SOL    HW270386   9.472   7.577   5.882
56788SOL     OW70387  10.493   8.783   5.705
56788SOL    HW170388  10.394   8.772   5.707
56788SOL    HW270389  10.527   8.798   5.798
56789SOL     OW70390   9.923   8.290   7.017
56789SOL    HW170391   9.979   8.371   7.000
56789SOL    HW270392   9.982   8.210   7.020
56790SOL     OW70393  10.803   9.215   6.545
56790SOL    HW170394  10.836   9.279   6.476
56790SOL    HW270395  10.869   9.209   6.620
56791SOL     OW70396  10.026   8.013   7.294
56791SOL    HW170397  10.045   8.078   7.368
56791SOL    HW270398  10.086   7.933   7.303
56792SOL     OW70399  10.760   8.668   7.219
56792SOL    HW170400  10.751   8.658   7.318
56792SOL    HW270401  10.856   8.661   7.193
56793SOL     OW70402   9.700   9.189   7.146
56793SOL    HW170403   9.609   9.230   7.144
56793SOL    HW270404   9.693   9.095   7.178
56794SOL     OW70405  10.984   8.331   6.840
56794SOL    HW170406  10.957   8.242   6.803
56794SOL    HW270407  10.985   8.399   6.767
56795SOL     OW70408  10.535   7.773   6.035
56795SOL    HW170409  10.600   7.699   6.024
56795SOL    HW270410  10.555   7.823   6.119
56796SOL     OW70411   9.904   8.193   6.238
56796SOL    HW170412   9.954   8.278   6.219
56796SOL    HW270413   9.816   8.195   6.190
56797SOL     OW70414  11.087   7.790   7.228
56797SOL    HW170415  11.070   7.821   7.134
56797SOL    HW270416  11.003   7.753   7.266
56798SOL     OW70417  11.040   8.382   7.103
56798SOL    HW170418  11.078   8.473   7.118
56798SOL    HW270419  11.032   8.365   7.004
56799SOL     OW70420  10.169   8.822   5.602
56799SOL    HW170421  10.123   8.837   5.690
56799SOL    HW270422  10.213   8.907   5.572
56800SOL     OW70423   9.971   9.238   6.539
56800SOL    HW170424   9.925   9.326   6.526
56800SOL    HW270425  10.070   9.250   6.532
56801SOL     OW70426  10.169   8.404   6.447
56801SOL    HW170427  10.223   8.335   6.495
56801SOL    HW270428  10.137   8.473   6.513
56802SOL     OW70429  10.393   8.432   5.673
56802SOL    HW170430  10.370   8.485   5.591
56802SOL    HW270431  10.474   8.376   5.654
56803SOL     OW70432  11.171   9.017   6.437
56803SOL    HW170433  11.100   9.005   6.367
56803SOL    HW270434  11.172   8.938   6.497
56804SOL     OW70435   9.531   8.762   7.430
56804SOL    HW170436   9.466   8.689   7.409
56804SOL    HW270437   9.535   8.776   7.528
56805SOL     OW70438   9.389   8.688   6.239
56805SOL    HW170439   9.388   8.641   6.327
56805SOL    HW270440   9.471   8.660   6.188
56806SOL     OW70441   9.982   8.839   7.210
56806SOL    HW170442   9.904   8.789   7.248
56806SOL    HW270443   9.979   8.934   7.241
56807SOL     OW70444  11.134   7.640   6.813
56807SOL    HW170445  11.130   7.550   6.857
56807SOL    HW270446  11.137   7.629   6.714
56808SOL     OW70447   9.738   7.872   6.106
56808SOL    HW170448   9.768   7.800   6.044
56808SOL    HW270449   9.699   7.832   6.189
56809SOL     OW70450  11.015   8.935   6.690
56809SOL    HW170451  10.922   8.910   6.663
56809SOL    HW270452  11.041   8.885   6.772
56810SOL     OW70453   9.627   7.995   6.866
56810SOL    HW170454   9.665   7.936   6.938
56810SOL    HW270455   9.667   7.969   6.778
56811SOL     OW70456  10.122   9.034   6.273
56811SOL    HW170457  10.154   9.044   6.179
56811SOL    HW270458  10.043   8.972   6.275
56812SOL     OW70459  10.734   7.662   6.698
56812SOL    HW170460  10.786   7.597   6.753
56812SOL    HW270461  10.685   7.725   6.759
56813SOL     OW70462  10.311   7.482   6.740
56813SOL    HW170463  10.248   7.410   6.709
56813SOL    HW270464  10.404   7.446   6.740
56814SOL     OW70465  10.080   8.778   5.887
56814SOL    HW170466  10.034   8.691   5.904
56814SOL    HW270467  10.171   8.775   5.928
56815SOL     OW70468   9.928   9.015   6.870
56815SOL    HW170469   9.923   9.097   6.927
56815SOL    HW270470  10.017   9.012   6.825
56816SOL     OW70471  10.662   7.500   5.754
56816SOL    HW170472  10.697   7.459   5.670
56816SOL    HW270473  10.572   7.462   5.774
56817SOL     OW70474  10.610   7.901   6.277
56817SOL    HW170475  10.551   7.981   6.281
56817SOL    HW270476  10.625   7.866   6.370
56818SOL     OW70477  10.903   7.669   6.468
56818SOL    HW170478  10.819   7.668   6.522
56818SOL    HW270479  10.905   7.752   6.412
56819SOL     OW70480   9.349   8.525   5.886
56819SOL    HW170481   9.448   8.514   5.877
56819SOL    HW270482   9.309   8.439   5.918
56820SOL     OW70483  10.185   9.094   5.923
56820SOL    HW170484  10.108   9.059   5.869
56820SOL    HW270485  10.153   9.165   5.985
56821SOL     OW70486   9.540   8.076   7.561
56821SOL    HW170487   9.447   8.074   7.598
56821SOL    HW270488   9.541   8.037   7.469
56822SOL     OW70489   9.535   7.723   8.444
56822SOL    HW170490   9.570   7.706   8.536
56822SOL    HW270491   9.447   7.678   8.432
56823SOL     OW70492   9.329   7.816   8.095
56823SOL    HW170493   9.247   7.859   8.134
56823SOL    HW270494   9.301   7.743   8.032
56824SOL     OW70495   9.879   8.723   8.613
56824SOL    HW170496   9.786   8.716   8.576
56824SOL    HW270497   9.890   8.812   8.657
56825SOL     OW70498  10.865   8.959   8.151
56825SOL    HW170499  10.808   8.943   8.232
56825SOL    HW270500  10.806   8.969   8.071
56826SOL     OW70501  10.445   8.151   8.165
56826SOL    HW170502  10.502   8.229   8.140
56826SOL    HW270503  10.385   8.177   8.241
56827SOL     OW70504  11.065   8.055   7.679
56827SOL    HW170505  11.053   8.042   7.580
56827SOL    HW270506  11.035   7.974   7.728
56828SOL     OW70507  10.078   8.592   8.471
56828SOL    HW170508  10.000   8.609   8.531
56828SOL    HW270509  10.112   8.679   8.435
56829SOL     OW70510  10.160   8.246   9.271
56829SOL    HW170511  10.156   8.322   9.336
56829SOL    HW270512  10.182   8.282   9.180
56830SOL     OW70513   9.995   8.460   8.113
56830SOL    HW170514  10.064   8.444   8.183
56830SOL    HW270515   9.922   8.517   8.151
56831SOL     OW70516   9.996   8.609   9.251
56831SOL    HW170517  10.056   8.688   9.265
56831SOL    HW270518   9.910   8.640   9.210
56832SOL     OW70519   9.645   8.883   8.509
56832SOL    HW170520   9.567   8.852   8.456
56832SOL    HW270521   9.703   8.941   8.452
56833SOL     OW70522  10.770   8.953   8.787
56833SOL    HW170523  10.794   9.047   8.813
56833SOL    HW270524  10.754   8.899   8.869
56834SOL     OW70525   9.748   7.840   8.947
56834SOL    HW170526   9.830   7.784   8.956
56834SOL    HW270527   9.667   7.782   8.951
56835SOL     OW70528  10.913   7.895   8.185
56835SOL    HW170529  10.839   7.941   8.135
56835SOL    HW270530  10.964   7.963   8.238
56836SOL     OW70531   9.541   9.161   7.931
56836SOL    HW170532   9.575   9.238   7.985
56836SOL    HW270533   9.585   9.161   7.841
56837SOL     OW70534  10.437   8.789   9.138
56837SOL    HW170535  10.484   8.789   9.226
56837SOL    HW270536  10.389   8.702   9.127
56838SOL     OW70537   9.540   8.882   7.986
56838SOL    HW170538   9.514   8.978   7.986
56838SOL    HW270539   9.469   8.828   8.031
56839SOL     OW70540   9.550   8.539   8.334
56839SOL    HW170541   9.564   8.455   8.386
56839SOL    HW270542   9.495   8.603   8.389
56840SOL     OW70543   9.930   9.234   8.887
56840SOL    HW170544   9.838   9.217   8.922
56840SOL    HW270545   9.958   9.326   8.913
56841SOL     OW70546   9.916   8.412   7.571
56841SOL    HW170547   9.923   8.496   7.517
56841SOL    HW270548   9.962   8.425   7.659
56842SOL     OW70549  10.904   7.562   8.928
56842SOL    HW170550  10.886   7.629   8.856
56842SOL    HW270551  10.901   7.608   9.017
56843SOL     OW70552   9.432   8.091   8.011
56843SOL    HW170553   9.387   8.003   8.028
56843SOL    HW270554   9.431   8.145   8.095
56844SOL     OW70555  11.152   9.215   7.807
56844SOL    HW170556  11.206   9.186   7.887
56844SOL    HW270557  11.182   9.305   7.778
56845SOL     OW70558   9.337   9.044   7.565
56845SOL    HW170559   9.318   8.948   7.586
56845SOL    HW270560   9.304   9.102   7.640
56846SOL     OW70561  10.999   8.370   8.060
56846SOL    HW170562  11.094   8.341   8.068
56846SOL    HW270563  10.991   8.435   7.985
56847SOL     OW70564  10.951   8.556   7.880
56847SOL    HW170565  11.037   8.558   7.828
56847SOL    HW270566  10.965   8.603   7.968
56848SOL     OW70567   9.423   8.185   9.045
56848SOL    HW170568   9.511   8.172   9.090
56848SOL    HW270569   9.410   8.282   9.023
56849SOL     OW70570   9.923   8.813   8.174
56849SOL    HW170571   9.874   8.726   8.183
56849SOL    HW270572   9.900   8.856   8.087
56850SOL     OW70573  10.603   8.676   8.871
56850SOL    HW170574  10.640   8.603   8.813
56850SOL    HW270575  10.655   8.681   8.956
56851SOL     OW70576  10.119   7.452   7.950
56851SOL    HW170577  10.159   7.543   7.941
56851SOL    HW270578  10.019   7.460   7.956
56852SOL     OW70579   9.507   8.424   8.712
56852SOL    HW170580   9.596   8.379   8.698
56852SOL    HW270581   9.434   8.359   8.693
56853SOL     OW70582  10.835   8.447   7.638
56853SOL    HW170583  10.772   8.371   7.651
56853SOL    HW270584  10.883   8.465   7.724
56854SOL     OW70585  10.497   9.240   9.064
56854SOL    HW170586  10.521   9.300   8.988
56854SOL    HW270587  10.504   9.145   9.034
56855SOL     OW70588   9.627   7.699   9.249
56855SOL    HW170589   9.698   7.770   9.255
56855SOL    HW270590   9.539   7.738   9.277
56856SOL     OW70591  10.776   8.865   8.401
56856SOL    HW170592  10.717   8.871   8.481
56856SOL    HW270593  10.761   8.777   8.355
56857SOL     OW70594  10.977   9.162   8.020
56857SOL    HW170595  10.936   9.139   7.932
56857SOL    HW270596  10.959   9.088   8.085
56858SOL     OW70597   9.908   8.177   7.718
56858SOL    HW170598   9.932   8.246   7.650
56858SOL    HW270599   9.830   8.210   7.772
56859SOL     OW70600  10.591   7.793   8.392
56859SOL    HW170601  10.505   7.743   8.379
56859SOL    HW270602  10.653   7.739   8.448
56860SOL     OW70603  10.886   9.110   7.755
56860SOL    HW170604  10.975   9.156   7.758
56860SOL    HW270605  10.865   9.086   7.660
56861SOL     OW70606  10.117   8.053   8.913
56861SOL    HW170607  10.070   8.050   9.002
56861SOL    HW270608  10.066   7.998   8.847
56862SOL     OW70609  10.704   7.917   9.122
56862SOL    HW170610  10.684   7.960   9.210
56862SOL    HW270611  10.782   7.855   9.131
56863SOL     OW70612  10.283   8.338   9.020
56863SOL    HW170613  10.329   8.254   8.991
56863SOL    HW270614  10.227   8.372   8.945
56864SOL     OW70615  10.301   7.858   8.690
56864SOL    HW170616  10.224   7.892   8.744
56864SOL    HW270617  10.267   7.807   8.611
56865SOL     OW70618  10.351   8.149   7.877
56865SOL    HW170619  10.377   8.145   7.973
56865SOL    HW270620  10.266   8.098   7.863
56866SOL     OW70621   9.386   8.259   8.237
56866SOL    HW170622   9.485   8.247   8.246
56866SOL    HW270623   9.362   8.354   8.258
56867SOL     OW70624   9.440   9.269   9.019
56867SOL    HW170625   9.430   9.254   9.118
56867SOL    HW270626   9.354   9.305   8.983
56868SOL     OW70627  10.175   7.796   7.643
56868SOL    HW170628  10.234   7.859   7.594
56868SOL    HW270629  10.194   7.702   7.614
56869SOL     OW70630  11.029   8.033   9.279
56869SOL    HW170631  11.003   8.122   9.243
56869SOL    HW270632  11.027   7.965   9.206
56870SOL     OW70633  10.672   8.592   7.993
56870SOL    HW170634  10.755   8.563   7.945
56870SOL    HW270635  10.623   8.659   7.937
56871SOL     OW70636   9.860   7.644   8.333
56871SOL    HW170637   9.855   7.639   8.433
56871SOL    HW270638   9.862   7.740   8.304
56872SOL     OW70639  10.318   8.904   7.925
56872SOL    HW170640  10.272   8.976   7.873
56872SOL    HW270641  10.314   8.924   8.023
56873SOL     OW70642   9.661   9.249   8.301
56873SOL    HW170643   9.711   9.163   8.307
56873SOL    HW270644   9.726   9.326   8.298
56874SOL     OW70645  11.105   8.514   8.321
56874SOL    HW170646  11.043   8.499   8.245
56874SOL    HW270647  11.053   8.525   8.406
56875SOL     OW70648  10.537   8.998   8.954
56875SOL    HW170649  10.543   8.921   9.018
56875SOL    HW270650  10.485   8.972   8.874
56876SOL     OW70651   9.631   8.391   7.690
56876SOL    HW170652   9.713   8.430   7.648
56876SOL    HW270653   9.604   8.309   7.641
56877SOL     OW70654  10.768   8.183   8.176
56877SOL    HW170655  10.763   8.118   8.251
56877SOL    HW270656  10.848   8.242   8.189
56878SOL     OW70657   9.771   8.714   9.175
56878SOL    HW170658   9.721   8.715   9.089
56878SOL    HW270659   9.708   8.696   9.251
56879SOL     OW70660  10.421   9.224   7.685
56879SOL    HW170661  10.361   9.162   7.735
56879SOL    HW270662  10.452   9.180   7.600
56880SOL     OW70663   9.512   7.733   8.946
56880SOL    HW170664   9.432   7.793   8.933
56880SOL    HW270665   9.502   7.684   9.032
56881SOL     OW70666  10.942   8.825   7.529
56881SOL    HW170667  10.910   8.919   7.519
56881SOL    HW270668  10.866   8.762   7.517
56882SOL     OW70669   9.774   9.191   7.771
56882SOL    HW170670   9.807   9.230   7.857
56882SOL    HW270671   9.850   9.184   7.706
56883SOL     OW70672  10.710   7.555   7.874
56883SOL    HW170673  10.686   7.518   7.784
56883SOL    HW270674  10.809   7.571   7.878
56884SOL     OW70675   9.559   9.233   8.689
56884SOL    HW170676   9.616   9.168   8.739
56884SOL    HW270677   9.543   9.200   8.596
56885SOL     OW70678  10.250   9.146   8.352
56885SOL    HW170679  10.330   9.089   8.373
56885SOL    HW270680  10.201   9.106   8.275
56886SOL     OW70681   9.692   8.148   7.928
56886SOL    HW170682   9.737   8.058   7.925
56886SOL    HW270683   9.598   8.137   7.961
56887SOL     OW70684  10.857   7.670   9.177
56887SOL    HW170685  10.852   7.707   9.269
56887SOL    HW270686  10.785   7.601   9.165
56888SOL     OW70687   9.924   7.570   7.565
56888SOL    HW170688  10.022   7.548   7.572
56888SOL    HW270689   9.893   7.553   7.472
56889SOL     OW70690  10.091   7.712   9.197
56889SOL    HW170691  10.158   7.651   9.240
56889SOL    HW270692  10.018   7.731   9.262
56890SOL     OW70693  10.198   8.962   8.643
56890SOL    HW170694  10.175   8.937   8.549
56890SOL    HW270695  10.259   8.893   8.682
56891SOL     OW70696  10.661   8.038   8.881
56891SOL    HW170697  10.689   7.995   8.966
56891SOL    HW270698  10.686   8.134   8.882
56892SOL     OW70699  10.113   8.850   8.372
56892SOL    HW170700  10.203   8.864   8.330
56892SOL    HW270701  10.042   8.852   8.301
56893SOL     OW70702  10.232   7.951   8.347
56893SOL    HW170703  10.207   7.942   8.251
56893SOL    HW270704  10.280   7.869   8.378
56894SOL     OW70705   9.849   7.512   7.960
56894SOL    HW170706   9.768   7.513   8.018
56894SOL    HW270707   9.852   7.595   7.905
56895SOL     OW70708  10.744   8.636   7.489
56895SOL    HW170709  10.776   8.560   7.546
56895SOL    HW270710  10.652   8.663   7.519
56896SOL     OW70711   9.607   7.483   7.619
56896SOL    HW170712   9.656   7.567   7.598
56896SOL    HW270713   9.669   7.418   7.664
56897SOL     OW70714  10.245   7.684   7.928
56897SOL    HW170715  10.197   7.725   7.850
56897SOL    HW270716  10.344   7.682   7.909
56898SOL     OW70717  10.386   8.131   8.912
56898SOL    HW170718  10.306   8.070   8.915
56898SOL    HW270719  10.467   8.078   8.888
56899SOL     OW70720  10.537   9.018   8.241
56899SOL    HW170721  10.558   9.092   8.176
56899SOL    HW270722  10.605   9.018   8.314
56900SOL     OW70723   9.769   8.600   8.189
56900SOL    HW170724   9.698   8.573   8.254
56900SOL    HW270725   9.743   8.572   8.096
56901SOL     OW70726  10.581   9.245   8.039
56901SOL    HW170727  10.625   9.309   7.975
56901SOL    HW270728  10.531   9.297   8.109
56902SOL     OW70729  10.342   7.997   7.464
56902SOL    HW170730  10.301   8.079   7.425
56902SOL    HW270731  10.406   8.023   7.537
56903SOL     OW70732   9.388   8.004   8.834
56903SOL    HW170733   9.480   8.003   8.793
56903SOL    HW270734   9.382   8.078   8.901
56904SOL     OW70735   9.871   7.670   8.595
56904SOL    HW170736   9.909   7.586   8.632
56904SOL    HW270737   9.783   7.689   8.639
56905SOL     OW70738  10.176   7.902   8.090
56905SOL    HW170739  10.144   7.974   8.028
56905SOL    HW270740  10.200   7.821   8.037
56906SOL     OW70741  10.327   7.487   8.201
56906SOL    HW170742  10.255   7.492   8.132
56906SOL    HW270743  10.303   7.418   8.270
56907SOL     OW70744  10.739   8.621   8.315
56907SOL    HW170745  10.684   8.537   8.308
56907SOL    HW270746  10.765   8.650   8.223
56908SOL     OW70747  10.776   8.038   8.440
56908SOL    HW170748  10.746   7.943   8.447
56908SOL    HW270749  10.849   8.054   8.506
56909SOL     OW70750  11.167   8.281   7.825
56909SOL    HW170751  11.209   8.217   7.889
56909SOL    HW270752  11.129   8.230   7.747
56910SOL     OW70753   9.798   8.833   7.622
56910SOL    HW170754   9.711   8.818   7.669
56910SOL    HW270755   9.781   8.859   7.527
56911SOL     OW70756  10.974   8.728   8.105
56911SOL    HW170757  11.073   8.736   8.119
56911SOL    HW270758  10.929   8.812   8.136
56912SOL     OW70759  10.700   8.023   7.526
56912SOL    HW170760  10.646   8.002   7.607
56912SOL    HW270761  10.791   7.982   7.535
56913SOL     OW70762   9.837   7.704   7.776
56913SOL    HW170763   9.864   7.645   7.701
56913SOL    HW270764   9.837   7.799   7.745
56914SOL     OW70765  11.064   8.671   9.036
56914SOL    HW170766  11.155   8.632   9.023
56914SOL    HW270767  11.072   8.767   9.060
56915SOL     OW70768  10.374   8.795   8.788
56915SOL    HW170769  10.294   8.772   8.843
56915SOL    HW270770  10.457   8.769   8.837
56916SOL     OW70771  10.902   9.077   9.073
56916SOL    HW170772  10.929   9.111   8.983
56916SOL    HW270773  10.981   9.039   9.119
56917SOL     OW70774  10.421   8.643   8.548
56917SOL    HW170775  10.381   8.687   8.629
56917SOL    HW270776  10.380   8.680   8.465
56918SOL     OW70777  10.948   8.547   8.527
56918SOL    HW170778  10.953   8.628   8.586
56918SOL    HW270779  10.862   8.549   8.476
56919SOL     OW70780  10.225   7.537   8.850
56919SOL    HW170781  10.250   7.517   8.755
56919SOL    HW270782  10.297   7.593   8.892
56920SOL     OW70783  10.290   8.564   9.167
56920SOL    HW170784  10.191   8.570   9.177
56920SOL    HW270785  10.313   8.484   9.111
56921SOL     OW70786  10.015   8.498   7.816
56921SOL    HW170787  10.001   8.505   7.915
56921SOL    HW270788  10.099   8.447   7.798
56922SOL     OW70789   9.720   8.261   8.699
56922SOL    HW170790   9.806   8.273   8.749
56922SOL    HW270791   9.678   8.174   8.726
56923SOL     OW70792  10.584   7.834   8.710
56923SOL    HW170793  10.605   7.908   8.774
56923SOL    HW270794  10.495   7.851   8.667
56924SOL     OW70795   9.374   9.012   8.779
56924SOL    HW170796   9.328   9.094   8.745
56924SOL    HW270797   9.472   9.031   8.788
56925SOL     OW70798   9.677   8.548   7.949
56925SOL    HW170799   9.670   8.631   7.893
56925SOL    HW270800   9.681   8.468   7.889
56926SOL     OW70801   9.876   7.985   8.313
56926SOL    HW170802   9.888   8.051   8.239
56926SOL    HW270803   9.922   8.019   8.396
56927SOL     OW70804  10.562   8.796   7.836
56927SOL    HW170805  10.612   8.873   7.876
56927SOL    HW270806  10.467   8.798   7.868
56928SOL     OW70807  10.582   8.893   8.590
56928SOL    HW170808  10.629   8.906   8.677
56928SOL    HW270809  10.516   8.819   8.599
56929SOL     OW70810  10.892   8.087   7.920
56929SOL    HW170811  10.861   8.148   7.993
56929SOL    HW270812  10.942   8.139   7.851
56930SOL     OW70813   9.664   8.958   8.777
56930SOL    HW170814   9.643   8.914   8.690
56930SOL    HW270815   9.761   8.984   8.780
56931SOL     OW70816   9.712   8.199   9.046
56931SOL    HW170817   9.780   8.254   8.999
56931SOL    HW270818   9.752   8.111   9.073
56932SOL     OW70819  10.897   8.227   9.118
56932SOL    HW170820  10.805   8.265   9.113
56932SOL    HW270821  10.957   8.274   9.053
56933SOL     OW70822  10.323   7.553   9.218
56933SOL    HW170823  10.329   7.638   9.166
56933SOL    HW270824  10.355   7.477   9.161
56934SOL     OW70825   9.814   7.498   9.188
56934SOL    HW170826   9.772   7.441   9.118
56934SOL    HW270827   9.748   7.567   9.220
56935SOL     OW70828   9.883   8.318   8.477
56935SOL    HW170829   9.927   8.407   8.468
56935SOL    HW270830   9.820   8.318   8.554
56936SOL     OW70831  10.670   8.310   8.493
56936SOL    HW170832  10.595   8.310   8.427
56936SOL    HW270833  10.707   8.218   8.502
56937SOL     OW70834  10.519   7.973   7.723
56937SOL    HW170835  10.532   7.889   7.777
56937SOL    HW270836  10.490   8.047   7.783
56938SOL     OW70837   9.617   7.661   8.679
56938SOL    HW170838   9.594   7.698   8.769
56938SOL    HW270839   9.587   7.566   8.673
56939SOL     OW70840   9.347   8.758   8.730
56939SOL    HW170841   9.400   8.709   8.798
56939SOL    HW270842   9.369   8.856   8.735
56940SOL     OW70843  10.042   8.082   8.512
56940SOL    HW170844  10.101   8.056   8.436
56940SOL    HW270845  10.014   8.178   8.501
56941SOL     OW70846  11.038   8.383   9.302
56941SOL    HW170847  10.992   8.376   9.213
56941SOL    HW270848  10.976   8.427   9.368
56942SOL     OW70849   9.617   7.511   8.066
56942SOL    HW170850   9.606   7.605   8.099
56942SOL    HW270851   9.612   7.448   8.143
56943SOL     OW70852  10.932   7.815   7.822
56943SOL    HW170853  10.934   7.739   7.886
56943SOL    HW270854  10.884   7.892   7.862
56944SOL     OW70855  10.333   8.214   8.414
56944SOL    HW170856  10.348   8.235   8.510
56944SOL    HW270857  10.303   8.119   8.405
56945SOL     OW70858  10.290   9.021   9.148
56945SOL    HW170859  10.270   9.065   9.060
56945SOL    HW270860  10.329   8.930   9.132
56946SOL     OW70861  11.169   8.966   9.053
56946SOL    HW170862  11.183   8.993   8.958
56946SOL    HW270863  11.252   8.988   9.106
56947SOL     OW70864   9.660   8.346   9.252
56947SOL    HW170865   9.736   8.390   9.300
56947SOL    HW270866   9.695   8.299   9.170
56948SOL     OW70867  10.850   7.722   7.573
56948SOL    HW170868  10.789   7.647   7.596
56948SOL    HW270869  10.872   7.774   7.656
56949SOL     OW70870  10.613   8.286   7.490
56949SOL    HW170871  10.647   8.193   7.505
56949SOL    HW270872  10.631   8.313   7.395
56950SOL     OW70873  10.378   8.781   8.297
56950SOL    HW170874  10.385   8.697   8.242
56950SOL    HW270875  10.440   8.850   8.261
56951SOL     OW70876   9.629   8.258   8.397
56951SOL    HW170877   9.722   8.294   8.402
56951SOL    HW270878   9.623   8.173   8.449
56952SOL     OW70879   9.649   7.957   8.454
56952SOL    HW170880   9.597   7.874   8.437
56952SOL    HW270881   9.726   7.962   8.390
56953SOL     OW70882  10.448   7.828   9.126
56953SOL    HW170883  10.403   7.891   9.190
56953SOL    HW270884  10.541   7.859   9.109
56954SOL     OW70885  10.470   7.655   8.925
56954SOL    HW170886  10.470   7.719   9.002
56954SOL    HW270887  10.498   7.703   8.842
56955SOL     OW70888   9.318   8.774   7.648
56955SOL    HW170889   9.225   8.795   7.617
56955SOL    HW270890   9.328   8.675   7.661
56956SOL     OW70891   9.398   9.249   8.375
56956SOL    HW170892   9.356   9.163   8.348
56956SOL    HW270893   9.492   9.252   8.341
56957SOL     OW70894   9.814   9.016   8.358
56957SOL    HW170895   9.880   9.090   8.367
56957SOL    HW270896   9.858   8.937   8.316
56958SOL     OW70897  10.312   8.244   8.686
56958SOL    HW170898  10.353   8.212   8.772
56958SOL    HW270899  10.216   8.217   8.683
56959SOL     OW70900   9.350   7.992   8.562
56959SOL    HW170901   9.435   7.959   8.521
56959SOL    HW270902   9.363   8.007   8.660
56960SOL     OW70903   9.499   7.968   9.170
56960SOL    HW170904   9.558   7.928   9.100
56960SOL    HW270905   9.441   8.039   9.129
56961SOL     OW70906  10.679   8.398   9.108
56961SOL    HW170907  10.718   8.487   9.128
56961SOL    HW270908  10.689   8.378   9.011
56962SOL     OW70909  10.125   8.020   7.773
56962SOL    HW170910  10.132   7.931   7.727
56962SOL    HW270911  10.031   8.054   7.765
56963SOL     OW70912  10.967   8.052   8.654
56963SOL    HW170913  10.929   7.983   8.716
56963SOL    HW270914  11.049   8.016   8.610
56964SOL     OW70915   9.562   9.012   9.192
56964SOL    HW170916   9.532   9.069   9.268
56964SOL    HW270917   9.555   8.915   9.218
56965SOL     OW70918   9.981   7.912   8.717
56965SOL    HW170919   9.947   7.823   8.687
56965SOL    HW270920  10.007   7.966   8.637
56966SOL     OW70921  10.240   9.126   8.913
56966SOL    HW170922  10.216   9.108   8.818
56966SOL    HW270923  10.270   9.220   8.923
56967SOL     OW70924   9.783   7.948   7.639
56967SOL    HW170925   9.844   8.028   7.643
56967SOL    HW270926   9.688   7.979   7.646
56968SOL     OW70927   9.469   8.585   8.914
56968SOL    HW170928   9.491   8.524   8.990
56968SOL    HW270929   9.479   8.536   8.828
56969SOL     OW70930  10.657   8.507   8.682
56969SOL    HW170931  10.681   8.444   8.608
56969SOL    HW270932  10.567   8.547   8.664
56970SOL     OW70933  10.612   8.303   7.757
56970SOL    HW170934  10.526   8.272   7.799
56970SOL    HW270935  10.608   8.289   7.658
56971SOL     OW70936  11.069   9.195   8.602
56971SOL    HW170937  11.130   9.225   8.529
56971SOL    HW270938  11.031   9.106   8.580
56972SOL     OW70939  10.562   9.179   8.576
56972SOL    HW170940  10.646   9.184   8.522
56972SOL    HW270941  10.539   9.083   8.594
56973SOL     OW70942   9.393   8.706   8.470
56973SOL    HW170943   9.388   8.705   8.570
56973SOL    HW270944   9.310   8.665   8.432
56974SOL     OW70945   9.998   9.110   9.164
56974SOL    HW170946   9.942   9.191   9.173
56974SOL    HW270947  10.050   9.114   9.078
56975SOL     OW70948  11.036   7.583   7.971
56975SOL    HW170949  11.109   7.566   7.904
56975SOL    HW270950  11.005   7.496   8.009
56976SOL     OW70951  10.698   9.021   7.925
56976SOL    HW170952  10.765   9.033   7.851
56976SOL    HW270953  10.658   9.110   7.948
56977SOL     OW70954   9.440   9.242   9.299
56977SOL    HW170955   9.399   9.168   9.352
56977SOL    HW270956   9.504   9.293   9.357
56978SOL     OW70957  10.590   8.375   8.120
56978SOL    HW170958  10.650   8.294   8.122
56978SOL    HW270959  10.630   8.444   8.060
56979SOL     OW70960  10.140   8.721   8.870
56979SOL    HW170961  10.135   8.754   8.965
56979SOL    HW270962  10.054   8.740   8.824
56980SOL     OW70963   9.982   9.064   7.602
56980SOL    HW170964   9.991   9.074   7.503
56980SOL    HW270965   9.942   8.975   7.623
56981SOL     OW70966  10.960   9.168   8.842
56981SOL    HW170967  11.013   9.178   8.758
56981SOL    HW270968  10.933   9.258   8.876
56982SOL     OW70969  11.151   7.623   8.411
56982SOL    HW170970  11.190   7.538   8.375
56982SOL    HW270971  11.053   7.625   8.392
56983SOL     OW70972   9.573   7.774   8.168
56983SOL    HW170973   9.494   7.825   8.134
56983SOL    HW270974   9.564   7.759   8.266
56984SOL     OW70975  10.504   9.060   7.479
56984SOL    HW170976  10.510   8.967   7.516
56984SOL    HW270977  10.445   9.060   7.399
56985SOL     OW70978  10.132   8.450   8.820
56985SOL    HW170979  10.172   8.449   8.728
56985SOL    HW270980  10.142   8.542   8.860
56986SOL     OW70981  10.226   8.358   7.739
56986SOL    HW170982  10.289   8.396   7.671
56986SOL    HW270983  10.266   8.275   7.778
56987SOL     OW70984  10.814   9.055   7.492
56987SOL    HW170985  10.722   9.092   7.499
56987SOL    HW270986  10.852   9.075   7.402
56988SOL     OW70987   9.682   8.736   8.938
56988SOL    HW170988   9.669   8.829   8.904
56988SOL    HW270989   9.598   8.684   8.925
56989SOL     OW70990  10.924   8.740   8.737
56989SOL    HW170991  10.984   8.743   8.817
56989SOL    HW270992  10.849   8.804   8.750
56990SOL     OW70993  10.349   8.546   8.144
56990SOL    HW170994  10.279   8.499   8.198
56990SOL    HW270995  10.408   8.478   8.101
56991SOL     OW70996  10.324   7.684   8.419
56991SOL    HW170997  10.316   7.648   8.326
56991SOL    HW270998  10.322   7.608   8.484
56992SOL     OW70999   9.900   8.935   7.939
56992SOL    HW171000   9.942   8.877   7.869
56992SOL    HW271001   9.856   9.014   7.895
56993SOL     OW71002  11.019   7.833   8.829
56993SOL    HW171003  11.092   7.902   8.833
56993SOL    HW271004  11.047   7.758   8.770
56994SOL     OW71005   9.565   8.796   7.738
56994SOL    HW171006   9.469   8.797   7.711
56994SOL    HW271007   9.577   8.849   7.822
56995SOL     OW71008   9.415   8.461   9.174
56995SOL    HW171009   9.338   8.428   9.228
56995SOL    HW271010   9.500   8.431   9.216
56996SOL     OW71011   9.982   7.651   8.937
56996SOL    HW171012  10.072   7.635   8.897
56996SOL    HW271013   9.990   7.656   9.036
56997SOL     OW71014   9.385   7.793   7.481
56997SOL    HW171015   9.293   7.765   7.452
56997SOL    HW271016   9.416   7.870   7.425
56998SOL     OW71017  10.750   8.304   8.846
56998SOL    HW171018  10.693   8.356   8.783
56998SOL    HW271019  10.846   8.316   8.822
56999SOL     OW71020   9.382   7.614   7.766
56999SOL    HW171021   9.365   7.697   7.712
56999SOL    HW271022   9.472   7.577   7.744
57000SOL     OW71023  10.493   8.783   7.567
57000SOL    HW171024  10.394   8.772   7.569
57000SOL    HW271025  10.527   8.798   7.660
57001SOL     OW71026   9.923   8.290   8.879
57001SOL    HW171027   9.979   8.371   8.862
57001SOL    HW271028   9.982   8.210   8.882
57002SOL     OW71029  10.803   9.215   8.407
57002SOL    HW171030  10.836   9.279   8.338
57002SOL    HW271031  10.869   9.209   8.482
57003SOL     OW71032  10.026   8.013   9.156
57003SOL    HW171033  10.045   8.078   9.230
57003SOL    HW271034  10.086   7.933   9.165
57004SOL     OW71035  10.760   8.668   9.081
57004SOL    HW171036  10.751   8.658   9.180
57004SOL    HW271037  10.856   8.661   9.055
57005SOL     OW71038   9.700   9.189   9.008
57005SOL    HW171039   9.609   9.230   9.006
57005SOL    HW271040   9.693   9.095   9.040
57006SOL     OW71041  10.984   8.331   8.702
57006SOL    HW171042  10.957   8.242   8.665
57006SOL    HW271043  10.985   8.399   8.629
57007SOL     OW71044  10.535   7.773   7.897
57007SOL    HW171045  10.600   7.699   7.886
57007SOL    HW271046  10.555   7.823   7.981
57008SOL     OW71047   9.904   8.193   8.100
57008SOL    HW171048   9.954   8.278   8.081
57008SOL    HW271049   9.816   8.195   8.052
57009SOL     OW71050  11.087   7.790   9.090
57009SOL    HW171051  11.070   7.821   8.996
57009SOL    HW271052  11.003   7.753   9.128
57010SOL     OW71053  11.040   8.382   8.965
57010SOL    HW171054  11.078   8.473   8.980
57010SOL    HW271055  11.032   8.365   8.866
57011SOL     OW71056  10.169   8.822   7.464
57011SOL    HW171057  10.123   8.837   7.552
57011SOL    HW271058  10.213   8.907   7.434
57012SOL     OW71059   9.971   9.238   8.401
57012SOL    HW171060   9.925   9.326   8.388
57012SOL    HW271061  10.070   9.250   8.394
57013SOL     OW71062  10.169   8.404   8.309
57013SOL    HW171063  10.223   8.335   8.357
57013SOL    HW271064  10.137   8.473   8.375
57014SOL     OW71065  10.393   8.432   7.535
57014SOL    HW171066  10.370   8.485   7.453
57014SOL    HW271067  10.474   8.376   7.516
57015SOL     OW71068  11.171   9.017   8.299
57015SOL    HW171069  11.100   9.005   8.229
57015SOL    HW271070  11.172   8.938   8.359
57016SOL     OW71071   9.531   8.762   9.292
57016SOL    HW171072   9.466   8.689   9.271
57016SOL    HW271073   9.535   8.776   9.390
57017SOL     OW71074   9.389   8.688   8.101
57017SOL    HW171075   9.388   8.641   8.189
57017SOL    HW271076   9.471   8.660   8.050
57018SOL     OW71077   9.982   8.839   9.072
57018SOL    HW171078   9.904   8.789   9.110
57018SOL    HW271079   9.979   8.934   9.103
57019SOL     OW71080  11.134   7.640   8.675
57019SOL    HW171081  11.130   7.550   8.719
57019SOL    HW271082  11.137   7.629   8.576
57020SOL     OW71083   9.738   7.872   7.968
57020SOL    HW171084   9.768   7.800   7.906
57020SOL    HW271085   9.699   7.832   8.051
57021SOL     OW71086  11.015   8.935   8.552
57021SOL    HW171087  10.922   8.910   8.525
57021SOL    HW271088  11.041   8.885   8.634
57022SOL     OW71089   9.627   7.995   8.728
57022SOL    HW171090   9.665   7.936   8.800
57022SOL    HW271091   9.667   7.969   8.640
57023SOL     OW71092  10.122   9.034   8.135
57023SOL    HW171093  10.154   9.044   8.041
57023SOL    HW271094  10.043   8.972   8.137
57024SOL     OW71095  10.734   7.662   8.560
57024SOL    HW171096  10.786   7.597   8.615
57024SOL    HW271097  10.685   7.725   8.621
57025SOL     OW71098  10.311   7.482   8.602
57025SOL    HW171099  10.248   7.410   8.571
57025SOL    HW271100  10.404   7.446   8.602
57026SOL     OW71101  10.080   8.778   7.749
57026SOL    HW171102  10.034   8.691   7.766
57026SOL    HW271103  10.171   8.775   7.790
57027SOL     OW71104   9.928   9.015   8.732
57027SOL    HW171105   9.923   9.097   8.789
57027SOL    HW271106  10.017   9.012   8.687
57028SOL     OW71107  10.662   7.500   7.616
57028SOL    HW171108  10.697   7.459   7.532
57028SOL    HW271109  10.572   7.462   7.636
57029SOL     OW71110  10.610   7.901   8.139
57029SOL    HW171111  10.551   7.981   8.143
57029SOL    HW271112  10.625   7.866   8.232
57030SOL     OW71113  10.903   7.669   8.330
57030SOL    HW171114  10.819   7.668   8.384
57030SOL    HW271115  10.905   7.752   8.274
57031SOL     OW71116   9.349   8.525   7.748
57031SOL    HW171117   9.448   8.514   7.739
57031SOL    HW271118   9.309   8.439   7.780
57032SOL     OW71119  10.185   9.094   7.785
57032SOL    HW171120  10.108   9.059   7.731
57032SOL    HW271121  10.153   9.165   7.847
57033SOL     OW71122   9.540   8.076   9.423
57033SOL    HW171123   9.447   8.074   9.460
57033SOL    HW271124   9.541   8.037   9.331
57034SOL     OW71125   9.535   7.723  10.306
57034SOL    HW171126   9.570   7.706  10.398
57034SOL    HW271127   9.447   7.678  10.294
57035SOL     OW71128   9.329   7.816   9.957
57035SOL    HW171129   9.247   7.859   9.996
57035SOL    HW271130   9.301   7.743   9.894
57036SOL     OW71131   9.879   8.723  10.475
57036SOL    HW171132   9.786   8.716  10.438
57036SOL    HW271133   9.890   8.812  10.519
57037SOL     OW71134  10.865   8.959  10.013
57037SOL    HW171135  10.808   8.943  10.094
57037SOL    HW271136  10.806   8.969   9.933
57038SOL     OW71137  10.445   8.151  10.027
57038SOL    HW171138  10.502   8.229  10.002
57038SOL    HW271139  10.385   8.177  10.103
57039SOL     OW71140  11.065   8.055   9.541
57039SOL    HW171141  11.053   8.042   9.442
57039SOL    HW271142  11.035   7.974   9.590
57040SOL     OW71143  10.078   8.592  10.333
57040SOL    HW171144  10.000   8.609  10.393
57040SOL    HW271145  10.112   8.679  10.297
57041SOL     OW71146  10.160   8.246  11.133
57041SOL    HW171147  10.156   8.322  11.198
57041SOL    HW271148  10.182   8.282  11.042
57042SOL     OW71149   9.995   8.460   9.975
57042SOL    HW171150  10.064   8.444  10.045
57042SOL    HW271151   9.922   8.517  10.013
57043SOL     OW71152   9.996   8.609  11.113
57043SOL    HW171153  10.056   8.688  11.127
57043SOL    HW271154   9.910   8.640  11.072
57044SOL     OW71155   9.645   8.883  10.371
57044SOL    HW171156   9.567   8.852  10.318
57044SOL    HW271157   9.703   8.941  10.314
57045SOL     OW71158  10.770   8.953  10.649
57045SOL    HW171159  10.794   9.047  10.675
57045SOL    HW271160  10.754   8.899  10.731
57046SOL     OW71161   9.748   7.840  10.809
57046SOL    HW171162   9.830   7.784  10.818
57046SOL    HW271163   9.667   7.782  10.813
57047SOL     OW71164  10.913   7.895  10.047
57047SOL    HW171165  10.839   7.941   9.997
57047SOL    HW271166  10.964   7.963  10.100
57048SOL     OW71167   9.541   9.161   9.793
57048SOL    HW171168   9.575   9.238   9.847
57048SOL    HW271169   9.585   9.161   9.703
57049SOL     OW71170  10.437   8.789  11.000
57049SOL    HW171171  10.484   8.789  11.088
57049SOL    HW271172  10.389   8.702  10.989
57050SOL     OW71173   9.540   8.882   9.848
57050SOL    HW171174   9.514   8.978   9.848
57050SOL    HW271175   9.469   8.828   9.893
57051SOL     OW71176   9.550   8.539  10.196
57051SOL    HW171177   9.564   8.455  10.248
57051SOL    HW271178   9.495   8.603  10.251
57052SOL     OW71179   9.930   9.234  10.749
57052SOL    HW171180   9.838   9.217  10.784
57052SOL    HW271181   9.958   9.326  10.775
57053SOL     OW71182   9.916   8.412   9.433
57053SOL    HW171183   9.923   8.496   9.379
57053SOL    HW271184   9.962   8.425   9.521
57054SOL     OW71185  10.904   7.562  10.790
57054SOL    HW171186  10.886   7.629  10.718
57054SOL    HW271187  10.901   7.608  10.879
57055SOL     OW71188   9.432   8.091   9.873
57055SOL    HW171189   9.387   8.003   9.890
57055SOL    HW271190   9.431   8.145   9.957
57056SOL     OW71191  11.152   9.215   9.669
57056SOL    HW171192  11.206   9.186   9.749
57056SOL    HW271193  11.182   9.305   9.640
57057SOL     OW71194   9.337   9.044   9.427
57057SOL    HW171195   9.318   8.948   9.448
57057SOL    HW271196   9.304   9.102   9.502
57058SOL     OW71197  10.999   8.370   9.922
57058SOL    HW171198  11.094   8.341   9.930
57058SOL    HW271199  10.991   8.435   9.847
57059SOL     OW71200  10.951   8.556   9.742
57059SOL    HW171201  11.037   8.558   9.690
57059SOL    HW271202  10.965   8.603   9.830
57060SOL     OW71203   9.423   8.185  10.907
57060SOL    HW171204   9.511   8.172  10.952
57060SOL    HW271205   9.410   8.282  10.885
57061SOL     OW71206   9.923   8.813  10.036
57061SOL    HW171207   9.874   8.726  10.045
57061SOL    HW271208   9.900   8.856   9.949
57062SOL     OW71209  10.603   8.676  10.733
57062SOL    HW171210  10.640   8.603  10.675
57062SOL    HW271211  10.655   8.681  10.818
57063SOL     OW71212  10.119   7.452   9.812
57063SOL    HW171213  10.159   7.543   9.803
57063SOL    HW271214  10.019   7.460   9.818
57064SOL     OW71215   9.507   8.424  10.574
57064SOL    HW171216   9.596   8.379  10.560
57064SOL    HW271217   9.434   8.359  10.555
57065SOL     OW71218  10.835   8.447   9.500
57065SOL    HW171219  10.772   8.371   9.513
57065SOL    HW271220  10.883   8.465   9.586
57066SOL     OW71221  10.497   9.240  10.926
57066SOL    HW171222  10.521   9.300  10.850
57066SOL    HW271223  10.504   9.145  10.896
57067SOL     OW71224   9.627   7.699  11.111
57067SOL    HW171225   9.698   7.770  11.117
57067SOL    HW271226   9.539   7.738  11.139
57068SOL     OW71227  10.776   8.865  10.263
57068SOL    HW171228  10.717   8.871  10.343
57068SOL    HW271229  10.761   8.777  10.217
57069SOL     OW71230  10.977   9.162   9.882
57069SOL    HW171231  10.936   9.139   9.794
57069SOL    HW271232  10.959   9.088   9.947
57070SOL     OW71233   9.908   8.177   9.580
57070SOL    HW171234   9.932   8.246   9.512
57070SOL    HW271235   9.830   8.210   9.634
57071SOL     OW71236  10.591   7.793  10.254
57071SOL    HW171237  10.505   7.743  10.241
57071SOL    HW271238  10.653   7.739  10.310
57072SOL     OW71239  10.886   9.110   9.617
57072SOL    HW171240  10.975   9.156   9.620
57072SOL    HW271241  10.865   9.086   9.522
57073SOL     OW71242  10.117   8.053  10.775
57073SOL    HW171243  10.070   8.050  10.864
57073SOL    HW271244  10.066   7.998  10.709
57074SOL     OW71245  10.704   7.917  10.984
57074SOL    HW171246  10.684   7.960  11.072
57074SOL    HW271247  10.782   7.855  10.993
57075SOL     OW71248  10.283   8.338  10.882
57075SOL    HW171249  10.329   8.254  10.853
57075SOL    HW271250  10.227   8.372  10.807
57076SOL     OW71251  10.301   7.858  10.552
57076SOL    HW171252  10.224   7.892  10.606
57076SOL    HW271253  10.267   7.807  10.473
57077SOL     OW71254  10.351   8.149   9.739
57077SOL    HW171255  10.377   8.145   9.835
57077SOL    HW271256  10.266   8.098   9.725
57078SOL     OW71257   9.386   8.259  10.099
57078SOL    HW171258   9.485   8.247  10.108
57078SOL    HW271259   9.362   8.354  10.120
57079SOL     OW71260   9.440   9.269  10.881
57079SOL    HW171261   9.430   9.254  10.980
57079SOL    HW271262   9.354   9.305  10.845
57080SOL     OW71263  10.175   7.796   9.505
57080SOL    HW171264  10.234   7.859   9.456
57080SOL    HW271265  10.194   7.702   9.476
57081SOL     OW71266  11.029   8.033  11.141
57081SOL    HW171267  11.003   8.122  11.105
57081SOL    HW271268  11.027   7.965  11.068
57082SOL     OW71269  10.672   8.592   9.855
57082SOL    HW171270  10.755   8.563   9.807
57082SOL    HW271271  10.623   8.659   9.799
57083SOL     OW71272   9.860   7.644  10.195
57083SOL    HW171273   9.855   7.639  10.295
57083SOL    HW271274   9.862   7.740  10.166
57084SOL     OW71275  10.318   8.904   9.787
57084SOL    HW171276  10.272   8.976   9.735
57084SOL    HW271277  10.314   8.924   9.885
57085SOL     OW71278   9.661   9.249  10.163
57085SOL    HW171279   9.711   9.163  10.169
57085SOL    HW271280   9.726   9.326  10.160
57086SOL     OW71281  11.105   8.514  10.183
57086SOL    HW171282  11.043   8.499  10.107
57086SOL    HW271283  11.053   8.525  10.268
57087SOL     OW71284  10.537   8.998  10.816
57087SOL    HW171285  10.543   8.921  10.880
57087SOL    HW271286  10.485   8.972  10.736
57088SOL     OW71287   9.631   8.391   9.552
57088SOL    HW171288   9.713   8.430   9.510
57088SOL    HW271289   9.604   8.309   9.503
57089SOL     OW71290  10.768   8.183  10.038
57089SOL    HW171291  10.763   8.118  10.113
57089SOL    HW271292  10.848   8.242  10.051
57090SOL     OW71293   9.771   8.714  11.037
57090SOL    HW171294   9.721   8.715  10.951
57090SOL    HW271295   9.708   8.696  11.113
57091SOL     OW71296  10.421   9.224   9.547
57091SOL    HW171297  10.361   9.162   9.597
57091SOL    HW271298  10.452   9.180   9.462
57092SOL     OW71299   9.512   7.733  10.808
57092SOL    HW171300   9.432   7.793  10.795
57092SOL    HW271301   9.502   7.684  10.894
57093SOL     OW71302  10.942   8.825   9.391
57093SOL    HW171303  10.910   8.919   9.381
57093SOL    HW271304  10.866   8.762   9.379
57094SOL     OW71305   9.774   9.191   9.633
57094SOL    HW171306   9.807   9.230   9.719
57094SOL    HW271307   9.850   9.184   9.568
57095SOL     OW71308  10.710   7.555   9.736
57095SOL    HW171309  10.686   7.518   9.646
57095SOL    HW271310  10.809   7.571   9.740
57096SOL     OW71311   9.559   9.233  10.551
57096SOL    HW171312   9.616   9.168  10.601
57096SOL    HW271313   9.543   9.200  10.458
57097SOL     OW71314  10.250   9.146  10.214
57097SOL    HW171315  10.330   9.089  10.235
57097SOL    HW271316  10.201   9.106  10.137
57098SOL     OW71317   9.692   8.148   9.790
57098SOL    HW171318   9.737   8.058   9.787
57098SOL    HW271319   9.598   8.137   9.823
57099SOL     OW71320  10.857   7.670  11.039
57099SOL    HW171321  10.852   7.707  11.131
57099SOL    HW271322  10.785   7.601  11.027
57100SOL     OW71323   9.924   7.570   9.427
57100SOL    HW171324  10.022   7.548   9.434
57100SOL    HW271325   9.893   7.553   9.334
57101SOL     OW71326  10.091   7.712  11.059
57101SOL    HW171327  10.158   7.651  11.102
57101SOL    HW271328  10.018   7.731  11.124
57102SOL     OW71329  10.198   8.962  10.505
57102SOL    HW171330  10.175   8.937  10.411
57102SOL    HW271331  10.259   8.893  10.544
57103SOL     OW71332  10.661   8.038  10.743
57103SOL    HW171333  10.689   7.995  10.828
57103SOL    HW271334  10.686   8.134  10.744
57104SOL     OW71335  10.113   8.850  10.234
57104SOL    HW171336  10.203   8.864  10.192
57104SOL    HW271337  10.042   8.852  10.163
57105SOL     OW71338  10.232   7.951  10.209
57105SOL    HW171339  10.207   7.942  10.113
57105SOL    HW271340  10.280   7.869  10.240
57106SOL     OW71341   9.849   7.512   9.822
57106SOL    HW171342   9.768   7.513   9.880
57106SOL    HW271343   9.852   7.595   9.767
57107SOL     OW71344  10.744   8.636   9.351
57107SOL    HW171345  10.776   8.560   9.408
57107SOL    HW271346  10.652   8.663   9.381
57108SOL     OW71347   9.607   7.483   9.481
57108SOL    HW171348   9.656   7.567   9.460
57108SOL    HW271349   9.669   7.418   9.526
57109SOL     OW71350  10.245   7.684   9.790
57109SOL    HW171351  10.197   7.725   9.712
57109SOL    HW271352  10.344   7.682   9.771
57110SOL     OW71353  10.386   8.131  10.774
57110SOL    HW171354  10.306   8.070  10.777
57110SOL    HW271355  10.467   8.078  10.750
57111SOL     OW71356  10.537   9.018  10.103
57111SOL    HW171357  10.558   9.092  10.038
57111SOL    HW271358  10.605   9.018  10.176
57112SOL     OW71359   9.769   8.600  10.051
57112SOL    HW171360   9.698   8.573  10.116
57112SOL    HW271361   9.743   8.572   9.958
57113SOL     OW71362  10.581   9.245   9.901
57113SOL    HW171363  10.625   9.309   9.837
57113SOL    HW271364  10.531   9.297   9.971
57114SOL     OW71365  10.342   7.997   9.326
57114SOL    HW171366  10.301   8.079   9.287
57114SOL    HW271367  10.406   8.023   9.399
57115SOL     OW71368   9.388   8.004  10.696
57115SOL    HW171369   9.480   8.003  10.655
57115SOL    HW271370   9.382   8.078  10.763
57116SOL     OW71371   9.871   7.670  10.457
57116SOL    HW171372   9.909   7.586  10.494
57116SOL    HW271373   9.783   7.689  10.501
57117SOL     OW71374  10.176   7.902   9.952
57117SOL    HW171375  10.144   7.974   9.890
57117SOL    HW271376  10.200   7.821   9.899
57118SOL     OW71377  10.327   7.487  10.063
57118SOL    HW171378  10.255   7.492   9.994
57118SOL    HW271379  10.303   7.418  10.132
57119SOL     OW71380  10.739   8.621  10.177
57119SOL    HW171381  10.684   8.537  10.170
57119SOL    HW271382  10.765   8.650  10.085
57120SOL     OW71383  10.776   8.038  10.302
57120SOL    HW171384  10.746   7.943  10.309
57120SOL    HW271385  10.849   8.054  10.368
57121SOL     OW71386  11.167   8.281   9.687
57121SOL    HW171387  11.209   8.217   9.751
57121SOL    HW271388  11.129   8.230   9.609
57122SOL     OW71389   9.798   8.833   9.484
57122SOL    HW171390   9.711   8.818   9.531
57122SOL    HW271391   9.781   8.859   9.389
57123SOL     OW71392  10.974   8.728   9.967
57123SOL    HW171393  11.073   8.736   9.981
57123SOL    HW271394  10.929   8.812   9.998
57124SOL     OW71395  10.700   8.023   9.388
57124SOL    HW171396  10.646   8.002   9.469
57124SOL    HW271397  10.791   7.982   9.397
57125SOL     OW71398   9.837   7.704   9.638
57125SOL    HW171399   9.864   7.645   9.563
57125SOL    HW271400   9.837   7.799   9.607
57126SOL     OW71401  11.064   8.671  10.898
57126SOL    HW171402  11.155   8.632  10.885
57126SOL    HW271403  11.072   8.767  10.922
57127SOL     OW71404  10.374   8.795  10.650
57127SOL    HW171405  10.294   8.772  10.705
57127SOL    HW271406  10.457   8.769  10.699
57128SOL     OW71407  10.902   9.077  10.935
57128SOL    HW171408  10.929   9.111  10.845
57128SOL    HW271409  10.981   9.039  10.981
57129SOL     OW71410  10.421   8.643  10.410
57129SOL    HW171411  10.381   8.687  10.491
57129SOL    HW271412  10.380   8.680  10.327
57130SOL     OW71413  10.948   8.547  10.389
57130SOL    HW171414  10.953   8.628  10.448
57130SOL    HW271415  10.862   8.549  10.338
57131SOL     OW71416  10.225   7.537  10.712
57131SOL    HW171417  10.250   7.517  10.617
57131SOL    HW271418  10.297   7.593  10.754
57132SOL     OW71419  10.290   8.564  11.029
57132SOL    HW171420  10.191   8.570  11.039
57132SOL    HW271421  10.313   8.484  10.973
57133SOL     OW71422  10.015   8.498   9.678
57133SOL    HW171423  10.001   8.505   9.777
57133SOL    HW271424  10.099   8.447   9.660
57134SOL     OW71425   9.720   8.261  10.561
57134SOL    HW171426   9.806   8.273  10.611
57134SOL    HW271427   9.678   8.174  10.588
57135SOL     OW71428  10.584   7.834  10.572
57135SOL    HW171429  10.605   7.908  10.636
57135SOL    HW271430  10.495   7.851  10.529
57136SOL     OW71431   9.374   9.012  10.641
57136SOL    HW171432   9.328   9.094  10.607
57136SOL    HW271433   9.472   9.031  10.650
57137SOL     OW71434   9.677   8.548   9.811
57137SOL    HW171435   9.670   8.631   9.755
57137SOL    HW271436   9.681   8.468   9.751
57138SOL     OW71437   9.876   7.985  10.175
57138SOL    HW171438   9.888   8.051  10.101
57138SOL    HW271439   9.922   8.019  10.258
57139SOL     OW71440  10.562   8.796   9.698
57139SOL    HW171441  10.612   8.873   9.738
57139SOL    HW271442  10.467   8.798   9.730
57140SOL     OW71443  10.582   8.893  10.452
57140SOL    HW171444  10.629   8.906  10.539
57140SOL    HW271445  10.516   8.819  10.461
57141SOL     OW71446  10.892   8.087   9.782
57141SOL    HW171447  10.861   8.148   9.855
57141SOL    HW271448  10.942   8.139   9.713
57142SOL     OW71449   9.664   8.958  10.639
57142SOL    HW171450   9.643   8.914  10.552
57142SOL    HW271451   9.761   8.984  10.642
57143SOL     OW71452   9.712   8.199  10.908
57143SOL    HW171453   9.780   8.254  10.861
57143SOL    HW271454   9.752   8.111  10.935
57144SOL     OW71455  10.897   8.227  10.980
57144SOL    HW171456  10.805   8.265  10.975
57144SOL    HW271457  10.957   8.274  10.915
57145SOL     OW71458  10.323   7.553  11.080
57145SOL    HW171459  10.329   7.638  11.028
57145SOL    HW271460  10.355   7.477  11.023
57146SOL     OW71461   9.814   7.498  11.050
57146SOL    HW171462   9.772   7.441  10.980
57146SOL    HW271463   9.748   7.567  11.082
57147SOL     OW71464   9.883   8.318  10.339
57147SOL    HW171465   9.927   8.407  10.330
57147SOL    HW271466   9.820   8.318  10.416
57148SOL     OW71467  10.670   8.310  10.355
57148SOL    HW171468  10.595   8.310  10.289
57148SOL    HW271469  10.707   8.218  10.364
57149SOL     OW71470  10.519   7.973   9.585
57149SOL    HW171471  10.532   7.889   9.639
57149SOL    HW271472  10.490   8.047   9.645
57150SOL     OW71473   9.617   7.661  10.541
57150SOL    HW171474   9.594   7.698  10.631
57150SOL    HW271475   9.587   7.566  10.535
57151SOL     OW71476   9.347   8.758  10.592
57151SOL    HW171477   9.400   8.709  10.660
57151SOL    HW271478   9.369   8.856  10.597
57152SOL     OW71479  10.042   8.082  10.374
57152SOL    HW171480  10.101   8.056  10.298
57152SOL    HW271481  10.014   8.178  10.363
57153SOL     OW71482  11.038   8.383  11.164
57153SOL    HW171483  10.992   8.376  11.075
57153SOL    HW271484  10.976   8.427  11.230
57154SOL     OW71485   9.617   7.511   9.928
57154SOL    HW171486   9.606   7.605   9.961
57154SOL    HW271487   9.612   7.448  10.005
57155SOL     OW71488  10.932   7.815   9.684
57155SOL    HW171489  10.934   7.739   9.748
57155SOL    HW271490  10.884   7.892   9.724
57156SOL     OW71491  10.333   8.214  10.276
57156SOL    HW171492  10.348   8.235  10.372
57156SOL    HW271493  10.303   8.119  10.267
57157SOL     OW71494  10.290   9.021  11.010
57157SOL    HW171495  10.270   9.065  10.922
57157SOL    HW271496  10.329   8.930  10.994
57158SOL     OW71497  11.169   8.966  10.915
57158SOL    HW171498  11.183   8.993  10.820
57158SOL    HW271499  11.252   8.988  10.968
57159SOL     OW71500   9.660   8.346  11.114
57159SOL    HW171501   9.736   8.390  11.162
57159SOL    HW271502   9.695   8.299  11.032
57160SOL     OW71503  10.850   7.722   9.435
57160SOL    HW171504  10.789   7.647   9.458
57160SOL    HW271505  10.872   7.774   9.518
57161SOL     OW71506  10.613   8.286   9.352
57161SOL    HW171507  10.647   8.193   9.367
57161SOL    HW271508  10.631   8.313   9.257
57162SOL     OW71509  10.378   8.781  10.159
57162SOL    HW171510  10.385   8.697  10.104
57162SOL    HW271511  10.440   8.850  10.123
57163SOL     OW71512   9.629   8.258  10.259
57163SOL    HW171513   9.722   8.294  10.264
57163SOL    HW271514   9.623   8.173  10.311
57164SOL     OW71515   9.649   7.957  10.316
57164SOL    HW171516   9.597   7.874  10.299
57164SOL    HW271517   9.726   7.962  10.252
57165SOL     OW71518  10.448   7.828  10.988
57165SOL    HW171519  10.403   7.891  11.052
57165SOL    HW271520  10.541   7.859  10.971
57166SOL     OW71521  10.470   7.655  10.787
57166SOL    HW171522  10.470   7.719  10.864
57166SOL    HW271523  10.498   7.703  10.704
57167SOL     OW71524   9.318   8.774   9.510
57167SOL    HW171525   9.225   8.795   9.479
57167SOL    HW271526   9.328   8.675   9.523
57168SOL     OW71527   9.398   9.249  10.237
57168SOL    HW171528   9.356   9.163  10.210
57168SOL    HW271529   9.492   9.252  10.203
57169SOL     OW71530   9.814   9.016  10.220
57169SOL    HW171531   9.880   9.090  10.229
57169SOL    HW271532   9.858   8.937  10.178
57170SOL     OW71533  10.312   8.244  10.548
57170SOL    HW171534  10.353   8.212  10.634
57170SOL    HW271535  10.216   8.217  10.545
57171SOL     OW71536   9.350   7.992  10.424
57171SOL    HW171537   9.435   7.959  10.383
57171SOL    HW271538   9.363   8.007  10.522
57172SOL     OW71539   9.499   7.968  11.032
57172SOL    HW171540   9.558   7.928  10.962
57172SOL    HW271541   9.441   8.039  10.991
57173SOL     OW71542  10.679   8.398  10.970
57173SOL    HW171543  10.718   8.487  10.990
57173SOL    HW271544  10.689   8.378  10.873
57174SOL     OW71545  10.125   8.020   9.635
57174SOL    HW171546  10.132   7.931   9.589
57174SOL    HW271547  10.031   8.054   9.627
57175SOL     OW71548  10.967   8.052  10.516
57175SOL    HW171549  10.929   7.983  10.578
57175SOL    HW271550  11.049   8.016  10.472
57176SOL     OW71551   9.562   9.012  11.054
57176SOL    HW171552   9.532   9.069  11.130
57176SOL    HW271553   9.555   8.915  11.080
57177SOL     OW71554   9.981   7.912  10.579
57177SOL    HW171555   9.947   7.823  10.549
57177SOL    HW271556  10.007   7.966  10.499
57178SOL     OW71557  10.240   9.126  10.775
57178SOL    HW171558  10.216   9.108  10.680
57178SOL    HW271559  10.270   9.220  10.785
57179SOL     OW71560   9.783   7.948   9.501
57179SOL    HW171561   9.844   8.028   9.505
57179SOL    HW271562   9.688   7.979   9.508
57180SOL     OW71563   9.469   8.585  10.776
57180SOL    HW171564   9.491   8.524  10.852
57180SOL    HW271565   9.479   8.536  10.690
57181SOL     OW71566  10.657   8.507  10.544
57181SOL    HW171567  10.681   8.444  10.470
57181SOL    HW271568  10.567   8.547  10.526
57182SOL     OW71569  10.612   8.303   9.619
57182SOL    HW171570  10.526   8.272   9.661
57182SOL    HW271571  10.608   8.289   9.520
57183SOL     OW71572  11.069   9.195  10.464
57183SOL    HW171573  11.130   9.225  10.391
57183SOL    HW271574  11.031   9.106  10.442
57184SOL     OW71575  10.562   9.179  10.438
57184SOL    HW171576  10.646   9.184  10.384
57184SOL    HW271577  10.539   9.083  10.456
57185SOL     OW71578   9.393   8.706  10.332
57185SOL    HW171579   9.388   8.705  10.432
57185SOL    HW271580   9.310   8.665  10.294
57186SOL     OW71581   9.998   9.110  11.026
57186SOL    HW171582   9.942   9.191  11.035
57186SOL    HW271583  10.050   9.114  10.940
57187SOL     OW71584  11.036   7.583   9.833
57187SOL    HW171585  11.109   7.566   9.766
57187SOL    HW271586  11.005   7.496   9.871
57188SOL     OW71587  10.698   9.021   9.787
57188SOL    HW171588  10.765   9.033   9.713
57188SOL    HW271589  10.658   9.110   9.810
57189SOL     OW71590   9.440   9.242  11.161
57189SOL    HW171591   9.399   9.168  11.214
57189SOL    HW271592   9.504   9.293  11.219
57190SOL     OW71593  10.590   8.375   9.982
57190SOL    HW171594  10.650   8.294   9.984
57190SOL    HW271595  10.630   8.444   9.922
57191SOL     OW71596  10.140   8.721  10.732
57191SOL    HW171597  10.135   8.754  10.827
57191SOL    HW271598  10.054   8.740  10.686
57192SOL     OW71599   9.982   9.064   9.464
57192SOL    HW171600   9.991   9.074   9.365
57192SOL    HW271601   9.942   8.975   9.485
57193SOL     OW71602  10.960   9.168  10.704
57193SOL    HW171603  11.013   9.178  10.620
57193SOL    HW271604  10.933   9.258  10.738
57194SOL     OW71605  11.151   7.623  10.273
57194SOL    HW171606  11.190   7.538  10.237
57194SOL    HW271607  11.053   7.625  10.254
57195SOL     OW71608   9.573   7.774  10.030
57195SOL    HW171609   9.494   7.825   9.996
57195SOL    HW271610   9.564   7.759  10.128
57196SOL     OW71611  10.504   9.060   9.341
57196SOL    HW171612  10.510   8.967   9.378
57196SOL    HW271613  10.445   9.060   9.261
57197SOL     OW71614  10.132   8.450  10.682
57197SOL    HW171615  10.172   8.449  10.590
57197SOL    HW271616  10.142   8.542  10.722
57198SOL     OW71617  10.226   8.358   9.601
57198SOL    HW171618  10.289   8.396   9.533
57198SOL    HW271619  10.266   8.275   9.640
57199SOL     OW71620  10.814   9.055   9.354
57199SOL    HW171621  10.722   9.092   9.361
57199SOL    HW271622  10.852   9.075   9.264
57200SOL     OW71623   9.682   8.736  10.800
57200SOL    HW171624   9.669   8.829  10.766
57200SOL    HW271625   9.598   8.684  10.787
57201SOL     OW71626  10.924   8.740  10.599
57201SOL    HW171627  10.984   8.743  10.679
57201SOL    HW271628  10.849   8.804  10.612
57202SOL     OW71629  10.349   8.546  10.006
57202SOL    HW171630  10.279   8.499  10.060
57202SOL    HW271631  10.408   8.478   9.963
57203SOL     OW71632  10.324   7.684  10.281
57203SOL    HW171633  10.316   7.648  10.188
57203SOL    HW271634  10.322   7.608  10.346
57204SOL     OW71635   9.900   8.935   9.801
57204SOL    HW171636   9.942   8.877   9.731
57204SOL    HW271637   9.856   9.014   9.757
57205SOL     OW71638  11.019   7.833  10.691
57205SOL    HW171639  11.092   7.902  10.695
57205SOL    HW271640  11.047   7.758  10.632
57206SOL     OW71641   9.565   8.796   9.600
57206SOL    HW171642   9.469   8.797   9.573
57206SOL    HW271643   9.577   8.849   9.684
57207SOL     OW71644   9.415   8.461  11.036
57207SOL    HW171645   9.338   8.428  11.090
57207SOL    HW271646   9.500   8.431  11.078
57208SOL     OW71647   9.982   7.651  10.799
57208SOL    HW171648  10.072   7.635  10.759
57208SOL    HW271649   9.990   7.656  10.898
57209SOL     OW71650   9.385   7.793   9.343
57209SOL    HW171651   9.293   7.765   9.314
57209SOL    HW271652   9.416   7.870   9.287
57210SOL     OW71653  10.750   8.304  10.708
57210SOL    HW171654  10.693   8.356  10.645
57210SOL    HW271655  10.846   8.316  10.684
57211SOL     OW71656   9.382   7.614   9.628
57211SOL    HW171657   9.365   7.697   9.574
57211SOL    HW271658   9.472   7.577   9.606
57212SOL     OW71659  10.493   8.783   9.429
57212SOL    HW171660  10.394   8.772   9.431
57212SOL    HW271661  10.527   8.798   9.522
57213SOL     OW71662   9.923   8.290  10.741
57213SOL    HW171663   9.979   8.371  10.724
57213SOL    HW271664   9.982   8.210  10.744
57214SOL     OW71665  10.803   9.215  10.269
57214SOL    HW171666  10.836   9.279  10.200
57214SOL    HW271667  10.869   9.209  10.344
57215SOL     OW71668  10.026   8.013  11.018
57215SOL    HW171669  10.045   8.078  11.092
57215SOL    HW271670  10.086   7.933  11.027
57216SOL     OW71671  10.760   8.668  10.943
57216SOL    HW171672  10.751   8.658  11.042
57216SOL    HW271673  10.856   8.661  10.917
57217SOL     OW71674   9.700   9.189  10.870
57217SOL    HW171675   9.609   9.230  10.868
57217SOL    HW271676   9.693   9.095  10.902
57218SOL     OW71677  10.984   8.331  10.564
57218SOL    HW171678  10.957   8.242  10.527
57218SOL    HW271679  10.985   8.399  10.491
57219SOL     OW71680  10.535   7.773   9.759
57219SOL    HW171681  10.600   7.699   9.748
57219SOL    HW271682  10.555   7.823   9.843
57220SOL     OW71683   9.904   8.193   9.962
57220SOL    HW171684   9.954   8.278   9.943
57220SOL    HW271685   9.816   8.195   9.914
57221SOL     OW71686  11.087   7.790  10.952
57221SOL    HW171687  11.070   7.821  10.858
57221SOL    HW271688  11.003   7.753  10.990
57222SOL     OW71689  11.040   8.382  10.827
57222SOL    HW171690  11.078   8.473  10.842
57222SOL    HW271691  11.032   8.365  10.728
57223SOL     OW71692  10.169   8.822   9.326
57223SOL    HW171693  10.123   8.837   9.414
57223SOL    HW271694  10.213   8.907   9.296
57224SOL     OW71695   9.971   9.238  10.263
57224SOL    HW171696   9.925   9.326  10.250
57224SOL    HW271697  10.070   9.250  10.256
57225SOL     OW71698  10.169   8.404  10.171
57225SOL    HW171699  10.223   8.335  10.219
57225SOL    HW271700  10.137   8.473  10.237
57226SOL     OW71701  10.393   8.432   9.397
57226SOL    HW171702  10.370   8.485   9.315
57226SOL    HW271703  10.474   8.376   9.378
57227SOL     OW71704  11.171   9.017  10.161
57227SOL    HW171705  11.100   9.005  10.091
57227SOL    HW271706  11.172   8.938  10.221
57228SOL     OW71707   9.531   8.762  11.154
57228SOL    HW171708   9.466   8.689  11.133
57228SOL    HW271709   9.535   8.776  11.252
57229SOL     OW71710   9.389   8.688   9.963
57229SOL    HW171711   9.388   8.641  10.051
57229SOL    HW271712   9.471   8.660   9.912
57230SOL     OW71713   9.982   8.839  10.934
57230SOL    HW171714   9.904   8.789  10.972
57230SOL    HW271715   9.979   8.934  10.965
57231SOL     OW71716  11.134   7.640  10.537
57231SOL    HW171717  11.130   7.550  10.581
57231SOL    HW271718  11.137   7.629  10.438
57232SOL     OW71719   9.738   7.872   9.830
57232SOL    HW171720   9.768   7.800   9.768
57232SOL    HW271721   9.699   7.832   9.913
57233SOL     OW71722  11.015   8.935  10.414
57233SOL    HW171723  10.922   8.910  10.387
57233SOL    HW271724  11.041   8.885  10.496
57234SOL     OW71725   9.627   7.995  10.590
57234SOL    HW171726   9.665   7.936  10.662
57234SOL    HW271727   9.667   7.969  10.502
57235SOL     OW71728  10.122   9.034   9.997
57235SOL    HW171729  10.154   9.044   9.903
57235SOL    HW271730  10.043   8.972   9.999
57236SOL     OW71731  10.734   7.662  10.422
57236SOL    HW171732  10.786   7.597  10.477
57236SOL    HW271733  10.685   7.725  10.483
57237SOL     OW71734  10.311   7.482  10.464
57237SOL    HW171735  10.248   7.410  10.433
57237SOL    HW271736  10.404   7.446  10.464
57238SOL     OW71737  10.080   8.778   9.611
57238SOL    HW171738  10.034   8.691   9.628
57238SOL    HW271739  10.171   8.775   9.652
57239SOL     OW71740   9.928   9.015  10.594
57239SOL    HW171741   9.923   9.097  10.651
57239SOL    HW271742  10.017   9.012  10.549
57240SOL     OW71743  10.662   7.500   9.478
57240SOL    HW171744  10.697   7.459   9.394
57240SOL    HW271745  10.572   7.462   9.498
57241SOL     OW71746  10.610   7.901  10.001
57241SOL    HW171747  10.551   7.981  10.005
57241SOL    HW271748  10.625   7.866  10.094
57242SOL     OW71749  10.903   7.669  10.192
57242SOL    HW171750  10.819   7.668  10.246
57242SOL    HW271751  10.905   7.752  10.136
57243SOL     OW71752   9.349   8.525   9.610
57243SOL    HW171753   9.448   8.514   9.601
57243SOL    HW271754   9.309   8.439   9.642
57244SOL     OW71755  10.185   9.094   9.647
57244SOL    HW171756  10.108   9.059   9.593
57244SOL    HW271757  10.153   9.165   9.709
57245SOL     OW71758   9.540   8.076  11.285
57245SOL    HW171759   9.447   8.074  11.322
57245SOL    HW271760   9.541   8.037  11.193
57246SOL     OW71761   9.535   7.723  12.168
57246SOL    HW171762   9.570   7.706  12.260
57246SOL    HW271763   9.447   7.678  12.156
57247SOL     OW71764   9.329   7.816  11.819
57247SOL    HW171765   9.247   7.859  11.858
57247SOL    HW271766   9.301   7.743  11.756
57248SOL     OW71767   9.879   8.723  12.337
57248SOL    HW171768   9.786   8.716  12.300
57248SOL    HW271769   9.890   8.812  12.381
57249SOL     OW71770  10.865   8.959  11.875
57249SOL    HW171771  10.808   8.943  11.956
57249SOL    HW271772  10.806   8.969  11.795
57250SOL     OW71773  10.445   8.151  11.889
57250SOL    HW171774  10.502   8.229  11.864
57250SOL    HW271775  10.385   8.177  11.965
57251SOL     OW71776  11.065   8.055  11.403
57251SOL    HW171777  11.053   8.042  11.304
57251SOL    HW271778  11.035   7.974  11.452
57252SOL     OW71779  10.078   8.592  12.195
57252SOL    HW171780  10.000   8.609  12.255
57252SOL    HW271781  10.112   8.679  12.159
57253SOL     OW71782   9.995   8.460  11.837
57253SOL    HW171783  10.064   8.444  11.907
57253SOL    HW271784   9.922   8.517  11.875
57254SOL     OW71785   9.645   8.883  12.233
57254SOL    HW171786   9.567   8.852  12.180
57254SOL    HW271787   9.703   8.941  12.176
57255SOL     OW71788  10.770   8.953  12.511
57255SOL    HW171789  10.794   9.047  12.537
57255SOL    HW271790  10.754   8.899  12.593
57256SOL     OW71791   9.748   7.840  12.671
57256SOL    HW171792   9.830   7.784  12.680
57256SOL    HW271793   9.667   7.782  12.675
57257SOL     OW71794  10.913   7.895  11.909
57257SOL    HW171795  10.839   7.941  11.859
57257SOL    HW271796  10.964   7.963  11.962
57258SOL     OW71797   9.541   9.161  11.655
57258SOL    HW171798   9.575   9.238  11.709
57258SOL    HW271799   9.585   9.161  11.565
57259SOL     OW71800   9.540   8.882  11.710
57259SOL    HW171801   9.514   8.978  11.710
57259SOL    HW271802   9.469   8.828  11.755
57260SOL     OW71803   9.550   8.539  12.058
57260SOL    HW171804   9.564   8.455  12.110
57260SOL    HW271805   9.495   8.603  12.113
57261SOL     OW71806   9.930   9.234  12.611
57261SOL    HW171807   9.838   9.217  12.646
57261SOL    HW271808   9.958   9.326  12.637
57262SOL     OW71809   9.916   8.412  11.295
57262SOL    HW171810   9.923   8.496  11.241
57262SOL    HW271811   9.962   8.425  11.383
57263SOL     OW71812  10.904   7.562  12.652
57263SOL    HW171813  10.886   7.629  12.580
57263SOL    HW271814  10.901   7.608  12.741
57264SOL     OW71815   9.432   8.091  11.735
57264SOL    HW171816   9.387   8.003  11.752
57264SOL    HW271817   9.431   8.145  11.819
57265SOL     OW71818  11.152   9.215  11.531
57265SOL    HW171819  11.206   9.186  11.611
57265SOL    HW271820  11.182   9.305  11.502
57266SOL     OW71821   9.337   9.044  11.289
57266SOL    HW171822   9.318   8.948  11.310
57266SOL    HW271823   9.304   9.102  11.364
57267SOL     OW71824  10.999   8.370  11.784
57267SOL    HW171825  11.094   8.341  11.792
57267SOL    HW271826  10.991   8.435  11.709
57268SOL     OW71827  10.951   8.556  11.604
57268SOL    HW171828  11.037   8.558  11.552
57268SOL    HW271829  10.965   8.603  11.692
57269SOL     OW71830   9.423   8.185  12.769
57269SOL    HW171831   9.511   8.172  12.814
57269SOL    HW271832   9.410   8.282  12.747
57270SOL     OW71833   9.923   8.813  11.898
57270SOL    HW171834   9.874   8.726  11.907
57270SOL    HW271835   9.900   8.856  11.811
57271SOL     OW71836  10.603   8.676  12.595
57271SOL    HW171837  10.640   8.603  12.537
57271SOL    HW271838  10.655   8.681  12.680
57272SOL     OW71839  10.119   7.452  11.674
57272SOL    HW171840  10.159   7.543  11.665
57272SOL    HW271841  10.019   7.460  11.680
57273SOL     OW71842   9.507   8.424  12.436
57273SOL    HW171843   9.596   8.379  12.422
57273SOL    HW271844   9.434   8.359  12.417
57274SOL     OW71845  10.835   8.447  11.362
57274SOL    HW171846  10.772   8.371  11.375
57274SOL    HW271847  10.883   8.465  11.448
57275SOL     OW71848  10.776   8.865  12.125
57275SOL    HW171849  10.717   8.871  12.205
57275SOL    HW271850  10.761   8.777  12.079
57276SOL     OW71851  10.977   9.162  11.744
57276SOL    HW171852  10.936   9.139  11.656
57276SOL    HW271853  10.959   9.088  11.809
57277SOL     OW71854   9.908   8.177  11.442
57277SOL    HW171855   9.932   8.246  11.374
57277SOL    HW271856   9.830   8.210  11.496
57278SOL     OW71857  10.591   7.793  12.116
57278SOL    HW171858  10.505   7.743  12.103
57278SOL    HW271859  10.653   7.739  12.172
57279SOL     OW71860  10.886   9.110  11.479
57279SOL    HW171861  10.975   9.156  11.482
57279SOL    HW271862  10.865   9.086  11.384
57280SOL     OW71863  10.117   8.053  12.637
57280SOL    HW171864  10.070   8.050  12.726
57280SOL    HW271865  10.066   7.998  12.571
57281SOL     OW71866  10.283   8.338  12.744
57281SOL    HW171867  10.329   8.254  12.715
57281SOL    HW271868  10.227   8.372  12.669
57282SOL     OW71869  10.301   7.858  12.414
57282SOL    HW171870  10.224   7.892  12.468
57282SOL    HW271871  10.267   7.807  12.335
57283SOL     OW71872  10.351   8.149  11.601
57283SOL    HW171873  10.377   8.145  11.697
57283SOL    HW271874  10.266   8.098  11.587
57284SOL     OW71875   9.386   8.259  11.961
57284SOL    HW171876   9.485   8.247  11.970
57284SOL    HW271877   9.362   8.354  11.982
57285SOL     OW71878   9.440   9.269  12.743
57285SOL    HW171879   9.430   9.254  12.842
57285SOL    HW271880   9.354   9.305  12.707
57286SOL     OW71881  10.175   7.796  11.367
57286SOL    HW171882  10.234   7.859  11.318
57286SOL    HW271883  10.194   7.702  11.338
57287SOL     OW71884  10.672   8.592  11.717
57287SOL    HW171885  10.755   8.563  11.669
57287SOL    HW271886  10.623   8.659  11.661
57288SOL     OW71887   9.860   7.644  12.057
57288SOL    HW171888   9.855   7.639  12.157
57288SOL    HW271889   9.862   7.740  12.028
57289SOL     OW71890  10.318   8.904  11.649
57289SOL    HW171891  10.272   8.976  11.597
57289SOL    HW271892  10.314   8.924  11.747
57290SOL     OW71893   9.661   9.249  12.025
57290SOL    HW171894   9.711   9.163  12.031
57290SOL    HW271895   9.726   9.326  12.022
57291SOL     OW71896  11.105   8.514  12.045
57291SOL    HW171897  11.043   8.499  11.969
57291SOL    HW271898  11.053   8.525  12.130
57292SOL     OW71899  10.537   8.998  12.678
57292SOL    HW171900  10.543   8.921  12.742
57292SOL    HW271901  10.485   8.972  12.598
57293SOL     OW71902   9.631   8.391  11.414
57293SOL    HW171903   9.713   8.430  11.372
57293SOL    HW271904   9.604   8.309  11.365
57294SOL     OW71905  10.768   8.183  11.900
57294SOL    HW171906  10.763   8.118  11.975
57294SOL    HW271907  10.848   8.242  11.913
57295SOL     OW71908  10.421   9.224  11.409
57295SOL    HW171909  10.361   9.162  11.459
57295SOL    HW271910  10.452   9.180  11.324
57296SOL     OW71911   9.512   7.733  12.670
57296SOL    HW171912   9.432   7.793  12.657
57296SOL    HW271913   9.502   7.684  12.756
57297SOL     OW71914  10.942   8.825  11.253
57297SOL    HW171915  10.910   8.919  11.243
57297SOL    HW271916  10.866   8.762  11.241
57298SOL     OW71917   9.774   9.191  11.495
57298SOL    HW171918   9.807   9.230  11.581
57298SOL    HW271919   9.850   9.184  11.430
57299SOL     OW71920  10.710   7.555  11.598
57299SOL    HW171921  10.686   7.518  11.508
57299SOL    HW271922  10.809   7.571  11.602
57300SOL     OW71923   9.559   9.233  12.413
57300SOL    HW171924   9.616   9.168  12.463
57300SOL    HW271925   9.543   9.200  12.320
57301SOL     OW71926  10.250   9.146  12.076
57301SOL    HW171927  10.330   9.089  12.097
57301SOL    HW271928  10.201   9.106  11.999
57302SOL     OW71929   9.692   8.148  11.652
57302SOL    HW171930   9.737   8.058  11.649
57302SOL    HW271931   9.598   8.137  11.685
57303SOL     OW71932   9.924   7.570  11.289
57303SOL    HW171933  10.022   7.548  11.296
57303SOL    HW271934   9.893   7.553  11.196
57304SOL     OW71935  10.198   8.962  12.367
57304SOL    HW171936  10.175   8.937  12.273
57304SOL    HW271937  10.259   8.893  12.406
57305SOL     OW71938  10.661   8.038  12.605
57305SOL    HW171939  10.689   7.995  12.690
57305SOL    HW271940  10.686   8.134  12.606
57306SOL     OW71941  10.113   8.850  12.096
57306SOL    HW171942  10.203   8.864  12.054
57306SOL    HW271943  10.042   8.852  12.025
57307SOL     OW71944  10.232   7.951  12.071
57307SOL    HW171945  10.207   7.942  11.975
57307SOL    HW271946  10.280   7.869  12.102
57308SOL     OW71947   9.849   7.512  11.684
57308SOL    HW171948   9.768   7.513  11.742
57308SOL    HW271949   9.852   7.595  11.629
57309SOL     OW71950  10.744   8.636  11.213
57309SOL    HW171951  10.776   8.560  11.270
57309SOL    HW271952  10.652   8.663  11.243
57310SOL     OW71953   9.607   7.483  11.343
57310SOL    HW171954   9.656   7.567  11.322
57310SOL    HW271955   9.669   7.418  11.388
57311SOL     OW71956  10.245   7.684  11.652
57311SOL    HW171957  10.197   7.725  11.574
57311SOL    HW271958  10.344   7.682  11.633
57312SOL     OW71959  10.386   8.131  12.636
57312SOL    HW171960  10.306   8.070  12.639
57312SOL    HW271961  10.467   8.078  12.612
57313SOL     OW71962  10.537   9.018  11.965
57313SOL    HW171963  10.558   9.092  11.900
57313SOL    HW271964  10.605   9.018  12.038
57314SOL     OW71965   9.769   8.600  11.913
57314SOL    HW171966   9.698   8.573  11.978
57314SOL    HW271967   9.743   8.572  11.820
57315SOL     OW71968  10.581   9.245  11.763
57315SOL    HW171969  10.625   9.309  11.699
57315SOL    HW271970  10.531   9.297  11.833
57316SOL     OW71971  10.342   7.997  11.188
57316SOL    HW171972  10.301   8.079  11.149
57316SOL    HW271973  10.406   8.023  11.261
57317SOL     OW71974   9.388   8.004  12.558
57317SOL    HW171975   9.480   8.003  12.517
57317SOL    HW271976   9.382   8.078  12.625
57318SOL     OW71977   9.871   7.670  12.319
57318SOL    HW171978   9.909   7.586  12.356
57318SOL    HW271979   9.783   7.689  12.363
57319SOL     OW71980  10.176   7.902  11.814
57319SOL    HW171981  10.144   7.974  11.752
57319SOL    HW271982  10.200   7.821  11.761
57320SOL     OW71983  10.327   7.487  11.925
57320SOL    HW171984  10.255   7.492  11.856
57320SOL    HW271985  10.303   7.418  11.994
57321SOL     OW71986  10.739   8.621  12.039
57321SOL    HW171987  10.684   8.537  12.032
57321SOL    HW271988  10.765   8.650  11.947
57322SOL     OW71989  10.776   8.038  12.164
57322SOL    HW171990  10.746   7.943  12.171
57322SOL    HW271991  10.849   8.054  12.230
57323SOL     OW71992  11.167   8.281  11.549
57323SOL    HW171993  11.209   8.217  11.613
57323SOL    HW271994  11.129   8.230  11.471
57324SOL     OW71995   9.798   8.833  11.346
57324SOL    HW171996   9.711   8.818  11.393
57324SOL    HW271997   9.781   8.859  11.251
57325SOL     OW71998  10.974   8.728  11.829
57325SOL    HW171999  11.073   8.736  11.843
57325SOL    HW272000  10.929   8.812  11.860
57326SOL     OW72001  10.700   8.023  11.250
57326SOL    HW172002  10.646   8.002  11.331
57326SOL    HW272003  10.791   7.982  11.259
57327SOL     OW72004   9.837   7.704  11.500
57327SOL    HW172005   9.864   7.645  11.425
57327SOL    HW272006   9.837   7.799  11.469
57328SOL     OW72007  11.064   8.671  12.760
57328SOL    HW172008  11.155   8.632  12.747
57328SOL    HW272009  11.072   8.767  12.784
57329SOL     OW72010  10.374   8.795  12.512
57329SOL    HW172011  10.294   8.772  12.567
57329SOL    HW272012  10.457   8.769  12.561
57330SOL     OW72013  10.421   8.643  12.272
57330SOL    HW172014  10.381   8.687  12.353
57330SOL    HW272015  10.380   8.680  12.189
57331SOL     OW72016  10.948   8.547  12.251
57331SOL    HW172017  10.953   8.628  12.310
57331SOL    HW272018  10.862   8.549  12.200
57332SOL     OW72019  10.225   7.537  12.574
57332SOL    HW172020  10.250   7.517  12.479
57332SOL    HW272021  10.297   7.593  12.616
57333SOL     OW72022  10.015   8.498  11.540
57333SOL    HW172023  10.001   8.505  11.639
57333SOL    HW272024  10.099   8.447  11.522
57334SOL     OW72025   9.720   8.261  12.423
57334SOL    HW172026   9.806   8.273  12.473
57334SOL    HW272027   9.678   8.174  12.450
57335SOL     OW72028  10.584   7.834  12.434
57335SOL    HW172029  10.605   7.908  12.498
57335SOL    HW272030  10.495   7.851  12.391
57336SOL     OW72031   9.374   9.012  12.503
57336SOL    HW172032   9.328   9.094  12.469
57336SOL    HW272033   9.472   9.031  12.512
57337SOL     OW72034   9.677   8.548  11.673
57337SOL    HW172035   9.670   8.631  11.617
57337SOL    HW272036   9.681   8.468  11.613
57338SOL     OW72037   9.876   7.985  12.037
57338SOL    HW172038   9.888   8.051  11.963
57338SOL    HW272039   9.922   8.019  12.120
57339SOL     OW72040  10.562   8.796  11.560
57339SOL    HW172041  10.612   8.873  11.600
57339SOL    HW272042  10.467   8.798  11.592
57340SOL     OW72043  10.582   8.893  12.314
57340SOL    HW172044  10.629   8.906  12.401
57340SOL    HW272045  10.516   8.819  12.323
57341SOL     OW72046  10.892   8.087  11.644
57341SOL    HW172047  10.861   8.148  11.717
57341SOL    HW272048  10.942   8.139  11.575
57342SOL     OW72049   9.664   8.958  12.501
57342SOL    HW172050   9.643   8.914  12.414
57342SOL    HW272051   9.761   8.984  12.504
57343SOL     OW72052   9.712   8.199  12.770
57343SOL    HW172053   9.780   8.254  12.723
57343SOL    HW272054   9.752   8.111  12.797
57344SOL     OW72055  10.897   8.227  12.842
57344SOL    HW172056  10.805   8.265  12.837
57344SOL    HW272057  10.957   8.274  12.777
57345SOL     OW72058   9.883   8.318  12.201
57345SOL    HW172059   9.927   8.407  12.192
57345SOL    HW272060   9.820   8.318  12.278
57346SOL     OW72061  10.670   8.310  12.217
57346SOL    HW172062  10.595   8.310  12.151
57346SOL    HW272063  10.707   8.218  12.226
57347SOL     OW72064  10.519   7.973  11.447
57347SOL    HW172065  10.532   7.889  11.501
57347SOL    HW272066  10.490   8.047  11.507
57348SOL     OW72067   9.617   7.661  12.403
57348SOL    HW172068   9.594   7.698  12.493
57348SOL    HW272069   9.587   7.566  12.397
57349SOL     OW72070   9.347   8.758  12.454
57349SOL    HW172071   9.400   8.709  12.522
57349SOL    HW272072   9.369   8.856  12.459
57350SOL     OW72073  10.042   8.082  12.236
57350SOL    HW172074  10.101   8.056  12.160
57350SOL    HW272075  10.014   8.178  12.225
57351SOL     OW72076   9.617   7.511  11.790
57351SOL    HW172077   9.606   7.605  11.823
57351SOL    HW272078   9.612   7.448  11.867
57352SOL     OW72079  10.932   7.815  11.546
57352SOL    HW172080  10.934   7.739  11.610
57352SOL    HW272081  10.884   7.892  11.586
57353SOL     OW72082  10.333   8.214  12.138
57353SOL    HW172083  10.348   8.235  12.234
57353SOL    HW272084  10.303   8.119  12.129
57354SOL     OW72085  10.850   7.722  11.297
57354SOL    HW172086  10.789   7.647  11.320
57354SOL    HW272087  10.872   7.774  11.380
57355SOL     OW72088  10.613   8.286  11.214
57355SOL    HW172089  10.647   8.193  11.229
57355SOL    HW272090  10.631   8.313  11.119
57356SOL     OW72091  10.378   8.781  12.021
57356SOL    HW172092  10.385   8.697  11.966
57356SOL    HW272093  10.440   8.850  11.985
57357SOL     OW72094   9.629   8.258  12.121
57357SOL    HW172095   9.722   8.294  12.126
57357SOL    HW272096   9.623   8.173  12.173
57358SOL     OW72097   9.649   7.957  12.178
57358SOL    HW172098   9.597   7.874  12.161
57358SOL    HW272099   9.726   7.962  12.114
57359SOL     OW72100  10.470   7.655  12.649
57359SOL    HW172101  10.470   7.719  12.726
57359SOL    HW272102  10.498   7.703  12.566
57360SOL     OW72103   9.318   8.774  11.372
57360SOL    HW172104   9.225   8.795  11.341
57360SOL    HW272105   9.328   8.675  11.385
57361SOL     OW72106   9.398   9.249  12.099
57361SOL    HW172107   9.356   9.163  12.072
57361SOL    HW272108   9.492   9.252  12.065
57362SOL     OW72109   9.814   9.016  12.082
57362SOL    HW172110   9.880   9.090  12.091
57362SOL    HW272111   9.858   8.937  12.040
57363SOL     OW72112  10.312   8.244  12.410
57363SOL    HW172113  10.353   8.212  12.496
57363SOL    HW272114  10.216   8.217  12.407
57364SOL     OW72115   9.350   7.992  12.286
57364SOL    HW172116   9.435   7.959  12.245
57364SOL    HW272117   9.363   8.007  12.384
57365SOL     OW72118  10.125   8.020  11.497
57365SOL    HW172119  10.132   7.931  11.451
57365SOL    HW272120  10.031   8.054  11.489
57366SOL     OW72121  10.967   8.052  12.378
57366SOL    HW172122  10.929   7.983  12.440
57366SOL    HW272123  11.049   8.016  12.334
57367SOL     OW72124   9.562   9.012  12.916
57367SOL    HW172125   9.532   9.069  12.992
57367SOL    HW272126   9.555   8.915  12.942
57368SOL     OW72127   9.981   7.912  12.441
57368SOL    HW172128   9.947   7.823  12.411
57368SOL    HW272129  10.007   7.966  12.361
57369SOL     OW72130  10.240   9.126  12.637
57369SOL    HW172131  10.216   9.108  12.542
57369SOL    HW272132  10.270   9.220  12.647
57370SOL     OW72133   9.783   7.948  11.363
57370SOL    HW172134   9.844   8.028  11.367
57370SOL    HW272135   9.688   7.979  11.370
57371SOL     OW72136   9.469   8.585  12.638
57371SOL    HW172137   9.491   8.524  12.714
57371SOL    HW272138   9.479   8.536  12.552
57372SOL     OW72139  10.657   8.507  12.406
57372SOL    HW172140  10.681   8.444  12.332
57372SOL    HW272141  10.567   8.547  12.388
57373SOL     OW72142  10.612   8.303  11.481
57373SOL    HW172143  10.526   8.272  11.523
57373SOL    HW272144  10.608   8.289  11.382
57374SOL     OW72145  11.069   9.195  12.326
57374SOL    HW172146  11.130   9.225  12.253
57374SOL    HW272147  11.031   9.106  12.304
57375SOL     OW72148  10.562   9.179  12.300
57375SOL    HW172149  10.646   9.184  12.246
57375SOL    HW272150  10.539   9.083  12.318
57376SOL     OW72151   9.393   8.706  12.194
57376SOL    HW172152   9.388   8.705  12.294
57376SOL    HW272153   9.310   8.665  12.156
57377SOL     OW72154  11.036   7.583  11.695
57377SOL    HW172155  11.109   7.566  11.628
57377SOL    HW272156  11.005   7.496  11.733
57378SOL     OW72157  10.698   9.021  11.649
57378SOL    HW172158  10.765   9.033  11.575
57378SOL    HW272159  10.658   9.110  11.672
57379SOL     OW72160  10.590   8.375  11.844
57379SOL    HW172161  10.650   8.294  11.846
57379SOL    HW272162  10.630   8.444  11.784
57380SOL     OW72163  10.140   8.721  12.594
57380SOL    HW172164  10.135   8.754  12.689
57380SOL    HW272165  10.054   8.740  12.548
57381SOL     OW72166   9.982   9.064  11.326
57381SOL    HW172167   9.991   9.074  11.227
57381SOL    HW272168   9.942   8.975  11.347
57382SOL     OW72169  10.960   9.168  12.566
57382SOL    HW172170  11.013   9.178  12.482
57382SOL    HW272171  10.933   9.258  12.600
57383SOL     OW72172  11.151   7.623  12.135
57383SOL    HW172173  11.190   7.538  12.099
57383SOL    HW272174  11.053   7.625  12.116
57384SOL     OW72175   9.573   7.774  11.892
57384SOL    HW172176   9.494   7.825  11.858
57384SOL    HW272177   9.564   7.759  11.990
57385SOL     OW72178  10.504   9.060  11.203
57385SOL    HW172179  10.510   8.967  11.240
57385SOL    HW272180  10.445   9.060  11.123
57386SOL     OW72181  10.132   8.450  12.544
57386SOL    HW172182  10.172   8.449  12.452
57386SOL    HW272183  10.142   8.542  12.584
57387SOL     OW72184  10.226   8.358  11.463
57387SOL    HW172185  10.289   8.396  11.395
57387SOL    HW272186  10.266   8.275  11.502
57388SOL     OW72187  10.814   9.055  11.216
57388SOL    HW172188  10.722   9.092  11.223
57388SOL    HW272189  10.852   9.075  11.126
57389SOL     OW72190   9.682   8.736  12.662
57389SOL    HW172191   9.669   8.829  12.628
57389SOL    HW272192   9.598   8.684  12.649
57390SOL     OW72193  10.924   8.740  12.461
57390SOL    HW172194  10.984   8.743  12.541
57390SOL    HW272195  10.849   8.804  12.474
57391SOL     OW72196  10.349   8.546  11.868
57391SOL    HW172197  10.279   8.499  11.922
57391SOL    HW272198  10.408   8.478  11.825
57392SOL     OW72199  10.324   7.684  12.143
57392SOL    HW172200  10.316   7.648  12.050
57392SOL    HW272201  10.322   7.608  12.208
57393SOL     OW72202   9.900   8.935  11.663
57393SOL    HW172203   9.942   8.877  11.593
57393SOL    HW272204   9.856   9.014  11.619
57394SOL     OW72205  11.019   7.833  12.553
57394SOL    HW172206  11.092   7.902  12.557
57394SOL    HW272207  11.047   7.758  12.494
57395SOL     OW72208   9.565   8.796  11.462
57395SOL    HW172209   9.469   8.797  11.435
57395SOL    HW272210   9.577   8.849  11.546
57396SOL     OW72211   9.415   8.461  12.898
57396SOL    HW172212   9.338   8.428  12.952
57396SOL    HW272213   9.500   8.431  12.940
57397SOL     OW72214   9.982   7.651  12.661
57397SOL    HW172215  10.072   7.635  12.621
57397SOL    HW272216   9.990   7.656  12.760
57398SOL     OW72217   9.385   7.793  11.205
57398SOL    HW172218   9.293   7.765  11.176
57398SOL    HW272219   9.416   7.870  11.149
57399SOL     OW72220  10.750   8.304  12.570
57399SOL    HW172221  10.693   8.356  12.507
57399SOL    HW272222  10.846   8.316  12.546
57400SOL     OW72223   9.382   7.614  11.490
57400SOL    HW172224   9.365   7.697  11.436
57400SOL    HW272225   9.472   7.577  11.468
57401SOL     OW72226  10.493   8.783  11.291
57401SOL    HW172227  10.394   8.772  11.293
57401SOL    HW272228  10.527   8.798  11.384
57402SOL     OW72229   9.923   8.290  12.603
57402SOL    HW172230   9.979   8.371  12.586
57402SOL    HW272231   9.982   8.210  12.606
57403SOL     OW72232  10.803   9.215  12.131
57403SOL    HW172233  10.836   9.279  12.062
57403SOL    HW272234  10.869   9.209  12.206
57404SOL     OW72235  10.026   8.013  12.880
57404SOL    HW172236  10.045   8.078  12.954
57404SOL    HW272237  10.086   7.933  12.889
57405SOL     OW72238   9.700   9.189  12.732
57405SOL    HW172239   9.609   9.230  12.730
57405SOL    HW272240   9.693   9.095  12.764
57406SOL     OW72241  10.984   8.331  12.426
57406SOL    HW172242  10.957   8.242  12.389
57406SOL    HW272243  10.985   8.399  12.353
57407SOL     OW72244  10.535   7.773  11.621
57407SOL    HW172245  10.600   7.699  11.610
57407SOL    HW272246  10.555   7.823  11.705
57408SOL     OW72247   9.904   8.193  11.824
57408SOL    HW172248   9.954   8.278  11.805
57408SOL    HW272249   9.816   8.195  11.776
57409SOL     OW72250  11.087   7.790  12.814
57409SOL    HW172251  11.070   7.821  12.720
57409SOL    HW272252  11.003   7.753  12.852
57410SOL     OW72253  11.040   8.382  12.689
57410SOL    HW172254  11.078   8.473  12.704
57410SOL    HW272255  11.032   8.365  12.590
57411SOL     OW72256  10.169   8.822  11.188
57411SOL    HW172257  10.123   8.837  11.276
57411SOL    HW272258  10.213   8.907  11.158
57412SOL     OW72259   9.971   9.238  12.125
57412SOL    HW172260   9.925   9.326  12.112
57412SOL    HW272261  10.070   9.250  12.118
57413SOL     OW72262  10.169   8.404  12.033
57413SOL    HW172263  10.223   8.335  12.081
57413SOL    HW272264  10.137   8.473  12.099
57414SOL     OW72265  10.393   8.432  11.259
57414SOL    HW172266  10.370   8.485  11.177
57414SOL    HW272267  10.474   8.376  11.240
57415SOL     OW72268  11.171   9.017  12.023
57415SOL    HW172269  11.100   9.005  11.953
57415SOL    HW272270  11.172   8.938  12.083
57416SOL     OW72271   9.389   8.688  11.825
57416SOL    HW172272   9.388   8.641  11.913
57416SOL    HW272273   9.471   8.660  11.774
57417SOL     OW72274   9.982   8.839  12.796
57417SOL    HW172275   9.904   8.789  12.834
57417SOL    HW272276   9.979   8.934  12.827
57418SOL     OW72277  11.134   7.640  12.399
57418SOL    HW172278  11.130   7.550  12.443
57418SOL    HW272279  11.137   7.629  12.300
57419SOL     OW72280   9.738   7.872  11.692
57419SOL    HW172281   9.768   7.800  11.630
57419SOL    HW272282   9.699   7.832  11.775
57420SOL     OW72283  11.015   8.935  12.276
57420SOL    HW172284  10.922   8.910  12.249
57420SOL    HW272285  11.041   8.885  12.358
57421SOL     OW72286   9.627   7.995  12.452
57421SOL    HW172287   9.665   7.936  12.524
57421SOL    HW272288   9.667   7.969  12.364
57422SOL     OW72289  10.122   9.034  11.859
57422SOL    HW172290  10.154   9.044  11.765
57422SOL    HW272291  10.043   8.972  11.861
57423SOL     OW72292  10.734   7.662  12.284
57423SOL    HW172293  10.786   7.597  12.339
57423SOL    HW272294  10.685   7.725  12.345
57424SOL     OW72295  10.311   7.482  12.326
57424SOL    HW172296  10.248   7.410  12.295
57424SOL    HW272297  10.404   7.446  12.326
57425SOL     OW72298  10.080   8.778  11.473
57425SOL    HW172299  10.034   8.691  11.490
57425SOL    HW272300  10.171   8.775  11.514
57426SOL     OW72301   9.928   9.015  12.456
57426SOL    HW172302   9.923   9.097  12.513
57426SOL    HW272303  10.017   9.012  12.411
57427SOL     OW72304  10.662   7.500  11.340
57427SOL    HW172305  10.697   7.459  11.256
57427SOL    HW272306  10.572   7.462  11.360
57428SOL     OW72307  10.610   7.901  11.863
57428SOL    HW172308  10.551   7.981  11.867
57428SOL    HW272309  10.625   7.866  11.956
57429SOL     OW72310  10.903   7.669  12.054
57429SOL    HW172311  10.819   7.668  12.108
57429SOL    HW272312  10.905   7.752  11.998
57430SOL     OW72313   9.349   8.525  11.472
57430SOL    HW172314   9.448   8.514  11.463
57430SOL    HW272315   9.309   8.439  11.504
57431SOL     OW72316  10.185   9.094  11.509
57431SOL    HW172317  10.108   9.059  11.455
57431SOL    HW272318  10.153   9.165  11.571
57432SOL     OW72319   9.540   9.938   0.113
57432SOL    HW172320   9.447   9.936   0.150
57432SOL    HW272321   9.541   9.899   0.021
57433SOL     OW72322   9.535   9.585   0.996
57433SOL    HW172323   9.570   9.568   1.088
57433SOL    HW272324   9.447   9.540   0.984
57434SOL     OW72325   9.329   9.678   0.647
57434SOL    HW172326   9.247   9.721   0.686
57434SOL    HW272327   9.301   9.605   0.584
57435SOL     OW72328   9.879  10.585   1.165
57435SOL    HW172329   9.786  10.578   1.128
57435SOL    HW272330   9.890  10.674   1.209
57436SOL     OW72331  10.865  10.821   0.703
57436SOL    HW172332  10.808  10.805   0.784
57436SOL    HW272333  10.806  10.831   0.623
57437SOL     OW72334  10.445  10.013   0.717
57437SOL    HW172335  10.502  10.091   0.692
57437SOL    HW272336  10.385  10.039   0.793
57438SOL     OW72337  11.065   9.917   0.231
57438SOL    HW172338  11.053   9.904   0.132
57438SOL    HW272339  11.035   9.836   0.280
57439SOL     OW72340  10.078  10.454   1.023
57439SOL    HW172341  10.000  10.471   1.083
57439SOL    HW272342  10.112  10.541   0.987
57440SOL     OW72343  10.160  10.108   1.823
57440SOL    HW172344  10.156  10.184   1.888
57440SOL    HW272345  10.182  10.144   1.732
57441SOL     OW72346   9.995  10.322   0.665
57441SOL    HW172347  10.064  10.306   0.735
57441SOL    HW272348   9.922  10.379   0.703
57442SOL     OW72349   9.996  10.471   1.803
57442SOL    HW172350  10.056  10.550   1.817
57442SOL    HW272351   9.910  10.502   1.762
57443SOL     OW72352   9.645  10.745   1.061
57443SOL    HW172353   9.567  10.714   1.008
57443SOL    HW272354   9.703  10.803   1.004
57444SOL     OW72355  10.770  10.815   1.339
57444SOL    HW172356  10.794  10.909   1.365
57444SOL    HW272357  10.754  10.761   1.421
57445SOL     OW72358   9.748   9.702   1.499
57445SOL    HW172359   9.830   9.646   1.508
57445SOL    HW272360   9.667   9.644   1.503
57446SOL     OW72361  10.913   9.757   0.737
57446SOL    HW172362  10.839   9.803   0.687
57446SOL    HW272363  10.964   9.825   0.790
57447SOL     OW72364   9.541  11.023   0.483
57447SOL    HW172365   9.575  11.100   0.537
57447SOL    HW272366   9.585  11.023   0.393
57448SOL     OW72367  10.437  10.651   1.690
57448SOL    HW172368  10.484  10.651   1.778
57448SOL    HW272369  10.389  10.564   1.679
57449SOL     OW72370   9.540  10.744   0.538
57449SOL    HW172371   9.514  10.840   0.538
57449SOL    HW272372   9.469  10.690   0.583
57450SOL     OW72373   9.550  10.401   0.886
57450SOL    HW172374   9.564  10.317   0.938
57450SOL    HW272375   9.495  10.465   0.941
57451SOL     OW72376   9.930  11.096   1.439
57451SOL    HW172377   9.838  11.079   1.474
57451SOL    HW272378   9.958  11.188   1.465
57452SOL     OW72379   9.916  10.274   0.123
57452SOL    HW172380   9.923  10.358   0.069
57452SOL    HW272381   9.962  10.287   0.211
57453SOL     OW72382  10.904   9.424   1.480
57453SOL    HW172383  10.886   9.491   1.408
57453SOL    HW272384  10.901   9.470   1.569
57454SOL     OW72385   9.432   9.953   0.563
57454SOL    HW172386   9.387   9.865   0.580
57454SOL    HW272387   9.431  10.007   0.647
57455SOL     OW72388  11.152  11.077   0.359
57455SOL    HW172389  11.206  11.048   0.439
57455SOL    HW272390  11.182  11.167   0.330
57456SOL     OW72391   9.337  10.906   0.117
57456SOL    HW172392   9.318  10.810   0.138
57456SOL    HW272393   9.304  10.964   0.192
57457SOL     OW72394  10.999  10.232   0.612
57457SOL    HW172395  11.094  10.203   0.620
57457SOL    HW272396  10.991  10.297   0.537
57458SOL     OW72397  10.951  10.418   0.432
57458SOL    HW172398  11.037  10.420   0.380
57458SOL    HW272399  10.965  10.465   0.520
57459SOL     OW72400   9.423  10.047   1.597
57459SOL    HW172401   9.511  10.034   1.642
57459SOL    HW272402   9.410  10.144   1.575
57460SOL     OW72403   9.923  10.675   0.726
57460SOL    HW172404   9.874  10.588   0.735
57460SOL    HW272405   9.900  10.718   0.639
57461SOL     OW72406  10.603  10.538   1.423
57461SOL    HW172407  10.640  10.465   1.365
57461SOL    HW272408  10.655  10.543   1.508
57462SOL     OW72409  10.119   9.314   0.502
57462SOL    HW172410  10.159   9.405   0.493
57462SOL    HW272411  10.019   9.322   0.508
57463SOL     OW72412   9.507  10.286   1.264
57463SOL    HW172413   9.596  10.241   1.250
57463SOL    HW272414   9.434  10.221   1.245
57464SOL     OW72415  10.835  10.309   0.190
57464SOL    HW172416  10.772  10.233   0.203
57464SOL    HW272417  10.883  10.327   0.276
57465SOL     OW72418  10.497  11.102   1.616
57465SOL    HW172419  10.521  11.162   1.540
57465SOL    HW272420  10.504  11.007   1.586
57466SOL     OW72421   9.627   9.561   1.801
57466SOL    HW172422   9.698   9.632   1.807
57466SOL    HW272423   9.539   9.600   1.829
57467SOL     OW72424  10.776  10.727   0.953
57467SOL    HW172425  10.717  10.733   1.033
57467SOL    HW272426  10.761  10.639   0.907
57468SOL     OW72427  10.977  11.024   0.572
57468SOL    HW172428  10.936  11.001   0.484
57468SOL    HW272429  10.959  10.950   0.637
57469SOL     OW72430   9.908  10.039   0.270
57469SOL    HW172431   9.932  10.108   0.202
57469SOL    HW272432   9.830  10.072   0.324
57470SOL     OW72433  10.591   9.655   0.944
57470SOL    HW172434  10.505   9.605   0.931
57470SOL    HW272435  10.653   9.601   1.000
57471SOL     OW72436  10.886  10.972   0.307
57471SOL    HW172437  10.975  11.018   0.310
57471SOL    HW272438  10.865  10.948   0.212
57472SOL     OW72439  10.117   9.915   1.465
57472SOL    HW172440  10.070   9.912   1.554
57472SOL    HW272441  10.066   9.860   1.399
57473SOL     OW72442  10.704   9.779   1.674
57473SOL    HW172443  10.684   9.822   1.762
57473SOL    HW272444  10.782   9.717   1.683
57474SOL     OW72445  10.283  10.200   1.572
57474SOL    HW172446  10.329  10.116   1.543
57474SOL    HW272447  10.227  10.234   1.497
57475SOL     OW72448  10.301   9.720   1.242
57475SOL    HW172449  10.224   9.754   1.296
57475SOL    HW272450  10.267   9.669   1.163
57476SOL     OW72451  10.351  10.011   0.429
57476SOL    HW172452  10.377  10.007   0.525
57476SOL    HW272453  10.266   9.960   0.415
57477SOL     OW72454   9.386  10.121   0.789
57477SOL    HW172455   9.485  10.109   0.798
57477SOL    HW272456   9.362  10.216   0.810
57478SOL     OW72457   9.440  11.131   1.571
57478SOL    HW172458   9.430  11.116   1.670
57478SOL    HW272459   9.354  11.167   1.535
57479SOL     OW72460  10.175   9.658   0.195
57479SOL    HW172461  10.234   9.721   0.146
57479SOL    HW272462  10.194   9.564   0.166
57480SOL     OW72463  11.029   9.895   1.831
57480SOL    HW172464  11.003   9.984   1.795
57480SOL    HW272465  11.027   9.827   1.758
57481SOL     OW72466  10.672  10.454   0.545
57481SOL    HW172467  10.755  10.425   0.497
57481SOL    HW272468  10.623  10.521   0.489
57482SOL     OW72469   9.860   9.506   0.885
57482SOL    HW172470   9.855   9.501   0.985
57482SOL    HW272471   9.862   9.602   0.856
57483SOL     OW72472  10.318  10.766   0.477
57483SOL    HW172473  10.272  10.838   0.425
57483SOL    HW272474  10.314  10.786   0.575
57484SOL     OW72475   9.661  11.111   0.853
57484SOL    HW172476   9.711  11.025   0.859
57484SOL    HW272477   9.726  11.188   0.850
57485SOL     OW72478  11.105  10.376   0.873
57485SOL    HW172479  11.043  10.361   0.797
57485SOL    HW272480  11.053  10.387   0.958
57486SOL     OW72481  10.537  10.860   1.506
57486SOL    HW172482  10.543  10.783   1.570
57486SOL    HW272483  10.485  10.834   1.426
57487SOL     OW72484   9.631  10.253   0.242
57487SOL    HW172485   9.713  10.292   0.200
57487SOL    HW272486   9.604  10.171   0.193
57488SOL     OW72487  10.768  10.045   0.728
57488SOL    HW172488  10.763   9.980   0.803
57488SOL    HW272489  10.848  10.104   0.741
57489SOL     OW72490   9.771  10.576   1.727
57489SOL    HW172491   9.721  10.577   1.641
57489SOL    HW272492   9.708  10.558   1.803
57490SOL     OW72493  10.421  11.086   0.237
57490SOL    HW172494  10.361  11.024   0.287
57490SOL    HW272495  10.452  11.042   0.152
57491SOL     OW72496   9.512   9.595   1.498
57491SOL    HW172497   9.432   9.655   1.485
57491SOL    HW272498   9.502   9.546   1.584
57492SOL     OW72499  10.942  10.687   0.081
57492SOL    HW172500  10.910  10.781   0.071
57492SOL    HW272501  10.866  10.624   0.069
57493SOL     OW72502   9.774  11.053   0.323
57493SOL    HW172503   9.807  11.092   0.409
57493SOL    HW272504   9.850  11.046   0.258
57494SOL     OW72505  10.710   9.417   0.426
57494SOL    HW172506  10.686   9.380   0.336
57494SOL    HW272507  10.809   9.433   0.430
57495SOL     OW72508   9.559  11.095   1.241
57495SOL    HW172509   9.616  11.030   1.291
57495SOL    HW272510   9.543  11.062   1.148
57496SOL     OW72511  10.250  11.008   0.904
57496SOL    HW172512  10.330  10.951   0.925
57496SOL    HW272513  10.201  10.968   0.827
57497SOL     OW72514   9.692  10.010   0.480
57497SOL    HW172515   9.737   9.920   0.477
57497SOL    HW272516   9.598   9.999   0.513
57498SOL     OW72517  10.857   9.532   1.729
57498SOL    HW172518  10.852   9.569   1.821
57498SOL    HW272519  10.785   9.463   1.717
57499SOL     OW72520   9.924   9.432   0.117
57499SOL    HW172521  10.022   9.410   0.124
57499SOL    HW272522   9.893   9.415   0.024
57500SOL     OW72523  10.091   9.574   1.749
57500SOL    HW172524  10.158   9.513   1.792
57500SOL    HW272525  10.018   9.593   1.814
57501SOL     OW72526  10.198  10.824   1.195
57501SOL    HW172527  10.175  10.799   1.101
57501SOL    HW272528  10.259  10.755   1.234
57502SOL     OW72529  10.661   9.900   1.433
57502SOL    HW172530  10.689   9.857   1.518
57502SOL    HW272531  10.686   9.996   1.434
57503SOL     OW72532  10.113  10.712   0.924
57503SOL    HW172533  10.203  10.726   0.882
57503SOL    HW272534  10.042  10.714   0.853
57504SOL     OW72535  10.232   9.813   0.899
57504SOL    HW172536  10.207   9.804   0.803
57504SOL    HW272537  10.280   9.731   0.930
57505SOL     OW72538   9.849   9.374   0.512
57505SOL    HW172539   9.768   9.375   0.570
57505SOL    HW272540   9.852   9.457   0.457
57506SOL     OW72541  10.744  10.498   0.041
57506SOL    HW172542  10.776  10.422   0.098
57506SOL    HW272543  10.652  10.525   0.071
57507SOL     OW72544   9.607   9.345   0.171
57507SOL    HW172545   9.656   9.429   0.150
57507SOL    HW272546   9.669   9.280   0.216
57508SOL     OW72547  10.245   9.546   0.480
57508SOL    HW172548  10.197   9.587   0.402
57508SOL    HW272549  10.344   9.544   0.461
57509SOL     OW72550  10.386   9.993   1.464
57509SOL    HW172551  10.306   9.932   1.467
57509SOL    HW272552  10.467   9.940   1.440
57510SOL     OW72553  10.537  10.880   0.793
57510SOL    HW172554  10.558  10.954   0.728
57510SOL    HW272555  10.605  10.880   0.866
57511SOL     OW72556   9.769  10.462   0.741
57511SOL    HW172557   9.698  10.435   0.806
57511SOL    HW272558   9.743  10.434   0.648
57512SOL     OW72559  10.581  11.107   0.591
57512SOL    HW172560  10.625  11.171   0.527
57512SOL    HW272561  10.531  11.159   0.661
57513SOL     OW72562  10.342   9.859   0.016
57513SOL    HW172563  10.301   9.941  -0.023
57513SOL    HW272564  10.406   9.885   0.089
57514SOL     OW72565   9.388   9.866   1.386
57514SOL    HW172566   9.480   9.865   1.345
57514SOL    HW272567   9.382   9.940   1.453
57515SOL     OW72568   9.871   9.532   1.147
57515SOL    HW172569   9.909   9.448   1.184
57515SOL    HW272570   9.783   9.551   1.191
57516SOL     OW72571  10.176   9.764   0.642
57516SOL    HW172572  10.144   9.836   0.580
57516SOL    HW272573  10.200   9.683   0.589
57517SOL     OW72574  10.327   9.349   0.753
57517SOL    HW172575  10.255   9.354   0.684
57517SOL    HW272576  10.303   9.280   0.822
57518SOL     OW72577  10.739  10.483   0.867
57518SOL    HW172578  10.684  10.399   0.860
57518SOL    HW272579  10.765  10.512   0.775
57519SOL     OW72580  10.776   9.900   0.992
57519SOL    HW172581  10.746   9.805   0.999
57519SOL    HW272582  10.849   9.916   1.058
57520SOL     OW72583  11.167  10.143   0.377
57520SOL    HW172584  11.209  10.079   0.441
57520SOL    HW272585  11.129  10.092   0.299
57521SOL     OW72586   9.798  10.695   0.174
57521SOL    HW172587   9.711  10.680   0.221
57521SOL    HW272588   9.781  10.721   0.079
57522SOL     OW72589  10.974  10.590   0.657
57522SOL    HW172590  11.073  10.598   0.671
57522SOL    HW272591  10.929  10.674   0.688
57523SOL     OW72592  10.700   9.885   0.078
57523SOL    HW172593  10.646   9.864   0.159
57523SOL    HW272594  10.791   9.844   0.087
57524SOL     OW72595   9.837   9.566   0.328
57524SOL    HW172596   9.864   9.507   0.253
57524SOL    HW272597   9.837   9.661   0.297
57525SOL     OW72598  11.064  10.533   1.588
57525SOL    HW172599  11.155  10.494   1.575
57525SOL    HW272600  11.072  10.629   1.612
57526SOL     OW72601  10.374  10.657   1.340
57526SOL    HW172602  10.294  10.634   1.395
57526SOL    HW272603  10.457  10.631   1.389
57527SOL     OW72604  10.902  10.939   1.625
57527SOL    HW172605  10.929  10.973   1.535
57527SOL    HW272606  10.981  10.901   1.671
57528SOL     OW72607  10.421  10.505   1.100
57528SOL    HW172608  10.381  10.549   1.181
57528SOL    HW272609  10.380  10.542   1.017
57529SOL     OW72610  10.948  10.409   1.079
57529SOL    HW172611  10.953  10.490   1.138
57529SOL    HW272612  10.862  10.411   1.028
57530SOL     OW72613  10.225   9.399   1.402
57530SOL    HW172614  10.250   9.379   1.307
57530SOL    HW272615  10.297   9.455   1.444
57531SOL     OW72616  10.290  10.426   1.719
57531SOL    HW172617  10.191  10.432   1.729
57531SOL    HW272618  10.313  10.346   1.663
57532SOL     OW72619  10.015  10.360   0.368
57532SOL    HW172620  10.001  10.367   0.467
57532SOL    HW272621  10.099  10.309   0.350
57533SOL     OW72622   9.720  10.123   1.251
57533SOL    HW172623   9.806  10.135   1.301
57533SOL    HW272624   9.678  10.036   1.278
57534SOL     OW72625  10.584   9.696   1.262
57534SOL    HW172626  10.605   9.770   1.326
57534SOL    HW272627  10.495   9.713   1.219
57535SOL     OW72628   9.374  10.874   1.331
57535SOL    HW172629   9.328  10.956   1.297
57535SOL    HW272630   9.472  10.893   1.340
57536SOL     OW72631   9.677  10.410   0.501
57536SOL    HW172632   9.670  10.493   0.445
57536SOL    HW272633   9.681  10.330   0.441
57537SOL     OW72634   9.876   9.847   0.865
57537SOL    HW172635   9.888   9.913   0.791
57537SOL    HW272636   9.922   9.881   0.948
57538SOL     OW72637  10.562  10.658   0.388
57538SOL    HW172638  10.612  10.735   0.428
57538SOL    HW272639  10.467  10.660   0.420
57539SOL     OW72640  10.582  10.755   1.142
57539SOL    HW172641  10.629  10.768   1.229
57539SOL    HW272642  10.516  10.681   1.151
57540SOL     OW72643  10.892   9.949   0.472
57540SOL    HW172644  10.861  10.010   0.545
57540SOL    HW272645  10.942  10.001   0.403
57541SOL     OW72646   9.664  10.820   1.329
57541SOL    HW172647   9.643  10.776   1.242
57541SOL    HW272648   9.761  10.846   1.332
57542SOL     OW72649   9.712  10.061   1.598
57542SOL    HW172650   9.780  10.116   1.551
57542SOL    HW272651   9.752   9.973   1.625
57543SOL     OW72652  10.897  10.089   1.670
57543SOL    HW172653  10.805  10.127   1.665
57543SOL    HW272654  10.957  10.136   1.605
57544SOL     OW72655  10.323   9.415   1.770
57544SOL    HW172656  10.329   9.500   1.718
57544SOL    HW272657  10.355   9.339   1.713
57545SOL     OW72658   9.814   9.360   1.740
57545SOL    HW172659   9.772   9.303   1.670
57545SOL    HW272660   9.748   9.429   1.772
57546SOL     OW72661   9.883  10.180   1.029
57546SOL    HW172662   9.927  10.269   1.020
57546SOL    HW272663   9.820  10.180   1.106
57547SOL     OW72664  10.670  10.172   1.045
57547SOL    HW172665  10.595  10.172   0.979
57547SOL    HW272666  10.707  10.080   1.054
57548SOL     OW72667  10.519   9.835   0.275
57548SOL    HW172668  10.532   9.751   0.329
57548SOL    HW272669  10.490   9.909   0.335
57549SOL     OW72670   9.617   9.523   1.231
57549SOL    HW172671   9.594   9.560   1.321
57549SOL    HW272672   9.587   9.428   1.225
57550SOL     OW72673   9.347  10.620   1.282
57550SOL    HW172674   9.400  10.571   1.350
57550SOL    HW272675   9.369  10.718   1.287
57551SOL     OW72676  10.042   9.944   1.064
57551SOL    HW172677  10.101   9.918   0.988
57551SOL    HW272678  10.014  10.040   1.053
57552SOL     OW72679  11.038  10.245   1.854
57552SOL    HW172680  10.992  10.238   1.765
57552SOL    HW272681  10.976  10.289   1.920
57553SOL     OW72682   9.617   9.373   0.618
57553SOL    HW172683   9.606   9.467   0.651
57553SOL    HW272684   9.612   9.310   0.695
57554SOL     OW72685  10.932   9.677   0.374
57554SOL    HW172686  10.934   9.601   0.438
57554SOL    HW272687  10.884   9.754   0.414
57555SOL     OW72688  10.333  10.076   0.966
57555SOL    HW172689  10.348  10.097   1.062
57555SOL    HW272690  10.303   9.981   0.957
57556SOL     OW72691  10.290  10.883   1.700
57556SOL    HW172692  10.270  10.927   1.612
57556SOL    HW272693  10.329  10.792   1.684
57557SOL     OW72694  11.169  10.828   1.605
57557SOL    HW172695  11.183  10.855   1.510
57557SOL    HW272696  11.252  10.850   1.658
57558SOL     OW72697   9.660  10.208   1.804
57558SOL    HW172698   9.736  10.252   1.852
57558SOL    HW272699   9.695  10.161   1.722
57559SOL     OW72700  10.850   9.584   0.125
57559SOL    HW172701  10.789   9.509   0.148
57559SOL    HW272702  10.872   9.636   0.208
57560SOL     OW72703  10.613  10.148   0.042
57560SOL    HW172704  10.647  10.055   0.057
57560SOL    HW272705  10.631  10.175  -0.053
57561SOL     OW72706  10.378  10.643   0.849
57561SOL    HW172707  10.385  10.559   0.794
57561SOL    HW272708  10.440  10.712   0.813
57562SOL     OW72709   9.629  10.120   0.949
57562SOL    HW172710   9.722  10.156   0.954
57562SOL    HW272711   9.623  10.035   1.001
57563SOL     OW72712   9.649   9.819   1.006
57563SOL    HW172713   9.597   9.736   0.989
57563SOL    HW272714   9.726   9.824   0.942
57564SOL     OW72715  10.448   9.690   1.678
57564SOL    HW172716  10.403   9.753   1.742
57564SOL    HW272717  10.541   9.721   1.661
57565SOL     OW72718  10.470   9.517   1.477
57565SOL    HW172719  10.470   9.581   1.554
57565SOL    HW272720  10.498   9.565   1.394
57566SOL     OW72721   9.318  10.636   0.200
57566SOL    HW172722   9.225  10.657   0.169
57566SOL    HW272723   9.328  10.537   0.213
57567SOL     OW72724   9.398  11.111   0.927
57567SOL    HW172725   9.356  11.025   0.900
57567SOL    HW272726   9.492  11.114   0.893
57568SOL     OW72727   9.814  10.878   0.910
57568SOL    HW172728   9.880  10.952   0.919
57568SOL    HW272729   9.858  10.799   0.868
57569SOL     OW72730  10.312  10.106   1.238
57569SOL    HW172731  10.353  10.074   1.324
57569SOL    HW272732  10.216  10.079   1.235
57570SOL     OW72733   9.350   9.854   1.114
57570SOL    HW172734   9.435   9.821   1.073
57570SOL    HW272735   9.363   9.869   1.212
57571SOL     OW72736   9.499   9.830   1.722
57571SOL    HW172737   9.558   9.790   1.652
57571SOL    HW272738   9.441   9.901   1.681
57572SOL     OW72739  10.679  10.260   1.660
57572SOL    HW172740  10.718  10.349   1.680
57572SOL    HW272741  10.689  10.240   1.563
57573SOL     OW72742  10.125   9.882   0.325
57573SOL    HW172743  10.132   9.793   0.279
57573SOL    HW272744  10.031   9.916   0.317
57574SOL     OW72745  10.967   9.914   1.206
57574SOL    HW172746  10.929   9.845   1.268
57574SOL    HW272747  11.049   9.878   1.162
57575SOL     OW72748   9.562  10.874   1.744
57575SOL    HW172749   9.532  10.931   1.820
57575SOL    HW272750   9.555  10.777   1.770
57576SOL     OW72751   9.981   9.774   1.269
57576SOL    HW172752   9.947   9.685   1.239
57576SOL    HW272753  10.007   9.828   1.189
57577SOL     OW72754  10.240  10.988   1.465
57577SOL    HW172755  10.216  10.970   1.370
57577SOL    HW272756  10.270  11.082   1.475
57578SOL     OW72757   9.783   9.810   0.191
57578SOL    HW172758   9.844   9.890   0.195
57578SOL    HW272759   9.688   9.841   0.198
57579SOL     OW72760   9.469  10.447   1.466
57579SOL    HW172761   9.491  10.386   1.542
57579SOL    HW272762   9.479  10.398   1.380
57580SOL     OW72763  10.657  10.369   1.234
57580SOL    HW172764  10.681  10.306   1.160
57580SOL    HW272765  10.567  10.409   1.216
57581SOL     OW72766  10.612  10.165   0.309
57581SOL    HW172767  10.526  10.134   0.351
57581SOL    HW272768  10.608  10.151   0.210
57582SOL     OW72769  11.069  11.057   1.154
57582SOL    HW172770  11.130  11.087   1.081
57582SOL    HW272771  11.031  10.968   1.132
57583SOL     OW72772  10.562  11.041   1.128
57583SOL    HW172773  10.646  11.046   1.074
57583SOL    HW272774  10.539  10.945   1.146
57584SOL     OW72775   9.393  10.568   1.022
57584SOL    HW172776   9.388  10.567   1.122
57584SOL    HW272777   9.310  10.527   0.984
57585SOL     OW72778   9.998  10.972   1.716
57585SOL    HW172779   9.942  11.053   1.725
57585SOL    HW272780  10.050  10.976   1.630
57586SOL     OW72781  10.213   9.396   0.133
57586SOL    HW172782  10.264   9.397   0.047
57586SOL    HW272783  10.269   9.354   0.204
57587SOL     OW72784  11.036   9.445   0.523
57587SOL    HW172785  11.109   9.428   0.456
57587SOL    HW272786  11.005   9.358   0.561
57588SOL     OW72787  10.698  10.883   0.477
57588SOL    HW172788  10.765  10.895   0.403
57588SOL    HW272789  10.658  10.972   0.500
57589SOL     OW72790   9.440  11.104   1.851
57589SOL    HW172791   9.399  11.030   1.904
57589SOL    HW272792   9.504  11.155   1.909
57590SOL     OW72793  10.590  10.237   0.672
57590SOL    HW172794  10.650  10.156   0.674
57590SOL    HW272795  10.630  10.306   0.612
57591SOL     OW72796  10.140  10.583   1.422
57591SOL    HW172797  10.135  10.616   1.517
57591SOL    HW272798  10.054  10.602   1.376
57592SOL     OW72799   9.982  10.926   0.154
57592SOL    HW172800   9.991  10.936   0.055
57592SOL    HW272801   9.942  10.837   0.175
57593SOL     OW72802  10.960  11.030   1.394
57593SOL    HW172803  11.013  11.040   1.310
57593SOL    HW272804  10.933  11.120   1.428
57594SOL     OW72805  11.151   9.485   0.963
57594SOL    HW172806  11.190   9.400   0.927
57594SOL    HW272807  11.053   9.487   0.944
57595SOL     OW72808   9.573   9.636   0.720
57595SOL    HW172809   9.494   9.687   0.686
57595SOL    HW272810   9.564   9.621   0.818
57596SOL     OW72811  10.504  10.922   0.031
57596SOL    HW172812  10.510  10.829   0.068
57596SOL    HW272813  10.445  10.922  -0.049
57597SOL     OW72814  10.132  10.312   1.372
57597SOL    HW172815  10.172  10.311   1.280
57597SOL    HW272816  10.142  10.404   1.412
57598SOL     OW72817  10.226  10.220   0.291
57598SOL    HW172818  10.289  10.258   0.223
57598SOL    HW272819  10.266  10.137   0.330
57599SOL     OW72820  10.814  10.917   0.044
57599SOL    HW172821  10.722  10.954   0.051
57599SOL    HW272822  10.852  10.937  -0.046
57600SOL     OW72823   9.682  10.598   1.490
57600SOL    HW172824   9.669  10.691   1.456
57600SOL    HW272825   9.598  10.546   1.477
57601SOL     OW72826  10.924  10.602   1.289
57601SOL    HW172827  10.984  10.605   1.369
57601SOL    HW272828  10.849  10.666   1.302
57602SOL     OW72829  10.349  10.408   0.696
57602SOL    HW172830  10.279  10.361   0.750
57602SOL    HW272831  10.408  10.340   0.653
57603SOL     OW72832  10.324   9.546   0.971
57603SOL    HW172833  10.316   9.510   0.878
57603SOL    HW272834  10.322   9.470   1.036
57604SOL     OW72835   9.900  10.797   0.491
57604SOL    HW172836   9.942  10.739   0.421
57604SOL    HW272837   9.856  10.876   0.447
57605SOL     OW72838  11.019   9.695   1.381
57605SOL    HW172839  11.092   9.764   1.385
57605SOL    HW272840  11.047   9.620   1.322
57606SOL     OW72841   9.565  10.658   0.290
57606SOL    HW172842   9.469  10.659   0.263
57606SOL    HW272843   9.577  10.711   0.374
57607SOL     OW72844   9.415  10.323   1.726
57607SOL    HW172845   9.338  10.290   1.780
57607SOL    HW272846   9.500  10.293   1.768
57608SOL     OW72847   9.982   9.513   1.489
57608SOL    HW172848  10.072   9.497   1.449
57608SOL    HW272849   9.990   9.518   1.588
57609SOL     OW72850   9.385   9.655   0.033
57609SOL    HW172851   9.293   9.627   0.004
57609SOL    HW272852   9.416   9.732  -0.023
57610SOL     OW72853  10.750  10.166   1.398
57610SOL    HW172854  10.693  10.218   1.335
57610SOL    HW272855  10.846  10.178   1.374
57611SOL     OW72856   9.382   9.476   0.318
57611SOL    HW172857   9.365   9.559   0.264
57611SOL    HW272858   9.472   9.439   0.296
57612SOL     OW72859  10.493  10.645   0.119
57612SOL    HW172860  10.394  10.634   0.121
57612SOL    HW272861  10.527  10.660   0.212
57613SOL     OW72862   9.923  10.152   1.431
57613SOL    HW172863   9.979  10.233   1.414
57613SOL    HW272864   9.982  10.072   1.434
57614SOL     OW72865  10.803  11.077   0.959
57614SOL    HW172866  10.836  11.141   0.890
57614SOL    HW272867  10.869  11.071   1.034
57615SOL     OW72868  10.026   9.875   1.708
57615SOL    HW172869  10.045   9.940   1.782
57615SOL    HW272870  10.086   9.795   1.717
57616SOL     OW72871  10.760  10.530   1.633
57616SOL    HW172872  10.751  10.520   1.732
57616SOL    HW272873  10.856  10.523   1.607
57617SOL     OW72874   9.700  11.051   1.560
57617SOL    HW172875   9.609  11.092   1.558
57617SOL    HW272876   9.693  10.957   1.592
57618SOL     OW72877  10.984  10.193   1.254
57618SOL    HW172878  10.957  10.104   1.217
57618SOL    HW272879  10.985  10.261   1.181
57619SOL     OW72880  10.535   9.635   0.449
57619SOL    HW172881  10.600   9.561   0.438
57619SOL    HW272882  10.555   9.685   0.533
57620SOL     OW72883   9.904  10.055   0.652
57620SOL    HW172884   9.954  10.140   0.633
57620SOL    HW272885   9.816  10.057   0.604
57621SOL     OW72886  11.087   9.652   1.642
57621SOL    HW172887  11.070   9.683   1.548
57621SOL    HW272888  11.003   9.615   1.680
57622SOL     OW72889  11.040  10.244   1.517
57622SOL    HW172890  11.078  10.335   1.532
57622SOL    HW272891  11.032  10.227   1.418
57623SOL     OW72892  10.169  10.684   0.016
57623SOL    HW172893  10.123  10.699   0.104
57623SOL    HW272894  10.213  10.769  -0.014
57624SOL     OW72895   9.971  11.100   0.953
57624SOL    HW172896   9.925  11.188   0.940
57624SOL    HW272897  10.070  11.112   0.946
57625SOL     OW72898  10.169  10.266   0.861
57625SOL    HW172899  10.223  10.197   0.909
57625SOL    HW272900  10.137  10.335   0.927
57626SOL     OW72901  10.393  10.294   0.087
57626SOL    HW172902  10.370  10.347   0.005
57626SOL    HW272903  10.474  10.238   0.068
57627SOL     OW72904  11.171  10.879   0.851
57627SOL    HW172905  11.100  10.867   0.781
57627SOL    HW272906  11.172  10.800   0.911
57628SOL     OW72907   9.531  10.624   1.844
57628SOL    HW172908   9.466  10.551   1.823
57628SOL    HW272909   9.535  10.638   1.942
57629SOL     OW72910   9.389  10.550   0.653
57629SOL    HW172911   9.388  10.503   0.741
57629SOL    HW272912   9.471  10.522   0.602
57630SOL     OW72913   9.982  10.701   1.624
57630SOL    HW172914   9.904  10.651   1.662
57630SOL    HW272915   9.979  10.796   1.655
57631SOL     OW72916  11.134   9.502   1.227
57631SOL    HW172917  11.130   9.412   1.271
57631SOL    HW272918  11.137   9.491   1.128
57632SOL     OW72919   9.738   9.734   0.520
57632SOL    HW172920   9.768   9.662   0.458
57632SOL    HW272921   9.699   9.694   0.603
57633SOL     OW72922  11.015  10.797   1.104
57633SOL    HW172923  10.922  10.772   1.077
57633SOL    HW272924  11.041  10.747   1.186
57634SOL     OW72925   9.627   9.857   1.280
57634SOL    HW172926   9.665   9.798   1.352
57634SOL    HW272927   9.667   9.831   1.192
57635SOL     OW72928  10.122  10.896   0.687
57635SOL    HW172929  10.154  10.906   0.593
57635SOL    HW272930  10.043  10.834   0.689
57636SOL     OW72931  10.734   9.524   1.112
57636SOL    HW172932  10.786   9.459   1.167
57636SOL    HW272933  10.685   9.587   1.173
57637SOL     OW72934  10.311   9.344   1.154
57637SOL    HW172935  10.248   9.272   1.123
57637SOL    HW272936  10.404   9.308   1.154
57638SOL     OW72937  10.080  10.640   0.301
57638SOL    HW172938  10.034  10.553   0.318
57638SOL    HW272939  10.171  10.637   0.342
57639SOL     OW72940   9.928  10.877   1.284
57639SOL    HW172941   9.923  10.959   1.341
57639SOL    HW272942  10.017  10.874   1.239
57640SOL     OW72943  10.662   9.362   0.168
57640SOL    HW172944  10.697   9.321   0.084
57640SOL    HW272945  10.572   9.324   0.188
57641SOL     OW72946  10.610   9.763   0.691
57641SOL    HW172947  10.551   9.843   0.695
57641SOL    HW272948  10.625   9.728   0.784
57642SOL     OW72949  10.903   9.531   0.882
57642SOL    HW172950  10.819   9.530   0.936
57642SOL    HW272951  10.905   9.614   0.826
57643SOL     OW72952   9.349  10.387   0.300
57643SOL    HW172953   9.448  10.376   0.291
57643SOL    HW272954   9.309  10.301   0.332
57644SOL     OW72955  10.185  10.956   0.337
57644SOL    HW172956  10.108  10.921   0.283
57644SOL    HW272957  10.153  11.027   0.399
57645SOL     OW72958   9.540   9.938   1.975
57645SOL    HW172959   9.447   9.936   2.012
57645SOL    HW272960   9.541   9.899   1.883
57646SOL     OW72961   9.535   9.585   2.858
57646SOL    HW172962   9.570   9.568   2.950
57646SOL    HW272963   9.447   9.540   2.846
57647SOL     OW72964   9.329   9.678   2.509
57647SOL    HW172965   9.247   9.721   2.548
57647SOL    HW272966   9.301   9.605   2.446
57648SOL     OW72967   9.879  10.585   3.027
57648SOL    HW172968   9.786  10.578   2.990
57648SOL    HW272969   9.890  10.674   3.071
57649SOL     OW72970  10.865  10.821   2.565
57649SOL    HW172971  10.808  10.805   2.646
57649SOL    HW272972  10.806  10.831   2.485
57650SOL     OW72973  10.445  10.013   2.579
57650SOL    HW172974  10.502  10.091   2.554
57650SOL    HW272975  10.385  10.039   2.655
57651SOL     OW72976  11.065   9.917   2.093
57651SOL    HW172977  11.053   9.904   1.994
57651SOL    HW272978  11.035   9.836   2.142
57652SOL     OW72979  10.078  10.454   2.885
57652SOL    HW172980  10.000  10.471   2.945
57652SOL    HW272981  10.112  10.541   2.849
57653SOL     OW72982  10.160  10.108   3.685
57653SOL    HW172983  10.156  10.184   3.750
57653SOL    HW272984  10.182  10.144   3.594
57654SOL     OW72985   9.995  10.322   2.527
57654SOL    HW172986  10.064  10.306   2.597
57654SOL    HW272987   9.922  10.379   2.565
57655SOL     OW72988   9.996  10.471   3.665
57655SOL    HW172989  10.056  10.550   3.679
57655SOL    HW272990   9.910  10.502   3.624
57656SOL     OW72991   9.645  10.745   2.923
57656SOL    HW172992   9.567  10.714   2.870
57656SOL    HW272993   9.703  10.803   2.866
57657SOL     OW72994  10.770  10.815   3.201
57657SOL    HW172995  10.794  10.909   3.227
57657SOL    HW272996  10.754  10.761   3.283
57658SOL     OW72997   9.748   9.702   3.361
57658SOL    HW172998   9.830   9.646   3.370
57658SOL    HW272999   9.667   9.644   3.365
57659SOL     OW73000  10.913   9.757   2.599
57659SOL    HW173001  10.839   9.803   2.549
57659SOL    HW273002  10.964   9.825   2.652
57660SOL     OW73003   9.541  11.023   2.345
57660SOL    HW173004   9.575  11.100   2.399
57660SOL    HW273005   9.585  11.023   2.255
57661SOL     OW73006  10.437  10.651   3.552
57661SOL    HW173007  10.484  10.651   3.640
57661SOL    HW273008  10.389  10.564   3.541
57662SOL     OW73009   9.540  10.744   2.400
57662SOL    HW173010   9.514  10.840   2.400
57662SOL    HW273011   9.469  10.690   2.445
57663SOL     OW73012   9.550  10.401   2.748
57663SOL    HW173013   9.564  10.317   2.800
57663SOL    HW273014   9.495  10.465   2.803
57664SOL     OW73015   9.930  11.096   3.301
57664SOL    HW173016   9.838  11.079   3.336
57664SOL    HW273017   9.958  11.188   3.327
57665SOL     OW73018   9.916  10.274   1.985
57665SOL    HW173019   9.923  10.358   1.931
57665SOL    HW273020   9.962  10.287   2.073
57666SOL     OW73021  10.904   9.424   3.342
57666SOL    HW173022  10.886   9.491   3.270
57666SOL    HW273023  10.901   9.470   3.431
57667SOL     OW73024   9.432   9.953   2.425
57667SOL    HW173025   9.387   9.865   2.442
57667SOL    HW273026   9.431  10.007   2.509
57668SOL     OW73027  11.152  11.077   2.221
57668SOL    HW173028  11.206  11.048   2.301
57668SOL    HW273029  11.182  11.167   2.192
57669SOL     OW73030   9.337  10.906   1.979
57669SOL    HW173031   9.318  10.810   2.000
57669SOL    HW273032   9.304  10.964   2.054
57670SOL     OW73033  10.999  10.232   2.474
57670SOL    HW173034  11.094  10.203   2.482
57670SOL    HW273035  10.991  10.297   2.399
57671SOL     OW73036  10.951  10.418   2.294
57671SOL    HW173037  11.037  10.420   2.242
57671SOL    HW273038  10.965  10.465   2.382
57672SOL     OW73039   9.423  10.047   3.459
57672SOL    HW173040   9.511  10.034   3.504
57672SOL    HW273041   9.410  10.144   3.437
57673SOL     OW73042   9.923  10.675   2.588
57673SOL    HW173043   9.874  10.588   2.597
57673SOL    HW273044   9.900  10.718   2.501
57674SOL     OW73045  10.603  10.538   3.285
57674SOL    HW173046  10.640  10.465   3.227
57674SOL    HW273047  10.655  10.543   3.370
57675SOL     OW73048  10.119   9.314   2.364
57675SOL    HW173049  10.159   9.405   2.355
57675SOL    HW273050  10.019   9.322   2.370
57676SOL     OW73051   9.507  10.286   3.126
57676SOL    HW173052   9.596  10.241   3.112
57676SOL    HW273053   9.434  10.221   3.107
57677SOL     OW73054  10.835  10.309   2.052
57677SOL    HW173055  10.772  10.233   2.065
57677SOL    HW273056  10.883  10.327   2.138
57678SOL     OW73057  10.497  11.102   3.478
57678SOL    HW173058  10.521  11.162   3.402
57678SOL    HW273059  10.504  11.007   3.448
57679SOL     OW73060   9.627   9.561   3.663
57679SOL    HW173061   9.698   9.632   3.669
57679SOL    HW273062   9.539   9.600   3.691
57680SOL     OW73063  10.776  10.727   2.815
57680SOL    HW173064  10.717  10.733   2.895
57680SOL    HW273065  10.761  10.639   2.769
57681SOL     OW73066  10.977  11.024   2.434
57681SOL    HW173067  10.936  11.001   2.346
57681SOL    HW273068  10.959  10.950   2.499
57682SOL     OW73069   9.908  10.039   2.132
57682SOL    HW173070   9.932  10.108   2.064
57682SOL    HW273071   9.830  10.072   2.186
57683SOL     OW73072  10.591   9.655   2.806
57683SOL    HW173073  10.505   9.605   2.793
57683SOL    HW273074  10.653   9.601   2.862
57684SOL     OW73075  10.886  10.972   2.169
57684SOL    HW173076  10.975  11.018   2.172
57684SOL    HW273077  10.865  10.948   2.074
57685SOL     OW73078  10.117   9.915   3.327
57685SOL    HW173079  10.070   9.912   3.416
57685SOL    HW273080  10.066   9.860   3.261
57686SOL     OW73081  10.704   9.779   3.536
57686SOL    HW173082  10.684   9.822   3.624
57686SOL    HW273083  10.782   9.717   3.545
57687SOL     OW73084  10.283  10.200   3.434
57687SOL    HW173085  10.329  10.116   3.405
57687SOL    HW273086  10.227  10.234   3.359
57688SOL     OW73087  10.301   9.720   3.104
57688SOL    HW173088  10.224   9.754   3.158
57688SOL    HW273089  10.267   9.669   3.025
57689SOL     OW73090  10.351  10.011   2.291
57689SOL    HW173091  10.377  10.007   2.387
57689SOL    HW273092  10.266   9.960   2.277
57690SOL     OW73093   9.386  10.121   2.651
57690SOL    HW173094   9.485  10.109   2.660
57690SOL    HW273095   9.362  10.216   2.672
57691SOL     OW73096   9.440  11.131   3.433
57691SOL    HW173097   9.430  11.116   3.532
57691SOL    HW273098   9.354  11.167   3.397
57692SOL     OW73099  10.175   9.658   2.057
57692SOL    HW173100  10.234   9.721   2.008
57692SOL    HW273101  10.194   9.564   2.028
57693SOL     OW73102  11.029   9.895   3.693
57693SOL    HW173103  11.003   9.984   3.657
57693SOL    HW273104  11.027   9.827   3.620
57694SOL     OW73105  10.672  10.454   2.407
57694SOL    HW173106  10.755  10.425   2.359
57694SOL    HW273107  10.623  10.521   2.351
57695SOL     OW73108   9.860   9.506   2.747
57695SOL    HW173109   9.855   9.501   2.847
57695SOL    HW273110   9.862   9.602   2.718
57696SOL     OW73111  10.318  10.766   2.339
57696SOL    HW173112  10.272  10.838   2.287
57696SOL    HW273113  10.314  10.786   2.437
57697SOL     OW73114   9.661  11.111   2.715
57697SOL    HW173115   9.711  11.025   2.721
57697SOL    HW273116   9.726  11.188   2.712
57698SOL     OW73117  11.105  10.376   2.735
57698SOL    HW173118  11.043  10.361   2.659
57698SOL    HW273119  11.053  10.387   2.820
57699SOL     OW73120  10.537  10.860   3.368
57699SOL    HW173121  10.543  10.783   3.432
57699SOL    HW273122  10.485  10.834   3.288
57700SOL     OW73123   9.631  10.253   2.104
57700SOL    HW173124   9.713  10.292   2.062
57700SOL    HW273125   9.604  10.171   2.055
57701SOL     OW73126  10.768  10.045   2.590
57701SOL    HW173127  10.763   9.980   2.665
57701SOL    HW273128  10.848  10.104   2.603
57702SOL     OW73129   9.771  10.576   3.589
57702SOL    HW173130   9.721  10.577   3.503
57702SOL    HW273131   9.708  10.558   3.665
57703SOL     OW73132  10.421  11.086   2.099
57703SOL    HW173133  10.361  11.024   2.149
57703SOL    HW273134  10.452  11.042   2.014
57704SOL     OW73135   9.512   9.595   3.360
57704SOL    HW173136   9.432   9.655   3.347
57704SOL    HW273137   9.502   9.546   3.446
57705SOL     OW73138  10.942  10.687   1.943
57705SOL    HW173139  10.910  10.781   1.933
57705SOL    HW273140  10.866  10.624   1.931
57706SOL     OW73141   9.774  11.053   2.185
57706SOL    HW173142   9.807  11.092   2.271
57706SOL    HW273143   9.850  11.046   2.120
57707SOL     OW73144  10.710   9.417   2.288
57707SOL    HW173145  10.686   9.380   2.198
57707SOL    HW273146  10.809   9.433   2.292
57708SOL     OW73147   9.559  11.095   3.103
57708SOL    HW173148   9.616  11.030   3.153
57708SOL    HW273149   9.543  11.062   3.010
57709SOL     OW73150  10.250  11.008   2.766
57709SOL    HW173151  10.330  10.951   2.787
57709SOL    HW273152  10.201  10.968   2.689
57710SOL     OW73153   9.692  10.010   2.342
57710SOL    HW173154   9.737   9.920   2.339
57710SOL    HW273155   9.598   9.999   2.375
57711SOL     OW73156  10.857   9.532   3.591
57711SOL    HW173157  10.852   9.569   3.683
57711SOL    HW273158  10.785   9.463   3.579
57712SOL     OW73159   9.924   9.432   1.979
57712SOL    HW173160  10.022   9.410   1.986
57712SOL    HW273161   9.893   9.415   1.886
57713SOL     OW73162  10.091   9.574   3.611
57713SOL    HW173163  10.158   9.513   3.654
57713SOL    HW273164  10.018   9.593   3.676
57714SOL     OW73165  10.198  10.824   3.057
57714SOL    HW173166  10.175  10.799   2.963
57714SOL    HW273167  10.259  10.755   3.096
57715SOL     OW73168  10.661   9.900   3.295
57715SOL    HW173169  10.689   9.857   3.380
57715SOL    HW273170  10.686   9.996   3.296
57716SOL     OW73171  10.113  10.712   2.786
57716SOL    HW173172  10.203  10.726   2.744
57716SOL    HW273173  10.042  10.714   2.715
57717SOL     OW73174  10.232   9.813   2.761
57717SOL    HW173175  10.207   9.804   2.665
57717SOL    HW273176  10.280   9.731   2.792
57718SOL     OW73177   9.849   9.374   2.374
57718SOL    HW173178   9.768   9.375   2.432
57718SOL    HW273179   9.852   9.457   2.319
57719SOL     OW73180  10.744  10.498   1.903
57719SOL    HW173181  10.776  10.422   1.960
57719SOL    HW273182  10.652  10.525   1.933
57720SOL     OW73183   9.607   9.345   2.033
57720SOL    HW173184   9.656   9.429   2.012
57720SOL    HW273185   9.669   9.280   2.078
57721SOL     OW73186  10.245   9.546   2.342
57721SOL    HW173187  10.197   9.587   2.264
57721SOL    HW273188  10.344   9.544   2.323
57722SOL     OW73189  10.386   9.993   3.326
57722SOL    HW173190  10.306   9.932   3.329
57722SOL    HW273191  10.467   9.940   3.302
57723SOL     OW73192  10.537  10.880   2.655
57723SOL    HW173193  10.558  10.954   2.590
57723SOL    HW273194  10.605  10.880   2.728
57724SOL     OW73195   9.769  10.462   2.603
57724SOL    HW173196   9.698  10.435   2.668
57724SOL    HW273197   9.743  10.434   2.510
57725SOL     OW73198  10.581  11.107   2.453
57725SOL    HW173199  10.625  11.171   2.389
57725SOL    HW273200  10.531  11.159   2.523
57726SOL     OW73201  10.342   9.859   1.878
57726SOL    HW173202  10.301   9.941   1.839
57726SOL    HW273203  10.406   9.885   1.951
57727SOL     OW73204   9.388   9.866   3.248
57727SOL    HW173205   9.480   9.865   3.207
57727SOL    HW273206   9.382   9.940   3.315
57728SOL     OW73207   9.871   9.532   3.009
57728SOL    HW173208   9.909   9.448   3.046
57728SOL    HW273209   9.783   9.551   3.053
57729SOL     OW73210  10.176   9.764   2.504
57729SOL    HW173211  10.144   9.836   2.442
57729SOL    HW273212  10.200   9.683   2.451
57730SOL     OW73213  10.327   9.349   2.615
57730SOL    HW173214  10.255   9.354   2.546
57730SOL    HW273215  10.303   9.280   2.684
57731SOL     OW73216  10.739  10.483   2.729
57731SOL    HW173217  10.684  10.399   2.722
57731SOL    HW273218  10.765  10.512   2.637
57732SOL     OW73219  10.776   9.900   2.854
57732SOL    HW173220  10.746   9.805   2.861
57732SOL    HW273221  10.849   9.916   2.920
57733SOL     OW73222  11.167  10.143   2.239
57733SOL    HW173223  11.209  10.079   2.303
57733SOL    HW273224  11.129  10.092   2.161
57734SOL     OW73225   9.798  10.695   2.036
57734SOL    HW173226   9.711  10.680   2.083
57734SOL    HW273227   9.781  10.721   1.941
57735SOL     OW73228  10.974  10.590   2.519
57735SOL    HW173229  11.073  10.598   2.533
57735SOL    HW273230  10.929  10.674   2.550
57736SOL     OW73231  10.700   9.885   1.940
57736SOL    HW173232  10.646   9.864   2.021
57736SOL    HW273233  10.791   9.844   1.949
57737SOL     OW73234   9.837   9.566   2.190
57737SOL    HW173235   9.864   9.507   2.115
57737SOL    HW273236   9.837   9.661   2.159
57738SOL     OW73237  11.064  10.533   3.450
57738SOL    HW173238  11.155  10.494   3.437
57738SOL    HW273239  11.072  10.629   3.474
57739SOL     OW73240  10.374  10.657   3.202
57739SOL    HW173241  10.294  10.634   3.257
57739SOL    HW273242  10.457  10.631   3.251
57740SOL     OW73243  10.902  10.939   3.487
57740SOL    HW173244  10.929  10.973   3.397
57740SOL    HW273245  10.981  10.901   3.533
57741SOL     OW73246  10.421  10.505   2.962
57741SOL    HW173247  10.381  10.549   3.043
57741SOL    HW273248  10.380  10.542   2.879
57742SOL     OW73249  10.948  10.409   2.941
57742SOL    HW173250  10.953  10.490   3.000
57742SOL    HW273251  10.862  10.411   2.890
57743SOL     OW73252  10.225   9.399   3.264
57743SOL    HW173253  10.250   9.379   3.169
57743SOL    HW273254  10.297   9.455   3.306
57744SOL     OW73255  10.290  10.426   3.581
57744SOL    HW173256  10.191  10.432   3.591
57744SOL    HW273257  10.313  10.346   3.525
57745SOL     OW73258  10.015  10.360   2.230
57745SOL    HW173259  10.001  10.367   2.329
57745SOL    HW273260  10.099  10.309   2.212
57746SOL     OW73261   9.720  10.123   3.113
57746SOL    HW173262   9.806  10.135   3.163
57746SOL    HW273263   9.678  10.036   3.140
57747SOL     OW73264  10.584   9.696   3.124
57747SOL    HW173265  10.605   9.770   3.188
57747SOL    HW273266  10.495   9.713   3.081
57748SOL     OW73267   9.374  10.874   3.193
57748SOL    HW173268   9.328  10.956   3.159
57748SOL    HW273269   9.472  10.893   3.202
57749SOL     OW73270   9.677  10.410   2.363
57749SOL    HW173271   9.670  10.493   2.307
57749SOL    HW273272   9.681  10.330   2.303
57750SOL     OW73273   9.876   9.847   2.727
57750SOL    HW173274   9.888   9.913   2.653
57750SOL    HW273275   9.922   9.881   2.810
57751SOL     OW73276  10.562  10.658   2.250
57751SOL    HW173277  10.612  10.735   2.290
57751SOL    HW273278  10.467  10.660   2.282
57752SOL     OW73279  10.582  10.755   3.004
57752SOL    HW173280  10.629  10.768   3.091
57752SOL    HW273281  10.516  10.681   3.013
57753SOL     OW73282  10.892   9.949   2.334
57753SOL    HW173283  10.861  10.010   2.407
57753SOL    HW273284  10.942  10.001   2.265
57754SOL     OW73285   9.664  10.820   3.191
57754SOL    HW173286   9.643  10.776   3.104
57754SOL    HW273287   9.761  10.846   3.194
57755SOL     OW73288   9.712  10.061   3.460
57755SOL    HW173289   9.780  10.116   3.413
57755SOL    HW273290   9.752   9.973   3.487
57756SOL     OW73291  10.897  10.089   3.532
57756SOL    HW173292  10.805  10.127   3.527
57756SOL    HW273293  10.957  10.136   3.467
57757SOL     OW73294  10.323   9.415   3.632
57757SOL    HW173295  10.329   9.500   3.580
57757SOL    HW273296  10.355   9.339   3.575
57758SOL     OW73297   9.814   9.360   3.602
57758SOL    HW173298   9.772   9.303   3.532
57758SOL    HW273299   9.748   9.429   3.634
57759SOL     OW73300   9.883  10.180   2.891
57759SOL    HW173301   9.927  10.269   2.882
57759SOL    HW273302   9.820  10.180   2.968
57760SOL     OW73303  10.670  10.172   2.907
57760SOL    HW173304  10.595  10.172   2.841
57760SOL    HW273305  10.707  10.080   2.916
57761SOL     OW73306  10.519   9.835   2.137
57761SOL    HW173307  10.532   9.751   2.191
57761SOL    HW273308  10.490   9.909   2.197
57762SOL     OW73309   9.617   9.523   3.093
57762SOL    HW173310   9.594   9.560   3.183
57762SOL    HW273311   9.587   9.428   3.087
57763SOL     OW73312   9.347  10.620   3.144
57763SOL    HW173313   9.400  10.571   3.212
57763SOL    HW273314   9.369  10.718   3.149
57764SOL     OW73315  10.042   9.944   2.926
57764SOL    HW173316  10.101   9.918   2.850
57764SOL    HW273317  10.014  10.040   2.915
57765SOL     OW73318  11.038  10.245   3.716
57765SOL    HW173319  10.992  10.238   3.627
57765SOL    HW273320  10.976  10.289   3.782
57766SOL     OW73321   9.617   9.373   2.480
57766SOL    HW173322   9.606   9.467   2.513
57766SOL    HW273323   9.612   9.310   2.557
57767SOL     OW73324  10.932   9.677   2.236
57767SOL    HW173325  10.934   9.601   2.300
57767SOL    HW273326  10.884   9.754   2.276
57768SOL     OW73327  10.333  10.076   2.828
57768SOL    HW173328  10.348  10.097   2.924
57768SOL    HW273329  10.303   9.981   2.819
57769SOL     OW73330  10.290  10.883   3.562
57769SOL    HW173331  10.270  10.927   3.474
57769SOL    HW273332  10.329  10.792   3.546
57770SOL     OW73333  11.169  10.828   3.467
57770SOL    HW173334  11.183  10.855   3.372
57770SOL    HW273335  11.252  10.850   3.520
57771SOL     OW73336   9.660  10.208   3.666
57771SOL    HW173337   9.736  10.252   3.714
57771SOL    HW273338   9.695  10.161   3.584
57772SOL     OW73339  10.850   9.584   1.987
57772SOL    HW173340  10.789   9.509   2.010
57772SOL    HW273341  10.872   9.636   2.070
57773SOL     OW73342  10.613  10.148   1.904
57773SOL    HW173343  10.647  10.055   1.919
57773SOL    HW273344  10.631  10.175   1.809
57774SOL     OW73345  10.378  10.643   2.711
57774SOL    HW173346  10.385  10.559   2.656
57774SOL    HW273347  10.440  10.712   2.675
57775SOL     OW73348   9.629  10.120   2.811
57775SOL    HW173349   9.722  10.156   2.816
57775SOL    HW273350   9.623  10.035   2.863
57776SOL     OW73351   9.649   9.819   2.868
57776SOL    HW173352   9.597   9.736   2.851
57776SOL    HW273353   9.726   9.824   2.804
57777SOL     OW73354  10.448   9.690   3.540
57777SOL    HW173355  10.403   9.753   3.604
57777SOL    HW273356  10.541   9.721   3.523
57778SOL     OW73357  10.470   9.517   3.339
57778SOL    HW173358  10.470   9.581   3.416
57778SOL    HW273359  10.498   9.565   3.256
57779SOL     OW73360   9.318  10.636   2.062
57779SOL    HW173361   9.225  10.657   2.031
57779SOL    HW273362   9.328  10.537   2.075
57780SOL     OW73363   9.398  11.111   2.789
57780SOL    HW173364   9.356  11.025   2.762
57780SOL    HW273365   9.492  11.114   2.755
57781SOL     OW73366   9.814  10.878   2.772
57781SOL    HW173367   9.880  10.952   2.781
57781SOL    HW273368   9.858  10.799   2.730
57782SOL     OW73369  10.312  10.106   3.100
57782SOL    HW173370  10.353  10.074   3.186
57782SOL    HW273371  10.216  10.079   3.097
57783SOL     OW73372   9.350   9.854   2.976
57783SOL    HW173373   9.435   9.821   2.935
57783SOL    HW273374   9.363   9.869   3.074
57784SOL     OW73375   9.499   9.830   3.584
57784SOL    HW173376   9.558   9.790   3.514
57784SOL    HW273377   9.441   9.901   3.543
57785SOL     OW73378  10.679  10.260   3.522
57785SOL    HW173379  10.718  10.349   3.542
57785SOL    HW273380  10.689  10.240   3.425
57786SOL     OW73381  10.125   9.882   2.187
57786SOL    HW173382  10.132   9.793   2.141
57786SOL    HW273383  10.031   9.916   2.179
57787SOL     OW73384  10.967   9.914   3.068
57787SOL    HW173385  10.929   9.845   3.130
57787SOL    HW273386  11.049   9.878   3.024
57788SOL     OW73387   9.562  10.874   3.606
57788SOL    HW173388   9.532  10.931   3.682
57788SOL    HW273389   9.555  10.777   3.632
57789SOL     OW73390   9.981   9.774   3.131
57789SOL    HW173391   9.947   9.685   3.101
57789SOL    HW273392  10.007   9.828   3.051
57790SOL     OW73393  10.240  10.988   3.327
57790SOL    HW173394  10.216  10.970   3.232
57790SOL    HW273395  10.270  11.082   3.337
57791SOL     OW73396   9.783   9.810   2.053
57791SOL    HW173397   9.844   9.890   2.057
57791SOL    HW273398   9.688   9.841   2.060
57792SOL     OW73399   9.469  10.447   3.328
57792SOL    HW173400   9.491  10.386   3.404
57792SOL    HW273401   9.479  10.398   3.242
57793SOL     OW73402  10.657  10.369   3.096
57793SOL    HW173403  10.681  10.306   3.022
57793SOL    HW273404  10.567  10.409   3.078
57794SOL     OW73405  10.612  10.165   2.171
57794SOL    HW173406  10.526  10.134   2.213
57794SOL    HW273407  10.608  10.151   2.072
57795SOL     OW73408  11.069  11.057   3.016
57795SOL    HW173409  11.130  11.087   2.943
57795SOL    HW273410  11.031  10.968   2.994
57796SOL     OW73411  10.562  11.041   2.990
57796SOL    HW173412  10.646  11.046   2.936
57796SOL    HW273413  10.539  10.945   3.008
57797SOL     OW73414   9.393  10.568   2.884
57797SOL    HW173415   9.388  10.567   2.984
57797SOL    HW273416   9.310  10.527   2.846
57798SOL     OW73417   9.998  10.972   3.578
57798SOL    HW173418   9.942  11.053   3.587
57798SOL    HW273419  10.050  10.976   3.492
57799SOL     OW73420  11.036   9.445   2.385
57799SOL    HW173421  11.109   9.428   2.318
57799SOL    HW273422  11.005   9.358   2.423
57800SOL     OW73423  10.698  10.883   2.339
57800SOL    HW173424  10.765  10.895   2.265
57800SOL    HW273425  10.658  10.972   2.362
57801SOL     OW73426   9.440  11.104   3.713
57801SOL    HW173427   9.399  11.030   3.766
57801SOL    HW273428   9.504  11.155   3.771
57802SOL     OW73429  10.590  10.237   2.534
57802SOL    HW173430  10.650  10.156   2.536
57802SOL    HW273431  10.630  10.306   2.474
57803SOL     OW73432  10.140  10.583   3.284
57803SOL    HW173433  10.135  10.616   3.379
57803SOL    HW273434  10.054  10.602   3.238
57804SOL     OW73435   9.982  10.926   2.016
57804SOL    HW173436   9.991  10.936   1.917
57804SOL    HW273437   9.942  10.837   2.037
57805SOL     OW73438  10.960  11.030   3.256
57805SOL    HW173439  11.013  11.040   3.172
57805SOL    HW273440  10.933  11.120   3.290
57806SOL     OW73441  11.151   9.485   2.825
57806SOL    HW173442  11.190   9.400   2.789
57806SOL    HW273443  11.053   9.487   2.806
57807SOL     OW73444   9.573   9.636   2.582
57807SOL    HW173445   9.494   9.687   2.548
57807SOL    HW273446   9.564   9.621   2.680
57808SOL     OW73447  10.504  10.922   1.893
57808SOL    HW173448  10.510  10.829   1.930
57808SOL    HW273449  10.445  10.922   1.813
57809SOL     OW73450  10.132  10.312   3.234
57809SOL    HW173451  10.172  10.311   3.142
57809SOL    HW273452  10.142  10.404   3.274
57810SOL     OW73453  10.226  10.220   2.153
57810SOL    HW173454  10.289  10.258   2.085
57810SOL    HW273455  10.266  10.137   2.192
57811SOL     OW73456  10.814  10.917   1.906
57811SOL    HW173457  10.722  10.954   1.913
57811SOL    HW273458  10.852  10.937   1.816
57812SOL     OW73459   9.682  10.598   3.352
57812SOL    HW173460   9.669  10.691   3.318
57812SOL    HW273461   9.598  10.546   3.339
57813SOL     OW73462  10.924  10.602   3.151
57813SOL    HW173463  10.984  10.605   3.231
57813SOL    HW273464  10.849  10.666   3.164
57814SOL     OW73465  10.349  10.408   2.558
57814SOL    HW173466  10.279  10.361   2.612
57814SOL    HW273467  10.408  10.340   2.515
57815SOL     OW73468  10.324   9.546   2.833
57815SOL    HW173469  10.316   9.510   2.740
57815SOL    HW273470  10.322   9.470   2.898
57816SOL     OW73471   9.900  10.797   2.353
57816SOL    HW173472   9.942  10.739   2.283
57816SOL    HW273473   9.856  10.876   2.309
57817SOL     OW73474  11.019   9.695   3.243
57817SOL    HW173475  11.092   9.764   3.247
57817SOL    HW273476  11.047   9.620   3.184
57818SOL     OW73477   9.565  10.658   2.152
57818SOL    HW173478   9.469  10.659   2.125
57818SOL    HW273479   9.577  10.711   2.236
57819SOL     OW73480   9.415  10.323   3.588
57819SOL    HW173481   9.338  10.290   3.642
57819SOL    HW273482   9.500  10.293   3.630
57820SOL     OW73483   9.982   9.513   3.351
57820SOL    HW173484  10.072   9.497   3.311
57820SOL    HW273485   9.990   9.518   3.450
57821SOL     OW73486   9.385   9.655   1.895
57821SOL    HW173487   9.293   9.627   1.866
57821SOL    HW273488   9.416   9.732   1.839
57822SOL     OW73489  10.750  10.166   3.260
57822SOL    HW173490  10.693  10.218   3.197
57822SOL    HW273491  10.846  10.178   3.236
57823SOL     OW73492   9.382   9.476   2.180
57823SOL    HW173493   9.365   9.559   2.126
57823SOL    HW273494   9.472   9.439   2.158
57824SOL     OW73495  10.493  10.645   1.981
57824SOL    HW173496  10.394  10.634   1.983
57824SOL    HW273497  10.527  10.660   2.074
57825SOL     OW73498   9.923  10.152   3.293
57825SOL    HW173499   9.979  10.233   3.276
57825SOL    HW273500   9.982  10.072   3.296
57826SOL     OW73501  10.803  11.077   2.821
57826SOL    HW173502  10.836  11.141   2.752
57826SOL    HW273503  10.869  11.071   2.896
57827SOL     OW73504  10.026   9.875   3.570
57827SOL    HW173505  10.045   9.940   3.644
57827SOL    HW273506  10.086   9.795   3.579
57828SOL     OW73507  10.760  10.530   3.495
57828SOL    HW173508  10.751  10.520   3.594
57828SOL    HW273509  10.856  10.523   3.469
57829SOL     OW73510   9.700  11.051   3.422
57829SOL    HW173511   9.609  11.092   3.420
57829SOL    HW273512   9.693  10.957   3.454
57830SOL     OW73513  10.984  10.193   3.116
57830SOL    HW173514  10.957  10.104   3.079
57830SOL    HW273515  10.985  10.261   3.043
57831SOL     OW73516  10.535   9.635   2.311
57831SOL    HW173517  10.600   9.561   2.300
57831SOL    HW273518  10.555   9.685   2.395
57832SOL     OW73519   9.904  10.055   2.514
57832SOL    HW173520   9.954  10.140   2.495
57832SOL    HW273521   9.816  10.057   2.466
57833SOL     OW73522  11.087   9.652   3.504
57833SOL    HW173523  11.070   9.683   3.410
57833SOL    HW273524  11.003   9.615   3.542
57834SOL     OW73525  11.040  10.244   3.379
57834SOL    HW173526  11.078  10.335   3.394
57834SOL    HW273527  11.032  10.227   3.280
57835SOL     OW73528  10.169  10.684   1.878
57835SOL    HW173529  10.123  10.699   1.966
57835SOL    HW273530  10.213  10.769   1.848
57836SOL     OW73531   9.971  11.100   2.815
57836SOL    HW173532   9.925  11.188   2.802
57836SOL    HW273533  10.070  11.112   2.808
57837SOL     OW73534  10.169  10.266   2.723
57837SOL    HW173535  10.223  10.197   2.771
57837SOL    HW273536  10.137  10.335   2.789
57838SOL     OW73537  10.393  10.294   1.949
57838SOL    HW173538  10.370  10.347   1.867
57838SOL    HW273539  10.474  10.238   1.930
57839SOL     OW73540  11.171  10.879   2.713
57839SOL    HW173541  11.100  10.867   2.643
57839SOL    HW273542  11.172  10.800   2.773
57840SOL     OW73543   9.531  10.624   3.706
57840SOL    HW173544   9.466  10.551   3.685
57840SOL    HW273545   9.535  10.638   3.804
57841SOL     OW73546   9.389  10.550   2.515
57841SOL    HW173547   9.388  10.503   2.603
57841SOL    HW273548   9.471  10.522   2.464
57842SOL     OW73549   9.982  10.701   3.486
57842SOL    HW173550   9.904  10.651   3.524
57842SOL    HW273551   9.979  10.796   3.517
57843SOL     OW73552  11.134   9.502   3.089
57843SOL    HW173553  11.130   9.412   3.133
57843SOL    HW273554  11.137   9.491   2.990
57844SOL     OW73555   9.738   9.734   2.382
57844SOL    HW173556   9.768   9.662   2.320
57844SOL    HW273557   9.699   9.694   2.465
57845SOL     OW73558  11.015  10.797   2.966
57845SOL    HW173559  10.922  10.772   2.939
57845SOL    HW273560  11.041  10.747   3.048
57846SOL     OW73561   9.627   9.857   3.142
57846SOL    HW173562   9.665   9.798   3.214
57846SOL    HW273563   9.667   9.831   3.054
57847SOL     OW73564  10.122  10.896   2.549
57847SOL    HW173565  10.154  10.906   2.455
57847SOL    HW273566  10.043  10.834   2.551
57848SOL     OW73567  10.734   9.524   2.974
57848SOL    HW173568  10.786   9.459   3.029
57848SOL    HW273569  10.685   9.587   3.035
57849SOL     OW73570  10.311   9.344   3.016
57849SOL    HW173571  10.248   9.272   2.985
57849SOL    HW273572  10.404   9.308   3.016
57850SOL     OW73573  10.080  10.640   2.163
57850SOL    HW173574  10.034  10.553   2.180
57850SOL    HW273575  10.171  10.637   2.204
57851SOL     OW73576   9.928  10.877   3.146
57851SOL    HW173577   9.923  10.959   3.203
57851SOL    HW273578  10.017  10.874   3.101
57852SOL     OW73579  10.662   9.362   2.030
57852SOL    HW173580  10.697   9.321   1.946
57852SOL    HW273581  10.572   9.324   2.050
57853SOL     OW73582  10.610   9.763   2.553
57853SOL    HW173583  10.551   9.843   2.557
57853SOL    HW273584  10.625   9.728   2.646
57854SOL     OW73585  10.903   9.531   2.744
57854SOL    HW173586  10.819   9.530   2.798
57854SOL    HW273587  10.905   9.614   2.688
57855SOL     OW73588   9.349  10.387   2.162
57855SOL    HW173589   9.448  10.376   2.153
57855SOL    HW273590   9.309  10.301   2.194
57856SOL     OW73591  10.185  10.956   2.199
57856SOL    HW173592  10.108  10.921   2.145
57856SOL    HW273593  10.153  11.027   2.261
57857SOL     OW73594   9.540   9.938   3.837
57857SOL    HW173595   9.447   9.936   3.874
57857SOL    HW273596   9.541   9.899   3.745
57858SOL     OW73597   9.535   9.585   4.720
57858SOL    HW173598   9.570   9.568   4.812
57858SOL    HW273599   9.447   9.540   4.708
57859SOL     OW73600   9.329   9.678   4.371
57859SOL    HW173601   9.247   9.721   4.410
57859SOL    HW273602   9.301   9.605   4.308
57860SOL     OW73603   9.879  10.585   4.889
57860SOL    HW173604   9.786  10.578   4.852
57860SOL    HW273605   9.890  10.674   4.933
57861SOL     OW73606  10.865  10.821   4.427
57861SOL    HW173607  10.808  10.805   4.508
57861SOL    HW273608  10.806  10.831   4.347
57862SOL     OW73609  10.445  10.013   4.441
57862SOL    HW173610  10.502  10.091   4.416
57862SOL    HW273611  10.385  10.039   4.517
57863SOL     OW73612  11.065   9.917   3.955
57863SOL    HW173613  11.053   9.904   3.856
57863SOL    HW273614  11.035   9.836   4.004
57864SOL     OW73615  10.078  10.454   4.747
57864SOL    HW173616  10.000  10.471   4.807
57864SOL    HW273617  10.112  10.541   4.711
57865SOL     OW73618  10.160  10.108   5.547
57865SOL    HW173619  10.156  10.184   5.612
57865SOL    HW273620  10.182  10.144   5.456
57866SOL     OW73621   9.995  10.322   4.389
57866SOL    HW173622  10.064  10.306   4.459
57866SOL    HW273623   9.922  10.379   4.427
57867SOL     OW73624   9.996  10.471   5.527
57867SOL    HW173625  10.056  10.550   5.541
57867SOL    HW273626   9.910  10.502   5.486
57868SOL     OW73627   9.645  10.745   4.785
57868SOL    HW173628   9.567  10.714   4.732
57868SOL    HW273629   9.703  10.803   4.728
57869SOL     OW73630  10.770  10.815   5.063
57869SOL    HW173631  10.794  10.909   5.089
57869SOL    HW273632  10.754  10.761   5.145
57870SOL     OW73633   9.748   9.702   5.223
57870SOL    HW173634   9.830   9.646   5.232
57870SOL    HW273635   9.667   9.644   5.227
57871SOL     OW73636  10.913   9.757   4.461
57871SOL    HW173637  10.839   9.803   4.411
57871SOL    HW273638  10.964   9.825   4.514
57872SOL     OW73639   9.541  11.023   4.207
57872SOL    HW173640   9.575  11.100   4.261
57872SOL    HW273641   9.585  11.023   4.117
57873SOL     OW73642  10.437  10.651   5.414
57873SOL    HW173643  10.484  10.651   5.502
57873SOL    HW273644  10.389  10.564   5.403
57874SOL     OW73645   9.540  10.744   4.262
57874SOL    HW173646   9.514  10.840   4.262
57874SOL    HW273647   9.469  10.690   4.307
57875SOL     OW73648   9.550  10.401   4.610
57875SOL    HW173649   9.564  10.317   4.662
57875SOL    HW273650   9.495  10.465   4.665
57876SOL     OW73651   9.930  11.096   5.163
57876SOL    HW173652   9.838  11.079   5.198
57876SOL    HW273653   9.958  11.188   5.189
57877SOL     OW73654   9.916  10.274   3.847
57877SOL    HW173655   9.923  10.358   3.793
57877SOL    HW273656   9.962  10.287   3.935
57878SOL     OW73657  10.904   9.424   5.204
57878SOL    HW173658  10.886   9.491   5.132
57878SOL    HW273659  10.901   9.470   5.293
57879SOL     OW73660   9.432   9.953   4.287
57879SOL    HW173661   9.387   9.865   4.304
57879SOL    HW273662   9.431  10.007   4.371
57880SOL     OW73663  11.152  11.077   4.083
57880SOL    HW173664  11.206  11.048   4.163
57880SOL    HW273665  11.182  11.167   4.054
57881SOL     OW73666   9.337  10.906   3.841
57881SOL    HW173667   9.318  10.810   3.862
57881SOL    HW273668   9.304  10.964   3.916
57882SOL     OW73669  10.999  10.232   4.336
57882SOL    HW173670  11.094  10.203   4.344
57882SOL    HW273671  10.991  10.297   4.261
57883SOL     OW73672  10.951  10.418   4.156
57883SOL    HW173673  11.037  10.420   4.104
57883SOL    HW273674  10.965  10.465   4.244
57884SOL     OW73675   9.423  10.047   5.321
57884SOL    HW173676   9.511  10.034   5.366
57884SOL    HW273677   9.410  10.144   5.299
57885SOL     OW73678   9.923  10.675   4.450
57885SOL    HW173679   9.874  10.588   4.459
57885SOL    HW273680   9.900  10.718   4.363
57886SOL     OW73681  10.603  10.538   5.147
57886SOL    HW173682  10.640  10.465   5.089
57886SOL    HW273683  10.655  10.543   5.232
57887SOL     OW73684  10.119   9.314   4.226
57887SOL    HW173685  10.159   9.405   4.217
57887SOL    HW273686  10.019   9.322   4.232
57888SOL     OW73687   9.507  10.286   4.988
57888SOL    HW173688   9.596  10.241   4.974
57888SOL    HW273689   9.434  10.221   4.969
57889SOL     OW73690  10.835  10.309   3.914
57889SOL    HW173691  10.772  10.233   3.927
57889SOL    HW273692  10.883  10.327   4.000
57890SOL     OW73693  10.497  11.102   5.340
57890SOL    HW173694  10.521  11.162   5.264
57890SOL    HW273695  10.504  11.007   5.310
57891SOL     OW73696   9.627   9.561   5.525
57891SOL    HW173697   9.698   9.632   5.531
57891SOL    HW273698   9.539   9.600   5.553
57892SOL     OW73699  10.776  10.727   4.677
57892SOL    HW173700  10.717  10.733   4.757
57892SOL    HW273701  10.761  10.639   4.631
57893SOL     OW73702  10.977  11.024   4.296
57893SOL    HW173703  10.936  11.001   4.208
57893SOL    HW273704  10.959  10.950   4.361
57894SOL     OW73705   9.908  10.039   3.994
57894SOL    HW173706   9.932  10.108   3.926
57894SOL    HW273707   9.830  10.072   4.048
57895SOL     OW73708  10.591   9.655   4.668
57895SOL    HW173709  10.505   9.605   4.655
57895SOL    HW273710  10.653   9.601   4.724
57896SOL     OW73711  10.886  10.972   4.031
57896SOL    HW173712  10.975  11.018   4.034
57896SOL    HW273713  10.865  10.948   3.936
57897SOL     OW73714  10.117   9.915   5.189
57897SOL    HW173715  10.070   9.912   5.278
57897SOL    HW273716  10.066   9.860   5.123
57898SOL     OW73717  10.704   9.779   5.398
57898SOL    HW173718  10.684   9.822   5.486
57898SOL    HW273719  10.782   9.717   5.407
57899SOL     OW73720  10.283  10.200   5.296
57899SOL    HW173721  10.329  10.116   5.267
57899SOL    HW273722  10.227  10.234   5.221
57900SOL     OW73723  10.301   9.720   4.966
57900SOL    HW173724  10.224   9.754   5.020
57900SOL    HW273725  10.267   9.669   4.887
57901SOL     OW73726  10.351  10.011   4.153
57901SOL    HW173727  10.377  10.007   4.249
57901SOL    HW273728  10.266   9.960   4.139
57902SOL     OW73729   9.386  10.121   4.513
57902SOL    HW173730   9.485  10.109   4.522
57902SOL    HW273731   9.362  10.216   4.534
57903SOL     OW73732   9.440  11.131   5.295
57903SOL    HW173733   9.430  11.116   5.394
57903SOL    HW273734   9.354  11.167   5.259
57904SOL     OW73735  10.175   9.658   3.919
57904SOL    HW173736  10.234   9.721   3.870
57904SOL    HW273737  10.194   9.564   3.890
57905SOL     OW73738  11.029   9.895   5.555
57905SOL    HW173739  11.003   9.984   5.519
57905SOL    HW273740  11.027   9.827   5.482
57906SOL     OW73741  10.672  10.454   4.269
57906SOL    HW173742  10.755  10.425   4.221
57906SOL    HW273743  10.623  10.521   4.213
57907SOL     OW73744   9.860   9.506   4.609
57907SOL    HW173745   9.855   9.501   4.709
57907SOL    HW273746   9.862   9.602   4.580
57908SOL     OW73747  10.318  10.766   4.201
57908SOL    HW173748  10.272  10.838   4.149
57908SOL    HW273749  10.314  10.786   4.299
57909SOL     OW73750   9.661  11.111   4.577
57909SOL    HW173751   9.711  11.025   4.583
57909SOL    HW273752   9.726  11.188   4.574
57910SOL     OW73753  11.105  10.376   4.597
57910SOL    HW173754  11.043  10.361   4.521
57910SOL    HW273755  11.053  10.387   4.682
57911SOL     OW73756  10.537  10.860   5.230
57911SOL    HW173757  10.543  10.783   5.294
57911SOL    HW273758  10.485  10.834   5.150
57912SOL     OW73759   9.631  10.253   3.966
57912SOL    HW173760   9.713  10.292   3.924
57912SOL    HW273761   9.604  10.171   3.917
57913SOL     OW73762  10.768  10.045   4.452
57913SOL    HW173763  10.763   9.980   4.527
57913SOL    HW273764  10.848  10.104   4.465
57914SOL     OW73765   9.771  10.576   5.451
57914SOL    HW173766   9.721  10.577   5.365
57914SOL    HW273767   9.708  10.558   5.527
57915SOL     OW73768  10.421  11.086   3.961
57915SOL    HW173769  10.361  11.024   4.011
57915SOL    HW273770  10.452  11.042   3.876
57916SOL     OW73771   9.512   9.595   5.222
57916SOL    HW173772   9.432   9.655   5.209
57916SOL    HW273773   9.502   9.546   5.308
57917SOL     OW73774  10.942  10.687   3.805
57917SOL    HW173775  10.910  10.781   3.795
57917SOL    HW273776  10.866  10.624   3.793
57918SOL     OW73777   9.774  11.053   4.047
57918SOL    HW173778   9.807  11.092   4.133
57918SOL    HW273779   9.850  11.046   3.982
57919SOL     OW73780  10.710   9.417   4.150
57919SOL    HW173781  10.686   9.380   4.060
57919SOL    HW273782  10.809   9.433   4.154
57920SOL     OW73783   9.559  11.095   4.965
57920SOL    HW173784   9.616  11.030   5.015
57920SOL    HW273785   9.543  11.062   4.872
57921SOL     OW73786  10.250  11.008   4.628
57921SOL    HW173787  10.330  10.951   4.649
57921SOL    HW273788  10.201  10.968   4.551
57922SOL     OW73789   9.692  10.010   4.204
57922SOL    HW173790   9.737   9.920   4.201
57922SOL    HW273791   9.598   9.999   4.237
57923SOL     OW73792  10.857   9.532   5.453
57923SOL    HW173793  10.852   9.569   5.545
57923SOL    HW273794  10.785   9.463   5.441
57924SOL     OW73795   9.924   9.432   3.841
57924SOL    HW173796  10.022   9.410   3.848
57924SOL    HW273797   9.893   9.415   3.748
57925SOL     OW73798  10.091   9.574   5.473
57925SOL    HW173799  10.158   9.513   5.516
57925SOL    HW273800  10.018   9.593   5.538
57926SOL     OW73801  10.198  10.824   4.919
57926SOL    HW173802  10.175  10.799   4.825
57926SOL    HW273803  10.259  10.755   4.958
57927SOL     OW73804  10.661   9.900   5.157
57927SOL    HW173805  10.689   9.857   5.242
57927SOL    HW273806  10.686   9.996   5.158
57928SOL     OW73807  10.113  10.712   4.648
57928SOL    HW173808  10.203  10.726   4.606
57928SOL    HW273809  10.042  10.714   4.577
57929SOL     OW73810  10.232   9.813   4.623
57929SOL    HW173811  10.207   9.804   4.527
57929SOL    HW273812  10.280   9.731   4.654
57930SOL     OW73813   9.849   9.374   4.236
57930SOL    HW173814   9.768   9.375   4.294
57930SOL    HW273815   9.852   9.457   4.181
57931SOL     OW73816  10.744  10.498   3.765
57931SOL    HW173817  10.776  10.422   3.822
57931SOL    HW273818  10.652  10.525   3.795
57932SOL     OW73819   9.607   9.345   3.895
57932SOL    HW173820   9.656   9.429   3.874
57932SOL    HW273821   9.669   9.280   3.940
57933SOL     OW73822  10.245   9.546   4.204
57933SOL    HW173823  10.197   9.587   4.126
57933SOL    HW273824  10.344   9.544   4.185
57934SOL     OW73825  10.386   9.993   5.188
57934SOL    HW173826  10.306   9.932   5.191
57934SOL    HW273827  10.467   9.940   5.164
57935SOL     OW73828  10.537  10.880   4.517
57935SOL    HW173829  10.558  10.954   4.452
57935SOL    HW273830  10.605  10.880   4.590
57936SOL     OW73831   9.769  10.462   4.465
57936SOL    HW173832   9.698  10.435   4.530
57936SOL    HW273833   9.743  10.434   4.372
57937SOL     OW73834  10.581  11.107   4.315
57937SOL    HW173835  10.625  11.171   4.251
57937SOL    HW273836  10.531  11.159   4.385
57938SOL     OW73837  10.342   9.859   3.740
57938SOL    HW173838  10.301   9.941   3.701
57938SOL    HW273839  10.406   9.885   3.813
57939SOL     OW73840   9.388   9.866   5.110
57939SOL    HW173841   9.480   9.865   5.069
57939SOL    HW273842   9.382   9.940   5.177
57940SOL     OW73843   9.871   9.532   4.871
57940SOL    HW173844   9.909   9.448   4.908
57940SOL    HW273845   9.783   9.551   4.915
57941SOL     OW73846  10.176   9.764   4.366
57941SOL    HW173847  10.144   9.836   4.304
57941SOL    HW273848  10.200   9.683   4.313
57942SOL     OW73849  10.327   9.349   4.477
57942SOL    HW173850  10.255   9.354   4.408
57942SOL    HW273851  10.303   9.280   4.546
57943SOL     OW73852  10.739  10.483   4.591
57943SOL    HW173853  10.684  10.399   4.584
57943SOL    HW273854  10.765  10.512   4.499
57944SOL     OW73855  10.776   9.900   4.716
57944SOL    HW173856  10.746   9.805   4.723
57944SOL    HW273857  10.849   9.916   4.782
57945SOL     OW73858  11.167  10.143   4.101
57945SOL    HW173859  11.209  10.079   4.165
57945SOL    HW273860  11.129  10.092   4.023
57946SOL     OW73861   9.798  10.695   3.898
57946SOL    HW173862   9.711  10.680   3.945
57946SOL    HW273863   9.781  10.721   3.803
57947SOL     OW73864  10.974  10.590   4.381
57947SOL    HW173865  11.073  10.598   4.395
57947SOL    HW273866  10.929  10.674   4.412
57948SOL     OW73867  10.700   9.885   3.802
57948SOL    HW173868  10.646   9.864   3.883
57948SOL    HW273869  10.791   9.844   3.811
57949SOL     OW73870   9.837   9.566   4.052
57949SOL    HW173871   9.864   9.507   3.977
57949SOL    HW273872   9.837   9.661   4.021
57950SOL     OW73873  11.064  10.533   5.312
57950SOL    HW173874  11.155  10.494   5.299
57950SOL    HW273875  11.072  10.629   5.336
57951SOL     OW73876  10.374  10.657   5.064
57951SOL    HW173877  10.294  10.634   5.119
57951SOL    HW273878  10.457  10.631   5.113
57952SOL     OW73879  10.902  10.939   5.349
57952SOL    HW173880  10.929  10.973   5.259
57952SOL    HW273881  10.981  10.901   5.395
57953SOL     OW73882  10.421  10.505   4.824
57953SOL    HW173883  10.381  10.549   4.905
57953SOL    HW273884  10.380  10.542   4.741
57954SOL     OW73885  10.948  10.409   4.803
57954SOL    HW173886  10.953  10.490   4.862
57954SOL    HW273887  10.862  10.411   4.752
57955SOL     OW73888  10.225   9.399   5.126
57955SOL    HW173889  10.250   9.379   5.031
57955SOL    HW273890  10.297   9.455   5.168
57956SOL     OW73891  10.290  10.426   5.443
57956SOL    HW173892  10.191  10.432   5.453
57956SOL    HW273893  10.313  10.346   5.387
57957SOL     OW73894  10.015  10.360   4.092
57957SOL    HW173895  10.001  10.367   4.191
57957SOL    HW273896  10.099  10.309   4.074
57958SOL     OW73897   9.720  10.123   4.975
57958SOL    HW173898   9.806  10.135   5.025
57958SOL    HW273899   9.678  10.036   5.002
57959SOL     OW73900  10.584   9.696   4.986
57959SOL    HW173901  10.605   9.770   5.050
57959SOL    HW273902  10.495   9.713   4.943
57960SOL     OW73903   9.374  10.874   5.055
57960SOL    HW173904   9.328  10.956   5.021
57960SOL    HW273905   9.472  10.893   5.064
57961SOL     OW73906   9.677  10.410   4.225
57961SOL    HW173907   9.670  10.493   4.169
57961SOL    HW273908   9.681  10.330   4.165
57962SOL     OW73909   9.876   9.847   4.589
57962SOL    HW173910   9.888   9.913   4.515
57962SOL    HW273911   9.922   9.881   4.672
57963SOL     OW73912  10.562  10.658   4.112
57963SOL    HW173913  10.612  10.735   4.152
57963SOL    HW273914  10.467  10.660   4.144
57964SOL     OW73915  10.582  10.755   4.866
57964SOL    HW173916  10.629  10.768   4.953
57964SOL    HW273917  10.516  10.681   4.875
57965SOL     OW73918  10.892   9.949   4.196
57965SOL    HW173919  10.861  10.010   4.269
57965SOL    HW273920  10.942  10.001   4.127
57966SOL     OW73921   9.664  10.820   5.053
57966SOL    HW173922   9.643  10.776   4.966
57966SOL    HW273923   9.761  10.846   5.056
57967SOL     OW73924   9.712  10.061   5.322
57967SOL    HW173925   9.780  10.116   5.275
57967SOL    HW273926   9.752   9.973   5.349
57968SOL     OW73927  10.897  10.089   5.394
57968SOL    HW173928  10.805  10.127   5.389
57968SOL    HW273929  10.957  10.136   5.329
57969SOL     OW73930  10.323   9.415   5.494
57969SOL    HW173931  10.329   9.500   5.442
57969SOL    HW273932  10.355   9.339   5.437
57970SOL     OW73933   9.814   9.360   5.464
57970SOL    HW173934   9.772   9.303   5.394
57970SOL    HW273935   9.748   9.429   5.496
57971SOL     OW73936   9.883  10.180   4.753
57971SOL    HW173937   9.927  10.269   4.744
57971SOL    HW273938   9.820  10.180   4.830
57972SOL     OW73939  10.670  10.172   4.769
57972SOL    HW173940  10.595  10.172   4.703
57972SOL    HW273941  10.707  10.080   4.778
57973SOL     OW73942  10.519   9.835   3.999
57973SOL    HW173943  10.532   9.751   4.053
57973SOL    HW273944  10.490   9.909   4.059
57974SOL     OW73945   9.617   9.523   4.955
57974SOL    HW173946   9.594   9.560   5.045
57974SOL    HW273947   9.587   9.428   4.949
57975SOL     OW73948   9.347  10.620   5.006
57975SOL    HW173949   9.400  10.571   5.074
57975SOL    HW273950   9.369  10.718   5.011
57976SOL     OW73951  10.042   9.944   4.788
57976SOL    HW173952  10.101   9.918   4.712
57976SOL    HW273953  10.014  10.040   4.777
57977SOL     OW73954  11.038  10.245   5.578
57977SOL    HW173955  10.992  10.238   5.489
57977SOL    HW273956  10.976  10.289   5.644
57978SOL     OW73957   9.617   9.373   4.342
57978SOL    HW173958   9.606   9.467   4.375
57978SOL    HW273959   9.612   9.310   4.419
57979SOL     OW73960  10.932   9.677   4.098
57979SOL    HW173961  10.934   9.601   4.162
57979SOL    HW273962  10.884   9.754   4.138
57980SOL     OW73963  10.333  10.076   4.690
57980SOL    HW173964  10.348  10.097   4.786
57980SOL    HW273965  10.303   9.981   4.681
57981SOL     OW73966  10.290  10.883   5.424
57981SOL    HW173967  10.270  10.927   5.336
57981SOL    HW273968  10.329  10.792   5.408
57982SOL     OW73969  11.169  10.828   5.329
57982SOL    HW173970  11.183  10.855   5.234
57982SOL    HW273971  11.252  10.850   5.382
57983SOL     OW73972   9.660  10.208   5.528
57983SOL    HW173973   9.736  10.252   5.576
57983SOL    HW273974   9.695  10.161   5.446
57984SOL     OW73975  10.850   9.584   3.849
57984SOL    HW173976  10.789   9.509   3.872
57984SOL    HW273977  10.872   9.636   3.932
57985SOL     OW73978  10.613  10.148   3.766
57985SOL    HW173979  10.647  10.055   3.781
57985SOL    HW273980  10.631  10.175   3.671
57986SOL     OW73981  10.378  10.643   4.573
57986SOL    HW173982  10.385  10.559   4.518
57986SOL    HW273983  10.440  10.712   4.537
57987SOL     OW73984   9.629  10.120   4.673
57987SOL    HW173985   9.722  10.156   4.678
57987SOL    HW273986   9.623  10.035   4.725
57988SOL     OW73987   9.649   9.819   4.730
57988SOL    HW173988   9.597   9.736   4.713
57988SOL    HW273989   9.726   9.824   4.666
57989SOL     OW73990  10.448   9.690   5.402
57989SOL    HW173991  10.403   9.753   5.466
57989SOL    HW273992  10.541   9.721   5.385
57990SOL     OW73993  10.470   9.517   5.201
57990SOL    HW173994  10.470   9.581   5.278
57990SOL    HW273995  10.498   9.565   5.118
57991SOL     OW73996   9.318  10.636   3.924
57991SOL    HW173997   9.225  10.657   3.893
57991SOL    HW273998   9.328  10.537   3.937
57992SOL     OW73999   9.398  11.111   4.651
57992SOL    HW174000   9.356  11.025   4.624
57992SOL    HW274001   9.492  11.114   4.617
57993SOL     OW74002   9.814  10.878   4.634
57993SOL    HW174003   9.880  10.952   4.643
57993SOL    HW274004   9.858  10.799   4.592
57994SOL     OW74005  10.312  10.106   4.962
57994SOL    HW174006  10.353  10.074   5.048
57994SOL    HW274007  10.216  10.079   4.959
57995SOL     OW74008   9.350   9.854   4.838
57995SOL    HW174009   9.435   9.821   4.797
57995SOL    HW274010   9.363   9.869   4.936
57996SOL     OW74011   9.499   9.830   5.446
57996SOL    HW174012   9.558   9.790   5.376
57996SOL    HW274013   9.441   9.901   5.405
57997SOL     OW74014  10.679  10.260   5.384
57997SOL    HW174015  10.718  10.349   5.404
57997SOL    HW274016  10.689  10.240   5.287
57998SOL     OW74017  10.125   9.882   4.049
57998SOL    HW174018  10.132   9.793   4.003
57998SOL    HW274019  10.031   9.916   4.041
57999SOL     OW74020  10.967   9.914   4.930
57999SOL    HW174021  10.929   9.845   4.992
57999SOL    HW274022  11.049   9.878   4.886
58000SOL     OW74023   9.562  10.874   5.468
58000SOL    HW174024   9.532  10.931   5.544
58000SOL    HW274025   9.555  10.777   5.494
58001SOL     OW74026   9.981   9.774   4.993
58001SOL    HW174027   9.947   9.685   4.963
58001SOL    HW274028  10.007   9.828   4.913
58002SOL     OW74029  10.240  10.988   5.189
58002SOL    HW174030  10.216  10.970   5.094
58002SOL    HW274031  10.270  11.082   5.199
58003SOL     OW74032   9.783   9.810   3.915
58003SOL    HW174033   9.844   9.890   3.919
58003SOL    HW274034   9.688   9.841   3.922
58004SOL     OW74035   9.469  10.447   5.190
58004SOL    HW174036   9.491  10.386   5.266
58004SOL    HW274037   9.479  10.398   5.104
58005SOL     OW74038  10.657  10.369   4.958
58005SOL    HW174039  10.681  10.306   4.884
58005SOL    HW274040  10.567  10.409   4.940
58006SOL     OW74041  10.612  10.165   4.033
58006SOL    HW174042  10.526  10.134   4.075
58006SOL    HW274043  10.608  10.151   3.934
58007SOL     OW74044  11.069  11.057   4.878
58007SOL    HW174045  11.130  11.087   4.805
58007SOL    HW274046  11.031  10.968   4.856
58008SOL     OW74047  10.562  11.041   4.852
58008SOL    HW174048  10.646  11.046   4.798
58008SOL    HW274049  10.539  10.945   4.870
58009SOL     OW74050   9.393  10.568   4.746
58009SOL    HW174051   9.388  10.567   4.846
58009SOL    HW274052   9.310  10.527   4.708
58010SOL     OW74053   9.998  10.972   5.440
58010SOL    HW174054   9.942  11.053   5.449
58010SOL    HW274055  10.050  10.976   5.354
58011SOL     OW74056  11.036   9.445   4.247
58011SOL    HW174057  11.109   9.428   4.180
58011SOL    HW274058  11.005   9.358   4.285
58012SOL     OW74059  10.698  10.883   4.201
58012SOL    HW174060  10.765  10.895   4.127
58012SOL    HW274061  10.658  10.972   4.224
58013SOL     OW74062   9.440  11.104   5.575
58013SOL    HW174063   9.399  11.030   5.628
58013SOL    HW274064   9.504  11.155   5.633
58014SOL     OW74065  10.590  10.237   4.396
58014SOL    HW174066  10.650  10.156   4.398
58014SOL    HW274067  10.630  10.306   4.336
58015SOL     OW74068  10.140  10.583   5.146
58015SOL    HW174069  10.135  10.616   5.241
58015SOL    HW274070  10.054  10.602   5.100
58016SOL     OW74071   9.982  10.926   3.878
58016SOL    HW174072   9.991  10.936   3.779
58016SOL    HW274073   9.942  10.837   3.899
58017SOL     OW74074  10.960  11.030   5.118
58017SOL    HW174075  11.013  11.040   5.034
58017SOL    HW274076  10.933  11.120   5.152
58018SOL     OW74077  11.151   9.485   4.687
58018SOL    HW174078  11.190   9.400   4.651
58018SOL    HW274079  11.053   9.487   4.668
58019SOL     OW74080   9.573   9.636   4.444
58019SOL    HW174081   9.494   9.687   4.410
58019SOL    HW274082   9.564   9.621   4.542
58020SOL     OW74083  10.504  10.922   3.755
58020SOL    HW174084  10.510  10.829   3.792
58020SOL    HW274085  10.445  10.922   3.675
58021SOL     OW74086  10.132  10.312   5.096
58021SOL    HW174087  10.172  10.311   5.004
58021SOL    HW274088  10.142  10.404   5.136
58022SOL     OW74089  10.226  10.220   4.015
58022SOL    HW174090  10.289  10.258   3.947
58022SOL    HW274091  10.266  10.137   4.054
58023SOL     OW74092  10.814  10.917   3.768
58023SOL    HW174093  10.722  10.954   3.775
58023SOL    HW274094  10.852  10.937   3.678
58024SOL     OW74095   9.682  10.598   5.214
58024SOL    HW174096   9.669  10.691   5.180
58024SOL    HW274097   9.598  10.546   5.201
58025SOL     OW74098  10.924  10.602   5.013
58025SOL    HW174099  10.984  10.605   5.093
58025SOL    HW274100  10.849  10.666   5.026
58026SOL     OW74101  10.349  10.408   4.420
58026SOL    HW174102  10.279  10.361   4.474
58026SOL    HW274103  10.408  10.340   4.377
58027SOL     OW74104  10.324   9.546   4.695
58027SOL    HW174105  10.316   9.510   4.602
58027SOL    HW274106  10.322   9.470   4.760
58028SOL     OW74107   9.900  10.797   4.215
58028SOL    HW174108   9.942  10.739   4.145
58028SOL    HW274109   9.856  10.876   4.171
58029SOL     OW74110  11.019   9.695   5.105
58029SOL    HW174111  11.092   9.764   5.109
58029SOL    HW274112  11.047   9.620   5.046
58030SOL     OW74113   9.565  10.658   4.014
58030SOL    HW174114   9.469  10.659   3.987
58030SOL    HW274115   9.577  10.711   4.098
58031SOL     OW74116   9.415  10.323   5.450
58031SOL    HW174117   9.338  10.290   5.504
58031SOL    HW274118   9.500  10.293   5.492
58032SOL     OW74119   9.982   9.513   5.213
58032SOL    HW174120  10.072   9.497   5.173
58032SOL    HW274121   9.990   9.518   5.312
58033SOL     OW74122   9.385   9.655   3.757
58033SOL    HW174123   9.293   9.627   3.728
58033SOL    HW274124   9.416   9.732   3.701
58034SOL     OW74125  10.750  10.166   5.122
58034SOL    HW174126  10.693  10.218   5.059
58034SOL    HW274127  10.846  10.178   5.098
58035SOL     OW74128   9.382   9.476   4.042
58035SOL    HW174129   9.365   9.559   3.988
58035SOL    HW274130   9.472   9.439   4.020
58036SOL     OW74131  10.493  10.645   3.843
58036SOL    HW174132  10.394  10.634   3.845
58036SOL    HW274133  10.527  10.660   3.936
58037SOL     OW74134   9.923  10.152   5.155
58037SOL    HW174135   9.979  10.233   5.138
58037SOL    HW274136   9.982  10.072   5.158
58038SOL     OW74137  10.803  11.077   4.683
58038SOL    HW174138  10.836  11.141   4.614
58038SOL    HW274139  10.869  11.071   4.758
58039SOL     OW74140  10.026   9.875   5.432
58039SOL    HW174141  10.045   9.940   5.506
58039SOL    HW274142  10.086   9.795   5.441
58040SOL     OW74143  10.760  10.530   5.357
58040SOL    HW174144  10.751  10.520   5.456
58040SOL    HW274145  10.856  10.523   5.331
58041SOL     OW74146   9.700  11.051   5.284
58041SOL    HW174147   9.609  11.092   5.282
58041SOL    HW274148   9.693  10.957   5.316
58042SOL     OW74149  10.984  10.193   4.978
58042SOL    HW174150  10.957  10.104   4.941
58042SOL    HW274151  10.985  10.261   4.905
58043SOL     OW74152  10.535   9.635   4.173
58043SOL    HW174153  10.600   9.561   4.162
58043SOL    HW274154  10.555   9.685   4.257
58044SOL     OW74155   9.904  10.055   4.376
58044SOL    HW174156   9.954  10.140   4.357
58044SOL    HW274157   9.816  10.057   4.328
58045SOL     OW74158  11.087   9.652   5.366
58045SOL    HW174159  11.070   9.683   5.272
58045SOL    HW274160  11.003   9.615   5.404
58046SOL     OW74161  11.040  10.244   5.241
58046SOL    HW174162  11.078  10.335   5.256
58046SOL    HW274163  11.032  10.227   5.142
58047SOL     OW74164  10.169  10.684   3.740
58047SOL    HW174165  10.123  10.699   3.828
58047SOL    HW274166  10.213  10.769   3.710
58048SOL     OW74167   9.971  11.100   4.677
58048SOL    HW174168   9.925  11.188   4.664
58048SOL    HW274169  10.070  11.112   4.670
58049SOL     OW74170  10.169  10.266   4.585
58049SOL    HW174171  10.223  10.197   4.633
58049SOL    HW274172  10.137  10.335   4.651
58050SOL     OW74173  10.393  10.294   3.811
58050SOL    HW174174  10.370  10.347   3.729
58050SOL    HW274175  10.474  10.238   3.792
58051SOL     OW74176  11.171  10.879   4.575
58051SOL    HW174177  11.100  10.867   4.505
58051SOL    HW274178  11.172  10.800   4.635
58052SOL     OW74179   9.531  10.624   5.568
58052SOL    HW174180   9.466  10.551   5.547
58052SOL    HW274181   9.535  10.638   5.666
58053SOL     OW74182   9.389  10.550   4.377
58053SOL    HW174183   9.388  10.503   4.465
58053SOL    HW274184   9.471  10.522   4.326
58054SOL     OW74185   9.982  10.701   5.348
58054SOL    HW174186   9.904  10.651   5.386
58054SOL    HW274187   9.979  10.796   5.379
58055SOL     OW74188  11.134   9.502   4.951
58055SOL    HW174189  11.130   9.412   4.995
58055SOL    HW274190  11.137   9.491   4.852
58056SOL     OW74191   9.738   9.734   4.244
58056SOL    HW174192   9.768   9.662   4.182
58056SOL    HW274193   9.699   9.694   4.327
58057SOL     OW74194  11.015  10.797   4.828
58057SOL    HW174195  10.922  10.772   4.801
58057SOL    HW274196  11.041  10.747   4.910
58058SOL     OW74197   9.627   9.857   5.004
58058SOL    HW174198   9.665   9.798   5.076
58058SOL    HW274199   9.667   9.831   4.916
58059SOL     OW74200  10.122  10.896   4.411
58059SOL    HW174201  10.154  10.906   4.317
58059SOL    HW274202  10.043  10.834   4.413
58060SOL     OW74203  10.734   9.524   4.836
58060SOL    HW174204  10.786   9.459   4.891
58060SOL    HW274205  10.685   9.587   4.897
58061SOL     OW74206  10.311   9.344   4.878
58061SOL    HW174207  10.248   9.272   4.847
58061SOL    HW274208  10.404   9.308   4.878
58062SOL     OW74209  10.080  10.640   4.025
58062SOL    HW174210  10.034  10.553   4.042
58062SOL    HW274211  10.171  10.637   4.066
58063SOL     OW74212   9.928  10.877   5.008
58063SOL    HW174213   9.923  10.959   5.065
58063SOL    HW274214  10.017  10.874   4.963
58064SOL     OW74215  10.662   9.362   3.892
58064SOL    HW174216  10.697   9.321   3.808
58064SOL    HW274217  10.572   9.324   3.912
58065SOL     OW74218  10.610   9.763   4.415
58065SOL    HW174219  10.551   9.843   4.419
58065SOL    HW274220  10.625   9.728   4.508
58066SOL     OW74221  10.903   9.531   4.606
58066SOL    HW174222  10.819   9.530   4.660
58066SOL    HW274223  10.905   9.614   4.550
58067SOL     OW74224   9.349  10.387   4.024
58067SOL    HW174225   9.448  10.376   4.015
58067SOL    HW274226   9.309  10.301   4.056
58068SOL     OW74227  10.185  10.956   4.061
58068SOL    HW174228  10.108  10.921   4.007
58068SOL    HW274229  10.153  11.027   4.123
58069SOL     OW74230   9.540   9.938   5.699
58069SOL    HW174231   9.447   9.936   5.736
58069SOL    HW274232   9.541   9.899   5.607
58070SOL     OW74233   9.535   9.585   6.582
58070SOL    HW174234   9.570   9.568   6.674
58070SOL    HW274235   9.447   9.540   6.570
58071SOL     OW74236   9.329   9.678   6.233
58071SOL    HW174237   9.247   9.721   6.272
58071SOL    HW274238   9.301   9.605   6.170
58072SOL     OW74239   9.879  10.585   6.751
58072SOL    HW174240   9.786  10.578   6.714
58072SOL    HW274241   9.890  10.674   6.795
58073SOL     OW74242  10.865  10.821   6.289
58073SOL    HW174243  10.808  10.805   6.370
58073SOL    HW274244  10.806  10.831   6.209
58074SOL     OW74245  10.445  10.013   6.303
58074SOL    HW174246  10.502  10.091   6.278
58074SOL    HW274247  10.385  10.039   6.379
58075SOL     OW74248  11.065   9.917   5.817
58075SOL    HW174249  11.053   9.904   5.718
58075SOL    HW274250  11.035   9.836   5.866
58076SOL     OW74251  10.078  10.454   6.609
58076SOL    HW174252  10.000  10.471   6.669
58076SOL    HW274253  10.112  10.541   6.573
58077SOL     OW74254  10.160  10.108   7.409
58077SOL    HW174255  10.156  10.184   7.474
58077SOL    HW274256  10.182  10.144   7.318
58078SOL     OW74257   9.995  10.322   6.251
58078SOL    HW174258  10.064  10.306   6.321
58078SOL    HW274259   9.922  10.379   6.289
58079SOL     OW74260   9.996  10.471   7.389
58079SOL    HW174261  10.056  10.550   7.403
58079SOL    HW274262   9.910  10.502   7.348
58080SOL     OW74263   9.645  10.745   6.647
58080SOL    HW174264   9.567  10.714   6.594
58080SOL    HW274265   9.703  10.803   6.590
58081SOL     OW74266  10.770  10.815   6.925
58081SOL    HW174267  10.794  10.909   6.951
58081SOL    HW274268  10.754  10.761   7.007
58082SOL     OW74269   9.748   9.702   7.085
58082SOL    HW174270   9.830   9.646   7.094
58082SOL    HW274271   9.667   9.644   7.089
58083SOL     OW74272  10.913   9.757   6.323
58083SOL    HW174273  10.839   9.803   6.273
58083SOL    HW274274  10.964   9.825   6.376
58084SOL     OW74275   9.541  11.023   6.069
58084SOL    HW174276   9.575  11.100   6.123
58084SOL    HW274277   9.585  11.023   5.979
58085SOL     OW74278  10.437  10.651   7.276
58085SOL    HW174279  10.484  10.651   7.364
58085SOL    HW274280  10.389  10.564   7.265
58086SOL     OW74281   9.540  10.744   6.124
58086SOL    HW174282   9.514  10.840   6.124
58086SOL    HW274283   9.469  10.690   6.169
58087SOL     OW74284   9.550  10.401   6.472
58087SOL    HW174285   9.564  10.317   6.524
58087SOL    HW274286   9.495  10.465   6.527
58088SOL     OW74287   9.930  11.096   7.025
58088SOL    HW174288   9.838  11.079   7.060
58088SOL    HW274289   9.958  11.188   7.051
58089SOL     OW74290   9.916  10.274   5.709
58089SOL    HW174291   9.923  10.358   5.655
58089SOL    HW274292   9.962  10.287   5.797
58090SOL     OW74293  10.904   9.424   7.066
58090SOL    HW174294  10.886   9.491   6.994
58090SOL    HW274295  10.901   9.470   7.155
58091SOL     OW74296   9.432   9.953   6.149
58091SOL    HW174297   9.387   9.865   6.166
58091SOL    HW274298   9.431  10.007   6.233
58092SOL     OW74299  11.152  11.077   5.945
58092SOL    HW174300  11.206  11.048   6.025
58092SOL    HW274301  11.182  11.167   5.916
58093SOL     OW74302   9.337  10.906   5.703
58093SOL    HW174303   9.318  10.810   5.724
58093SOL    HW274304   9.304  10.964   5.778
58094SOL     OW74305  10.999  10.232   6.198
58094SOL    HW174306  11.094  10.203   6.206
58094SOL    HW274307  10.991  10.297   6.123
58095SOL     OW74308  10.951  10.418   6.018
58095SOL    HW174309  11.037  10.420   5.966
58095SOL    HW274310  10.965  10.465   6.106
58096SOL     OW74311   9.423  10.047   7.183
58096SOL    HW174312   9.511  10.034   7.228
58096SOL    HW274313   9.410  10.144   7.161
58097SOL     OW74314   9.923  10.675   6.312
58097SOL    HW174315   9.874  10.588   6.321
58097SOL    HW274316   9.900  10.718   6.225
58098SOL     OW74317  10.603  10.538   7.009
58098SOL    HW174318  10.640  10.465   6.951
58098SOL    HW274319  10.655  10.543   7.094
58099SOL     OW74320  10.119   9.314   6.088
58099SOL    HW174321  10.159   9.405   6.079
58099SOL    HW274322  10.019   9.322   6.094
58100SOL     OW74323   9.507  10.286   6.850
58100SOL    HW174324   9.596  10.241   6.836
58100SOL    HW274325   9.434  10.221   6.831
58101SOL     OW74326  10.835  10.309   5.776
58101SOL    HW174327  10.772  10.233   5.789
58101SOL    HW274328  10.883  10.327   5.862
58102SOL     OW74329  10.497  11.102   7.202
58102SOL    HW174330  10.521  11.162   7.126
58102SOL    HW274331  10.504  11.007   7.172
58103SOL     OW74332   9.627   9.561   7.387
58103SOL    HW174333   9.698   9.632   7.393
58103SOL    HW274334   9.539   9.600   7.415
58104SOL     OW74335  10.776  10.727   6.539
58104SOL    HW174336  10.717  10.733   6.619
58104SOL    HW274337  10.761  10.639   6.493
58105SOL     OW74338  10.977  11.024   6.158
58105SOL    HW174339  10.936  11.001   6.070
58105SOL    HW274340  10.959  10.950   6.223
58106SOL     OW74341   9.908  10.039   5.856
58106SOL    HW174342   9.932  10.108   5.788
58106SOL    HW274343   9.830  10.072   5.910
58107SOL     OW74344  10.591   9.655   6.530
58107SOL    HW174345  10.505   9.605   6.517
58107SOL    HW274346  10.653   9.601   6.586
58108SOL     OW74347  10.886  10.972   5.893
58108SOL    HW174348  10.975  11.018   5.896
58108SOL    HW274349  10.865  10.948   5.798
58109SOL     OW74350  10.117   9.915   7.051
58109SOL    HW174351  10.070   9.912   7.140
58109SOL    HW274352  10.066   9.860   6.985
58110SOL     OW74353  10.704   9.779   7.260
58110SOL    HW174354  10.684   9.822   7.348
58110SOL    HW274355  10.782   9.717   7.269
58111SOL     OW74356  10.283  10.200   7.158
58111SOL    HW174357  10.329  10.116   7.129
58111SOL    HW274358  10.227  10.234   7.083
58112SOL     OW74359  10.301   9.720   6.828
58112SOL    HW174360  10.224   9.754   6.882
58112SOL    HW274361  10.267   9.669   6.749
58113SOL     OW74362  10.351  10.011   6.015
58113SOL    HW174363  10.377  10.007   6.111
58113SOL    HW274364  10.266   9.960   6.001
58114SOL     OW74365   9.386  10.121   6.375
58114SOL    HW174366   9.485  10.109   6.384
58114SOL    HW274367   9.362  10.216   6.396
58115SOL     OW74368   9.440  11.131   7.157
58115SOL    HW174369   9.430  11.116   7.256
58115SOL    HW274370   9.354  11.167   7.121
58116SOL     OW74371  10.175   9.658   5.781
58116SOL    HW174372  10.234   9.721   5.732
58116SOL    HW274373  10.194   9.564   5.752
58117SOL     OW74374  11.029   9.895   7.417
58117SOL    HW174375  11.003   9.984   7.381
58117SOL    HW274376  11.027   9.827   7.344
58118SOL     OW74377  10.672  10.454   6.131
58118SOL    HW174378  10.755  10.425   6.083
58118SOL    HW274379  10.623  10.521   6.075
58119SOL     OW74380   9.860   9.506   6.471
58119SOL    HW174381   9.855   9.501   6.571
58119SOL    HW274382   9.862   9.602   6.442
58120SOL     OW74383  10.318  10.766   6.063
58120SOL    HW174384  10.272  10.838   6.011
58120SOL    HW274385  10.314  10.786   6.161
58121SOL     OW74386   9.661  11.111   6.439
58121SOL    HW174387   9.711  11.025   6.445
58121SOL    HW274388   9.726  11.188   6.436
58122SOL     OW74389  11.105  10.376   6.459
58122SOL    HW174390  11.043  10.361   6.383
58122SOL    HW274391  11.053  10.387   6.544
58123SOL     OW74392  10.537  10.860   7.092
58123SOL    HW174393  10.543  10.783   7.156
58123SOL    HW274394  10.485  10.834   7.012
58124SOL     OW74395   9.631  10.253   5.828
58124SOL    HW174396   9.713  10.292   5.786
58124SOL    HW274397   9.604  10.171   5.779
58125SOL     OW74398  10.768  10.045   6.314
58125SOL    HW174399  10.763   9.980   6.389
58125SOL    HW274400  10.848  10.104   6.327
58126SOL     OW74401   9.771  10.576   7.313
58126SOL    HW174402   9.721  10.577   7.227
58126SOL    HW274403   9.708  10.558   7.389
58127SOL     OW74404  10.421  11.086   5.823
58127SOL    HW174405  10.361  11.024   5.873
58127SOL    HW274406  10.452  11.042   5.738
58128SOL     OW74407   9.512   9.595   7.084
58128SOL    HW174408   9.432   9.655   7.071
58128SOL    HW274409   9.502   9.546   7.170
58129SOL     OW74410  10.942  10.687   5.667
58129SOL    HW174411  10.910  10.781   5.657
58129SOL    HW274412  10.866  10.624   5.655
58130SOL     OW74413   9.774  11.053   5.909
58130SOL    HW174414   9.807  11.092   5.995
58130SOL    HW274415   9.850  11.046   5.844
58131SOL     OW74416  10.710   9.417   6.012
58131SOL    HW174417  10.686   9.380   5.922
58131SOL    HW274418  10.809   9.433   6.016
58132SOL     OW74419   9.559  11.095   6.827
58132SOL    HW174420   9.616  11.030   6.877
58132SOL    HW274421   9.543  11.062   6.734
58133SOL     OW74422  10.250  11.008   6.490
58133SOL    HW174423  10.330  10.951   6.511
58133SOL    HW274424  10.201  10.968   6.413
58134SOL     OW74425   9.692  10.010   6.066
58134SOL    HW174426   9.737   9.920   6.063
58134SOL    HW274427   9.598   9.999   6.099
58135SOL     OW74428  10.857   9.532   7.315
58135SOL    HW174429  10.852   9.569   7.407
58135SOL    HW274430  10.785   9.463   7.303
58136SOL     OW74431   9.924   9.432   5.703
58136SOL    HW174432  10.022   9.410   5.710
58136SOL    HW274433   9.893   9.415   5.610
58137SOL     OW74434  10.091   9.574   7.335
58137SOL    HW174435  10.158   9.513   7.378
58137SOL    HW274436  10.018   9.593   7.400
58138SOL     OW74437  10.198  10.824   6.781
58138SOL    HW174438  10.175  10.799   6.687
58138SOL    HW274439  10.259  10.755   6.820
58139SOL     OW74440  10.661   9.900   7.019
58139SOL    HW174441  10.689   9.857   7.104
58139SOL    HW274442  10.686   9.996   7.020
58140SOL     OW74443  10.113  10.712   6.510
58140SOL    HW174444  10.203  10.726   6.468
58140SOL    HW274445  10.042  10.714   6.439
58141SOL     OW74446  10.232   9.813   6.485
58141SOL    HW174447  10.207   9.804   6.389
58141SOL    HW274448  10.280   9.731   6.516
58142SOL     OW74449   9.849   9.374   6.098
58142SOL    HW174450   9.768   9.375   6.156
58142SOL    HW274451   9.852   9.457   6.043
58143SOL     OW74452  10.744  10.498   5.627
58143SOL    HW174453  10.776  10.422   5.684
58143SOL    HW274454  10.652  10.525   5.657
58144SOL     OW74455   9.607   9.345   5.757
58144SOL    HW174456   9.656   9.429   5.736
58144SOL    HW274457   9.669   9.280   5.802
58145SOL     OW74458  10.245   9.546   6.066
58145SOL    HW174459  10.197   9.587   5.988
58145SOL    HW274460  10.344   9.544   6.047
58146SOL     OW74461  10.386   9.993   7.050
58146SOL    HW174462  10.306   9.932   7.053
58146SOL    HW274463  10.467   9.940   7.026
58147SOL     OW74464  10.537  10.880   6.379
58147SOL    HW174465  10.558  10.954   6.314
58147SOL    HW274466  10.605  10.880   6.452
58148SOL     OW74467   9.769  10.462   6.327
58148SOL    HW174468   9.698  10.435   6.392
58148SOL    HW274469   9.743  10.434   6.234
58149SOL     OW74470  10.581  11.107   6.177
58149SOL    HW174471  10.625  11.171   6.113
58149SOL    HW274472  10.531  11.159   6.247
58150SOL     OW74473  10.342   9.859   5.602
58150SOL    HW174474  10.301   9.941   5.563
58150SOL    HW274475  10.406   9.885   5.675
58151SOL     OW74476   9.388   9.866   6.972
58151SOL    HW174477   9.480   9.865   6.931
58151SOL    HW274478   9.382   9.940   7.039
58152SOL     OW74479   9.871   9.532   6.733
58152SOL    HW174480   9.909   9.448   6.770
58152SOL    HW274481   9.783   9.551   6.777
58153SOL     OW74482  10.176   9.764   6.228
58153SOL    HW174483  10.144   9.836   6.166
58153SOL    HW274484  10.200   9.683   6.175
58154SOL     OW74485  10.327   9.349   6.339
58154SOL    HW174486  10.255   9.354   6.270
58154SOL    HW274487  10.303   9.280   6.408
58155SOL     OW74488  10.739  10.483   6.453
58155SOL    HW174489  10.684  10.399   6.446
58155SOL    HW274490  10.765  10.512   6.361
58156SOL     OW74491  10.776   9.900   6.578
58156SOL    HW174492  10.746   9.805   6.585
58156SOL    HW274493  10.849   9.916   6.644
58157SOL     OW74494  11.167  10.143   5.963
58157SOL    HW174495  11.209  10.079   6.027
58157SOL    HW274496  11.129  10.092   5.885
58158SOL     OW74497   9.798  10.695   5.760
58158SOL    HW174498   9.711  10.680   5.807
58158SOL    HW274499   9.781  10.721   5.665
58159SOL     OW74500  10.974  10.590   6.243
58159SOL    HW174501  11.073  10.598   6.257
58159SOL    HW274502  10.929  10.674   6.274
58160SOL     OW74503  10.700   9.885   5.664
58160SOL    HW174504  10.646   9.864   5.745
58160SOL    HW274505  10.791   9.844   5.673
58161SOL     OW74506   9.837   9.566   5.914
58161SOL    HW174507   9.864   9.507   5.839
58161SOL    HW274508   9.837   9.661   5.883
58162SOL     OW74509  11.064  10.533   7.174
58162SOL    HW174510  11.155  10.494   7.161
58162SOL    HW274511  11.072  10.629   7.198
58163SOL     OW74512  10.374  10.657   6.926
58163SOL    HW174513  10.294  10.634   6.981
58163SOL    HW274514  10.457  10.631   6.975
58164SOL     OW74515  10.902  10.939   7.211
58164SOL    HW174516  10.929  10.973   7.121
58164SOL    HW274517  10.981  10.901   7.257
58165SOL     OW74518  10.421  10.505   6.686
58165SOL    HW174519  10.381  10.549   6.767
58165SOL    HW274520  10.380  10.542   6.603
58166SOL     OW74521  10.948  10.409   6.665
58166SOL    HW174522  10.953  10.490   6.724
58166SOL    HW274523  10.862  10.411   6.614
58167SOL     OW74524  10.225   9.399   6.988
58167SOL    HW174525  10.250   9.379   6.893
58167SOL    HW274526  10.297   9.455   7.030
58168SOL     OW74527  10.290  10.426   7.305
58168SOL    HW174528  10.191  10.432   7.315
58168SOL    HW274529  10.313  10.346   7.249
58169SOL     OW74530  10.015  10.360   5.954
58169SOL    HW174531  10.001  10.367   6.053
58169SOL    HW274532  10.099  10.309   5.936
58170SOL     OW74533   9.720  10.123   6.837
58170SOL    HW174534   9.806  10.135   6.887
58170SOL    HW274535   9.678  10.036   6.864
58171SOL     OW74536  10.584   9.696   6.848
58171SOL    HW174537  10.605   9.770   6.912
58171SOL    HW274538  10.495   9.713   6.805
58172SOL     OW74539   9.374  10.874   6.917
58172SOL    HW174540   9.328  10.956   6.883
58172SOL    HW274541   9.472  10.893   6.926
58173SOL     OW74542   9.677  10.410   6.087
58173SOL    HW174543   9.670  10.493   6.031
58173SOL    HW274544   9.681  10.330   6.027
58174SOL     OW74545   9.876   9.847   6.451
58174SOL    HW174546   9.888   9.913   6.377
58174SOL    HW274547   9.922   9.881   6.534
58175SOL     OW74548  10.562  10.658   5.974
58175SOL    HW174549  10.612  10.735   6.014
58175SOL    HW274550  10.467  10.660   6.006
58176SOL     OW74551  10.582  10.755   6.728
58176SOL    HW174552  10.629  10.768   6.815
58176SOL    HW274553  10.516  10.681   6.737
58177SOL     OW74554  10.892   9.949   6.058
58177SOL    HW174555  10.861  10.010   6.131
58177SOL    HW274556  10.942  10.001   5.989
58178SOL     OW74557   9.664  10.820   6.915
58178SOL    HW174558   9.643  10.776   6.828
58178SOL    HW274559   9.761  10.846   6.918
58179SOL     OW74560   9.712  10.061   7.184
58179SOL    HW174561   9.780  10.116   7.137
58179SOL    HW274562   9.752   9.973   7.211
58180SOL     OW74563  10.897  10.089   7.256
58180SOL    HW174564  10.805  10.127   7.251
58180SOL    HW274565  10.957  10.136   7.191
58181SOL     OW74566  10.323   9.415   7.356
58181SOL    HW174567  10.329   9.500   7.304
58181SOL    HW274568  10.355   9.339   7.299
58182SOL     OW74569   9.814   9.360   7.326
58182SOL    HW174570   9.772   9.303   7.256
58182SOL    HW274571   9.748   9.429   7.358
58183SOL     OW74572   9.883  10.180   6.615
58183SOL    HW174573   9.927  10.269   6.606
58183SOL    HW274574   9.820  10.180   6.692
58184SOL     OW74575  10.670  10.172   6.631
58184SOL    HW174576  10.595  10.172   6.565
58184SOL    HW274577  10.707  10.080   6.640
58185SOL     OW74578  10.519   9.835   5.861
58185SOL    HW174579  10.532   9.751   5.915
58185SOL    HW274580  10.490   9.909   5.921
58186SOL     OW74581   9.617   9.523   6.817
58186SOL    HW174582   9.594   9.560   6.907
58186SOL    HW274583   9.587   9.428   6.811
58187SOL     OW74584   9.347  10.620   6.868
58187SOL    HW174585   9.400  10.571   6.936
58187SOL    HW274586   9.369  10.718   6.873
58188SOL     OW74587  10.042   9.944   6.650
58188SOL    HW174588  10.101   9.918   6.574
58188SOL    HW274589  10.014  10.040   6.639
58189SOL     OW74590  11.038  10.245   7.440
58189SOL    HW174591  10.992  10.238   7.351
58189SOL    HW274592  10.976  10.289   7.506
58190SOL     OW74593   9.617   9.373   6.204
58190SOL    HW174594   9.606   9.467   6.237
58190SOL    HW274595   9.612   9.310   6.281
58191SOL     OW74596  10.932   9.677   5.960
58191SOL    HW174597  10.934   9.601   6.024
58191SOL    HW274598  10.884   9.754   6.000
58192SOL     OW74599  10.333  10.076   6.552
58192SOL    HW174600  10.348  10.097   6.648
58192SOL    HW274601  10.303   9.981   6.543
58193SOL     OW74602  10.290  10.883   7.286
58193SOL    HW174603  10.270  10.927   7.198
58193SOL    HW274604  10.329  10.792   7.270
58194SOL     OW74605  11.169  10.828   7.191
58194SOL    HW174606  11.183  10.855   7.096
58194SOL    HW274607  11.252  10.850   7.244
58195SOL     OW74608   9.660  10.208   7.390
58195SOL    HW174609   9.736  10.252   7.438
58195SOL    HW274610   9.695  10.161   7.308
58196SOL     OW74611  10.850   9.584   5.711
58196SOL    HW174612  10.789   9.509   5.734
58196SOL    HW274613  10.872   9.636   5.794
58197SOL     OW74614  10.613  10.148   5.628
58197SOL    HW174615  10.647  10.055   5.643
58197SOL    HW274616  10.631  10.175   5.533
58198SOL     OW74617  10.378  10.643   6.435
58198SOL    HW174618  10.385  10.559   6.380
58198SOL    HW274619  10.440  10.712   6.399
58199SOL     OW74620   9.629  10.120   6.535
58199SOL    HW174621   9.722  10.156   6.540
58199SOL    HW274622   9.623  10.035   6.587
58200SOL     OW74623   9.649   9.819   6.592
58200SOL    HW174624   9.597   9.736   6.575
58200SOL    HW274625   9.726   9.824   6.528
58201SOL     OW74626  10.448   9.690   7.264
58201SOL    HW174627  10.403   9.753   7.328
58201SOL    HW274628  10.541   9.721   7.247
58202SOL     OW74629  10.470   9.517   7.063
58202SOL    HW174630  10.470   9.581   7.140
58202SOL    HW274631  10.498   9.565   6.980
58203SOL     OW74632   9.318  10.636   5.786
58203SOL    HW174633   9.225  10.657   5.755
58203SOL    HW274634   9.328  10.537   5.799
58204SOL     OW74635   9.398  11.111   6.513
58204SOL    HW174636   9.356  11.025   6.486
58204SOL    HW274637   9.492  11.114   6.479
58205SOL     OW74638   9.814  10.878   6.496
58205SOL    HW174639   9.880  10.952   6.505
58205SOL    HW274640   9.858  10.799   6.454
58206SOL     OW74641  10.312  10.106   6.824
58206SOL    HW174642  10.353  10.074   6.910
58206SOL    HW274643  10.216  10.079   6.821
58207SOL     OW74644   9.350   9.854   6.700
58207SOL    HW174645   9.435   9.821   6.659
58207SOL    HW274646   9.363   9.869   6.798
58208SOL     OW74647   9.499   9.830   7.308
58208SOL    HW174648   9.558   9.790   7.238
58208SOL    HW274649   9.441   9.901   7.267
58209SOL     OW74650  10.679  10.260   7.246
58209SOL    HW174651  10.718  10.349   7.266
58209SOL    HW274652  10.689  10.240   7.149
58210SOL     OW74653  10.125   9.882   5.911
58210SOL    HW174654  10.132   9.793   5.865
58210SOL    HW274655  10.031   9.916   5.903
58211SOL     OW74656  10.967   9.914   6.792
58211SOL    HW174657  10.929   9.845   6.854
58211SOL    HW274658  11.049   9.878   6.748
58212SOL     OW74659   9.562  10.874   7.330
58212SOL    HW174660   9.532  10.931   7.406
58212SOL    HW274661   9.555  10.777   7.356
58213SOL     OW74662   9.981   9.774   6.855
58213SOL    HW174663   9.947   9.685   6.825
58213SOL    HW274664  10.007   9.828   6.775
58214SOL     OW74665  10.240  10.988   7.051
58214SOL    HW174666  10.216  10.970   6.956
58214SOL    HW274667  10.270  11.082   7.061
58215SOL     OW74668   9.783   9.810   5.777
58215SOL    HW174669   9.844   9.890   5.781
58215SOL    HW274670   9.688   9.841   5.784
58216SOL     OW74671   9.469  10.447   7.052
58216SOL    HW174672   9.491  10.386   7.128
58216SOL    HW274673   9.479  10.398   6.966
58217SOL     OW74674  10.657  10.369   6.820
58217SOL    HW174675  10.681  10.306   6.746
58217SOL    HW274676  10.567  10.409   6.802
58218SOL     OW74677  10.612  10.165   5.895
58218SOL    HW174678  10.526  10.134   5.937
58218SOL    HW274679  10.608  10.151   5.796
58219SOL     OW74680  11.069  11.057   6.740
58219SOL    HW174681  11.130  11.087   6.667
58219SOL    HW274682  11.031  10.968   6.718
58220SOL     OW74683  10.562  11.041   6.714
58220SOL    HW174684  10.646  11.046   6.660
58220SOL    HW274685  10.539  10.945   6.732
58221SOL     OW74686   9.393  10.568   6.608
58221SOL    HW174687   9.388  10.567   6.708
58221SOL    HW274688   9.310  10.527   6.570
58222SOL     OW74689   9.998  10.972   7.302
58222SOL    HW174690   9.942  11.053   7.311
58222SOL    HW274691  10.050  10.976   7.216
58223SOL     OW74692  11.036   9.445   6.109
58223SOL    HW174693  11.109   9.428   6.042
58223SOL    HW274694  11.005   9.358   6.147
58224SOL     OW74695  10.698  10.883   6.063
58224SOL    HW174696  10.765  10.895   5.989
58224SOL    HW274697  10.658  10.972   6.086
58225SOL     OW74698   9.440  11.104   7.437
58225SOL    HW174699   9.399  11.030   7.490
58225SOL    HW274700   9.504  11.155   7.495
58226SOL     OW74701  10.590  10.237   6.258
58226SOL    HW174702  10.650  10.156   6.260
58226SOL    HW274703  10.630  10.306   6.198
58227SOL     OW74704  10.140  10.583   7.008
58227SOL    HW174705  10.135  10.616   7.103
58227SOL    HW274706  10.054  10.602   6.962
58228SOL     OW74707   9.982  10.926   5.740
58228SOL    HW174708   9.991  10.936   5.641
58228SOL    HW274709   9.942  10.837   5.761
58229SOL     OW74710  10.960  11.030   6.980
58229SOL    HW174711  11.013  11.040   6.896
58229SOL    HW274712  10.933  11.120   7.014
58230SOL     OW74713  11.151   9.485   6.549
58230SOL    HW174714  11.190   9.400   6.513
58230SOL    HW274715  11.053   9.487   6.530
58231SOL     OW74716   9.573   9.636   6.306
58231SOL    HW174717   9.494   9.687   6.272
58231SOL    HW274718   9.564   9.621   6.404
58232SOL     OW74719  10.504  10.922   5.617
58232SOL    HW174720  10.510  10.829   5.654
58232SOL    HW274721  10.445  10.922   5.537
58233SOL     OW74722  10.132  10.312   6.958
58233SOL    HW174723  10.172  10.311   6.866
58233SOL    HW274724  10.142  10.404   6.998
58234SOL     OW74725  10.226  10.220   5.877
58234SOL    HW174726  10.289  10.258   5.809
58234SOL    HW274727  10.266  10.137   5.916
58235SOL     OW74728  10.814  10.917   5.630
58235SOL    HW174729  10.722  10.954   5.637
58235SOL    HW274730  10.852  10.937   5.540
58236SOL     OW74731   9.682  10.598   7.076
58236SOL    HW174732   9.669  10.691   7.042
58236SOL    HW274733   9.598  10.546   7.063
58237SOL     OW74734  10.924  10.602   6.875
58237SOL    HW174735  10.984  10.605   6.955
58237SOL    HW274736  10.849  10.666   6.888
58238SOL     OW74737  10.349  10.408   6.282
58238SOL    HW174738  10.279  10.361   6.336
58238SOL    HW274739  10.408  10.340   6.239
58239SOL     OW74740  10.324   9.546   6.557
58239SOL    HW174741  10.316   9.510   6.464
58239SOL    HW274742  10.322   9.470   6.622
58240SOL     OW74743   9.900  10.797   6.077
58240SOL    HW174744   9.942  10.739   6.007
58240SOL    HW274745   9.856  10.876   6.033
58241SOL     OW74746  11.019   9.695   6.967
58241SOL    HW174747  11.092   9.764   6.971
58241SOL    HW274748  11.047   9.620   6.908
58242SOL     OW74749   9.565  10.658   5.876
58242SOL    HW174750   9.469  10.659   5.849
58242SOL    HW274751   9.577  10.711   5.960
58243SOL     OW74752   9.415  10.323   7.312
58243SOL    HW174753   9.338  10.290   7.366
58243SOL    HW274754   9.500  10.293   7.354
58244SOL     OW74755   9.982   9.513   7.075
58244SOL    HW174756  10.072   9.497   7.035
58244SOL    HW274757   9.990   9.518   7.174
58245SOL     OW74758   9.385   9.655   5.619
58245SOL    HW174759   9.293   9.627   5.590
58245SOL    HW274760   9.416   9.732   5.563
58246SOL     OW74761  10.750  10.166   6.984
58246SOL    HW174762  10.693  10.218   6.921
58246SOL    HW274763  10.846  10.178   6.960
58247SOL     OW74764   9.382   9.476   5.904
58247SOL    HW174765   9.365   9.559   5.850
58247SOL    HW274766   9.472   9.439   5.882
58248SOL     OW74767  10.493  10.645   5.705
58248SOL    HW174768  10.394  10.634   5.707
58248SOL    HW274769  10.527  10.660   5.798
58249SOL     OW74770   9.923  10.152   7.017
58249SOL    HW174771   9.979  10.233   7.000
58249SOL    HW274772   9.982  10.072   7.020
58250SOL     OW74773  10.803  11.077   6.545
58250SOL    HW174774  10.836  11.141   6.476
58250SOL    HW274775  10.869  11.071   6.620
58251SOL     OW74776  10.026   9.875   7.294
58251SOL    HW174777  10.045   9.940   7.368
58251SOL    HW274778  10.086   9.795   7.303
58252SOL     OW74779  10.760  10.530   7.219
58252SOL    HW174780  10.751  10.520   7.318
58252SOL    HW274781  10.856  10.523   7.193
58253SOL     OW74782   9.700  11.051   7.146
58253SOL    HW174783   9.609  11.092   7.144
58253SOL    HW274784   9.693  10.957   7.178
58254SOL     OW74785  10.984  10.193   6.840
58254SOL    HW174786  10.957  10.104   6.803
58254SOL    HW274787  10.985  10.261   6.767
58255SOL     OW74788  10.535   9.635   6.035
58255SOL    HW174789  10.600   9.561   6.024
58255SOL    HW274790  10.555   9.685   6.119
58256SOL     OW74791   9.904  10.055   6.238
58256SOL    HW174792   9.954  10.140   6.219
58256SOL    HW274793   9.816  10.057   6.190
58257SOL     OW74794  11.087   9.652   7.228
58257SOL    HW174795  11.070   9.683   7.134
58257SOL    HW274796  11.003   9.615   7.266
58258SOL     OW74797  11.040  10.244   7.103
58258SOL    HW174798  11.078  10.335   7.118
58258SOL    HW274799  11.032  10.227   7.004
58259SOL     OW74800  10.169  10.684   5.602
58259SOL    HW174801  10.123  10.699   5.690
58259SOL    HW274802  10.213  10.769   5.572
58260SOL     OW74803   9.971  11.100   6.539
58260SOL    HW174804   9.925  11.188   6.526
58260SOL    HW274805  10.070  11.112   6.532
58261SOL     OW74806  10.169  10.266   6.447
58261SOL    HW174807  10.223  10.197   6.495
58261SOL    HW274808  10.137  10.335   6.513
58262SOL     OW74809  10.393  10.294   5.673
58262SOL    HW174810  10.370  10.347   5.591
58262SOL    HW274811  10.474  10.238   5.654
58263SOL     OW74812  11.171  10.879   6.437
58263SOL    HW174813  11.100  10.867   6.367
58263SOL    HW274814  11.172  10.800   6.497
58264SOL     OW74815   9.531  10.624   7.430
58264SOL    HW174816   9.466  10.551   7.409
58264SOL    HW274817   9.535  10.638   7.528
58265SOL     OW74818   9.389  10.550   6.239
58265SOL    HW174819   9.388  10.503   6.327
58265SOL    HW274820   9.471  10.522   6.188
58266SOL     OW74821   9.982  10.701   7.210
58266SOL    HW174822   9.904  10.651   7.248
58266SOL    HW274823   9.979  10.796   7.241
58267SOL     OW74824  11.134   9.502   6.813
58267SOL    HW174825  11.130   9.412   6.857
58267SOL    HW274826  11.137   9.491   6.714
58268SOL     OW74827   9.738   9.734   6.106
58268SOL    HW174828   9.768   9.662   6.044
58268SOL    HW274829   9.699   9.694   6.189
58269SOL     OW74830  11.015  10.797   6.690
58269SOL    HW174831  10.922  10.772   6.663
58269SOL    HW274832  11.041  10.747   6.772
58270SOL     OW74833   9.627   9.857   6.866
58270SOL    HW174834   9.665   9.798   6.938
58270SOL    HW274835   9.667   9.831   6.778
58271SOL     OW74836  10.122  10.896   6.273
58271SOL    HW174837  10.154  10.906   6.179
58271SOL    HW274838  10.043  10.834   6.275
58272SOL     OW74839  10.734   9.524   6.698
58272SOL    HW174840  10.786   9.459   6.753
58272SOL    HW274841  10.685   9.587   6.759
58273SOL     OW74842  10.311   9.344   6.740
58273SOL    HW174843  10.248   9.272   6.709
58273SOL    HW274844  10.404   9.308   6.740
58274SOL     OW74845  10.080  10.640   5.887
58274SOL    HW174846  10.034  10.553   5.904
58274SOL    HW274847  10.171  10.637   5.928
58275SOL     OW74848   9.928  10.877   6.870
58275SOL    HW174849   9.923  10.959   6.927
58275SOL    HW274850  10.017  10.874   6.825
58276SOL     OW74851  10.662   9.362   5.754
58276SOL    HW174852  10.697   9.321   5.670
58276SOL    HW274853  10.572   9.324   5.774
58277SOL     OW74854  10.610   9.763   6.277
58277SOL    HW174855  10.551   9.843   6.281
58277SOL    HW274856  10.625   9.728   6.370
58278SOL     OW74857  10.903   9.531   6.468
58278SOL    HW174858  10.819   9.530   6.522
58278SOL    HW274859  10.905   9.614   6.412
58279SOL     OW74860   9.349  10.387   5.886
58279SOL    HW174861   9.448  10.376   5.877
58279SOL    HW274862   9.309  10.301   5.918
58280SOL     OW74863  10.185  10.956   5.923
58280SOL    HW174864  10.108  10.921   5.869
58280SOL    HW274865  10.153  11.027   5.985
58281SOL     OW74866   9.540   9.938   7.561
58281SOL    HW174867   9.447   9.936   7.598
58281SOL    HW274868   9.541   9.899   7.469
58282SOL     OW74869   9.535   9.585   8.444
58282SOL    HW174870   9.570   9.568   8.536
58282SOL    HW274871   9.447   9.540   8.432
58283SOL     OW74872   9.329   9.678   8.095
58283SOL    HW174873   9.247   9.721   8.134
58283SOL    HW274874   9.301   9.605   8.032
58284SOL     OW74875   9.879  10.585   8.613
58284SOL    HW174876   9.786  10.578   8.576
58284SOL    HW274877   9.890  10.674   8.657
58285SOL     OW74878  10.865  10.821   8.151
58285SOL    HW174879  10.808  10.805   8.232
58285SOL    HW274880  10.806  10.831   8.071
58286SOL     OW74881  10.445  10.013   8.165
58286SOL    HW174882  10.502  10.091   8.140
58286SOL    HW274883  10.385  10.039   8.241
58287SOL     OW74884  11.065   9.917   7.679
58287SOL    HW174885  11.053   9.904   7.580
58287SOL    HW274886  11.035   9.836   7.728
58288SOL     OW74887  10.078  10.454   8.471
58288SOL    HW174888  10.000  10.471   8.531
58288SOL    HW274889  10.112  10.541   8.435
58289SOL     OW74890  10.160  10.108   9.271
58289SOL    HW174891  10.156  10.184   9.336
58289SOL    HW274892  10.182  10.144   9.180
58290SOL     OW74893   9.995  10.322   8.113
58290SOL    HW174894  10.064  10.306   8.183
58290SOL    HW274895   9.922  10.379   8.151
58291SOL     OW74896   9.996  10.471   9.251
58291SOL    HW174897  10.056  10.550   9.265
58291SOL    HW274898   9.910  10.502   9.210
58292SOL     OW74899   9.645  10.745   8.509
58292SOL    HW174900   9.567  10.714   8.456
58292SOL    HW274901   9.703  10.803   8.452
58293SOL     OW74902  10.770  10.815   8.787
58293SOL    HW174903  10.794  10.909   8.813
58293SOL    HW274904  10.754  10.761   8.869
58294SOL     OW74905   9.748   9.702   8.947
58294SOL    HW174906   9.830   9.646   8.956
58294SOL    HW274907   9.667   9.644   8.951
58295SOL     OW74908  10.913   9.757   8.185
58295SOL    HW174909  10.839   9.803   8.135
58295SOL    HW274910  10.964   9.825   8.238
58296SOL     OW74911   9.541  11.023   7.931
58296SOL    HW174912   9.575  11.100   7.985
58296SOL    HW274913   9.585  11.023   7.841
58297SOL     OW74914  10.437  10.651   9.138
58297SOL    HW174915  10.484  10.651   9.226
58297SOL    HW274916  10.389  10.564   9.127
58298SOL     OW74917   9.540  10.744   7.986
58298SOL    HW174918   9.514  10.840   7.986
58298SOL    HW274919   9.469  10.690   8.031
58299SOL     OW74920   9.550  10.401   8.334
58299SOL    HW174921   9.564  10.317   8.386
58299SOL    HW274922   9.495  10.465   8.389
58300SOL     OW74923   9.930  11.096   8.887
58300SOL    HW174924   9.838  11.079   8.922
58300SOL    HW274925   9.958  11.188   8.913
58301SOL     OW74926   9.916  10.274   7.571
58301SOL    HW174927   9.923  10.358   7.517
58301SOL    HW274928   9.962  10.287   7.659
58302SOL     OW74929  10.904   9.424   8.928
58302SOL    HW174930  10.886   9.491   8.856
58302SOL    HW274931  10.901   9.470   9.017
58303SOL     OW74932   9.432   9.953   8.011
58303SOL    HW174933   9.387   9.865   8.028
58303SOL    HW274934   9.431  10.007   8.095
58304SOL     OW74935  11.152  11.077   7.807
58304SOL    HW174936  11.206  11.048   7.887
58304SOL    HW274937  11.182  11.167   7.778
58305SOL     OW74938   9.337  10.906   7.565
58305SOL    HW174939   9.318  10.810   7.586
58305SOL    HW274940   9.304  10.964   7.640
58306SOL     OW74941  10.999  10.232   8.060
58306SOL    HW174942  11.094  10.203   8.068
58306SOL    HW274943  10.991  10.297   7.985
58307SOL     OW74944  10.951  10.418   7.880
58307SOL    HW174945  11.037  10.420   7.828
58307SOL    HW274946  10.965  10.465   7.968
58308SOL     OW74947   9.423  10.047   9.045
58308SOL    HW174948   9.511  10.034   9.090
58308SOL    HW274949   9.410  10.144   9.023
58309SOL     OW74950   9.923  10.675   8.174
58309SOL    HW174951   9.874  10.588   8.183
58309SOL    HW274952   9.900  10.718   8.087
58310SOL     OW74953  10.603  10.538   8.871
58310SOL    HW174954  10.640  10.465   8.813
58310SOL    HW274955  10.655  10.543   8.956
58311SOL     OW74956  10.119   9.314   7.950
58311SOL    HW174957  10.159   9.405   7.941
58311SOL    HW274958  10.019   9.322   7.956
58312SOL     OW74959   9.507  10.286   8.712
58312SOL    HW174960   9.596  10.241   8.698
58312SOL    HW274961   9.434  10.221   8.693
58313SOL     OW74962  10.835  10.309   7.638
58313SOL    HW174963  10.772  10.233   7.651
58313SOL    HW274964  10.883  10.327   7.724
58314SOL     OW74965  10.497  11.102   9.064
58314SOL    HW174966  10.521  11.162   8.988
58314SOL    HW274967  10.504  11.007   9.034
58315SOL     OW74968   9.627   9.561   9.249
58315SOL    HW174969   9.698   9.632   9.255
58315SOL    HW274970   9.539   9.600   9.277
58316SOL     OW74971  10.776  10.727   8.401
58316SOL    HW174972  10.717  10.733   8.481
58316SOL    HW274973  10.761  10.639   8.355
58317SOL     OW74974  10.977  11.024   8.020
58317SOL    HW174975  10.936  11.001   7.932
58317SOL    HW274976  10.959  10.950   8.085
58318SOL     OW74977   9.908  10.039   7.718
58318SOL    HW174978   9.932  10.108   7.650
58318SOL    HW274979   9.830  10.072   7.772
58319SOL     OW74980  10.591   9.655   8.392
58319SOL    HW174981  10.505   9.605   8.379
58319SOL    HW274982  10.653   9.601   8.448
58320SOL     OW74983  10.886  10.972   7.755
58320SOL    HW174984  10.975  11.018   7.758
58320SOL    HW274985  10.865  10.948   7.660
58321SOL     OW74986  10.117   9.915   8.913
58321SOL    HW174987  10.070   9.912   9.002
58321SOL    HW274988  10.066   9.860   8.847
58322SOL     OW74989  10.704   9.779   9.122
58322SOL    HW174990  10.684   9.822   9.210
58322SOL    HW274991  10.782   9.717   9.131
58323SOL     OW74992  10.283  10.200   9.020
58323SOL    HW174993  10.329  10.116   8.991
58323SOL    HW274994  10.227  10.234   8.945
58324SOL     OW74995  10.301   9.720   8.690
58324SOL    HW174996  10.224   9.754   8.744
58324SOL    HW274997  10.267   9.669   8.611
58325SOL     OW74998  10.351  10.011   7.877
58325SOL    HW174999  10.377  10.007   7.973
58325SOL    HW275000  10.266   9.960   7.863
58326SOL     OW75001   9.386  10.121   8.237
58326SOL    HW175002   9.485  10.109   8.246
58326SOL    HW275003   9.362  10.216   8.258
58327SOL     OW75004   9.440  11.131   9.019
58327SOL    HW175005   9.430  11.116   9.118
58327SOL    HW275006   9.354  11.167   8.983
58328SOL     OW75007  10.175   9.658   7.643
58328SOL    HW175008  10.234   9.721   7.594
58328SOL    HW275009  10.194   9.564   7.614
58329SOL     OW75010  11.029   9.895   9.279
58329SOL    HW175011  11.003   9.984   9.243
58329SOL    HW275012  11.027   9.827   9.206
58330SOL     OW75013  10.672  10.454   7.993
58330SOL    HW175014  10.755  10.425   7.945
58330SOL    HW275015  10.623  10.521   7.937
58331SOL     OW75016   9.860   9.506   8.333
58331SOL    HW175017   9.855   9.501   8.433
58331SOL    HW275018   9.862   9.602   8.304
58332SOL     OW75019  10.318  10.766   7.925
58332SOL    HW175020  10.272  10.838   7.873
58332SOL    HW275021  10.314  10.786   8.023
58333SOL     OW75022   9.661  11.111   8.301
58333SOL    HW175023   9.711  11.025   8.307
58333SOL    HW275024   9.726  11.188   8.298
58334SOL     OW75025  11.105  10.376   8.321
58334SOL    HW175026  11.043  10.361   8.245
58334SOL    HW275027  11.053  10.387   8.406
58335SOL     OW75028  10.537  10.860   8.954
58335SOL    HW175029  10.543  10.783   9.018
58335SOL    HW275030  10.485  10.834   8.874
58336SOL     OW75031   9.631  10.253   7.690
58336SOL    HW175032   9.713  10.292   7.648
58336SOL    HW275033   9.604  10.171   7.641
58337SOL     OW75034  10.768  10.045   8.176
58337SOL    HW175035  10.763   9.980   8.251
58337SOL    HW275036  10.848  10.104   8.189
58338SOL     OW75037   9.771  10.576   9.175
58338SOL    HW175038   9.721  10.577   9.089
58338SOL    HW275039   9.708  10.558   9.251
58339SOL     OW75040  10.421  11.086   7.685
58339SOL    HW175041  10.361  11.024   7.735
58339SOL    HW275042  10.452  11.042   7.600
58340SOL     OW75043   9.512   9.595   8.946
58340SOL    HW175044   9.432   9.655   8.933
58340SOL    HW275045   9.502   9.546   9.032
58341SOL     OW75046  10.942  10.687   7.529
58341SOL    HW175047  10.910  10.781   7.519
58341SOL    HW275048  10.866  10.624   7.517
58342SOL     OW75049   9.774  11.053   7.771
58342SOL    HW175050   9.807  11.092   7.857
58342SOL    HW275051   9.850  11.046   7.706
58343SOL     OW75052  10.710   9.417   7.874
58343SOL    HW175053  10.686   9.380   7.784
58343SOL    HW275054  10.809   9.433   7.878
58344SOL     OW75055   9.559  11.095   8.689
58344SOL    HW175056   9.616  11.030   8.739
58344SOL    HW275057   9.543  11.062   8.596
58345SOL     OW75058  10.250  11.008   8.352
58345SOL    HW175059  10.330  10.951   8.373
58345SOL    HW275060  10.201  10.968   8.275
58346SOL     OW75061   9.692  10.010   7.928
58346SOL    HW175062   9.737   9.920   7.925
58346SOL    HW275063   9.598   9.999   7.961
58347SOL     OW75064  10.857   9.532   9.177
58347SOL    HW175065  10.852   9.569   9.269
58347SOL    HW275066  10.785   9.463   9.165
58348SOL     OW75067   9.924   9.432   7.565
58348SOL    HW175068  10.022   9.410   7.572
58348SOL    HW275069   9.893   9.415   7.472
58349SOL     OW75070  10.091   9.574   9.197
58349SOL    HW175071  10.158   9.513   9.240
58349SOL    HW275072  10.018   9.593   9.262
58350SOL     OW75073  10.198  10.824   8.643
58350SOL    HW175074  10.175  10.799   8.549
58350SOL    HW275075  10.259  10.755   8.682
58351SOL     OW75076  10.661   9.900   8.881
58351SOL    HW175077  10.689   9.857   8.966
58351SOL    HW275078  10.686   9.996   8.882
58352SOL     OW75079  10.113  10.712   8.372
58352SOL    HW175080  10.203  10.726   8.330
58352SOL    HW275081  10.042  10.714   8.301
58353SOL     OW75082  10.232   9.813   8.347
58353SOL    HW175083  10.207   9.804   8.251
58353SOL    HW275084  10.280   9.731   8.378
58354SOL     OW75085   9.849   9.374   7.960
58354SOL    HW175086   9.768   9.375   8.018
58354SOL    HW275087   9.852   9.457   7.905
58355SOL     OW75088  10.744  10.498   7.489
58355SOL    HW175089  10.776  10.422   7.546
58355SOL    HW275090  10.652  10.525   7.519
58356SOL     OW75091   9.607   9.345   7.619
58356SOL    HW175092   9.656   9.429   7.598
58356SOL    HW275093   9.669   9.280   7.664
58357SOL     OW75094  10.245   9.546   7.928
58357SOL    HW175095  10.197   9.587   7.850
58357SOL    HW275096  10.344   9.544   7.909
58358SOL     OW75097  10.386   9.993   8.912
58358SOL    HW175098  10.306   9.932   8.915
58358SOL    HW275099  10.467   9.940   8.888
58359SOL     OW75100  10.537  10.880   8.241
58359SOL    HW175101  10.558  10.954   8.176
58359SOL    HW275102  10.605  10.880   8.314
58360SOL     OW75103   9.769  10.462   8.189
58360SOL    HW175104   9.698  10.435   8.254
58360SOL    HW275105   9.743  10.434   8.096
58361SOL     OW75106  10.581  11.107   8.039
58361SOL    HW175107  10.625  11.171   7.975
58361SOL    HW275108  10.531  11.159   8.109
58362SOL     OW75109  10.342   9.859   7.464
58362SOL    HW175110  10.301   9.941   7.425
58362SOL    HW275111  10.406   9.885   7.537
58363SOL     OW75112   9.388   9.866   8.834
58363SOL    HW175113   9.480   9.865   8.793
58363SOL    HW275114   9.382   9.940   8.901
58364SOL     OW75115   9.871   9.532   8.595
58364SOL    HW175116   9.909   9.448   8.632
58364SOL    HW275117   9.783   9.551   8.639
58365SOL     OW75118  10.176   9.764   8.090
58365SOL    HW175119  10.144   9.836   8.028
58365SOL    HW275120  10.200   9.683   8.037
58366SOL     OW75121  10.327   9.349   8.201
58366SOL    HW175122  10.255   9.354   8.132
58366SOL    HW275123  10.303   9.280   8.270
58367SOL     OW75124  10.739  10.483   8.315
58367SOL    HW175125  10.684  10.399   8.308
58367SOL    HW275126  10.765  10.512   8.223
58368SOL     OW75127  10.776   9.900   8.440
58368SOL    HW175128  10.746   9.805   8.447
58368SOL    HW275129  10.849   9.916   8.506
58369SOL     OW75130  11.167  10.143   7.825
58369SOL    HW175131  11.209  10.079   7.889
58369SOL    HW275132  11.129  10.092   7.747
58370SOL     OW75133   9.798  10.695   7.622
58370SOL    HW175134   9.711  10.680   7.669
58370SOL    HW275135   9.781  10.721   7.527
58371SOL     OW75136  10.974  10.590   8.105
58371SOL    HW175137  11.073  10.598   8.119
58371SOL    HW275138  10.929  10.674   8.136
58372SOL     OW75139  10.700   9.885   7.526
58372SOL    HW175140  10.646   9.864   7.607
58372SOL    HW275141  10.791   9.844   7.535
58373SOL     OW75142   9.837   9.566   7.776
58373SOL    HW175143   9.864   9.507   7.701
58373SOL    HW275144   9.837   9.661   7.745
58374SOL     OW75145  11.064  10.533   9.036
58374SOL    HW175146  11.155  10.494   9.023
58374SOL    HW275147  11.072  10.629   9.060
58375SOL     OW75148  10.374  10.657   8.788
58375SOL    HW175149  10.294  10.634   8.843
58375SOL    HW275150  10.457  10.631   8.837
58376SOL     OW75151  10.902  10.939   9.073
58376SOL    HW175152  10.929  10.973   8.983
58376SOL    HW275153  10.981  10.901   9.119
58377SOL     OW75154  10.421  10.505   8.548
58377SOL    HW175155  10.381  10.549   8.629
58377SOL    HW275156  10.380  10.542   8.465
58378SOL     OW75157  10.948  10.409   8.527
58378SOL    HW175158  10.953  10.490   8.586
58378SOL    HW275159  10.862  10.411   8.476
58379SOL     OW75160  10.225   9.399   8.850
58379SOL    HW175161  10.250   9.379   8.755
58379SOL    HW275162  10.297   9.455   8.892
58380SOL     OW75163  10.290  10.426   9.167
58380SOL    HW175164  10.191  10.432   9.177
58380SOL    HW275165  10.313  10.346   9.111
58381SOL     OW75166  10.015  10.360   7.816
58381SOL    HW175167  10.001  10.367   7.915
58381SOL    HW275168  10.099  10.309   7.798
58382SOL     OW75169   9.720  10.123   8.699
58382SOL    HW175170   9.806  10.135   8.749
58382SOL    HW275171   9.678  10.036   8.726
58383SOL     OW75172  10.584   9.696   8.710
58383SOL    HW175173  10.605   9.770   8.774
58383SOL    HW275174  10.495   9.713   8.667
58384SOL     OW75175   9.374  10.874   8.779
58384SOL    HW175176   9.328  10.956   8.745
58384SOL    HW275177   9.472  10.893   8.788
58385SOL     OW75178   9.677  10.410   7.949
58385SOL    HW175179   9.670  10.493   7.893
58385SOL    HW275180   9.681  10.330   7.889
58386SOL     OW75181   9.876   9.847   8.313
58386SOL    HW175182   9.888   9.913   8.239
58386SOL    HW275183   9.922   9.881   8.396
58387SOL     OW75184  10.562  10.658   7.836
58387SOL    HW175185  10.612  10.735   7.876
58387SOL    HW275186  10.467  10.660   7.868
58388SOL     OW75187  10.582  10.755   8.590
58388SOL    HW175188  10.629  10.768   8.677
58388SOL    HW275189  10.516  10.681   8.599
58389SOL     OW75190  10.892   9.949   7.920
58389SOL    HW175191  10.861  10.010   7.993
58389SOL    HW275192  10.942  10.001   7.851
58390SOL     OW75193   9.664  10.820   8.777
58390SOL    HW175194   9.643  10.776   8.690
58390SOL    HW275195   9.761  10.846   8.780
58391SOL     OW75196   9.712  10.061   9.046
58391SOL    HW175197   9.780  10.116   8.999
58391SOL    HW275198   9.752   9.973   9.073
58392SOL     OW75199  10.897  10.089   9.118
58392SOL    HW175200  10.805  10.127   9.113
58392SOL    HW275201  10.957  10.136   9.053
58393SOL     OW75202  10.323   9.415   9.218
58393SOL    HW175203  10.329   9.500   9.166
58393SOL    HW275204  10.355   9.339   9.161
58394SOL     OW75205   9.814   9.360   9.188
58394SOL    HW175206   9.772   9.303   9.118
58394SOL    HW275207   9.748   9.429   9.220
58395SOL     OW75208   9.883  10.180   8.477
58395SOL    HW175209   9.927  10.269   8.468
58395SOL    HW275210   9.820  10.180   8.554
58396SOL     OW75211  10.670  10.172   8.493
58396SOL    HW175212  10.595  10.172   8.427
58396SOL    HW275213  10.707  10.080   8.502
58397SOL     OW75214  10.519   9.835   7.723
58397SOL    HW175215  10.532   9.751   7.777
58397SOL    HW275216  10.490   9.909   7.783
58398SOL     OW75217   9.617   9.523   8.679
58398SOL    HW175218   9.594   9.560   8.769
58398SOL    HW275219   9.587   9.428   8.673
58399SOL     OW75220   9.347  10.620   8.730
58399SOL    HW175221   9.400  10.571   8.798
58399SOL    HW275222   9.369  10.718   8.735
58400SOL     OW75223  10.042   9.944   8.512
58400SOL    HW175224  10.101   9.918   8.436
58400SOL    HW275225  10.014  10.040   8.501
58401SOL     OW75226  11.038  10.245   9.302
58401SOL    HW175227  10.992  10.238   9.213
58401SOL    HW275228  10.976  10.289   9.368
58402SOL     OW75229   9.617   9.373   8.066
58402SOL    HW175230   9.606   9.467   8.099
58402SOL    HW275231   9.612   9.310   8.143
58403SOL     OW75232  10.932   9.677   7.822
58403SOL    HW175233  10.934   9.601   7.886
58403SOL    HW275234  10.884   9.754   7.862
58404SOL     OW75235  10.333  10.076   8.414
58404SOL    HW175236  10.348  10.097   8.510
58404SOL    HW275237  10.303   9.981   8.405
58405SOL     OW75238  10.290  10.883   9.148
58405SOL    HW175239  10.270  10.927   9.060
58405SOL    HW275240  10.329  10.792   9.132
58406SOL     OW75241  11.169  10.828   9.053
58406SOL    HW175242  11.183  10.855   8.958
58406SOL    HW275243  11.252  10.850   9.106
58407SOL     OW75244   9.660  10.208   9.252
58407SOL    HW175245   9.736  10.252   9.300
58407SOL    HW275246   9.695  10.161   9.170
58408SOL     OW75247  10.850   9.584   7.573
58408SOL    HW175248  10.789   9.509   7.596
58408SOL    HW275249  10.872   9.636   7.656
58409SOL     OW75250  10.613  10.148   7.490
58409SOL    HW175251  10.647  10.055   7.505
58409SOL    HW275252  10.631  10.175   7.395
58410SOL     OW75253  10.378  10.643   8.297
58410SOL    HW175254  10.385  10.559   8.242
58410SOL    HW275255  10.440  10.712   8.261
58411SOL     OW75256   9.629  10.120   8.397
58411SOL    HW175257   9.722  10.156   8.402
58411SOL    HW275258   9.623  10.035   8.449
58412SOL     OW75259   9.649   9.819   8.454
58412SOL    HW175260   9.597   9.736   8.437
58412SOL    HW275261   9.726   9.824   8.390
58413SOL     OW75262  10.448   9.690   9.126
58413SOL    HW175263  10.403   9.753   9.190
58413SOL    HW275264  10.541   9.721   9.109
58414SOL     OW75265  10.470   9.517   8.925
58414SOL    HW175266  10.470   9.581   9.002
58414SOL    HW275267  10.498   9.565   8.842
58415SOL     OW75268   9.318  10.636   7.648
58415SOL    HW175269   9.225  10.657   7.617
58415SOL    HW275270   9.328  10.537   7.661
58416SOL     OW75271   9.398  11.111   8.375
58416SOL    HW175272   9.356  11.025   8.348
58416SOL    HW275273   9.492  11.114   8.341
58417SOL     OW75274   9.814  10.878   8.358
58417SOL    HW175275   9.880  10.952   8.367
58417SOL    HW275276   9.858  10.799   8.316
58418SOL     OW75277  10.312  10.106   8.686
58418SOL    HW175278  10.353  10.074   8.772
58418SOL    HW275279  10.216  10.079   8.683
58419SOL     OW75280   9.350   9.854   8.562
58419SOL    HW175281   9.435   9.821   8.521
58419SOL    HW275282   9.363   9.869   8.660
58420SOL     OW75283   9.499   9.830   9.170
58420SOL    HW175284   9.558   9.790   9.100
58420SOL    HW275285   9.441   9.901   9.129
58421SOL     OW75286  10.679  10.260   9.108
58421SOL    HW175287  10.718  10.349   9.128
58421SOL    HW275288  10.689  10.240   9.011
58422SOL     OW75289  10.125   9.882   7.773
58422SOL    HW175290  10.132   9.793   7.727
58422SOL    HW275291  10.031   9.916   7.765
58423SOL     OW75292  10.967   9.914   8.654
58423SOL    HW175293  10.929   9.845   8.716
58423SOL    HW275294  11.049   9.878   8.610
58424SOL     OW75295   9.562  10.874   9.192
58424SOL    HW175296   9.532  10.931   9.268
58424SOL    HW275297   9.555  10.777   9.218
58425SOL     OW75298   9.981   9.774   8.717
58425SOL    HW175299   9.947   9.685   8.687
58425SOL    HW275300  10.007   9.828   8.637
58426SOL     OW75301  10.240  10.988   8.913
58426SOL    HW175302  10.216  10.970   8.818
58426SOL    HW275303  10.270  11.082   8.923
58427SOL     OW75304   9.783   9.810   7.639
58427SOL    HW175305   9.844   9.890   7.643
58427SOL    HW275306   9.688   9.841   7.646
58428SOL     OW75307   9.469  10.447   8.914
58428SOL    HW175308   9.491  10.386   8.990
58428SOL    HW275309   9.479  10.398   8.828
58429SOL     OW75310  10.657  10.369   8.682
58429SOL    HW175311  10.681  10.306   8.608
58429SOL    HW275312  10.567  10.409   8.664
58430SOL     OW75313  10.612  10.165   7.757
58430SOL    HW175314  10.526  10.134   7.799
58430SOL    HW275315  10.608  10.151   7.658
58431SOL     OW75316  11.069  11.057   8.602
58431SOL    HW175317  11.130  11.087   8.529
58431SOL    HW275318  11.031  10.968   8.580
58432SOL     OW75319  10.562  11.041   8.576
58432SOL    HW175320  10.646  11.046   8.522
58432SOL    HW275321  10.539  10.945   8.594
58433SOL     OW75322   9.393  10.568   8.470
58433SOL    HW175323   9.388  10.567   8.570
58433SOL    HW275324   9.310  10.527   8.432
58434SOL     OW75325   9.998  10.972   9.164
58434SOL    HW175326   9.942  11.053   9.173
58434SOL    HW275327  10.050  10.976   9.078
58435SOL     OW75328  11.036   9.445   7.971
58435SOL    HW175329  11.109   9.428   7.904
58435SOL    HW275330  11.005   9.358   8.009
58436SOL     OW75331  10.698  10.883   7.925
58436SOL    HW175332  10.765  10.895   7.851
58436SOL    HW275333  10.658  10.972   7.948
58437SOL     OW75334   9.440  11.104   9.299
58437SOL    HW175335   9.399  11.030   9.352
58437SOL    HW275336   9.504  11.155   9.357
58438SOL     OW75337  10.590  10.237   8.120
58438SOL    HW175338  10.650  10.156   8.122
58438SOL    HW275339  10.630  10.306   8.060
58439SOL     OW75340  10.140  10.583   8.870
58439SOL    HW175341  10.135  10.616   8.965
58439SOL    HW275342  10.054  10.602   8.824
58440SOL     OW75343   9.982  10.926   7.602
58440SOL    HW175344   9.991  10.936   7.503
58440SOL    HW275345   9.942  10.837   7.623
58441SOL     OW75346  10.960  11.030   8.842
58441SOL    HW175347  11.013  11.040   8.758
58441SOL    HW275348  10.933  11.120   8.876
58442SOL     OW75349  11.151   9.485   8.411
58442SOL    HW175350  11.190   9.400   8.375
58442SOL    HW275351  11.053   9.487   8.392
58443SOL     OW75352   9.573   9.636   8.168
58443SOL    HW175353   9.494   9.687   8.134
58443SOL    HW275354   9.564   9.621   8.266
58444SOL     OW75355  10.504  10.922   7.479
58444SOL    HW175356  10.510  10.829   7.516
58444SOL    HW275357  10.445  10.922   7.399
58445SOL     OW75358  10.132  10.312   8.820
58445SOL    HW175359  10.172  10.311   8.728
58445SOL    HW275360  10.142  10.404   8.860
58446SOL     OW75361  10.226  10.220   7.739
58446SOL    HW175362  10.289  10.258   7.671
58446SOL    HW275363  10.266  10.137   7.778
58447SOL     OW75364  10.814  10.917   7.492
58447SOL    HW175365  10.722  10.954   7.499
58447SOL    HW275366  10.852  10.937   7.402
58448SOL     OW75367   9.682  10.598   8.938
58448SOL    HW175368   9.669  10.691   8.904
58448SOL    HW275369   9.598  10.546   8.925
58449SOL     OW75370  10.924  10.602   8.737
58449SOL    HW175371  10.984  10.605   8.817
58449SOL    HW275372  10.849  10.666   8.750
58450SOL     OW75373  10.349  10.408   8.144
58450SOL    HW175374  10.279  10.361   8.198
58450SOL    HW275375  10.408  10.340   8.101
58451SOL     OW75376  10.324   9.546   8.419
58451SOL    HW175377  10.316   9.510   8.326
58451SOL    HW275378  10.322   9.470   8.484
58452SOL     OW75379   9.900  10.797   7.939
58452SOL    HW175380   9.942  10.739   7.869
58452SOL    HW275381   9.856  10.876   7.895
58453SOL     OW75382  11.019   9.695   8.829
58453SOL    HW175383  11.092   9.764   8.833
58453SOL    HW275384  11.047   9.620   8.770
58454SOL     OW75385   9.565  10.658   7.738
58454SOL    HW175386   9.469  10.659   7.711
58454SOL    HW275387   9.577  10.711   7.822
58455SOL     OW75388   9.415  10.323   9.174
58455SOL    HW175389   9.338  10.290   9.228
58455SOL    HW275390   9.500  10.293   9.216
58456SOL     OW75391   9.982   9.513   8.937
58456SOL    HW175392  10.072   9.497   8.897
58456SOL    HW275393   9.990   9.518   9.036
58457SOL     OW75394   9.385   9.655   7.481
58457SOL    HW175395   9.293   9.627   7.452
58457SOL    HW275396   9.416   9.732   7.425
58458SOL     OW75397  10.750  10.166   8.846
58458SOL    HW175398  10.693  10.218   8.783
58458SOL    HW275399  10.846  10.178   8.822
58459SOL     OW75400   9.382   9.476   7.766
58459SOL    HW175401   9.365   9.559   7.712
58459SOL    HW275402   9.472   9.439   7.744
58460SOL     OW75403  10.493  10.645   7.567
58460SOL    HW175404  10.394  10.634   7.569
58460SOL    HW275405  10.527  10.660   7.660
58461SOL     OW75406   9.923  10.152   8.879
58461SOL    HW175407   9.979  10.233   8.862
58461SOL    HW275408   9.982  10.072   8.882
58462SOL     OW75409  10.803  11.077   8.407
58462SOL    HW175410  10.836  11.141   8.338
58462SOL    HW275411  10.869  11.071   8.482
58463SOL     OW75412  10.026   9.875   9.156
58463SOL    HW175413  10.045   9.940   9.230
58463SOL    HW275414  10.086   9.795   9.165
58464SOL     OW75415  10.760  10.530   9.081
58464SOL    HW175416  10.751  10.520   9.180
58464SOL    HW275417  10.856  10.523   9.055
58465SOL     OW75418   9.700  11.051   9.008
58465SOL    HW175419   9.609  11.092   9.006
58465SOL    HW275420   9.693  10.957   9.040
58466SOL     OW75421  10.984  10.193   8.702
58466SOL    HW175422  10.957  10.104   8.665
58466SOL    HW275423  10.985  10.261   8.629
58467SOL     OW75424  10.535   9.635   7.897
58467SOL    HW175425  10.600   9.561   7.886
58467SOL    HW275426  10.555   9.685   7.981
58468SOL     OW75427   9.904  10.055   8.100
58468SOL    HW175428   9.954  10.140   8.081
58468SOL    HW275429   9.816  10.057   8.052
58469SOL     OW75430  11.087   9.652   9.090
58469SOL    HW175431  11.070   9.683   8.996
58469SOL    HW275432  11.003   9.615   9.128
58470SOL     OW75433  11.040  10.244   8.965
58470SOL    HW175434  11.078  10.335   8.980
58470SOL    HW275435  11.032  10.227   8.866
58471SOL     OW75436  10.169  10.684   7.464
58471SOL    HW175437  10.123  10.699   7.552
58471SOL    HW275438  10.213  10.769   7.434
58472SOL     OW75439   9.971  11.100   8.401
58472SOL    HW175440   9.925  11.188   8.388
58472SOL    HW275441  10.070  11.112   8.394
58473SOL     OW75442  10.169  10.266   8.309
58473SOL    HW175443  10.223  10.197   8.357
58473SOL    HW275444  10.137  10.335   8.375
58474SOL     OW75445  10.393  10.294   7.535
58474SOL    HW175446  10.370  10.347   7.453
58474SOL    HW275447  10.474  10.238   7.516
58475SOL     OW75448  11.171  10.879   8.299
58475SOL    HW175449  11.100  10.867   8.229
58475SOL    HW275450  11.172  10.800   8.359
58476SOL     OW75451   9.531  10.624   9.292
58476SOL    HW175452   9.466  10.551   9.271
58476SOL    HW275453   9.535  10.638   9.390
58477SOL     OW75454   9.389  10.550   8.101
58477SOL    HW175455   9.388  10.503   8.189
58477SOL    HW275456   9.471  10.522   8.050
58478SOL     OW75457   9.982  10.701   9.072
58478SOL    HW175458   9.904  10.651   9.110
58478SOL    HW275459   9.979  10.796   9.103
58479SOL     OW75460  11.134   9.502   8.675
58479SOL    HW175461  11.130   9.412   8.719
58479SOL    HW275462  11.137   9.491   8.576
58480SOL     OW75463   9.738   9.734   7.968
58480SOL    HW175464   9.768   9.662   7.906
58480SOL    HW275465   9.699   9.694   8.051
58481SOL     OW75466  11.015  10.797   8.552
58481SOL    HW175467  10.922  10.772   8.525
58481SOL    HW275468  11.041  10.747   8.634
58482SOL     OW75469   9.627   9.857   8.728
58482SOL    HW175470   9.665   9.798   8.800
58482SOL    HW275471   9.667   9.831   8.640
58483SOL     OW75472  10.122  10.896   8.135
58483SOL    HW175473  10.154  10.906   8.041
58483SOL    HW275474  10.043  10.834   8.137
58484SOL     OW75475  10.734   9.524   8.560
58484SOL    HW175476  10.786   9.459   8.615
58484SOL    HW275477  10.685   9.587   8.621
58485SOL     OW75478  10.311   9.344   8.602
58485SOL    HW175479  10.248   9.272   8.571
58485SOL    HW275480  10.404   9.308   8.602
58486SOL     OW75481  10.080  10.640   7.749
58486SOL    HW175482  10.034  10.553   7.766
58486SOL    HW275483  10.171  10.637   7.790
58487SOL     OW75484   9.928  10.877   8.732
58487SOL    HW175485   9.923  10.959   8.789
58487SOL    HW275486  10.017  10.874   8.687
58488SOL     OW75487  10.662   9.362   7.616
58488SOL    HW175488  10.697   9.321   7.532
58488SOL    HW275489  10.572   9.324   7.636
58489SOL     OW75490  10.610   9.763   8.139
58489SOL    HW175491  10.551   9.843   8.143
58489SOL    HW275492  10.625   9.728   8.232
58490SOL     OW75493  10.903   9.531   8.330
58490SOL    HW175494  10.819   9.530   8.384
58490SOL    HW275495  10.905   9.614   8.274
58491SOL     OW75496   9.349  10.387   7.748
58491SOL    HW175497   9.448  10.376   7.739
58491SOL    HW275498   9.309  10.301   7.780
58492SOL     OW75499  10.185  10.956   7.785
58492SOL    HW175500  10.108  10.921   7.731
58492SOL    HW275501  10.153  11.027   7.847
58493SOL     OW75502   9.540   9.938   9.423
58493SOL    HW175503   9.447   9.936   9.460
58493SOL    HW275504   9.541   9.899   9.331
58494SOL     OW75505   9.535   9.585  10.306
58494SOL    HW175506   9.570   9.568  10.398
58494SOL    HW275507   9.447   9.540  10.294
58495SOL     OW75508   9.329   9.678   9.957
58495SOL    HW175509   9.247   9.721   9.996
58495SOL    HW275510   9.301   9.605   9.894
58496SOL     OW75511   9.879  10.585  10.475
58496SOL    HW175512   9.786  10.578  10.438
58496SOL    HW275513   9.890  10.674  10.519
58497SOL     OW75514  10.865  10.821  10.013
58497SOL    HW175515  10.808  10.805  10.094
58497SOL    HW275516  10.806  10.831   9.933
58498SOL     OW75517  10.445  10.013  10.027
58498SOL    HW175518  10.502  10.091  10.002
58498SOL    HW275519  10.385  10.039  10.103
58499SOL     OW75520  11.065   9.917   9.541
58499SOL    HW175521  11.053   9.904   9.442
58499SOL    HW275522  11.035   9.836   9.590
58500SOL     OW75523  10.078  10.454  10.333
58500SOL    HW175524  10.000  10.471  10.393
58500SOL    HW275525  10.112  10.541  10.297
58501SOL     OW75526  10.160  10.108  11.133
58501SOL    HW175527  10.156  10.184  11.198
58501SOL    HW275528  10.182  10.144  11.042
58502SOL     OW75529   9.995  10.322   9.975
58502SOL    HW175530  10.064  10.306  10.045
58502SOL    HW275531   9.922  10.379  10.013
58503SOL     OW75532   9.996  10.471  11.113
58503SOL    HW175533  10.056  10.550  11.127
58503SOL    HW275534   9.910  10.502  11.072
58504SOL     OW75535   9.645  10.745  10.371
58504SOL    HW175536   9.567  10.714  10.318
58504SOL    HW275537   9.703  10.803  10.314
58505SOL     OW75538  10.770  10.815  10.649
58505SOL    HW175539  10.794  10.909  10.675
58505SOL    HW275540  10.754  10.761  10.731
58506SOL     OW75541   9.748   9.702  10.809
58506SOL    HW175542   9.830   9.646  10.818
58506SOL    HW275543   9.667   9.644  10.813
58507SOL     OW75544  10.913   9.757  10.047
58507SOL    HW175545  10.839   9.803   9.997
58507SOL    HW275546  10.964   9.825  10.100
58508SOL     OW75547   9.541  11.023   9.793
58508SOL    HW175548   9.575  11.100   9.847
58508SOL    HW275549   9.585  11.023   9.703
58509SOL     OW75550  10.437  10.651  11.000
58509SOL    HW175551  10.484  10.651  11.088
58509SOL    HW275552  10.389  10.564  10.989
58510SOL     OW75553   9.540  10.744   9.848
58510SOL    HW175554   9.514  10.840   9.848
58510SOL    HW275555   9.469  10.690   9.893
58511SOL     OW75556   9.550  10.401  10.196
58511SOL    HW175557   9.564  10.317  10.248
58511SOL    HW275558   9.495  10.465  10.251
58512SOL     OW75559   9.930  11.096  10.749
58512SOL    HW175560   9.838  11.079  10.784
58512SOL    HW275561   9.958  11.188  10.775
58513SOL     OW75562   9.916  10.274   9.433
58513SOL    HW175563   9.923  10.358   9.379
58513SOL    HW275564   9.962  10.287   9.521
58514SOL     OW75565  10.904   9.424  10.790
58514SOL    HW175566  10.886   9.491  10.718
58514SOL    HW275567  10.901   9.470  10.879
58515SOL     OW75568   9.432   9.953   9.873
58515SOL    HW175569   9.387   9.865   9.890
58515SOL    HW275570   9.431  10.007   9.957
58516SOL     OW75571  11.152  11.077   9.669
58516SOL    HW175572  11.206  11.048   9.749
58516SOL    HW275573  11.182  11.167   9.640
58517SOL     OW75574   9.337  10.906   9.427
58517SOL    HW175575   9.318  10.810   9.448
58517SOL    HW275576   9.304  10.964   9.502
58518SOL     OW75577  10.999  10.232   9.922
58518SOL    HW175578  11.094  10.203   9.930
58518SOL    HW275579  10.991  10.297   9.847
58519SOL     OW75580  10.951  10.418   9.742
58519SOL    HW175581  11.037  10.420   9.690
58519SOL    HW275582  10.965  10.465   9.830
58520SOL     OW75583   9.423  10.047  10.907
58520SOL    HW175584   9.511  10.034  10.952
58520SOL    HW275585   9.410  10.144  10.885
58521SOL     OW75586   9.923  10.675  10.036
58521SOL    HW175587   9.874  10.588  10.045
58521SOL    HW275588   9.900  10.718   9.949
58522SOL     OW75589  10.603  10.538  10.733
58522SOL    HW175590  10.640  10.465  10.675
58522SOL    HW275591  10.655  10.543  10.818
58523SOL     OW75592  10.119   9.314   9.812
58523SOL    HW175593  10.159   9.405   9.803
58523SOL    HW275594  10.019   9.322   9.818
58524SOL     OW75595   9.507  10.286  10.574
58524SOL    HW175596   9.596  10.241  10.560
58524SOL    HW275597   9.434  10.221  10.555
58525SOL     OW75598  10.835  10.309   9.500
58525SOL    HW175599  10.772  10.233   9.513
58525SOL    HW275600  10.883  10.327   9.586
58526SOL     OW75601  10.497  11.102  10.926
58526SOL    HW175602  10.521  11.162  10.850
58526SOL    HW275603  10.504  11.007  10.896
58527SOL     OW75604   9.627   9.561  11.111
58527SOL    HW175605   9.698   9.632  11.117
58527SOL    HW275606   9.539   9.600  11.139
58528SOL     OW75607  10.776  10.727  10.263
58528SOL    HW175608  10.717  10.733  10.343
58528SOL    HW275609  10.761  10.639  10.217
58529SOL     OW75610  10.977  11.024   9.882
58529SOL    HW175611  10.936  11.001   9.794
58529SOL    HW275612  10.959  10.950   9.947
58530SOL     OW75613   9.908  10.039   9.580
58530SOL    HW175614   9.932  10.108   9.512
58530SOL    HW275615   9.830  10.072   9.634
58531SOL     OW75616  10.591   9.655  10.254
58531SOL    HW175617  10.505   9.605  10.241
58531SOL    HW275618  10.653   9.601  10.310
58532SOL     OW75619  10.886  10.972   9.617
58532SOL    HW175620  10.975  11.018   9.620
58532SOL    HW275621  10.865  10.948   9.522
58533SOL     OW75622  10.117   9.915  10.775
58533SOL    HW175623  10.070   9.912  10.864
58533SOL    HW275624  10.066   9.860  10.709
58534SOL     OW75625  10.704   9.779  10.984
58534SOL    HW175626  10.684   9.822  11.072
58534SOL    HW275627  10.782   9.717  10.993
58535SOL     OW75628  10.283  10.200  10.882
58535SOL    HW175629  10.329  10.116  10.853
58535SOL    HW275630  10.227  10.234  10.807
58536SOL     OW75631  10.301   9.720  10.552
58536SOL    HW175632  10.224   9.754  10.606
58536SOL    HW275633  10.267   9.669  10.473
58537SOL     OW75634  10.351  10.011   9.739
58537SOL    HW175635  10.377  10.007   9.835
58537SOL    HW275636  10.266   9.960   9.725
58538SOL     OW75637   9.386  10.121  10.099
58538SOL    HW175638   9.485  10.109  10.108
58538SOL    HW275639   9.362  10.216  10.120
58539SOL     OW75640   9.440  11.131  10.881
58539SOL    HW175641   9.430  11.116  10.980
58539SOL    HW275642   9.354  11.167  10.845
58540SOL     OW75643  10.175   9.658   9.505
58540SOL    HW175644  10.234   9.721   9.456
58540SOL    HW275645  10.194   9.564   9.476
58541SOL     OW75646  11.029   9.895  11.141
58541SOL    HW175647  11.003   9.984  11.105
58541SOL    HW275648  11.027   9.827  11.068
58542SOL     OW75649  10.672  10.454   9.855
58542SOL    HW175650  10.755  10.425   9.807
58542SOL    HW275651  10.623  10.521   9.799
58543SOL     OW75652   9.860   9.506  10.195
58543SOL    HW175653   9.855   9.501  10.295
58543SOL    HW275654   9.862   9.602  10.166
58544SOL     OW75655  10.318  10.766   9.787
58544SOL    HW175656  10.272  10.838   9.735
58544SOL    HW275657  10.314  10.786   9.885
58545SOL     OW75658   9.661  11.111  10.163
58545SOL    HW175659   9.711  11.025  10.169
58545SOL    HW275660   9.726  11.188  10.160
58546SOL     OW75661  11.105  10.376  10.183
58546SOL    HW175662  11.043  10.361  10.107
58546SOL    HW275663  11.053  10.387  10.268
58547SOL     OW75664  10.537  10.860  10.816
58547SOL    HW175665  10.543  10.783  10.880
58547SOL    HW275666  10.485  10.834  10.736
58548SOL     OW75667   9.631  10.253   9.552
58548SOL    HW175668   9.713  10.292   9.510
58548SOL    HW275669   9.604  10.171   9.503
58549SOL     OW75670  10.768  10.045  10.038
58549SOL    HW175671  10.763   9.980  10.113
58549SOL    HW275672  10.848  10.104  10.051
58550SOL     OW75673   9.771  10.576  11.037
58550SOL    HW175674   9.721  10.577  10.951
58550SOL    HW275675   9.708  10.558  11.113
58551SOL     OW75676  10.421  11.086   9.547
58551SOL    HW175677  10.361  11.024   9.597
58551SOL    HW275678  10.452  11.042   9.462
58552SOL     OW75679   9.512   9.595  10.808
58552SOL    HW175680   9.432   9.655  10.795
58552SOL    HW275681   9.502   9.546  10.894
58553SOL     OW75682  10.942  10.687   9.391
58553SOL    HW175683  10.910  10.781   9.381
58553SOL    HW275684  10.866  10.624   9.379
58554SOL     OW75685   9.774  11.053   9.633
58554SOL    HW175686   9.807  11.092   9.719
58554SOL    HW275687   9.850  11.046   9.568
58555SOL     OW75688  10.710   9.417   9.736
58555SOL    HW175689  10.686   9.380   9.646
58555SOL    HW275690  10.809   9.433   9.740
58556SOL     OW75691   9.559  11.095  10.551
58556SOL    HW175692   9.616  11.030  10.601
58556SOL    HW275693   9.543  11.062  10.458
58557SOL     OW75694  10.250  11.008  10.214
58557SOL    HW175695  10.330  10.951  10.235
58557SOL    HW275696  10.201  10.968  10.137
58558SOL     OW75697   9.692  10.010   9.790
58558SOL    HW175698   9.737   9.920   9.787
58558SOL    HW275699   9.598   9.999   9.823
58559SOL     OW75700  10.857   9.532  11.039
58559SOL    HW175701  10.852   9.569  11.131
58559SOL    HW275702  10.785   9.463  11.027
58560SOL     OW75703   9.924   9.432   9.427
58560SOL    HW175704  10.022   9.410   9.434
58560SOL    HW275705   9.893   9.415   9.334
58561SOL     OW75706  10.091   9.574  11.059
58561SOL    HW175707  10.158   9.513  11.102
58561SOL    HW275708  10.018   9.593  11.124
58562SOL     OW75709  10.198  10.824  10.505
58562SOL    HW175710  10.175  10.799  10.411
58562SOL    HW275711  10.259  10.755  10.544
58563SOL     OW75712  10.661   9.900  10.743
58563SOL    HW175713  10.689   9.857  10.828
58563SOL    HW275714  10.686   9.996  10.744
58564SOL     OW75715  10.113  10.712  10.234
58564SOL    HW175716  10.203  10.726  10.192
58564SOL    HW275717  10.042  10.714  10.163
58565SOL     OW75718  10.232   9.813  10.209
58565SOL    HW175719  10.207   9.804  10.113
58565SOL    HW275720  10.280   9.731  10.240
58566SOL     OW75721   9.849   9.374   9.822
58566SOL    HW175722   9.768   9.375   9.880
58566SOL    HW275723   9.852   9.457   9.767
58567SOL     OW75724  10.744  10.498   9.351
58567SOL    HW175725  10.776  10.422   9.408
58567SOL    HW275726  10.652  10.525   9.381
58568SOL     OW75727   9.607   9.345   9.481
58568SOL    HW175728   9.656   9.429   9.460
58568SOL    HW275729   9.669   9.280   9.526
58569SOL     OW75730  10.245   9.546   9.790
58569SOL    HW175731  10.197   9.587   9.712
58569SOL    HW275732  10.344   9.544   9.771
58570SOL     OW75733  10.386   9.993  10.774
58570SOL    HW175734  10.306   9.932  10.777
58570SOL    HW275735  10.467   9.940  10.750
58571SOL     OW75736  10.537  10.880  10.103
58571SOL    HW175737  10.558  10.954  10.038
58571SOL    HW275738  10.605  10.880  10.176
58572SOL     OW75739   9.769  10.462  10.051
58572SOL    HW175740   9.698  10.435  10.116
58572SOL    HW275741   9.743  10.434   9.958
58573SOL     OW75742  10.581  11.107   9.901
58573SOL    HW175743  10.625  11.171   9.837
58573SOL    HW275744  10.531  11.159   9.971
58574SOL     OW75745  10.342   9.859   9.326
58574SOL    HW175746  10.301   9.941   9.287
58574SOL    HW275747  10.406   9.885   9.399
58575SOL     OW75748   9.388   9.866  10.696
58575SOL    HW175749   9.480   9.865  10.655
58575SOL    HW275750   9.382   9.940  10.763
58576SOL     OW75751   9.871   9.532  10.457
58576SOL    HW175752   9.909   9.448  10.494
58576SOL    HW275753   9.783   9.551  10.501
58577SOL     OW75754  10.176   9.764   9.952
58577SOL    HW175755  10.144   9.836   9.890
58577SOL    HW275756  10.200   9.683   9.899
58578SOL     OW75757  10.327   9.349  10.063
58578SOL    HW175758  10.255   9.354   9.994
58578SOL    HW275759  10.303   9.280  10.132
58579SOL     OW75760  10.739  10.483  10.177
58579SOL    HW175761  10.684  10.399  10.170
58579SOL    HW275762  10.765  10.512  10.085
58580SOL     OW75763  10.776   9.900  10.302
58580SOL    HW175764  10.746   9.805  10.309
58580SOL    HW275765  10.849   9.916  10.368
58581SOL     OW75766  11.167  10.143   9.687
58581SOL    HW175767  11.209  10.079   9.751
58581SOL    HW275768  11.129  10.092   9.609
58582SOL     OW75769   9.798  10.695   9.484
58582SOL    HW175770   9.711  10.680   9.531
58582SOL    HW275771   9.781  10.721   9.389
58583SOL     OW75772  10.974  10.590   9.967
58583SOL    HW175773  11.073  10.598   9.981
58583SOL    HW275774  10.929  10.674   9.998
58584SOL     OW75775  10.700   9.885   9.388
58584SOL    HW175776  10.646   9.864   9.469
58584SOL    HW275777  10.791   9.844   9.397
58585SOL     OW75778   9.837   9.566   9.638
58585SOL    HW175779   9.864   9.507   9.563
58585SOL    HW275780   9.837   9.661   9.607
58586SOL     OW75781  11.064  10.533  10.898
58586SOL    HW175782  11.155  10.494  10.885
58586SOL    HW275783  11.072  10.629  10.922
58587SOL     OW75784  10.374  10.657  10.650
58587SOL    HW175785  10.294  10.634  10.705
58587SOL    HW275786  10.457  10.631  10.699
58588SOL     OW75787  10.902  10.939  10.935
58588SOL    HW175788  10.929  10.973  10.845
58588SOL    HW275789  10.981  10.901  10.981
58589SOL     OW75790  10.421  10.505  10.410
58589SOL    HW175791  10.381  10.549  10.491
58589SOL    HW275792  10.380  10.542  10.327
58590SOL     OW75793  10.948  10.409  10.389
58590SOL    HW175794  10.953  10.490  10.448
58590SOL    HW275795  10.862  10.411  10.338
58591SOL     OW75796  10.225   9.399  10.712
58591SOL    HW175797  10.250   9.379  10.617
58591SOL    HW275798  10.297   9.455  10.754
58592SOL     OW75799  10.290  10.426  11.029
58592SOL    HW175800  10.191  10.432  11.039
58592SOL    HW275801  10.313  10.346  10.973
58593SOL     OW75802  10.015  10.360   9.678
58593SOL    HW175803  10.001  10.367   9.777
58593SOL    HW275804  10.099  10.309   9.660
58594SOL     OW75805   9.720  10.123  10.561
58594SOL    HW175806   9.806  10.135  10.611
58594SOL    HW275807   9.678  10.036  10.588
58595SOL     OW75808  10.584   9.696  10.572
58595SOL    HW175809  10.605   9.770  10.636
58595SOL    HW275810  10.495   9.713  10.529
58596SOL     OW75811   9.374  10.874  10.641
58596SOL    HW175812   9.328  10.956  10.607
58596SOL    HW275813   9.472  10.893  10.650
58597SOL     OW75814   9.677  10.410   9.811
58597SOL    HW175815   9.670  10.493   9.755
58597SOL    HW275816   9.681  10.330   9.751
58598SOL     OW75817   9.876   9.847  10.175
58598SOL    HW175818   9.888   9.913  10.101
58598SOL    HW275819   9.922   9.881  10.258
58599SOL     OW75820  10.562  10.658   9.698
58599SOL    HW175821  10.612  10.735   9.738
58599SOL    HW275822  10.467  10.660   9.730
58600SOL     OW75823  10.582  10.755  10.452
58600SOL    HW175824  10.629  10.768  10.539
58600SOL    HW275825  10.516  10.681  10.461
58601SOL     OW75826  10.892   9.949   9.782
58601SOL    HW175827  10.861  10.010   9.855
58601SOL    HW275828  10.942  10.001   9.713
58602SOL     OW75829   9.664  10.820  10.639
58602SOL    HW175830   9.643  10.776  10.552
58602SOL    HW275831   9.761  10.846  10.642
58603SOL     OW75832   9.712  10.061  10.908
58603SOL    HW175833   9.780  10.116  10.861
58603SOL    HW275834   9.752   9.973  10.935
58604SOL     OW75835  10.897  10.089  10.980
58604SOL    HW175836  10.805  10.127  10.975
58604SOL    HW275837  10.957  10.136  10.915
58605SOL     OW75838  10.323   9.415  11.080
58605SOL    HW175839  10.329   9.500  11.028
58605SOL    HW275840  10.355   9.339  11.023
58606SOL     OW75841   9.814   9.360  11.050
58606SOL    HW175842   9.772   9.303  10.980
58606SOL    HW275843   9.748   9.429  11.082
58607SOL     OW75844   9.883  10.180  10.339
58607SOL    HW175845   9.927  10.269  10.330
58607SOL    HW275846   9.820  10.180  10.416
58608SOL     OW75847  10.670  10.172  10.355
58608SOL    HW175848  10.595  10.172  10.289
58608SOL    HW275849  10.707  10.080  10.364
58609SOL     OW75850  10.519   9.835   9.585
58609SOL    HW175851  10.532   9.751   9.639
58609SOL    HW275852  10.490   9.909   9.645
58610SOL     OW75853   9.617   9.523  10.541
58610SOL    HW175854   9.594   9.560  10.631
58610SOL    HW275855   9.587   9.428  10.535
58611SOL     OW75856   9.347  10.620  10.592
58611SOL    HW175857   9.400  10.571  10.660
58611SOL    HW275858   9.369  10.718  10.597
58612SOL     OW75859  10.042   9.944  10.374
58612SOL    HW175860  10.101   9.918  10.298
58612SOL    HW275861  10.014  10.040  10.363
58613SOL     OW75862  11.038  10.245  11.164
58613SOL    HW175863  10.992  10.238  11.075
58613SOL    HW275864  10.976  10.289  11.230
58614SOL     OW75865   9.617   9.373   9.928
58614SOL    HW175866   9.606   9.467   9.961
58614SOL    HW275867   9.612   9.310  10.005
58615SOL     OW75868  10.932   9.677   9.684
58615SOL    HW175869  10.934   9.601   9.748
58615SOL    HW275870  10.884   9.754   9.724
58616SOL     OW75871  10.333  10.076  10.276
58616SOL    HW175872  10.348  10.097  10.372
58616SOL    HW275873  10.303   9.981  10.267
58617SOL     OW75874  10.290  10.883  11.010
58617SOL    HW175875  10.270  10.927  10.922
58617SOL    HW275876  10.329  10.792  10.994
58618SOL     OW75877  11.169  10.828  10.915
58618SOL    HW175878  11.183  10.855  10.820
58618SOL    HW275879  11.252  10.850  10.968
58619SOL     OW75880   9.660  10.208  11.114
58619SOL    HW175881   9.736  10.252  11.162
58619SOL    HW275882   9.695  10.161  11.032
58620SOL     OW75883  10.850   9.584   9.435
58620SOL    HW175884  10.789   9.509   9.458
58620SOL    HW275885  10.872   9.636   9.518
58621SOL     OW75886  10.613  10.148   9.352
58621SOL    HW175887  10.647  10.055   9.367
58621SOL    HW275888  10.631  10.175   9.257
58622SOL     OW75889  10.378  10.643  10.159
58622SOL    HW175890  10.385  10.559  10.104
58622SOL    HW275891  10.440  10.712  10.123
58623SOL     OW75892   9.629  10.120  10.259
58623SOL    HW175893   9.722  10.156  10.264
58623SOL    HW275894   9.623  10.035  10.311
58624SOL     OW75895   9.649   9.819  10.316
58624SOL    HW175896   9.597   9.736  10.299
58624SOL    HW275897   9.726   9.824  10.252
58625SOL     OW75898  10.448   9.690  10.988
58625SOL    HW175899  10.403   9.753  11.052
58625SOL    HW275900  10.541   9.721  10.971
58626SOL     OW75901  10.470   9.517  10.787
58626SOL    HW175902  10.470   9.581  10.864
58626SOL    HW275903  10.498   9.565  10.704
58627SOL     OW75904   9.318  10.636   9.510
58627SOL    HW175905   9.225  10.657   9.479
58627SOL    HW275906   9.328  10.537   9.523
58628SOL     OW75907   9.398  11.111  10.237
58628SOL    HW175908   9.356  11.025  10.210
58628SOL    HW275909   9.492  11.114  10.203
58629SOL     OW75910   9.814  10.878  10.220
58629SOL    HW175911   9.880  10.952  10.229
58629SOL    HW275912   9.858  10.799  10.178
58630SOL     OW75913  10.312  10.106  10.548
58630SOL    HW175914  10.353  10.074  10.634
58630SOL    HW275915  10.216  10.079  10.545
58631SOL     OW75916   9.350   9.854  10.424
58631SOL    HW175917   9.435   9.821  10.383
58631SOL    HW275918   9.363   9.869  10.522
58632SOL     OW75919   9.499   9.830  11.032
58632SOL    HW175920   9.558   9.790  10.962
58632SOL    HW275921   9.441   9.901  10.991
58633SOL     OW75922  10.679  10.260  10.970
58633SOL    HW175923  10.718  10.349  10.990
58633SOL    HW275924  10.689  10.240  10.873
58634SOL     OW75925  10.125   9.882   9.635
58634SOL    HW175926  10.132   9.793   9.589
58634SOL    HW275927  10.031   9.916   9.627
58635SOL     OW75928  10.967   9.914  10.516
58635SOL    HW175929  10.929   9.845  10.578
58635SOL    HW275930  11.049   9.878  10.472
58636SOL     OW75931   9.562  10.874  11.054
58636SOL    HW175932   9.532  10.931  11.130
58636SOL    HW275933   9.555  10.777  11.080
58637SOL     OW75934   9.981   9.774  10.579
58637SOL    HW175935   9.947   9.685  10.549
58637SOL    HW275936  10.007   9.828  10.499
58638SOL     OW75937  10.240  10.988  10.775
58638SOL    HW175938  10.216  10.970  10.680
58638SOL    HW275939  10.270  11.082  10.785
58639SOL     OW75940   9.783   9.810   9.501
58639SOL    HW175941   9.844   9.890   9.505
58639SOL    HW275942   9.688   9.841   9.508
58640SOL     OW75943   9.469  10.447  10.776
58640SOL    HW175944   9.491  10.386  10.852
58640SOL    HW275945   9.479  10.398  10.690
58641SOL     OW75946  10.657  10.369  10.544
58641SOL    HW175947  10.681  10.306  10.470
58641SOL    HW275948  10.567  10.409  10.526
58642SOL     OW75949  10.612  10.165   9.619
58642SOL    HW175950  10.526  10.134   9.661
58642SOL    HW275951  10.608  10.151   9.520
58643SOL     OW75952  11.069  11.057  10.464
58643SOL    HW175953  11.130  11.087  10.391
58643SOL    HW275954  11.031  10.968  10.442
58644SOL     OW75955  10.562  11.041  10.438
58644SOL    HW175956  10.646  11.046  10.384
58644SOL    HW275957  10.539  10.945  10.456
58645SOL     OW75958   9.393  10.568  10.332
58645SOL    HW175959   9.388  10.567  10.432
58645SOL    HW275960   9.310  10.527  10.294
58646SOL     OW75961   9.998  10.972  11.026
58646SOL    HW175962   9.942  11.053  11.035
58646SOL    HW275963  10.050  10.976  10.940
58647SOL     OW75964  11.036   9.445   9.833
58647SOL    HW175965  11.109   9.428   9.766
58647SOL    HW275966  11.005   9.358   9.871
58648SOL     OW75967  10.698  10.883   9.787
58648SOL    HW175968  10.765  10.895   9.713
58648SOL    HW275969  10.658  10.972   9.810
58649SOL     OW75970   9.440  11.104  11.161
58649SOL    HW175971   9.399  11.030  11.214
58649SOL    HW275972   9.504  11.155  11.219
58650SOL     OW75973  10.590  10.237   9.982
58650SOL    HW175974  10.650  10.156   9.984
58650SOL    HW275975  10.630  10.306   9.922
58651SOL     OW75976  10.140  10.583  10.732
58651SOL    HW175977  10.135  10.616  10.827
58651SOL    HW275978  10.054  10.602  10.686
58652SOL     OW75979   9.982  10.926   9.464
58652SOL    HW175980   9.991  10.936   9.365
58652SOL    HW275981   9.942  10.837   9.485
58653SOL     OW75982  10.960  11.030  10.704
58653SOL    HW175983  11.013  11.040  10.620
58653SOL    HW275984  10.933  11.120  10.738
58654SOL     OW75985  11.151   9.485  10.273
58654SOL    HW175986  11.190   9.400  10.237
58654SOL    HW275987  11.053   9.487  10.254
58655SOL     OW75988   9.573   9.636  10.030
58655SOL    HW175989   9.494   9.687   9.996
58655SOL    HW275990   9.564   9.621  10.128
58656SOL     OW75991  10.504  10.922   9.341
58656SOL    HW175992  10.510  10.829   9.378
58656SOL    HW275993  10.445  10.922   9.261
58657SOL     OW75994  10.132  10.312  10.682
58657SOL    HW175995  10.172  10.311  10.590
58657SOL    HW275996  10.142  10.404  10.722
58658SOL     OW75997  10.226  10.220   9.601
58658SOL    HW175998  10.289  10.258   9.533
58658SOL    HW275999  10.266  10.137   9.640
58659SOL     OW76000  10.814  10.917   9.354
58659SOL    HW176001  10.722  10.954   9.361
58659SOL    HW276002  10.852  10.937   9.264
58660SOL     OW76003   9.682  10.598  10.800
58660SOL    HW176004   9.669  10.691  10.766
58660SOL    HW276005   9.598  10.546  10.787
58661SOL     OW76006  10.924  10.602  10.599
58661SOL    HW176007  10.984  10.605  10.679
58661SOL    HW276008  10.849  10.666  10.612
58662SOL     OW76009  10.349  10.408  10.006
58662SOL    HW176010  10.279  10.361  10.060
58662SOL    HW276011  10.408  10.340   9.963
58663SOL     OW76012  10.324   9.546  10.281
58663SOL    HW176013  10.316   9.510  10.188
58663SOL    HW276014  10.322   9.470  10.346
58664SOL     OW76015   9.900  10.797   9.801
58664SOL    HW176016   9.942  10.739   9.731
58664SOL    HW276017   9.856  10.876   9.757
58665SOL     OW76018  11.019   9.695  10.691
58665SOL    HW176019  11.092   9.764  10.695
58665SOL    HW276020  11.047   9.620  10.632
58666SOL     OW76021   9.565  10.658   9.600
58666SOL    HW176022   9.469  10.659   9.573
58666SOL    HW276023   9.577  10.711   9.684
58667SOL     OW76024   9.415  10.323  11.036
58667SOL    HW176025   9.338  10.290  11.090
58667SOL    HW276026   9.500  10.293  11.078
58668SOL     OW76027   9.982   9.513  10.799
58668SOL    HW176028  10.072   9.497  10.759
58668SOL    HW276029   9.990   9.518  10.898
58669SOL     OW76030   9.385   9.655   9.343
58669SOL    HW176031   9.293   9.627   9.314
58669SOL    HW276032   9.416   9.732   9.287
58670SOL     OW76033  10.750  10.166  10.708
58670SOL    HW176034  10.693  10.218  10.645
58670SOL    HW276035  10.846  10.178  10.684
58671SOL     OW76036   9.382   9.476   9.628
58671SOL    HW176037   9.365   9.559   9.574
58671SOL    HW276038   9.472   9.439   9.606
58672SOL     OW76039  10.493  10.645   9.429
58672SOL    HW176040  10.394  10.634   9.431
58672SOL    HW276041  10.527  10.660   9.522
58673SOL     OW76042   9.923  10.152  10.741
58673SOL    HW176043   9.979  10.233  10.724
58673SOL    HW276044   9.982  10.072  10.744
58674SOL     OW76045  10.803  11.077  10.269
58674SOL    HW176046  10.836  11.141  10.200
58674SOL    HW276047  10.869  11.071  10.344
58675SOL     OW76048  10.026   9.875  11.018
58675SOL    HW176049  10.045   9.940  11.092
58675SOL    HW276050  10.086   9.795  11.027
58676SOL     OW76051  10.760  10.530  10.943
58676SOL    HW176052  10.751  10.520  11.042
58676SOL    HW276053  10.856  10.523  10.917
58677SOL     OW76054   9.700  11.051  10.870
58677SOL    HW176055   9.609  11.092  10.868
58677SOL    HW276056   9.693  10.957  10.902
58678SOL     OW76057  10.984  10.193  10.564
58678SOL    HW176058  10.957  10.104  10.527
58678SOL    HW276059  10.985  10.261  10.491
58679SOL     OW76060  10.535   9.635   9.759
58679SOL    HW176061  10.600   9.561   9.748
58679SOL    HW276062  10.555   9.685   9.843
58680SOL     OW76063   9.904  10.055   9.962
58680SOL    HW176064   9.954  10.140   9.943
58680SOL    HW276065   9.816  10.057   9.914
58681SOL     OW76066  11.087   9.652  10.952
58681SOL    HW176067  11.070   9.683  10.858
58681SOL    HW276068  11.003   9.615  10.990
58682SOL     OW76069  11.040  10.244  10.827
58682SOL    HW176070  11.078  10.335  10.842
58682SOL    HW276071  11.032  10.227  10.728
58683SOL     OW76072  10.169  10.684   9.326
58683SOL    HW176073  10.123  10.699   9.414
58683SOL    HW276074  10.213  10.769   9.296
58684SOL     OW76075   9.971  11.100  10.263
58684SOL    HW176076   9.925  11.188  10.250
58684SOL    HW276077  10.070  11.112  10.256
58685SOL     OW76078  10.169  10.266  10.171
58685SOL    HW176079  10.223  10.197  10.219
58685SOL    HW276080  10.137  10.335  10.237
58686SOL     OW76081  10.393  10.294   9.397
58686SOL    HW176082  10.370  10.347   9.315
58686SOL    HW276083  10.474  10.238   9.378
58687SOL     OW76084  11.171  10.879  10.161
58687SOL    HW176085  11.100  10.867  10.091
58687SOL    HW276086  11.172  10.800  10.221
58688SOL     OW76087   9.531  10.624  11.154
58688SOL    HW176088   9.466  10.551  11.133
58688SOL    HW276089   9.535  10.638  11.252
58689SOL     OW76090   9.389  10.550   9.963
58689SOL    HW176091   9.388  10.503  10.051
58689SOL    HW276092   9.471  10.522   9.912
58690SOL     OW76093   9.982  10.701  10.934
58690SOL    HW176094   9.904  10.651  10.972
58690SOL    HW276095   9.979  10.796  10.965
58691SOL     OW76096  11.134   9.502  10.537
58691SOL    HW176097  11.130   9.412  10.581
58691SOL    HW276098  11.137   9.491  10.438
58692SOL     OW76099   9.738   9.734   9.830
58692SOL    HW176100   9.768   9.662   9.768
58692SOL    HW276101   9.699   9.694   9.913
58693SOL     OW76102  11.015  10.797  10.414
58693SOL    HW176103  10.922  10.772  10.387
58693SOL    HW276104  11.041  10.747  10.496
58694SOL     OW76105   9.627   9.857  10.590
58694SOL    HW176106   9.665   9.798  10.662
58694SOL    HW276107   9.667   9.831  10.502
58695SOL     OW76108  10.122  10.896   9.997
58695SOL    HW176109  10.154  10.906   9.903
58695SOL    HW276110  10.043  10.834   9.999
58696SOL     OW76111  10.734   9.524  10.422
58696SOL    HW176112  10.786   9.459  10.477
58696SOL    HW276113  10.685   9.587  10.483
58697SOL     OW76114  10.311   9.344  10.464
58697SOL    HW176115  10.248   9.272  10.433
58697SOL    HW276116  10.404   9.308  10.464
58698SOL     OW76117  10.080  10.640   9.611
58698SOL    HW176118  10.034  10.553   9.628
58698SOL    HW276119  10.171  10.637   9.652
58699SOL     OW76120   9.928  10.877  10.594
58699SOL    HW176121   9.923  10.959  10.651
58699SOL    HW276122  10.017  10.874  10.549
58700SOL     OW76123  10.662   9.362   9.478
58700SOL    HW176124  10.697   9.321   9.394
58700SOL    HW276125  10.572   9.324   9.498
58701SOL     OW76126  10.610   9.763  10.001
58701SOL    HW176127  10.551   9.843  10.005
58701SOL    HW276128  10.625   9.728  10.094
58702SOL     OW76129  10.903   9.531  10.192
58702SOL    HW176130  10.819   9.530  10.246
58702SOL    HW276131  10.905   9.614  10.136
58703SOL     OW76132   9.349  10.387   9.610
58703SOL    HW176133   9.448  10.376   9.601
58703SOL    HW276134   9.309  10.301   9.642
58704SOL     OW76135  10.185  10.956   9.647
58704SOL    HW176136  10.108  10.921   9.593
58704SOL    HW276137  10.153  11.027   9.709
58705SOL     OW76138   9.540   9.938  11.285
58705SOL    HW176139   9.447   9.936  11.322
58705SOL    HW276140   9.541   9.899  11.193
58706SOL     OW76141   9.535   9.585  12.168
58706SOL    HW176142   9.570   9.568  12.260
58706SOL    HW276143   9.447   9.540  12.156
58707SOL     OW76144   9.329   9.678  11.819
58707SOL    HW176145   9.247   9.721  11.858
58707SOL    HW276146   9.301   9.605  11.756
58708SOL     OW76147   9.879  10.585  12.337
58708SOL    HW176148   9.786  10.578  12.300
58708SOL    HW276149   9.890  10.674  12.381
58709SOL     OW76150  10.865  10.821  11.875
58709SOL    HW176151  10.808  10.805  11.956
58709SOL    HW276152  10.806  10.831  11.795
58710SOL     OW76153  10.445  10.013  11.889
58710SOL    HW176154  10.502  10.091  11.864
58710SOL    HW276155  10.385  10.039  11.965
58711SOL     OW76156  11.065   9.917  11.403
58711SOL    HW176157  11.053   9.904  11.304
58711SOL    HW276158  11.035   9.836  11.452
58712SOL     OW76159  10.078  10.454  12.195
58712SOL    HW176160  10.000  10.471  12.255
58712SOL    HW276161  10.112  10.541  12.159
58713SOL     OW76162   9.995  10.322  11.837
58713SOL    HW176163  10.064  10.306  11.907
58713SOL    HW276164   9.922  10.379  11.875
58714SOL     OW76165   9.645  10.745  12.233
58714SOL    HW176166   9.567  10.714  12.180
58714SOL    HW276167   9.703  10.803  12.176
58715SOL     OW76168  10.770  10.815  12.511
58715SOL    HW176169  10.794  10.909  12.537
58715SOL    HW276170  10.754  10.761  12.593
58716SOL     OW76171   9.748   9.702  12.671
58716SOL    HW176172   9.830   9.646  12.680
58716SOL    HW276173   9.667   9.644  12.675
58717SOL     OW76174  10.913   9.757  11.909
58717SOL    HW176175  10.839   9.803  11.859
58717SOL    HW276176  10.964   9.825  11.962
58718SOL     OW76177   9.541  11.023  11.655
58718SOL    HW176178   9.575  11.100  11.709
58718SOL    HW276179   9.585  11.023  11.565
58719SOL     OW76180   9.540  10.744  11.710
58719SOL    HW176181   9.514  10.840  11.710
58719SOL    HW276182   9.469  10.690  11.755
58720SOL     OW76183   9.550  10.401  12.058
58720SOL    HW176184   9.564  10.317  12.110
58720SOL    HW276185   9.495  10.465  12.113
58721SOL     OW76186   9.930  11.096  12.611
58721SOL    HW176187   9.838  11.079  12.646
58721SOL    HW276188   9.958  11.188  12.637
58722SOL     OW76189   9.916  10.274  11.295
58722SOL    HW176190   9.923  10.358  11.241
58722SOL    HW276191   9.962  10.287  11.383
58723SOL     OW76192  10.904   9.424  12.652
58723SOL    HW176193  10.886   9.491  12.580
58723SOL    HW276194  10.901   9.470  12.741
58724SOL     OW76195   9.432   9.953  11.735
58724SOL    HW176196   9.387   9.865  11.752
58724SOL    HW276197   9.431  10.007  11.819
58725SOL     OW76198  11.152  11.077  11.531
58725SOL    HW176199  11.206  11.048  11.611
58725SOL    HW276200  11.182  11.167  11.502
58726SOL     OW76201   9.337  10.906  11.289
58726SOL    HW176202   9.318  10.810  11.310
58726SOL    HW276203   9.304  10.964  11.364
58727SOL     OW76204  10.999  10.232  11.784
58727SOL    HW176205  11.094  10.203  11.792
58727SOL    HW276206  10.991  10.297  11.709
58728SOL     OW76207  10.951  10.418  11.604
58728SOL    HW176208  11.037  10.420  11.552
58728SOL    HW276209  10.965  10.465  11.692
58729SOL     OW76210   9.423  10.047  12.769
58729SOL    HW176211   9.511  10.034  12.814
58729SOL    HW276212   9.410  10.144  12.747
58730SOL     OW76213   9.923  10.675  11.898
58730SOL    HW176214   9.874  10.588  11.907
58730SOL    HW276215   9.900  10.718  11.811
58731SOL     OW76216  10.603  10.538  12.595
58731SOL    HW176217  10.640  10.465  12.537
58731SOL    HW276218  10.655  10.543  12.680
58732SOL     OW76219  10.119   9.314  11.674
58732SOL    HW176220  10.159   9.405  11.665
58732SOL    HW276221  10.019   9.322  11.680
58733SOL     OW76222   9.507  10.286  12.436
58733SOL    HW176223   9.596  10.241  12.422
58733SOL    HW276224   9.434  10.221  12.417
58734SOL     OW76225  10.835  10.309  11.362
58734SOL    HW176226  10.772  10.233  11.375
58734SOL    HW276227  10.883  10.327  11.448
58735SOL     OW76228  10.776  10.727  12.125
58735SOL    HW176229  10.717  10.733  12.205
58735SOL    HW276230  10.761  10.639  12.079
58736SOL     OW76231  10.977  11.024  11.744
58736SOL    HW176232  10.936  11.001  11.656
58736SOL    HW276233  10.959  10.950  11.809
58737SOL     OW76234   9.908  10.039  11.442
58737SOL    HW176235   9.932  10.108  11.374
58737SOL    HW276236   9.830  10.072  11.496
58738SOL     OW76237  10.591   9.655  12.116
58738SOL    HW176238  10.505   9.605  12.103
58738SOL    HW276239  10.653   9.601  12.172
58739SOL     OW76240  10.886  10.972  11.479
58739SOL    HW176241  10.975  11.018  11.482
58739SOL    HW276242  10.865  10.948  11.384
58740SOL     OW76243  10.117   9.915  12.637
58740SOL    HW176244  10.070   9.912  12.726
58740SOL    HW276245  10.066   9.860  12.571
58741SOL     OW76246  10.283  10.200  12.744
58741SOL    HW176247  10.329  10.116  12.715
58741SOL    HW276248  10.227  10.234  12.669
58742SOL     OW76249  10.301   9.720  12.414
58742SOL    HW176250  10.224   9.754  12.468
58742SOL    HW276251  10.267   9.669  12.335
58743SOL     OW76252  10.351  10.011  11.601
58743SOL    HW176253  10.377  10.007  11.697
58743SOL    HW276254  10.266   9.960  11.587
58744SOL     OW76255   9.386  10.121  11.961
58744SOL    HW176256   9.485  10.109  11.970
58744SOL    HW276257   9.362  10.216  11.982
58745SOL     OW76258   9.440  11.131  12.743
58745SOL    HW176259   9.430  11.116  12.842
58745SOL    HW276260   9.354  11.167  12.707
58746SOL     OW76261  10.175   9.658  11.367
58746SOL    HW176262  10.234   9.721  11.318
58746SOL    HW276263  10.194   9.564  11.338
58747SOL     OW76264  10.672  10.454  11.717
58747SOL    HW176265  10.755  10.425  11.669
58747SOL    HW276266  10.623  10.521  11.661
58748SOL     OW76267   9.860   9.506  12.057
58748SOL    HW176268   9.855   9.501  12.157
58748SOL    HW276269   9.862   9.602  12.028
58749SOL     OW76270  10.318  10.766  11.649
58749SOL    HW176271  10.272  10.838  11.597
58749SOL    HW276272  10.314  10.786  11.747
58750SOL     OW76273   9.661  11.111  12.025
58750SOL    HW176274   9.711  11.025  12.031
58750SOL    HW276275   9.726  11.188  12.022
58751SOL     OW76276  11.105  10.376  12.045
58751SOL    HW176277  11.043  10.361  11.969
58751SOL    HW276278  11.053  10.387  12.130
58752SOL     OW76279  10.537  10.860  12.678
58752SOL    HW176280  10.543  10.783  12.742
58752SOL    HW276281  10.485  10.834  12.598
58753SOL     OW76282   9.631  10.253  11.414
58753SOL    HW176283   9.713  10.292  11.372
58753SOL    HW276284   9.604  10.171  11.365
58754SOL     OW76285  10.768  10.045  11.900
58754SOL    HW176286  10.763   9.980  11.975
58754SOL    HW276287  10.848  10.104  11.913
58755SOL     OW76288  10.421  11.086  11.409
58755SOL    HW176289  10.361  11.024  11.459
58755SOL    HW276290  10.452  11.042  11.324
58756SOL     OW76291   9.512   9.595  12.670
58756SOL    HW176292   9.432   9.655  12.657
58756SOL    HW276293   9.502   9.546  12.756
58757SOL     OW76294  10.942  10.687  11.253
58757SOL    HW176295  10.910  10.781  11.243
58757SOL    HW276296  10.866  10.624  11.241
58758SOL     OW76297   9.774  11.053  11.495
58758SOL    HW176298   9.807  11.092  11.581
58758SOL    HW276299   9.850  11.046  11.430
58759SOL     OW76300  10.710   9.417  11.598
58759SOL    HW176301  10.686   9.380  11.508
58759SOL    HW276302  10.809   9.433  11.602
58760SOL     OW76303   9.559  11.095  12.413
58760SOL    HW176304   9.616  11.030  12.463
58760SOL    HW276305   9.543  11.062  12.320
58761SOL     OW76306  10.250  11.008  12.076
58761SOL    HW176307  10.330  10.951  12.097
58761SOL    HW276308  10.201  10.968  11.999
58762SOL     OW76309   9.692  10.010  11.652
58762SOL    HW176310   9.737   9.920  11.649
58762SOL    HW276311   9.598   9.999  11.685
58763SOL     OW76312   9.924   9.432  11.289
58763SOL    HW176313  10.022   9.410  11.296
58763SOL    HW276314   9.893   9.415  11.196
58764SOL     OW76315  10.198  10.824  12.367
58764SOL    HW176316  10.175  10.799  12.273
58764SOL    HW276317  10.259  10.755  12.406
58765SOL     OW76318  10.661   9.900  12.605
58765SOL    HW176319  10.689   9.857  12.690
58765SOL    HW276320  10.686   9.996  12.606
58766SOL     OW76321  10.113  10.712  12.096
58766SOL    HW176322  10.203  10.726  12.054
58766SOL    HW276323  10.042  10.714  12.025
58767SOL     OW76324  10.232   9.813  12.071
58767SOL    HW176325  10.207   9.804  11.975
58767SOL    HW276326  10.280   9.731  12.102
58768SOL     OW76327   9.849   9.374  11.684
58768SOL    HW176328   9.768   9.375  11.742
58768SOL    HW276329   9.852   9.457  11.629
58769SOL     OW76330  10.744  10.498  11.213
58769SOL    HW176331  10.776  10.422  11.270
58769SOL    HW276332  10.652  10.525  11.243
58770SOL     OW76333   9.607   9.345  11.343
58770SOL    HW176334   9.656   9.429  11.322
58770SOL    HW276335   9.669   9.280  11.388
58771SOL     OW76336  10.245   9.546  11.652
58771SOL    HW176337  10.197   9.587  11.574
58771SOL    HW276338  10.344   9.544  11.633
58772SOL     OW76339  10.386   9.993  12.636
58772SOL    HW176340  10.306   9.932  12.639
58772SOL    HW276341  10.467   9.940  12.612
58773SOL     OW76342  10.537  10.880  11.965
58773SOL    HW176343  10.558  10.954  11.900
58773SOL    HW276344  10.605  10.880  12.038
58774SOL     OW76345   9.769  10.462  11.913
58774SOL    HW176346   9.698  10.435  11.978
58774SOL    HW276347   9.743  10.434  11.820
58775SOL     OW76348  10.581  11.107  11.763
58775SOL    HW176349  10.625  11.171  11.699
58775SOL    HW276350  10.531  11.159  11.833
58776SOL     OW76351  10.342   9.859  11.188
58776SOL    HW176352  10.301   9.941  11.149
58776SOL    HW276353  10.406   9.885  11.261
58777SOL     OW76354   9.388   9.866  12.558
58777SOL    HW176355   9.480   9.865  12.517
58777SOL    HW276356   9.382   9.940  12.625
58778SOL     OW76357   9.871   9.532  12.319
58778SOL    HW176358   9.909   9.448  12.356
58778SOL    HW276359   9.783   9.551  12.363
58779SOL     OW76360  10.176   9.764  11.814
58779SOL    HW176361  10.144   9.836  11.752
58779SOL    HW276362  10.200   9.683  11.761
58780SOL     OW76363  10.327   9.349  11.925
58780SOL    HW176364  10.255   9.354  11.856
58780SOL    HW276365  10.303   9.280  11.994
58781SOL     OW76366  10.739  10.483  12.039
58781SOL    HW176367  10.684  10.399  12.032
58781SOL    HW276368  10.765  10.512  11.947
58782SOL     OW76369  10.776   9.900  12.164
58782SOL    HW176370  10.746   9.805  12.171
58782SOL    HW276371  10.849   9.916  12.230
58783SOL     OW76372  11.167  10.143  11.549
58783SOL    HW176373  11.209  10.079  11.613
58783SOL    HW276374  11.129  10.092  11.471
58784SOL     OW76375   9.798  10.695  11.346
58784SOL    HW176376   9.711  10.680  11.393
58784SOL    HW276377   9.781  10.721  11.251
58785SOL     OW76378  10.974  10.590  11.829
58785SOL    HW176379  11.073  10.598  11.843
58785SOL    HW276380  10.929  10.674  11.860
58786SOL     OW76381  10.700   9.885  11.250
58786SOL    HW176382  10.646   9.864  11.331
58786SOL    HW276383  10.791   9.844  11.259
58787SOL     OW76384   9.837   9.566  11.500
58787SOL    HW176385   9.864   9.507  11.425
58787SOL    HW276386   9.837   9.661  11.469
58788SOL     OW76387  11.064  10.533  12.760
58788SOL    HW176388  11.155  10.494  12.747
58788SOL    HW276389  11.072  10.629  12.784
58789SOL     OW76390  10.374  10.657  12.512
58789SOL    HW176391  10.294  10.634  12.567
58789SOL    HW276392  10.457  10.631  12.561
58790SOL     OW76393  10.421  10.505  12.272
58790SOL    HW176394  10.381  10.549  12.353
58790SOL    HW276395  10.380  10.542  12.189
58791SOL     OW76396  10.948  10.409  12.251
58791SOL    HW176397  10.953  10.490  12.310
58791SOL    HW276398  10.862  10.411  12.200
58792SOL     OW76399  10.225   9.399  12.574
58792SOL    HW176400  10.250   9.379  12.479
58792SOL    HW276401  10.297   9.455  12.616
58793SOL     OW76402  10.015  10.360  11.540
58793SOL    HW176403  10.001  10.367  11.639
58793SOL    HW276404  10.099  10.309  11.522
58794SOL     OW76405   9.720  10.123  12.423
58794SOL    HW176406   9.806  10.135  12.473
58794SOL    HW276407   9.678  10.036  12.450
58795SOL     OW76408  10.584   9.696  12.434
58795SOL    HW176409  10.605   9.770  12.498
58795SOL    HW276410  10.495   9.713  12.391
58796SOL     OW76411   9.374  10.874  12.503
58796SOL    HW176412   9.328  10.956  12.469
58796SOL    HW276413   9.472  10.893  12.512
58797SOL     OW76414   9.677  10.410  11.673
58797SOL    HW176415   9.670  10.493  11.617
58797SOL    HW276416   9.681  10.330  11.613
58798SOL     OW76417   9.876   9.847  12.037
58798SOL    HW176418   9.888   9.913  11.963
58798SOL    HW276419   9.922   9.881  12.120
58799SOL     OW76420  10.562  10.658  11.560
58799SOL    HW176421  10.612  10.735  11.600
58799SOL    HW276422  10.467  10.660  11.592
58800SOL     OW76423  10.582  10.755  12.314
58800SOL    HW176424  10.629  10.768  12.401
58800SOL    HW276425  10.516  10.681  12.323
58801SOL     OW76426  10.892   9.949  11.644
58801SOL    HW176427  10.861  10.010  11.717
58801SOL    HW276428  10.942  10.001  11.575
58802SOL     OW76429   9.664  10.820  12.501
58802SOL    HW176430   9.643  10.776  12.414
58802SOL    HW276431   9.761  10.846  12.504
58803SOL     OW76432   9.712  10.061  12.770
58803SOL    HW176433   9.780  10.116  12.723
58803SOL    HW276434   9.752   9.973  12.797
58804SOL     OW76435  10.897  10.089  12.842
58804SOL    HW176436  10.805  10.127  12.837
58804SOL    HW276437  10.957  10.136  12.777
58805SOL     OW76438   9.883  10.180  12.201
58805SOL    HW176439   9.927  10.269  12.192
58805SOL    HW276440   9.820  10.180  12.278
58806SOL     OW76441  10.670  10.172  12.217
58806SOL    HW176442  10.595  10.172  12.151
58806SOL    HW276443  10.707  10.080  12.226
58807SOL     OW76444  10.519   9.835  11.447
58807SOL    HW176445  10.532   9.751  11.501
58807SOL    HW276446  10.490   9.909  11.507
58808SOL     OW76447   9.617   9.523  12.403
58808SOL    HW176448   9.594   9.560  12.493
58808SOL    HW276449   9.587   9.428  12.397
58809SOL     OW76450   9.347  10.620  12.454
58809SOL    HW176451   9.400  10.571  12.522
58809SOL    HW276452   9.369  10.718  12.459
58810SOL     OW76453  10.042   9.944  12.236
58810SOL    HW176454  10.101   9.918  12.160
58810SOL    HW276455  10.014  10.040  12.225
58811SOL     OW76456   9.617   9.373  11.790
58811SOL    HW176457   9.606   9.467  11.823
58811SOL    HW276458   9.612   9.310  11.867
58812SOL     OW76459  10.932   9.677  11.546
58812SOL    HW176460  10.934   9.601  11.610
58812SOL    HW276461  10.884   9.754  11.586
58813SOL     OW76462  10.333  10.076  12.138
58813SOL    HW176463  10.348  10.097  12.234
58813SOL    HW276464  10.303   9.981  12.129
58814SOL     OW76465  10.850   9.584  11.297
58814SOL    HW176466  10.789   9.509  11.320
58814SOL    HW276467  10.872   9.636  11.380
58815SOL     OW76468  10.613  10.148  11.214
58815SOL    HW176469  10.647  10.055  11.229
58815SOL    HW276470  10.631  10.175  11.119
58816SOL     OW76471  10.378  10.643  12.021
58816SOL    HW176472  10.385  10.559  11.966
58816SOL    HW276473  10.440  10.712  11.985
58817SOL     OW76474   9.629  10.120  12.121
58817SOL    HW176475   9.722  10.156  12.126
58817SOL    HW276476   9.623  10.035  12.173
58818SOL     OW76477   9.649   9.819  12.178
58818SOL    HW176478   9.597   9.736  12.161
58818SOL    HW276479   9.726   9.824  12.114
58819SOL     OW76480  10.470   9.517  12.649
58819SOL    HW176481  10.470   9.581  12.726
58819SOL    HW276482  10.498   9.565  12.566
58820SOL     OW76483   9.318  10.636  11.372
58820SOL    HW176484   9.225  10.657  11.341
58820SOL    HW276485   9.328  10.537  11.385
58821SOL     OW76486   9.398  11.111  12.099
58821SOL    HW176487   9.356  11.025  12.072
58821SOL    HW276488   9.492  11.114  12.065
58822SOL     OW76489   9.814  10.878  12.082
58822SOL    HW176490   9.880  10.952  12.091
58822SOL    HW276491   9.858  10.799  12.040
58823SOL     OW76492  10.312  10.106  12.410
58823SOL    HW176493  10.353  10.074  12.496
58823SOL    HW276494  10.216  10.079  12.407
58824SOL     OW76495   9.350   9.854  12.286
58824SOL    HW176496   9.435   9.821  12.245
58824SOL    HW276497   9.363   9.869  12.384
58825SOL     OW76498  10.125   9.882  11.497
58825SOL    HW176499  10.132   9.793  11.451
58825SOL    HW276500  10.031   9.916  11.489
58826SOL     OW76501  10.967   9.914  12.378
58826SOL    HW176502  10.929   9.845  12.440
58826SOL    HW276503  11.049   9.878  12.334
58827SOL     OW76504   9.562  10.874  12.916
58827SOL    HW176505   9.532  10.931  12.992
58827SOL    HW276506   9.555  10.777  12.942
58828SOL     OW76507   9.981   9.774  12.441
58828SOL    HW176508   9.947   9.685  12.411
58828SOL    HW276509  10.007   9.828  12.361
58829SOL     OW76510  10.240  10.988  12.637
58829SOL    HW176511  10.216  10.970  12.542
58829SOL    HW276512  10.270  11.082  12.647
58830SOL     OW76513   9.783   9.810  11.363
58830SOL    HW176514   9.844   9.890  11.367
58830SOL    HW276515   9.688   9.841  11.370
58831SOL     OW76516   9.469  10.447  12.638
58831SOL    HW176517   9.491  10.386  12.714
58831SOL    HW276518   9.479  10.398  12.552
58832SOL     OW76519  10.657  10.369  12.406
58832SOL    HW176520  10.681  10.306  12.332
58832SOL    HW276521  10.567  10.409  12.388
58833SOL     OW76522  10.612  10.165  11.481
58833SOL    HW176523  10.526  10.134  11.523
58833SOL    HW276524  10.608  10.151  11.382
58834SOL     OW76525  11.069  11.057  12.326
58834SOL    HW176526  11.130  11.087  12.253
58834SOL    HW276527  11.031  10.968  12.304
58835SOL     OW76528  10.562  11.041  12.300
58835SOL    HW176529  10.646  11.046  12.246
58835SOL    HW276530  10.539  10.945  12.318
58836SOL     OW76531   9.393  10.568  12.194
58836SOL    HW176532   9.388  10.567  12.294
58836SOL    HW276533   9.310  10.527  12.156
58837SOL     OW76534  11.036   9.445  11.695
58837SOL    HW176535  11.109   9.428  11.628
58837SOL    HW276536  11.005   9.358  11.733
58838SOL     OW76537  10.698  10.883  11.649
58838SOL    HW176538  10.765  10.895  11.575
58838SOL    HW276539  10.658  10.972  11.672
58839SOL     OW76540  10.590  10.237  11.844
58839SOL    HW176541  10.650  10.156  11.846
58839SOL    HW276542  10.630  10.306  11.784
58840SOL     OW76543  10.140  10.583  12.594
58840SOL    HW176544  10.135  10.616  12.689
58840SOL    HW276545  10.054  10.602  12.548
58841SOL     OW76546   9.982  10.926  11.326
58841SOL    HW176547   9.991  10.936  11.227
58841SOL    HW276548   9.942  10.837  11.347
58842SOL     OW76549  10.960  11.030  12.566
58842SOL    HW176550  11.013  11.040  12.482
58842SOL    HW276551  10.933  11.120  12.600
58843SOL     OW76552  11.151   9.485  12.135
58843SOL    HW176553  11.190   9.400  12.099
58843SOL    HW276554  11.053   9.487  12.116
58844SOL     OW76555   9.573   9.636  11.892
58844SOL    HW176556   9.494   9.687  11.858
58844SOL    HW276557   9.564   9.621  11.990
58845SOL     OW76558  10.504  10.922  11.203
58845SOL    HW176559  10.510  10.829  11.240
58845SOL    HW276560  10.445  10.922  11.123
58846SOL     OW76561  10.132  10.312  12.544
58846SOL    HW176562  10.172  10.311  12.452
58846SOL    HW276563  10.142  10.404  12.584
58847SOL     OW76564  10.226  10.220  11.463
58847SOL    HW176565  10.289  10.258  11.395
58847SOL    HW276566  10.266  10.137  11.502
58848SOL     OW76567  10.814  10.917  11.216
58848SOL    HW176568  10.722  10.954  11.223
58848SOL    HW276569  10.852  10.937  11.126
58849SOL     OW76570   9.682  10.598  12.662
58849SOL    HW176571   9.669  10.691  12.628
58849SOL    HW276572   9.598  10.546  12.649
58850SOL     OW76573  10.924  10.602  12.461
58850SOL    HW176574  10.984  10.605  12.541
58850SOL    HW276575  10.849  10.666  12.474
58851SOL     OW76576  10.349  10.408  11.868
58851SOL    HW176577  10.279  10.361  11.922
58851SOL    HW276578  10.408  10.340  11.825
58852SOL     OW76579  10.324   9.546  12.143
58852SOL    HW176580  10.316   9.510  12.050
58852SOL    HW276581  10.322   9.470  12.208
58853SOL     OW76582   9.900  10.797  11.663
58853SOL    HW176583   9.942  10.739  11.593
58853SOL    HW276584   9.856  10.876  11.619
58854SOL     OW76585  11.019   9.695  12.553
58854SOL    HW176586  11.092   9.764  12.557
58854SOL    HW276587  11.047   9.620  12.494
58855SOL     OW76588   9.565  10.658  11.462
58855SOL    HW176589   9.469  10.659  11.435
58855SOL    HW276590   9.577  10.711  11.546
58856SOL     OW76591   9.415  10.323  12.898
58856SOL    HW176592   9.338  10.290  12.952
58856SOL    HW276593   9.500  10.293  12.940
58857SOL     OW76594   9.982   9.513  12.661
58857SOL    HW176595  10.072   9.497  12.621
58857SOL    HW276596   9.990   9.518  12.760
58858SOL     OW76597   9.385   9.655  11.205
58858SOL    HW176598   9.293   9.627  11.176
58858SOL    HW276599   9.416   9.732  11.149
58859SOL     OW76600  10.750  10.166  12.570
58859SOL    HW176601  10.693  10.218  12.507
58859SOL    HW276602  10.846  10.178  12.546
58860SOL     OW76603   9.382   9.476  11.490
58860SOL    HW176604   9.365   9.559  11.436
58860SOL    HW276605   9.472   9.439  11.468
58861SOL     OW76606  10.493  10.645  11.291
58861SOL    HW176607  10.394  10.634  11.293
58861SOL    HW276608  10.527  10.660  11.384
58862SOL     OW76609   9.923  10.152  12.603
58862SOL    HW176610   9.979  10.233  12.586
58862SOL    HW276611   9.982  10.072  12.606
58863SOL     OW76612  10.803  11.077  12.131
58863SOL    HW176613  10.836  11.141  12.062
58863SOL    HW276614  10.869  11.071  12.206
58864SOL     OW76615  10.026   9.875  12.880
58864SOL    HW176616  10.045   9.940  12.954
58864SOL    HW276617  10.086   9.795  12.889
58865SOL     OW76618   9.700  11.051  12.732
58865SOL    HW176619   9.609  11.092  12.730
58865SOL    HW276620   9.693  10.957  12.764
58866SOL     OW76621  10.984  10.193  12.426
58866SOL    HW176622  10.957  10.104  12.389
58866SOL    HW276623  10.985  10.261  12.353
58867SOL     OW76624  10.535   9.635  11.621
58867SOL    HW176625  10.600   9.561  11.610
58867SOL    HW276626  10.555   9.685  11.705
58868SOL     OW76627   9.904  10.055  11.824
58868SOL    HW176628   9.954  10.140  11.805
58868SOL    HW276629   9.816  10.057  11.776
58869SOL     OW76630  11.040  10.244  12.689
58869SOL    HW176631  11.078  10.335  12.704
58869SOL    HW276632  11.032  10.227  12.590
58870SOL     OW76633  10.169  10.684  11.188
58870SOL    HW176634  10.123  10.699  11.276
58870SOL    HW276635  10.213  10.769  11.158
58871SOL     OW76636   9.971  11.100  12.125
58871SOL    HW176637   9.925  11.188  12.112
58871SOL    HW276638  10.070  11.112  12.118
58872SOL     OW76639  10.169  10.266  12.033
58872SOL    HW176640  10.223  10.197  12.081
58872SOL    HW276641  10.137  10.335  12.099
58873SOL     OW76642  10.393  10.294  11.259
58873SOL    HW176643  10.370  10.347  11.177
58873SOL    HW276644  10.474  10.238  11.240
58874SOL     OW76645  11.171  10.879  12.023
58874SOL    HW176646  11.100  10.867  11.953
58874SOL    HW276647  11.172  10.800  12.083
58875SOL     OW76648   9.389  10.550  11.825
58875SOL    HW176649   9.388  10.503  11.913
58875SOL    HW276650   9.471  10.522  11.774
58876SOL     OW76651   9.982  10.701  12.796
58876SOL    HW176652   9.904  10.651  12.834
58876SOL    HW276653   9.979  10.796  12.827
58877SOL     OW76654  11.134   9.502  12.399
58877SOL    HW176655  11.130   9.412  12.443
58877SOL    HW276656  11.137   9.491  12.300
58878SOL     OW76657   9.738   9.734  11.692
58878SOL    HW176658   9.768   9.662  11.630
58878SOL    HW276659   9.699   9.694  11.775
58879SOL     OW76660  11.015  10.797  12.276
58879SOL    HW176661  10.922  10.772  12.249
58879SOL    HW276662  11.041  10.747  12.358
58880SOL     OW76663   9.627   9.857  12.452
58880SOL    HW176664   9.665   9.798  12.524
58880SOL    HW276665   9.667   9.831  12.364
58881SOL     OW76666  10.122  10.896  11.859
58881SOL    HW176667  10.154  10.906  11.765
58881SOL    HW276668  10.043  10.834  11.861
58882SOL     OW76669  10.734   9.524  12.284
58882SOL    HW176670  10.786   9.459  12.339
58882SOL    HW276671  10.685   9.587  12.345
58883SOL     OW76672  10.311   9.344  12.326
58883SOL    HW176673  10.248   9.272  12.295
58883SOL    HW276674  10.404   9.308  12.326
58884SOL     OW76675  10.080  10.640  11.473
58884SOL    HW176676  10.034  10.553  11.490
58884SOL    HW276677  10.171  10.637  11.514
58885SOL     OW76678   9.928  10.877  12.456
58885SOL    HW176679   9.923  10.959  12.513
58885SOL    HW276680  10.017  10.874  12.411
58886SOL     OW76681  10.662   9.362  11.340
58886SOL    HW176682  10.697   9.321  11.256
58886SOL    HW276683  10.572   9.324  11.360
58887SOL     OW76684  10.610   9.763  11.863
58887SOL    HW176685  10.551   9.843  11.867
58887SOL    HW276686  10.625   9.728  11.956
58888SOL     OW76687  10.903   9.531  12.054
58888SOL    HW176688  10.819   9.530  12.108
58888SOL    HW276689  10.905   9.614  11.998
58889SOL     OW76690   9.349  10.387  11.472
58889SOL    HW176691   9.448  10.376  11.463
58889SOL    HW276692   9.309  10.301  11.504
58890SOL     OW76693  10.185  10.956  11.509
58890SOL    HW176694  10.108  10.921  11.455
58890SOL    HW276695  10.153  11.027  11.571
58891SOL     OW76696   9.540  11.800   0.113
58891SOL    HW176697   9.447  11.798   0.150
58891SOL    HW276698   9.541  11.761   0.021
58892SOL     OW76699   9.535  11.447   0.996
58892SOL    HW176700   9.570  11.430   1.088
58892SOL    HW276701   9.447  11.402   0.984
58893SOL     OW76702   9.329  11.540   0.647
58893SOL    HW176703   9.247  11.583   0.686
58893SOL    HW276704   9.301  11.467   0.584
58894SOL     OW76705   9.879  12.447   1.165
58894SOL    HW176706   9.786  12.440   1.128
58894SOL    HW276707   9.890  12.536   1.209
58895SOL     OW76708  10.865  12.683   0.703
58895SOL    HW176709  10.808  12.667   0.784
58895SOL    HW276710  10.806  12.693   0.623
58896SOL     OW76711  10.445  11.875   0.717
58896SOL    HW176712  10.502  11.953   0.692
58896SOL    HW276713  10.385  11.901   0.793
58897SOL     OW76714  11.065  11.779   0.231
58897SOL    HW176715  11.053  11.766   0.132
58897SOL    HW276716  11.035  11.698   0.280
58898SOL     OW76717  10.078  12.316   1.023
58898SOL    HW176718  10.000  12.333   1.083
58898SOL    HW276719  10.112  12.403   0.987
58899SOL     OW76720  10.160  11.970   1.823
58899SOL    HW176721  10.156  12.046   1.888
58899SOL    HW276722  10.182  12.006   1.732
58900SOL     OW76723   9.995  12.184   0.665
58900SOL    HW176724  10.064  12.168   0.735
58900SOL    HW276725   9.922  12.241   0.703
58901SOL     OW76726   9.996  12.333   1.803
58901SOL    HW176727  10.056  12.412   1.817
58901SOL    HW276728   9.910  12.364   1.762
58902SOL     OW76729   9.645  12.607   1.061
58902SOL    HW176730   9.567  12.576   1.008
58902SOL    HW276731   9.703  12.665   1.004
58903SOL     OW76732  10.770  12.677   1.339
58903SOL    HW176733  10.794  12.771   1.365
58903SOL    HW276734  10.754  12.623   1.421
58904SOL     OW76735   9.748  11.564   1.499
58904SOL    HW176736   9.830  11.508   1.508
58904SOL    HW276737   9.667  11.506   1.503
58905SOL     OW76738  10.913  11.619   0.737
58905SOL    HW176739  10.839  11.665   0.687
58905SOL    HW276740  10.964  11.687   0.790
58906SOL     OW76741  10.437  12.513   1.690
58906SOL    HW176742  10.484  12.513   1.778
58906SOL    HW276743  10.389  12.426   1.679
58907SOL     OW76744   9.540  12.606   0.538
58907SOL    HW176745   9.514  12.702   0.538
58907SOL    HW276746   9.469  12.552   0.583
58908SOL     OW76747   9.550  12.263   0.886
58908SOL    HW176748   9.564  12.179   0.938
58908SOL    HW276749   9.495  12.327   0.941
58909SOL     OW76750   9.916  12.136   0.123
58909SOL    HW176751   9.923  12.220   0.069
58909SOL    HW276752   9.962  12.149   0.211
58910SOL     OW76753  10.904  11.286   1.480
58910SOL    HW176754  10.886  11.353   1.408
58910SOL    HW276755  10.901  11.332   1.569
58911SOL     OW76756   9.432  11.815   0.563
58911SOL    HW176757   9.387  11.727   0.580
58911SOL    HW276758   9.431  11.869   0.647
58912SOL     OW76759   9.337  12.768   0.117
58912SOL    HW176760   9.318  12.672   0.138
58912SOL    HW276761   9.304  12.826   0.192
58913SOL     OW76762  10.999  12.094   0.612
58913SOL    HW176763  11.094  12.065   0.620
58913SOL    HW276764  10.991  12.159   0.537
58914SOL     OW76765  10.951  12.280   0.432
58914SOL    HW176766  11.037  12.282   0.380
58914SOL    HW276767  10.965  12.327   0.520
58915SOL     OW76768   9.423  11.909   1.597
58915SOL    HW176769   9.511  11.896   1.642
58915SOL    HW276770   9.410  12.006   1.575
58916SOL     OW76771   9.923  12.537   0.726
58916SOL    HW176772   9.874  12.450   0.735
58916SOL    HW276773   9.900  12.580   0.639
58917SOL     OW76774  10.603  12.400   1.423
58917SOL    HW176775  10.640  12.327   1.365
58917SOL    HW276776  10.655  12.405   1.508
58918SOL     OW76777  10.119  11.176   0.502
58918SOL    HW176778  10.159  11.267   0.493
58918SOL    HW276779  10.019  11.184   0.508
58919SOL     OW76780   9.507  12.148   1.264
58919SOL    HW176781   9.596  12.103   1.250
58919SOL    HW276782   9.434  12.083   1.245
58920SOL     OW76783  10.835  12.171   0.190
58920SOL    HW176784  10.772  12.095   0.203
58920SOL    HW276785  10.883  12.189   0.276
58921SOL     OW76786   9.627  11.423   1.801
58921SOL    HW176787   9.698  11.494   1.807
58921SOL    HW276788   9.539  11.462   1.829
58922SOL     OW76789  10.776  12.589   0.953
58922SOL    HW176790  10.717  12.595   1.033
58922SOL    HW276791  10.761  12.501   0.907
58923SOL     OW76792   9.908  11.901   0.270
58923SOL    HW176793   9.932  11.970   0.202
58923SOL    HW276794   9.830  11.934   0.324
58924SOL     OW76795  10.591  11.517   0.944
58924SOL    HW176796  10.505  11.467   0.931
58924SOL    HW276797  10.653  11.463   1.000
58925SOL     OW76798  10.886  12.834   0.307
58925SOL    HW176799  10.975  12.880   0.310
58925SOL    HW276800  10.865  12.810   0.212
58926SOL     OW76801  10.117  11.777   1.465
58926SOL    HW176802  10.070  11.774   1.554
58926SOL    HW276803  10.066  11.722   1.399
58927SOL     OW76804  10.704  11.641   1.674
58927SOL    HW176805  10.684  11.684   1.762
58927SOL    HW276806  10.782  11.579   1.683
58928SOL     OW76807  10.283  12.062   1.572
58928SOL    HW176808  10.329  11.978   1.543
58928SOL    HW276809  10.227  12.096   1.497
58929SOL     OW76810  10.301  11.582   1.242
58929SOL    HW176811  10.224  11.616   1.296
58929SOL    HW276812  10.267  11.531   1.163
58930SOL     OW76813  10.351  11.873   0.429
58930SOL    HW176814  10.377  11.869   0.525
58930SOL    HW276815  10.266  11.822   0.415
58931SOL     OW76816   9.386  11.983   0.789
58931SOL    HW176817   9.485  11.971   0.798
58931SOL    HW276818   9.362  12.078   0.810
58932SOL     OW76819  10.175  11.520   0.195
58932SOL    HW176820  10.234  11.583   0.146
58932SOL    HW276821  10.194  11.426   0.166
58933SOL     OW76822  11.029  11.757   1.831
58933SOL    HW176823  11.003  11.846   1.795
58933SOL    HW276824  11.027  11.689   1.758
58934SOL     OW76825  10.672  12.316   0.545
58934SOL    HW176826  10.755  12.287   0.497
58934SOL    HW276827  10.623  12.383   0.489
58935SOL     OW76828   9.860  11.368   0.885
58935SOL    HW176829   9.855  11.363   0.985
58935SOL    HW276830   9.862  11.464   0.856
58936SOL     OW76831  10.318  12.628   0.477
58936SOL    HW176832  10.272  12.700   0.425
58936SOL    HW276833  10.314  12.648   0.575
58937SOL     OW76834  11.105  12.238   0.873
58937SOL    HW176835  11.043  12.223   0.797
58937SOL    HW276836  11.053  12.249   0.958
58938SOL     OW76837  10.537  12.722   1.506
58938SOL    HW176838  10.543  12.645   1.570
58938SOL    HW276839  10.485  12.696   1.426
58939SOL     OW76840   9.631  12.115   0.242
58939SOL    HW176841   9.713  12.154   0.200
58939SOL    HW276842   9.604  12.033   0.193
58940SOL     OW76843  10.768  11.907   0.728
58940SOL    HW176844  10.763  11.842   0.803
58940SOL    HW276845  10.848  11.966   0.741
58941SOL     OW76846   9.771  12.438   1.727
58941SOL    HW176847   9.721  12.439   1.641
58941SOL    HW276848   9.708  12.420   1.803
58942SOL     OW76849   9.512  11.457   1.498
58942SOL    HW176850   9.432  11.517   1.485
58942SOL    HW276851   9.502  11.408   1.584
58943SOL     OW76852  10.942  12.549   0.081
58943SOL    HW176853  10.910  12.643   0.071
58943SOL    HW276854  10.866  12.486   0.069
58944SOL     OW76855  10.710  11.279   0.426
58944SOL    HW176856  10.686  11.242   0.336
58944SOL    HW276857  10.809  11.295   0.430
58945SOL     OW76858   9.692  11.872   0.480
58945SOL    HW176859   9.737  11.782   0.477
58945SOL    HW276860   9.598  11.861   0.513
58946SOL     OW76861  10.857  11.394   1.729
58946SOL    HW176862  10.852  11.431   1.821
58946SOL    HW276863  10.785  11.325   1.717
58947SOL     OW76864   9.924  11.294   0.117
58947SOL    HW176865  10.022  11.272   0.124
58947SOL    HW276866   9.893  11.277   0.024
58948SOL     OW76867  10.091  11.436   1.749
58948SOL    HW176868  10.158  11.375   1.792
58948SOL    HW276869  10.018  11.455   1.814
58949SOL     OW76870  10.661  11.762   1.433
58949SOL    HW176871  10.689  11.719   1.518
58949SOL    HW276872  10.686  11.858   1.434
58950SOL     OW76873  10.113  12.574   0.924
58950SOL    HW176874  10.203  12.588   0.882
58950SOL    HW276875  10.042  12.576   0.853
58951SOL     OW76876  10.232  11.675   0.899
58951SOL    HW176877  10.207  11.666   0.803
58951SOL    HW276878  10.280  11.593   0.930
58952SOL     OW76879   9.849  11.236   0.512
58952SOL    HW176880   9.768  11.237   0.570
58952SOL    HW276881   9.852  11.319   0.457
58953SOL     OW76882  10.744  12.360   0.041
58953SOL    HW176883  10.776  12.284   0.098
58953SOL    HW276884  10.652  12.387   0.071
58954SOL     OW76885   9.607  11.207   0.171
58954SOL    HW176886   9.656  11.291   0.150
58954SOL    HW276887   9.669  11.142   0.216
58955SOL     OW76888  10.245  11.408   0.480
58955SOL    HW176889  10.197  11.449   0.402
58955SOL    HW276890  10.344  11.406   0.461
58956SOL     OW76891  10.386  11.855   1.464
58956SOL    HW176892  10.306  11.794   1.467
58956SOL    HW276893  10.467  11.802   1.440
58957SOL     OW76894  10.537  12.742   0.793
58957SOL    HW176895  10.558  12.816   0.728
58957SOL    HW276896  10.605  12.742   0.866
58958SOL     OW76897   9.769  12.324   0.741
58958SOL    HW176898   9.698  12.297   0.806
58958SOL    HW276899   9.743  12.296   0.648
58959SOL     OW76900  10.342  11.721   0.016
58959SOL    HW176901  10.301  11.803  -0.023
58959SOL    HW276902  10.406  11.747   0.089
58960SOL     OW76903   9.388  11.728   1.386
58960SOL    HW176904   9.480  11.727   1.345
58960SOL    HW276905   9.382  11.802   1.453
58961SOL     OW76906   9.871  11.394   1.147
58961SOL    HW176907   9.909  11.310   1.184
58961SOL    HW276908   9.783  11.413   1.191
58962SOL     OW76909  10.176  11.626   0.642
58962SOL    HW176910  10.144  11.698   0.580
58962SOL    HW276911  10.200  11.545   0.589
58963SOL     OW76912  10.327  11.211   0.753
58963SOL    HW176913  10.255  11.216   0.684
58963SOL    HW276914  10.303  11.142   0.822
58964SOL     OW76915  10.739  12.345   0.867
58964SOL    HW176916  10.684  12.261   0.860
58964SOL    HW276917  10.765  12.374   0.775
58965SOL     OW76918  10.776  11.762   0.992
58965SOL    HW176919  10.746  11.667   0.999
58965SOL    HW276920  10.849  11.778   1.058
58966SOL     OW76921  11.167  12.005   0.377
58966SOL    HW176922  11.209  11.941   0.441
58966SOL    HW276923  11.129  11.954   0.299
58967SOL     OW76924   9.798  12.557   0.174
58967SOL    HW176925   9.711  12.542   0.221
58967SOL    HW276926   9.781  12.583   0.079
58968SOL     OW76927  10.974  12.452   0.657
58968SOL    HW176928  11.073  12.460   0.671
58968SOL    HW276929  10.929  12.536   0.688
58969SOL     OW76930  10.700  11.747   0.078
58969SOL    HW176931  10.646  11.726   0.159
58969SOL    HW276932  10.791  11.706   0.087
58970SOL     OW76933   9.837  11.428   0.328
58970SOL    HW176934   9.864  11.369   0.253
58970SOL    HW276935   9.837  11.523   0.297
58971SOL     OW76936  11.064  12.395   1.588
58971SOL    HW176937  11.155  12.356   1.575
58971SOL    HW276938  11.072  12.491   1.612
58972SOL     OW76939  10.374  12.519   1.340
58972SOL    HW176940  10.294  12.496   1.395
58972SOL    HW276941  10.457  12.493   1.389
58973SOL     OW76942  10.421  12.367   1.100
58973SOL    HW176943  10.381  12.411   1.181
58973SOL    HW276944  10.380  12.404   1.017
58974SOL     OW76945  10.948  12.271   1.079
58974SOL    HW176946  10.953  12.352   1.138
58974SOL    HW276947  10.862  12.273   1.028
58975SOL     OW76948  10.225  11.261   1.402
58975SOL    HW176949  10.250  11.241   1.307
58975SOL    HW276950  10.297  11.317   1.444
58976SOL     OW76951  10.290  12.288   1.719
58976SOL    HW176952  10.191  12.294   1.729
58976SOL    HW276953  10.313  12.208   1.663
58977SOL     OW76954  10.015  12.222   0.368
58977SOL    HW176955  10.001  12.229   0.467
58977SOL    HW276956  10.099  12.171   0.350
58978SOL     OW76957   9.720  11.985   1.251
58978SOL    HW176958   9.806  11.997   1.301
58978SOL    HW276959   9.678  11.898   1.278
58979SOL     OW76960  10.584  11.558   1.262
58979SOL    HW176961  10.605  11.632   1.326
58979SOL    HW276962  10.495  11.575   1.219
58980SOL     OW76963   9.374  12.736   1.331
58980SOL    HW176964   9.328  12.818   1.297
58980SOL    HW276965   9.472  12.755   1.340
58981SOL     OW76966   9.677  12.272   0.501
58981SOL    HW176967   9.670  12.355   0.445
58981SOL    HW276968   9.681  12.192   0.441
58982SOL     OW76969   9.876  11.709   0.865
58982SOL    HW176970   9.888  11.775   0.791
58982SOL    HW276971   9.922  11.743   0.948
58983SOL     OW76972  10.562  12.520   0.388
58983SOL    HW176973  10.612  12.597   0.428
58983SOL    HW276974  10.467  12.522   0.420
58984SOL     OW76975  10.582  12.617   1.142
58984SOL    HW176976  10.629  12.630   1.229
58984SOL    HW276977  10.516  12.543   1.151
58985SOL     OW76978  10.892  11.811   0.472
58985SOL    HW176979  10.861  11.872   0.545
58985SOL    HW276980  10.942  11.863   0.403
58986SOL     OW76981   9.664  12.682   1.329
58986SOL    HW176982   9.643  12.638   1.242
58986SOL    HW276983   9.761  12.708   1.332
58987SOL     OW76984   9.712  11.923   1.598
58987SOL    HW176985   9.780  11.978   1.551
58987SOL    HW276986   9.752  11.835   1.625
58988SOL     OW76987  10.897  11.951   1.670
58988SOL    HW176988  10.805  11.989   1.665
58988SOL    HW276989  10.957  11.998   1.605
58989SOL     OW76990  10.323  11.277   1.770
58989SOL    HW176991  10.329  11.362   1.718
58989SOL    HW276992  10.355  11.201   1.713
58990SOL     OW76993   9.814  11.222   1.740
58990SOL    HW176994   9.772  11.165   1.670
58990SOL    HW276995   9.748  11.291   1.772
58991SOL     OW76996   9.883  12.042   1.029
58991SOL    HW176997   9.927  12.131   1.020
58991SOL    HW276998   9.820  12.042   1.106
58992SOL     OW76999  10.670  12.034   1.045
58992SOL    HW177000  10.595  12.034   0.979
58992SOL    HW277001  10.707  11.942   1.054
58993SOL     OW77002  10.519  11.697   0.275
58993SOL    HW177003  10.532  11.613   0.329
58993SOL    HW277004  10.490  11.771   0.335
58994SOL     OW77005   9.617  11.385   1.231
58994SOL    HW177006   9.594  11.422   1.321
58994SOL    HW277007   9.587  11.290   1.225
58995SOL     OW77008   9.347  12.482   1.282
58995SOL    HW177009   9.400  12.433   1.350
58995SOL    HW277010   9.369  12.580   1.287
58996SOL     OW77011  10.042  11.806   1.064
58996SOL    HW177012  10.101  11.780   0.988
58996SOL    HW277013  10.014  11.902   1.053
58997SOL     OW77014  11.038  12.107   1.854
58997SOL    HW177015  10.992  12.100   1.765
58997SOL    HW277016  10.976  12.151   1.920
58998SOL     OW77017   9.617  11.235   0.618
58998SOL    HW177018   9.606  11.329   0.651
58998SOL    HW277019   9.612  11.172   0.695
58999SOL     OW77020  10.932  11.539   0.374
58999SOL    HW177021  10.934  11.463   0.438
58999SOL    HW277022  10.884  11.616   0.414
59000SOL     OW77023  10.333  11.938   0.966
59000SOL    HW177024  10.348  11.959   1.062
59000SOL    HW277025  10.303  11.843   0.957
59001SOL     OW77026  11.169  12.690   1.605
59001SOL    HW177027  11.183  12.717   1.510
59001SOL    HW277028  11.252  12.712   1.658
59002SOL     OW77029   9.660  12.070   1.804
59002SOL    HW177030   9.736  12.114   1.852
59002SOL    HW277031   9.695  12.023   1.722
59003SOL     OW77032  10.850  11.446   0.125
59003SOL    HW177033  10.789  11.371   0.148
59003SOL    HW277034  10.872  11.498   0.208
59004SOL     OW77035  10.613  12.010   0.042
59004SOL    HW177036  10.647  11.917   0.057
59004SOL    HW277037  10.631  12.037  -0.053
59005SOL     OW77038  10.378  12.505   0.849
59005SOL    HW177039  10.385  12.421   0.794
59005SOL    HW277040  10.440  12.574   0.813
59006SOL     OW77041   9.629  11.982   0.949
59006SOL    HW177042   9.722  12.018   0.954
59006SOL    HW277043   9.623  11.897   1.001
59007SOL     OW77044   9.649  11.681   1.006
59007SOL    HW177045   9.597  11.598   0.989
59007SOL    HW277046   9.726  11.686   0.942
59008SOL     OW77047  10.448  11.552   1.678
59008SOL    HW177048  10.403  11.615   1.742
59008SOL    HW277049  10.541  11.583   1.661
59009SOL     OW77050  10.470  11.379   1.477
59009SOL    HW177051  10.470  11.443   1.554
59009SOL    HW277052  10.498  11.427   1.394
59010SOL     OW77053   9.318  12.498   0.200
59010SOL    HW177054   9.225  12.519   0.169
59010SOL    HW277055   9.328  12.399   0.213
59011SOL     OW77056   9.814  12.740   0.910
59011SOL    HW177057   9.880  12.814   0.919
59011SOL    HW277058   9.858  12.661   0.868
59012SOL     OW77059  10.312  11.968   1.238
59012SOL    HW177060  10.353  11.936   1.324
59012SOL    HW277061  10.216  11.941   1.235
59013SOL     OW77062   9.350  11.716   1.114
59013SOL    HW177063   9.435  11.683   1.073
59013SOL    HW277064   9.363  11.731   1.212
59014SOL     OW77065   9.499  11.692   1.722
59014SOL    HW177066   9.558  11.652   1.652
59014SOL    HW277067   9.441  11.763   1.681
59015SOL     OW77068  10.679  12.122   1.660
59015SOL    HW177069  10.718  12.211   1.680
59015SOL    HW277070  10.689  12.102   1.563
59016SOL     OW77071  10.125  11.744   0.325
59016SOL    HW177072  10.132  11.655   0.279
59016SOL    HW277073  10.031  11.778   0.317
59017SOL     OW77074  10.967  11.776   1.206
59017SOL    HW177075  10.929  11.707   1.268
59017SOL    HW277076  11.049  11.740   1.162
59018SOL     OW77077   9.562  12.736   1.744
59018SOL    HW177078   9.532  12.793   1.820
59018SOL    HW277079   9.555  12.639   1.770
59019SOL     OW77080   9.981  11.636   1.269
59019SOL    HW177081   9.947  11.547   1.239
59019SOL    HW277082  10.007  11.690   1.189
59020SOL     OW77083   9.783  11.672   0.191
59020SOL    HW177084   9.844  11.752   0.195
59020SOL    HW277085   9.688  11.703   0.198
59021SOL     OW77086   9.469  12.309   1.466
59021SOL    HW177087   9.491  12.248   1.542
59021SOL    HW277088   9.479  12.260   1.380
59022SOL     OW77089  10.657  12.231   1.234
59022SOL    HW177090  10.681  12.168   1.160
59022SOL    HW277091  10.567  12.271   1.216
59023SOL     OW77092  10.612  12.027   0.309
59023SOL    HW177093  10.526  11.996   0.351
59023SOL    HW277094  10.608  12.013   0.210
59024SOL     OW77095  10.562  12.903   1.128
59024SOL    HW177096  10.646  12.908   1.074
59024SOL    HW277097  10.539  12.807   1.146
59025SOL     OW77098   9.393  12.430   1.022
59025SOL    HW177099   9.388  12.429   1.122
59025SOL    HW277100   9.310  12.389   0.984
59026SOL     OW77101  10.213  11.258   0.133
59026SOL    HW177102  10.264  11.259   0.047
59026SOL    HW277103  10.269  11.216   0.204
59027SOL     OW77104  11.036  11.307   0.523
59027SOL    HW177105  11.109  11.290   0.456
59027SOL    HW277106  11.005  11.220   0.561
59028SOL     OW77107   9.440  12.966   1.851
59028SOL    HW177108   9.399  12.892   1.904
59028SOL    HW277109   9.504  13.017   1.909
59029SOL     OW77110  10.590  12.099   0.672
59029SOL    HW177111  10.650  12.018   0.674
59029SOL    HW277112  10.630  12.168   0.612
59030SOL     OW77113  10.140  12.445   1.422
59030SOL    HW177114  10.135  12.478   1.517
59030SOL    HW277115  10.054  12.464   1.376
59031SOL     OW77116   9.982  12.788   0.154
59031SOL    HW177117   9.991  12.798   0.055
59031SOL    HW277118   9.942  12.699   0.175
59032SOL     OW77119  11.151  11.347   0.963
59032SOL    HW177120  11.190  11.262   0.927
59032SOL    HW277121  11.053  11.349   0.944
59033SOL     OW77122   9.573  11.498   0.720
59033SOL    HW177123   9.494  11.549   0.686
59033SOL    HW277124   9.564  11.483   0.818
59034SOL     OW77125  10.504  12.784   0.031
59034SOL    HW177126  10.510  12.691   0.068
59034SOL    HW277127  10.445  12.784  -0.049
59035SOL     OW77128  10.132  12.174   1.372
59035SOL    HW177129  10.172  12.173   1.280
59035SOL    HW277130  10.142  12.266   1.412
59036SOL     OW77131  10.226  12.082   0.291
59036SOL    HW177132  10.289  12.120   0.223
59036SOL    HW277133  10.266  11.999   0.330
59037SOL     OW77134   9.682  12.460   1.490
59037SOL    HW177135   9.669  12.553   1.456
59037SOL    HW277136   9.598  12.408   1.477
59038SOL     OW77137  10.924  12.464   1.289
59038SOL    HW177138  10.984  12.467   1.369
59038SOL    HW277139  10.849  12.528   1.302
59039SOL     OW77140  10.349  12.270   0.696
59039SOL    HW177141  10.279  12.223   0.750
59039SOL    HW277142  10.408  12.202   0.653
59040SOL     OW77143  10.324  11.408   0.971
59040SOL    HW177144  10.316  11.372   0.878
59040SOL    HW277145  10.322  11.332   1.036
59041SOL     OW77146   9.900  12.659   0.491
59041SOL    HW177147   9.942  12.601   0.421
59041SOL    HW277148   9.856  12.738   0.447
59042SOL     OW77149  11.019  11.557   1.381
59042SOL    HW177150  11.092  11.626   1.385
59042SOL    HW277151  11.047  11.482   1.322
59043SOL     OW77152   9.565  12.520   0.290
59043SOL    HW177153   9.469  12.521   0.263
59043SOL    HW277154   9.577  12.573   0.374
59044SOL     OW77155   9.415  12.185   1.726
59044SOL    HW177156   9.338  12.152   1.780
59044SOL    HW277157   9.500  12.155   1.768
59045SOL     OW77158   9.982  11.375   1.489
59045SOL    HW177159  10.072  11.359   1.449
59045SOL    HW277160   9.990  11.380   1.588
59046SOL     OW77161  10.750  12.028   1.398
59046SOL    HW177162  10.693  12.080   1.335
59046SOL    HW277163  10.846  12.040   1.374
59047SOL     OW77164   9.382  11.338   0.318
59047SOL    HW177165   9.365  11.421   0.264
59047SOL    HW277166   9.472  11.301   0.296
59048SOL     OW77167  10.493  12.507   0.119
59048SOL    HW177168  10.394  12.496   0.121
59048SOL    HW277169  10.527  12.522   0.212
59049SOL     OW77170   9.923  12.014   1.431
59049SOL    HW177171   9.979  12.095   1.414
59049SOL    HW277172   9.982  11.934   1.434
59050SOL     OW77173  10.026  11.737   1.708
59050SOL    HW177174  10.045  11.802   1.782
59050SOL    HW277175  10.086  11.657   1.717
59051SOL     OW77176  10.760  12.392   1.633
59051SOL    HW177177  10.751  12.382   1.732
59051SOL    HW277178  10.856  12.385   1.607
59052SOL     OW77179  10.984  12.055   1.254
59052SOL    HW177180  10.957  11.966   1.217
59052SOL    HW277181  10.985  12.123   1.181
59053SOL     OW77182  10.535  11.497   0.449
59053SOL    HW177183  10.600  11.423   0.438
59053SOL    HW277184  10.555  11.547   0.533
59054SOL     OW77185   9.904  11.917   0.652
59054SOL    HW177186   9.954  12.002   0.633
59054SOL    HW277187   9.816  11.919   0.604
59055SOL     OW77188  11.087  11.514   1.642
59055SOL    HW177189  11.070  11.545   1.548
59055SOL    HW277190  11.003  11.477   1.680
59056SOL     OW77191  11.040  12.106   1.517
59056SOL    HW177192  11.078  12.197   1.532
59056SOL    HW277193  11.032  12.089   1.418
59057SOL     OW77194  10.169  12.546   0.016
59057SOL    HW177195  10.123  12.561   0.104
59057SOL    HW277196  10.213  12.631  -0.014
59058SOL     OW77197  10.169  12.128   0.861
59058SOL    HW177198  10.223  12.059   0.909
59058SOL    HW277199  10.137  12.197   0.927
59059SOL     OW77200  10.393  12.156   0.087
59059SOL    HW177201  10.370  12.209   0.005
59059SOL    HW277202  10.474  12.100   0.068
59060SOL     OW77203  11.171  12.741   0.851
59060SOL    HW177204  11.100  12.729   0.781
59060SOL    HW277205  11.172  12.662   0.911
59061SOL     OW77206   9.531  12.486   1.844
59061SOL    HW177207   9.466  12.413   1.823
59061SOL    HW277208   9.535  12.500   1.942
59062SOL     OW77209   9.389  12.412   0.653
59062SOL    HW177210   9.388  12.365   0.741
59062SOL    HW277211   9.471  12.384   0.602
59063SOL     OW77212   9.982  12.563   1.624
59063SOL    HW177213   9.904  12.513   1.662
59063SOL    HW277214   9.979  12.658   1.655
59064SOL     OW77215  11.134  11.364   1.227
59064SOL    HW177216  11.130  11.274   1.271
59064SOL    HW277217  11.137  11.353   1.128
59065SOL     OW77218   9.738  11.596   0.520
59065SOL    HW177219   9.768  11.524   0.458
59065SOL    HW277220   9.699  11.556   0.603
59066SOL     OW77221  11.015  12.659   1.104
59066SOL    HW177222  10.922  12.634   1.077
59066SOL    HW277223  11.041  12.609   1.186
59067SOL     OW77224   9.627  11.719   1.280
59067SOL    HW177225   9.665  11.660   1.352
59067SOL    HW277226   9.667  11.693   1.192
59068SOL     OW77227  10.734  11.386   1.112
59068SOL    HW177228  10.786  11.321   1.167
59068SOL    HW277229  10.685  11.449   1.173
59069SOL     OW77230  10.311  11.206   1.154
59069SOL    HW177231  10.248  11.134   1.123
59069SOL    HW277232  10.404  11.170   1.154
59070SOL     OW77233  10.080  12.502   0.301
59070SOL    HW177234  10.034  12.415   0.318
59070SOL    HW277235  10.171  12.499   0.342
59071SOL     OW77236   9.928  12.739   1.284
59071SOL    HW177237   9.923  12.821   1.341
59071SOL    HW277238  10.017  12.736   1.239
59072SOL     OW77239  10.662  11.224   0.168
59072SOL    HW177240  10.697  11.183   0.084
59072SOL    HW277241  10.572  11.186   0.188
59073SOL     OW77242  10.610  11.625   0.691
59073SOL    HW177243  10.551  11.705   0.695
59073SOL    HW277244  10.625  11.590   0.784
59074SOL     OW77245  10.903  11.393   0.882
59074SOL    HW177246  10.819  11.392   0.936
59074SOL    HW277247  10.905  11.476   0.826
59075SOL     OW77248   9.349  12.249   0.300
59075SOL    HW177249   9.448  12.238   0.291
59075SOL    HW277250   9.309  12.163   0.332
59076SOL     OW77251   9.540  11.800   1.975
59076SOL    HW177252   9.447  11.798   2.012
59076SOL    HW277253   9.541  11.761   1.883
59077SOL     OW77254   9.535  11.447   2.858
59077SOL    HW177255   9.570  11.430   2.950
59077SOL    HW277256   9.447  11.402   2.846
59078SOL     OW77257   9.329  11.540   2.509
59078SOL    HW177258   9.247  11.583   2.548
59078SOL    HW277259   9.301  11.467   2.446
59079SOL     OW77260   9.879  12.447   3.027
59079SOL    HW177261   9.786  12.440   2.990
59079SOL    HW277262   9.890  12.536   3.071
59080SOL     OW77263  10.865  12.683   2.565
59080SOL    HW177264  10.808  12.667   2.646
59080SOL    HW277265  10.806  12.693   2.485
59081SOL     OW77266  10.445  11.875   2.579
59081SOL    HW177267  10.502  11.953   2.554
59081SOL    HW277268  10.385  11.901   2.655
59082SOL     OW77269  11.065  11.779   2.093
59082SOL    HW177270  11.053  11.766   1.994
59082SOL    HW277271  11.035  11.698   2.142
59083SOL     OW77272  10.078  12.316   2.885
59083SOL    HW177273  10.000  12.333   2.945
59083SOL    HW277274  10.112  12.403   2.849
59084SOL     OW77275  10.160  11.970   3.685
59084SOL    HW177276  10.156  12.046   3.750
59084SOL    HW277277  10.182  12.006   3.594
59085SOL     OW77278   9.995  12.184   2.527
59085SOL    HW177279  10.064  12.168   2.597
59085SOL    HW277280   9.922  12.241   2.565
59086SOL     OW77281   9.996  12.333   3.665
59086SOL    HW177282  10.056  12.412   3.679
59086SOL    HW277283   9.910  12.364   3.624
59087SOL     OW77284   9.645  12.607   2.923
59087SOL    HW177285   9.567  12.576   2.870
59087SOL    HW277286   9.703  12.665   2.866
59088SOL     OW77287  10.770  12.677   3.201
59088SOL    HW177288  10.794  12.771   3.227
59088SOL    HW277289  10.754  12.623   3.283
59089SOL     OW77290   9.748  11.564   3.361
59089SOL    HW177291   9.830  11.508   3.370
59089SOL    HW277292   9.667  11.506   3.365
59090SOL     OW77293  10.913  11.619   2.599
59090SOL    HW177294  10.839  11.665   2.549
59090SOL    HW277295  10.964  11.687   2.652
59091SOL     OW77296  10.437  12.513   3.552
59091SOL    HW177297  10.484  12.513   3.640
59091SOL    HW277298  10.389  12.426   3.541
59092SOL     OW77299   9.540  12.606   2.400
59092SOL    HW177300   9.514  12.702   2.400
59092SOL    HW277301   9.469  12.552   2.445
59093SOL     OW77302   9.550  12.263   2.748
59093SOL    HW177303   9.564  12.179   2.800
59093SOL    HW277304   9.495  12.327   2.803
59094SOL     OW77305   9.916  12.136   1.985
59094SOL    HW177306   9.923  12.220   1.931
59094SOL    HW277307   9.962  12.149   2.073
59095SOL     OW77308  10.904  11.286   3.342
59095SOL    HW177309  10.886  11.353   3.270
59095SOL    HW277310  10.901  11.332   3.431
59096SOL     OW77311   9.432  11.815   2.425
59096SOL    HW177312   9.387  11.727   2.442
59096SOL    HW277313   9.431  11.869   2.509
59097SOL     OW77314   9.337  12.768   1.979
59097SOL    HW177315   9.318  12.672   2.000
59097SOL    HW277316   9.304  12.826   2.054
59098SOL     OW77317  10.999  12.094   2.474
59098SOL    HW177318  11.094  12.065   2.482
59098SOL    HW277319  10.991  12.159   2.399
59099SOL     OW77320  10.951  12.280   2.294
59099SOL    HW177321  11.037  12.282   2.242
59099SOL    HW277322  10.965  12.327   2.382
59100SOL     OW77323   9.423  11.909   3.459
59100SOL    HW177324   9.511  11.896   3.504
59100SOL    HW277325   9.410  12.006   3.437
59101SOL     OW77326   9.923  12.537   2.588
59101SOL    HW177327   9.874  12.450   2.597
59101SOL    HW277328   9.900  12.580   2.501
59102SOL     OW77329  10.603  12.400   3.285
59102SOL    HW177330  10.640  12.327   3.227
59102SOL    HW277331  10.655  12.405   3.370
59103SOL     OW77332  10.119  11.176   2.364
59103SOL    HW177333  10.159  11.267   2.355
59103SOL    HW277334  10.019  11.184   2.370
59104SOL     OW77335   9.507  12.148   3.126
59104SOL    HW177336   9.596  12.103   3.112
59104SOL    HW277337   9.434  12.083   3.107
59105SOL     OW77338  10.835  12.171   2.052
59105SOL    HW177339  10.772  12.095   2.065
59105SOL    HW277340  10.883  12.189   2.138
59106SOL     OW77341   9.627  11.423   3.663
59106SOL    HW177342   9.698  11.494   3.669
59106SOL    HW277343   9.539  11.462   3.691
59107SOL     OW77344  10.776  12.589   2.815
59107SOL    HW177345  10.717  12.595   2.895
59107SOL    HW277346  10.761  12.501   2.769
59108SOL     OW77347   9.908  11.901   2.132
59108SOL    HW177348   9.932  11.970   2.064
59108SOL    HW277349   9.830  11.934   2.186
59109SOL     OW77350  10.591  11.517   2.806
59109SOL    HW177351  10.505  11.467   2.793
59109SOL    HW277352  10.653  11.463   2.862
59110SOL     OW77353  10.886  12.834   2.169
59110SOL    HW177354  10.975  12.880   2.172
59110SOL    HW277355  10.865  12.810   2.074
59111SOL     OW77356  10.117  11.777   3.327
59111SOL    HW177357  10.070  11.774   3.416
59111SOL    HW277358  10.066  11.722   3.261
59112SOL     OW77359  10.704  11.641   3.536
59112SOL    HW177360  10.684  11.684   3.624
59112SOL    HW277361  10.782  11.579   3.545
59113SOL     OW77362  10.283  12.062   3.434
59113SOL    HW177363  10.329  11.978   3.405
59113SOL    HW277364  10.227  12.096   3.359
59114SOL     OW77365  10.301  11.582   3.104
59114SOL    HW177366  10.224  11.616   3.158
59114SOL    HW277367  10.267  11.531   3.025
59115SOL     OW77368  10.351  11.873   2.291
59115SOL    HW177369  10.377  11.869   2.387
59115SOL    HW277370  10.266  11.822   2.277
59116SOL     OW77371   9.386  11.983   2.651
59116SOL    HW177372   9.485  11.971   2.660
59116SOL    HW277373   9.362  12.078   2.672
59117SOL     OW77374  10.175  11.520   2.057
59117SOL    HW177375  10.234  11.583   2.008
59117SOL    HW277376  10.194  11.426   2.028
59118SOL     OW77377  11.029  11.757   3.693
59118SOL    HW177378  11.003  11.846   3.657
59118SOL    HW277379  11.027  11.689   3.620
59119SOL     OW77380  10.672  12.316   2.407
59119SOL    HW177381  10.755  12.287   2.359
59119SOL    HW277382  10.623  12.383   2.351
59120SOL     OW77383   9.860  11.368   2.747
59120SOL    HW177384   9.855  11.363   2.847
59120SOL    HW277385   9.862  11.464   2.718
59121SOL     OW77386  10.318  12.628   2.339
59121SOL    HW177387  10.272  12.700   2.287
59121SOL    HW277388  10.314  12.648   2.437
59122SOL     OW77389  11.105  12.238   2.735
59122SOL    HW177390  11.043  12.223   2.659
59122SOL    HW277391  11.053  12.249   2.820
59123SOL     OW77392  10.537  12.722   3.368
59123SOL    HW177393  10.543  12.645   3.432
59123SOL    HW277394  10.485  12.696   3.288
59124SOL     OW77395   9.631  12.115   2.104
59124SOL    HW177396   9.713  12.154   2.062
59124SOL    HW277397   9.604  12.033   2.055
59125SOL     OW77398  10.768  11.907   2.590
59125SOL    HW177399  10.763  11.842   2.665
59125SOL    HW277400  10.848  11.966   2.603
59126SOL     OW77401   9.771  12.438   3.589
59126SOL    HW177402   9.721  12.439   3.503
59126SOL    HW277403   9.708  12.420   3.665
59127SOL     OW77404   9.512  11.457   3.360
59127SOL    HW177405   9.432  11.517   3.347
59127SOL    HW277406   9.502  11.408   3.446
59128SOL     OW77407  10.942  12.549   1.943
59128SOL    HW177408  10.910  12.643   1.933
59128SOL    HW277409  10.866  12.486   1.931
59129SOL     OW77410  10.710  11.279   2.288
59129SOL    HW177411  10.686  11.242   2.198
59129SOL    HW277412  10.809  11.295   2.292
59130SOL     OW77413   9.692  11.872   2.342
59130SOL    HW177414   9.737  11.782   2.339
59130SOL    HW277415   9.598  11.861   2.375
59131SOL     OW77416  10.857  11.394   3.591
59131SOL    HW177417  10.852  11.431   3.683
59131SOL    HW277418  10.785  11.325   3.579
59132SOL     OW77419   9.924  11.294   1.979
59132SOL    HW177420  10.022  11.272   1.986
59132SOL    HW277421   9.893  11.277   1.886
59133SOL     OW77422  10.091  11.436   3.611
59133SOL    HW177423  10.158  11.375   3.654
59133SOL    HW277424  10.018  11.455   3.676
59134SOL     OW77425  10.661  11.762   3.295
59134SOL    HW177426  10.689  11.719   3.380
59134SOL    HW277427  10.686  11.858   3.296
59135SOL     OW77428  10.113  12.574   2.786
59135SOL    HW177429  10.203  12.588   2.744
59135SOL    HW277430  10.042  12.576   2.715
59136SOL     OW77431  10.232  11.675   2.761
59136SOL    HW177432  10.207  11.666   2.665
59136SOL    HW277433  10.280  11.593   2.792
59137SOL     OW77434   9.849  11.236   2.374
59137SOL    HW177435   9.768  11.237   2.432
59137SOL    HW277436   9.852  11.319   2.319
59138SOL     OW77437  10.744  12.360   1.903
59138SOL    HW177438  10.776  12.284   1.960
59138SOL    HW277439  10.652  12.387   1.933
59139SOL     OW77440   9.607  11.207   2.033
59139SOL    HW177441   9.656  11.291   2.012
59139SOL    HW277442   9.669  11.142   2.078
59140SOL     OW77443  10.245  11.408   2.342
59140SOL    HW177444  10.197  11.449   2.264
59140SOL    HW277445  10.344  11.406   2.323
59141SOL     OW77446  10.386  11.855   3.326
59141SOL    HW177447  10.306  11.794   3.329
59141SOL    HW277448  10.467  11.802   3.302
59142SOL     OW77449  10.537  12.742   2.655
59142SOL    HW177450  10.558  12.816   2.590
59142SOL    HW277451  10.605  12.742   2.728
59143SOL     OW77452   9.769  12.324   2.603
59143SOL    HW177453   9.698  12.297   2.668
59143SOL    HW277454   9.743  12.296   2.510
59144SOL     OW77455  10.342  11.721   1.878
59144SOL    HW177456  10.301  11.803   1.839
59144SOL    HW277457  10.406  11.747   1.951
59145SOL     OW77458   9.388  11.728   3.248
59145SOL    HW177459   9.480  11.727   3.207
59145SOL    HW277460   9.382  11.802   3.315
59146SOL     OW77461   9.871  11.394   3.009
59146SOL    HW177462   9.909  11.310   3.046
59146SOL    HW277463   9.783  11.413   3.053
59147SOL     OW77464  10.176  11.626   2.504
59147SOL    HW177465  10.144  11.698   2.442
59147SOL    HW277466  10.200  11.545   2.451
59148SOL     OW77467  10.327  11.211   2.615
59148SOL    HW177468  10.255  11.216   2.546
59148SOL    HW277469  10.303  11.142   2.684
59149SOL     OW77470  10.739  12.345   2.729
59149SOL    HW177471  10.684  12.261   2.722
59149SOL    HW277472  10.765  12.374   2.637
59150SOL     OW77473  10.776  11.762   2.854
59150SOL    HW177474  10.746  11.667   2.861
59150SOL    HW277475  10.849  11.778   2.920
59151SOL     OW77476  11.167  12.005   2.239
59151SOL    HW177477  11.209  11.941   2.303
59151SOL    HW277478  11.129  11.954   2.161
59152SOL     OW77479   9.798  12.557   2.036
59152SOL    HW177480   9.711  12.542   2.083
59152SOL    HW277481   9.781  12.583   1.941
59153SOL     OW77482  10.974  12.452   2.519
59153SOL    HW177483  11.073  12.460   2.533
59153SOL    HW277484  10.929  12.536   2.550
59154SOL     OW77485  10.700  11.747   1.940
59154SOL    HW177486  10.646  11.726   2.021
59154SOL    HW277487  10.791  11.706   1.949
59155SOL     OW77488   9.837  11.428   2.190
59155SOL    HW177489   9.864  11.369   2.115
59155SOL    HW277490   9.837  11.523   2.159
59156SOL     OW77491  11.064  12.395   3.450
59156SOL    HW177492  11.155  12.356   3.437
59156SOL    HW277493  11.072  12.491   3.474
59157SOL     OW77494  10.374  12.519   3.202
59157SOL    HW177495  10.294  12.496   3.257
59157SOL    HW277496  10.457  12.493   3.251
59158SOL     OW77497  10.421  12.367   2.962
59158SOL    HW177498  10.381  12.411   3.043
59158SOL    HW277499  10.380  12.404   2.879
59159SOL     OW77500  10.948  12.271   2.941
59159SOL    HW177501  10.953  12.352   3.000
59159SOL    HW277502  10.862  12.273   2.890
59160SOL     OW77503  10.225  11.261   3.264
59160SOL    HW177504  10.250  11.241   3.169
59160SOL    HW277505  10.297  11.317   3.306
59161SOL     OW77506  10.290  12.288   3.581
59161SOL    HW177507  10.191  12.294   3.591
59161SOL    HW277508  10.313  12.208   3.525
59162SOL     OW77509  10.015  12.222   2.230
59162SOL    HW177510  10.001  12.229   2.329
59162SOL    HW277511  10.099  12.171   2.212
59163SOL     OW77512   9.720  11.985   3.113
59163SOL    HW177513   9.806  11.997   3.163
59163SOL    HW277514   9.678  11.898   3.140
59164SOL     OW77515  10.584  11.558   3.124
59164SOL    HW177516  10.605  11.632   3.188
59164SOL    HW277517  10.495  11.575   3.081
59165SOL     OW77518   9.374  12.736   3.193
59165SOL    HW177519   9.328  12.818   3.159
59165SOL    HW277520   9.472  12.755   3.202
59166SOL     OW77521   9.677  12.272   2.363
59166SOL    HW177522   9.670  12.355   2.307
59166SOL    HW277523   9.681  12.192   2.303
59167SOL     OW77524   9.876  11.709   2.727
59167SOL    HW177525   9.888  11.775   2.653
59167SOL    HW277526   9.922  11.743   2.810
59168SOL     OW77527  10.562  12.520   2.250
59168SOL    HW177528  10.612  12.597   2.290
59168SOL    HW277529  10.467  12.522   2.282
59169SOL     OW77530  10.582  12.617   3.004
59169SOL    HW177531  10.629  12.630   3.091
59169SOL    HW277532  10.516  12.543   3.013
59170SOL     OW77533  10.892  11.811   2.334
59170SOL    HW177534  10.861  11.872   2.407
59170SOL    HW277535  10.942  11.863   2.265
59171SOL     OW77536   9.664  12.682   3.191
59171SOL    HW177537   9.643  12.638   3.104
59171SOL    HW277538   9.761  12.708   3.194
59172SOL     OW77539   9.712  11.923   3.460
59172SOL    HW177540   9.780  11.978   3.413
59172SOL    HW277541   9.752  11.835   3.487
59173SOL     OW77542  10.897  11.951   3.532
59173SOL    HW177543  10.805  11.989   3.527
59173SOL    HW277544  10.957  11.998   3.467
59174SOL     OW77545  10.323  11.277   3.632
59174SOL    HW177546  10.329  11.362   3.580
59174SOL    HW277547  10.355  11.201   3.575
59175SOL     OW77548   9.814  11.222   3.602
59175SOL    HW177549   9.772  11.165   3.532
59175SOL    HW277550   9.748  11.291   3.634
59176SOL     OW77551   9.883  12.042   2.891
59176SOL    HW177552   9.927  12.131   2.882
59176SOL    HW277553   9.820  12.042   2.968
59177SOL     OW77554  10.670  12.034   2.907
59177SOL    HW177555  10.595  12.034   2.841
59177SOL    HW277556  10.707  11.942   2.916
59178SOL     OW77557  10.519  11.697   2.137
59178SOL    HW177558  10.532  11.613   2.191
59178SOL    HW277559  10.490  11.771   2.197
59179SOL     OW77560   9.617  11.385   3.093
59179SOL    HW177561   9.594  11.422   3.183
59179SOL    HW277562   9.587  11.290   3.087
59180SOL     OW77563   9.347  12.482   3.144
59180SOL    HW177564   9.400  12.433   3.212
59180SOL    HW277565   9.369  12.580   3.149
59181SOL     OW77566  10.042  11.806   2.926
59181SOL    HW177567  10.101  11.780   2.850
59181SOL    HW277568  10.014  11.902   2.915
59182SOL     OW77569  11.038  12.107   3.716
59182SOL    HW177570  10.992  12.100   3.627
59182SOL    HW277571  10.976  12.151   3.782
59183SOL     OW77572   9.617  11.235   2.480
59183SOL    HW177573   9.606  11.329   2.513
59183SOL    HW277574   9.612  11.172   2.557
59184SOL     OW77575  10.932  11.539   2.236
59184SOL    HW177576  10.934  11.463   2.300
59184SOL    HW277577  10.884  11.616   2.276
59185SOL     OW77578  10.333  11.938   2.828
59185SOL    HW177579  10.348  11.959   2.924
59185SOL    HW277580  10.303  11.843   2.819
59186SOL     OW77581  11.169  12.690   3.467
59186SOL    HW177582  11.183  12.717   3.372
59186SOL    HW277583  11.252  12.712   3.520
59187SOL     OW77584   9.660  12.070   3.666
59187SOL    HW177585   9.736  12.114   3.714
59187SOL    HW277586   9.695  12.023   3.584
59188SOL     OW77587  10.850  11.446   1.987
59188SOL    HW177588  10.789  11.371   2.010
59188SOL    HW277589  10.872  11.498   2.070
59189SOL     OW77590  10.613  12.010   1.904
59189SOL    HW177591  10.647  11.917   1.919
59189SOL    HW277592  10.631  12.037   1.809
59190SOL     OW77593  10.378  12.505   2.711
59190SOL    HW177594  10.385  12.421   2.656
59190SOL    HW277595  10.440  12.574   2.675
59191SOL     OW77596   9.629  11.982   2.811
59191SOL    HW177597   9.722  12.018   2.816
59191SOL    HW277598   9.623  11.897   2.863
59192SOL     OW77599   9.649  11.681   2.868
59192SOL    HW177600   9.597  11.598   2.851
59192SOL    HW277601   9.726  11.686   2.804
59193SOL     OW77602  10.448  11.552   3.540
59193SOL    HW177603  10.403  11.615   3.604
59193SOL    HW277604  10.541  11.583   3.523
59194SOL     OW77605  10.470  11.379   3.339
59194SOL    HW177606  10.470  11.443   3.416
59194SOL    HW277607  10.498  11.427   3.256
59195SOL     OW77608   9.318  12.498   2.062
59195SOL    HW177609   9.225  12.519   2.031
59195SOL    HW277610   9.328  12.399   2.075
59196SOL     OW77611   9.814  12.740   2.772
59196SOL    HW177612   9.880  12.814   2.781
59196SOL    HW277613   9.858  12.661   2.730
59197SOL     OW77614  10.312  11.968   3.100
59197SOL    HW177615  10.353  11.936   3.186
59197SOL    HW277616  10.216  11.941   3.097
59198SOL     OW77617   9.350  11.716   2.976
59198SOL    HW177618   9.435  11.683   2.935
59198SOL    HW277619   9.363  11.731   3.074
59199SOL     OW77620   9.499  11.692   3.584
59199SOL    HW177621   9.558  11.652   3.514
59199SOL    HW277622   9.441  11.763   3.543
59200SOL     OW77623  10.679  12.122   3.522
59200SOL    HW177624  10.718  12.211   3.542
59200SOL    HW277625  10.689  12.102   3.425
59201SOL     OW77626  10.125  11.744   2.187
59201SOL    HW177627  10.132  11.655   2.141
59201SOL    HW277628  10.031  11.778   2.179
59202SOL     OW77629  10.967  11.776   3.068
59202SOL    HW177630  10.929  11.707   3.130
59202SOL    HW277631  11.049  11.740   3.024
59203SOL     OW77632   9.562  12.736   3.606
59203SOL    HW177633   9.532  12.793   3.682
59203SOL    HW277634   9.555  12.639   3.632
59204SOL     OW77635   9.981  11.636   3.131
59204SOL    HW177636   9.947  11.547   3.101
59204SOL    HW277637  10.007  11.690   3.051
59205SOL     OW77638   9.783  11.672   2.053
59205SOL    HW177639   9.844  11.752   2.057
59205SOL    HW277640   9.688  11.703   2.060
59206SOL     OW77641   9.469  12.309   3.328
59206SOL    HW177642   9.491  12.248   3.404
59206SOL    HW277643   9.479  12.260   3.242
59207SOL     OW77644  10.657  12.231   3.096
59207SOL    HW177645  10.681  12.168   3.022
59207SOL    HW277646  10.567  12.271   3.078
59208SOL     OW77647  10.612  12.027   2.171
59208SOL    HW177648  10.526  11.996   2.213
59208SOL    HW277649  10.608  12.013   2.072
59209SOL     OW77650  10.562  12.903   2.990
59209SOL    HW177651  10.646  12.908   2.936
59209SOL    HW277652  10.539  12.807   3.008
59210SOL     OW77653   9.393  12.430   2.884
59210SOL    HW177654   9.388  12.429   2.984
59210SOL    HW277655   9.310  12.389   2.846
59211SOL     OW77656  11.036  11.307   2.385
59211SOL    HW177657  11.109  11.290   2.318
59211SOL    HW277658  11.005  11.220   2.423
59212SOL     OW77659   9.440  12.966   3.713
59212SOL    HW177660   9.399  12.892   3.766
59212SOL    HW277661   9.504  13.017   3.771
59213SOL     OW77662  10.590  12.099   2.534
59213SOL    HW177663  10.650  12.018   2.536
59213SOL    HW277664  10.630  12.168   2.474
59214SOL     OW77665  10.140  12.445   3.284
59214SOL    HW177666  10.135  12.478   3.379
59214SOL    HW277667  10.054  12.464   3.238
59215SOL     OW77668   9.982  12.788   2.016
59215SOL    HW177669   9.991  12.798   1.917
59215SOL    HW277670   9.942  12.699   2.037
59216SOL     OW77671  11.151  11.347   2.825
59216SOL    HW177672  11.190  11.262   2.789
59216SOL    HW277673  11.053  11.349   2.806
59217SOL     OW77674   9.573  11.498   2.582
59217SOL    HW177675   9.494  11.549   2.548
59217SOL    HW277676   9.564  11.483   2.680
59218SOL     OW77677  10.504  12.784   1.893
59218SOL    HW177678  10.510  12.691   1.930
59218SOL    HW277679  10.445  12.784   1.813
59219SOL     OW77680  10.132  12.174   3.234
59219SOL    HW177681  10.172  12.173   3.142
59219SOL    HW277682  10.142  12.266   3.274
59220SOL     OW77683  10.226  12.082   2.153
59220SOL    HW177684  10.289  12.120   2.085
59220SOL    HW277685  10.266  11.999   2.192
59221SOL     OW77686   9.682  12.460   3.352
59221SOL    HW177687   9.669  12.553   3.318
59221SOL    HW277688   9.598  12.408   3.339
59222SOL     OW77689  10.924  12.464   3.151
59222SOL    HW177690  10.984  12.467   3.231
59222SOL    HW277691  10.849  12.528   3.164
59223SOL     OW77692  10.349  12.270   2.558
59223SOL    HW177693  10.279  12.223   2.612
59223SOL    HW277694  10.408  12.202   2.515
59224SOL     OW77695  10.324  11.408   2.833
59224SOL    HW177696  10.316  11.372   2.740
59224SOL    HW277697  10.322  11.332   2.898
59225SOL     OW77698   9.900  12.659   2.353
59225SOL    HW177699   9.942  12.601   2.283
59225SOL    HW277700   9.856  12.738   2.309
59226SOL     OW77701  11.019  11.557   3.243
59226SOL    HW177702  11.092  11.626   3.247
59226SOL    HW277703  11.047  11.482   3.184
59227SOL     OW77704   9.565  12.520   2.152
59227SOL    HW177705   9.469  12.521   2.125
59227SOL    HW277706   9.577  12.573   2.236
59228SOL     OW77707   9.415  12.185   3.588
59228SOL    HW177708   9.338  12.152   3.642
59228SOL    HW277709   9.500  12.155   3.630
59229SOL     OW77710   9.982  11.375   3.351
59229SOL    HW177711  10.072  11.359   3.311
59229SOL    HW277712   9.990  11.380   3.450
59230SOL     OW77713   9.385  11.517   1.895
59230SOL    HW177714   9.293  11.489   1.866
59230SOL    HW277715   9.416  11.594   1.839
59231SOL     OW77716  10.750  12.028   3.260
59231SOL    HW177717  10.693  12.080   3.197
59231SOL    HW277718  10.846  12.040   3.236
59232SOL     OW77719   9.382  11.338   2.180
59232SOL    HW177720   9.365  11.421   2.126
59232SOL    HW277721   9.472  11.301   2.158
59233SOL     OW77722  10.493  12.507   1.981
59233SOL    HW177723  10.394  12.496   1.983
59233SOL    HW277724  10.527  12.522   2.074
59234SOL     OW77725   9.923  12.014   3.293
59234SOL    HW177726   9.979  12.095   3.276
59234SOL    HW277727   9.982  11.934   3.296
59235SOL     OW77728  10.026  11.737   3.570
59235SOL    HW177729  10.045  11.802   3.644
59235SOL    HW277730  10.086  11.657   3.579
59236SOL     OW77731  10.760  12.392   3.495
59236SOL    HW177732  10.751  12.382   3.594
59236SOL    HW277733  10.856  12.385   3.469
59237SOL     OW77734  10.984  12.055   3.116
59237SOL    HW177735  10.957  11.966   3.079
59237SOL    HW277736  10.985  12.123   3.043
59238SOL     OW77737  10.535  11.497   2.311
59238SOL    HW177738  10.600  11.423   2.300
59238SOL    HW277739  10.555  11.547   2.395
59239SOL     OW77740   9.904  11.917   2.514
59239SOL    HW177741   9.954  12.002   2.495
59239SOL    HW277742   9.816  11.919   2.466
59240SOL     OW77743  11.087  11.514   3.504
59240SOL    HW177744  11.070  11.545   3.410
59240SOL    HW277745  11.003  11.477   3.542
59241SOL     OW77746  11.040  12.106   3.379
59241SOL    HW177747  11.078  12.197   3.394
59241SOL    HW277748  11.032  12.089   3.280
59242SOL     OW77749  10.169  12.546   1.878
59242SOL    HW177750  10.123  12.561   1.966
59242SOL    HW277751  10.213  12.631   1.848
59243SOL     OW77752  10.169  12.128   2.723
59243SOL    HW177753  10.223  12.059   2.771
59243SOL    HW277754  10.137  12.197   2.789
59244SOL     OW77755  10.393  12.156   1.949
59244SOL    HW177756  10.370  12.209   1.867
59244SOL    HW277757  10.474  12.100   1.930
59245SOL     OW77758  11.171  12.741   2.713
59245SOL    HW177759  11.100  12.729   2.643
59245SOL    HW277760  11.172  12.662   2.773
59246SOL     OW77761   9.531  12.486   3.706
59246SOL    HW177762   9.466  12.413   3.685
59246SOL    HW277763   9.535  12.500   3.804
59247SOL     OW77764   9.389  12.412   2.515
59247SOL    HW177765   9.388  12.365   2.603
59247SOL    HW277766   9.471  12.384   2.464
59248SOL     OW77767   9.982  12.563   3.486
59248SOL    HW177768   9.904  12.513   3.524
59248SOL    HW277769   9.979  12.658   3.517
59249SOL     OW77770  11.134  11.364   3.089
59249SOL    HW177771  11.130  11.274   3.133
59249SOL    HW277772  11.137  11.353   2.990
59250SOL     OW77773   9.738  11.596   2.382
59250SOL    HW177774   9.768  11.524   2.320
59250SOL    HW277775   9.699  11.556   2.465
59251SOL     OW77776  11.015  12.659   2.966
59251SOL    HW177777  10.922  12.634   2.939
59251SOL    HW277778  11.041  12.609   3.048
59252SOL     OW77779   9.627  11.719   3.142
59252SOL    HW177780   9.665  11.660   3.214
59252SOL    HW277781   9.667  11.693   3.054
59253SOL     OW77782  10.734  11.386   2.974
59253SOL    HW177783  10.786  11.321   3.029
59253SOL    HW277784  10.685  11.449   3.035
59254SOL     OW77785  10.311  11.206   3.016
59254SOL    HW177786  10.248  11.134   2.985
59254SOL    HW277787  10.404  11.170   3.016
59255SOL     OW77788  10.080  12.502   2.163
59255SOL    HW177789  10.034  12.415   2.180
59255SOL    HW277790  10.171  12.499   2.204
59256SOL     OW77791   9.928  12.739   3.146
59256SOL    HW177792   9.923  12.821   3.203
59256SOL    HW277793  10.017  12.736   3.101
59257SOL     OW77794  10.662  11.224   2.030
59257SOL    HW177795  10.697  11.183   1.946
59257SOL    HW277796  10.572  11.186   2.050
59258SOL     OW77797  10.610  11.625   2.553
59258SOL    HW177798  10.551  11.705   2.557
59258SOL    HW277799  10.625  11.590   2.646
59259SOL     OW77800  10.903  11.393   2.744
59259SOL    HW177801  10.819  11.392   2.798
59259SOL    HW277802  10.905  11.476   2.688
59260SOL     OW77803   9.349  12.249   2.162
59260SOL    HW177804   9.448  12.238   2.153
59260SOL    HW277805   9.309  12.163   2.194
59261SOL     OW77806   9.540  11.800   3.837
59261SOL    HW177807   9.447  11.798   3.874
59261SOL    HW277808   9.541  11.761   3.745
59262SOL     OW77809   9.535  11.447   4.720
59262SOL    HW177810   9.570  11.430   4.812
59262SOL    HW277811   9.447  11.402   4.708
59263SOL     OW77812   9.329  11.540   4.371
59263SOL    HW177813   9.247  11.583   4.410
59263SOL    HW277814   9.301  11.467   4.308
59264SOL     OW77815   9.879  12.447   4.889
59264SOL    HW177816   9.786  12.440   4.852
59264SOL    HW277817   9.890  12.536   4.933
59265SOL     OW77818  10.865  12.683   4.427
59265SOL    HW177819  10.808  12.667   4.508
59265SOL    HW277820  10.806  12.693   4.347
59266SOL     OW77821  10.445  11.875   4.441
59266SOL    HW177822  10.502  11.953   4.416
59266SOL    HW277823  10.385  11.901   4.517
59267SOL     OW77824  11.065  11.779   3.955
59267SOL    HW177825  11.053  11.766   3.856
59267SOL    HW277826  11.035  11.698   4.004
59268SOL     OW77827  10.078  12.316   4.747
59268SOL    HW177828  10.000  12.333   4.807
59268SOL    HW277829  10.112  12.403   4.711
59269SOL     OW77830  10.160  11.970   5.547
59269SOL    HW177831  10.156  12.046   5.612
59269SOL    HW277832  10.182  12.006   5.456
59270SOL     OW77833   9.995  12.184   4.389
59270SOL    HW177834  10.064  12.168   4.459
59270SOL    HW277835   9.922  12.241   4.427
59271SOL     OW77836   9.996  12.333   5.527
59271SOL    HW177837  10.056  12.412   5.541
59271SOL    HW277838   9.910  12.364   5.486
59272SOL     OW77839   9.645  12.607   4.785
59272SOL    HW177840   9.567  12.576   4.732
59272SOL    HW277841   9.703  12.665   4.728
59273SOL     OW77842  10.770  12.677   5.063
59273SOL    HW177843  10.794  12.771   5.089
59273SOL    HW277844  10.754  12.623   5.145
59274SOL     OW77845   9.748  11.564   5.223
59274SOL    HW177846   9.830  11.508   5.232
59274SOL    HW277847   9.667  11.506   5.227
59275SOL     OW77848  10.913  11.619   4.461
59275SOL    HW177849  10.839  11.665   4.411
59275SOL    HW277850  10.964  11.687   4.514
59276SOL     OW77851  10.437  12.513   5.414
59276SOL    HW177852  10.484  12.513   5.502
59276SOL    HW277853  10.389  12.426   5.403
59277SOL     OW77854   9.540  12.606   4.262
59277SOL    HW177855   9.514  12.702   4.262
59277SOL    HW277856   9.469  12.552   4.307
59278SOL     OW77857   9.550  12.263   4.610
59278SOL    HW177858   9.564  12.179   4.662
59278SOL    HW277859   9.495  12.327   4.665
59279SOL     OW77860   9.916  12.136   3.847
59279SOL    HW177861   9.923  12.220   3.793
59279SOL    HW277862   9.962  12.149   3.935
59280SOL     OW77863  10.904  11.286   5.204
59280SOL    HW177864  10.886  11.353   5.132
59280SOL    HW277865  10.901  11.332   5.293
59281SOL     OW77866   9.432  11.815   4.287
59281SOL    HW177867   9.387  11.727   4.304
59281SOL    HW277868   9.431  11.869   4.371
59282SOL     OW77869   9.337  12.768   3.841
59282SOL    HW177870   9.318  12.672   3.862
59282SOL    HW277871   9.304  12.826   3.916
59283SOL     OW77872  10.999  12.094   4.336
59283SOL    HW177873  11.094  12.065   4.344
59283SOL    HW277874  10.991  12.159   4.261
59284SOL     OW77875  10.951  12.280   4.156
59284SOL    HW177876  11.037  12.282   4.104
59284SOL    HW277877  10.965  12.327   4.244
59285SOL     OW77878   9.423  11.909   5.321
59285SOL    HW177879   9.511  11.896   5.366
59285SOL    HW277880   9.410  12.006   5.299
59286SOL     OW77881   9.923  12.537   4.450
59286SOL    HW177882   9.874  12.450   4.459
59286SOL    HW277883   9.900  12.580   4.363
59287SOL     OW77884  10.603  12.400   5.147
59287SOL    HW177885  10.640  12.327   5.089
59287SOL    HW277886  10.655  12.405   5.232
59288SOL     OW77887  10.119  11.176   4.226
59288SOL    HW177888  10.159  11.267   4.217
59288SOL    HW277889  10.019  11.184   4.232
59289SOL     OW77890   9.507  12.148   4.988
59289SOL    HW177891   9.596  12.103   4.974
59289SOL    HW277892   9.434  12.083   4.969
59290SOL     OW77893  10.835  12.171   3.914
59290SOL    HW177894  10.772  12.095   3.927
59290SOL    HW277895  10.883  12.189   4.000
59291SOL     OW77896   9.627  11.423   5.525
59291SOL    HW177897   9.698  11.494   5.531
59291SOL    HW277898   9.539  11.462   5.553
59292SOL     OW77899  10.776  12.589   4.677
59292SOL    HW177900  10.717  12.595   4.757
59292SOL    HW277901  10.761  12.501   4.631
59293SOL     OW77902   9.908  11.901   3.994
59293SOL    HW177903   9.932  11.970   3.926
59293SOL    HW277904   9.830  11.934   4.048
59294SOL     OW77905  10.591  11.517   4.668
59294SOL    HW177906  10.505  11.467   4.655
59294SOL    HW277907  10.653  11.463   4.724
59295SOL     OW77908  10.886  12.834   4.031
59295SOL    HW177909  10.975  12.880   4.034
59295SOL    HW277910  10.865  12.810   3.936
59296SOL     OW77911  10.117  11.777   5.189
59296SOL    HW177912  10.070  11.774   5.278
59296SOL    HW277913  10.066  11.722   5.123
59297SOL     OW77914  10.704  11.641   5.398
59297SOL    HW177915  10.684  11.684   5.486
59297SOL    HW277916  10.782  11.579   5.407
59298SOL     OW77917  10.283  12.062   5.296
59298SOL    HW177918  10.329  11.978   5.267
59298SOL    HW277919  10.227  12.096   5.221
59299SOL     OW77920  10.301  11.582   4.966
59299SOL    HW177921  10.224  11.616   5.020
59299SOL    HW277922  10.267  11.531   4.887
59300SOL     OW77923  10.351  11.873   4.153
59300SOL    HW177924  10.377  11.869   4.249
59300SOL    HW277925  10.266  11.822   4.139
59301SOL     OW77926   9.386  11.983   4.513
59301SOL    HW177927   9.485  11.971   4.522
59301SOL    HW277928   9.362  12.078   4.534
59302SOL     OW77929  10.175  11.520   3.919
59302SOL    HW177930  10.234  11.583   3.870
59302SOL    HW277931  10.194  11.426   3.890
59303SOL     OW77932  11.029  11.757   5.555
59303SOL    HW177933  11.003  11.846   5.519
59303SOL    HW277934  11.027  11.689   5.482
59304SOL     OW77935  10.672  12.316   4.269
59304SOL    HW177936  10.755  12.287   4.221
59304SOL    HW277937  10.623  12.383   4.213
59305SOL     OW77938   9.860  11.368   4.609
59305SOL    HW177939   9.855  11.363   4.709
59305SOL    HW277940   9.862  11.464   4.580
59306SOL     OW77941  10.318  12.628   4.201
59306SOL    HW177942  10.272  12.700   4.149
59306SOL    HW277943  10.314  12.648   4.299
59307SOL     OW77944  11.105  12.238   4.597
59307SOL    HW177945  11.043  12.223   4.521
59307SOL    HW277946  11.053  12.249   4.682
59308SOL     OW77947  10.537  12.722   5.230
59308SOL    HW177948  10.543  12.645   5.294
59308SOL    HW277949  10.485  12.696   5.150
59309SOL     OW77950   9.631  12.115   3.966
59309SOL    HW177951   9.713  12.154   3.924
59309SOL    HW277952   9.604  12.033   3.917
59310SOL     OW77953  10.768  11.907   4.452
59310SOL    HW177954  10.763  11.842   4.527
59310SOL    HW277955  10.848  11.966   4.465
59311SOL     OW77956   9.771  12.438   5.451
59311SOL    HW177957   9.721  12.439   5.365
59311SOL    HW277958   9.708  12.420   5.527
59312SOL     OW77959   9.512  11.457   5.222
59312SOL    HW177960   9.432  11.517   5.209
59312SOL    HW277961   9.502  11.408   5.308
59313SOL     OW77962  10.942  12.549   3.805
59313SOL    HW177963  10.910  12.643   3.795
59313SOL    HW277964  10.866  12.486   3.793
59314SOL     OW77965  10.710  11.279   4.150
59314SOL    HW177966  10.686  11.242   4.060
59314SOL    HW277967  10.809  11.295   4.154
59315SOL     OW77968   9.692  11.872   4.204
59315SOL    HW177969   9.737  11.782   4.201
59315SOL    HW277970   9.598  11.861   4.237
59316SOL     OW77971  10.857  11.394   5.453
59316SOL    HW177972  10.852  11.431   5.545
59316SOL    HW277973  10.785  11.325   5.441
59317SOL     OW77974   9.924  11.294   3.841
59317SOL    HW177975  10.022  11.272   3.848
59317SOL    HW277976   9.893  11.277   3.748
59318SOL     OW77977  10.091  11.436   5.473
59318SOL    HW177978  10.158  11.375   5.516
59318SOL    HW277979  10.018  11.455   5.538
59319SOL     OW77980  10.661  11.762   5.157
59319SOL    HW177981  10.689  11.719   5.242
59319SOL    HW277982  10.686  11.858   5.158
59320SOL     OW77983  10.113  12.574   4.648
59320SOL    HW177984  10.203  12.588   4.606
59320SOL    HW277985  10.042  12.576   4.577
59321SOL     OW77986  10.232  11.675   4.623
59321SOL    HW177987  10.207  11.666   4.527
59321SOL    HW277988  10.280  11.593   4.654
59322SOL     OW77989   9.849  11.236   4.236
59322SOL    HW177990   9.768  11.237   4.294
59322SOL    HW277991   9.852  11.319   4.181
59323SOL     OW77992  10.744  12.360   3.765
59323SOL    HW177993  10.776  12.284   3.822
59323SOL    HW277994  10.652  12.387   3.795
59324SOL     OW77995   9.607  11.207   3.895
59324SOL    HW177996   9.656  11.291   3.874
59324SOL    HW277997   9.669  11.142   3.940
59325SOL     OW77998  10.245  11.408   4.204
59325SOL    HW177999  10.197  11.449   4.126
59325SOL    HW278000  10.344  11.406   4.185
59326SOL     OW78001  10.386  11.855   5.188
59326SOL    HW178002  10.306  11.794   5.191
59326SOL    HW278003  10.467  11.802   5.164
59327SOL     OW78004  10.537  12.742   4.517
59327SOL    HW178005  10.558  12.816   4.452
59327SOL    HW278006  10.605  12.742   4.590
59328SOL     OW78007   9.769  12.324   4.465
59328SOL    HW178008   9.698  12.297   4.530
59328SOL    HW278009   9.743  12.296   4.372
59329SOL     OW78010  10.342  11.721   3.740
59329SOL    HW178011  10.301  11.803   3.701
59329SOL    HW278012  10.406  11.747   3.813
59330SOL     OW78013   9.388  11.728   5.110
59330SOL    HW178014   9.480  11.727   5.069
59330SOL    HW278015   9.382  11.802   5.177
59331SOL     OW78016   9.871  11.394   4.871
59331SOL    HW178017   9.909  11.310   4.908
59331SOL    HW278018   9.783  11.413   4.915
59332SOL     OW78019  10.176  11.626   4.366
59332SOL    HW178020  10.144  11.698   4.304
59332SOL    HW278021  10.200  11.545   4.313
59333SOL     OW78022  10.327  11.211   4.477
59333SOL    HW178023  10.255  11.216   4.408
59333SOL    HW278024  10.303  11.142   4.546
59334SOL     OW78025  10.739  12.345   4.591
59334SOL    HW178026  10.684  12.261   4.584
59334SOL    HW278027  10.765  12.374   4.499
59335SOL     OW78028  10.776  11.762   4.716
59335SOL    HW178029  10.746  11.667   4.723
59335SOL    HW278030  10.849  11.778   4.782
59336SOL     OW78031  11.167  12.005   4.101
59336SOL    HW178032  11.209  11.941   4.165
59336SOL    HW278033  11.129  11.954   4.023
59337SOL     OW78034   9.798  12.557   3.898
59337SOL    HW178035   9.711  12.542   3.945
59337SOL    HW278036   9.781  12.583   3.803
59338SOL     OW78037  10.974  12.452   4.381
59338SOL    HW178038  11.073  12.460   4.395
59338SOL    HW278039  10.929  12.536   4.412
59339SOL     OW78040  10.700  11.747   3.802
59339SOL    HW178041  10.646  11.726   3.883
59339SOL    HW278042  10.791  11.706   3.811
59340SOL     OW78043   9.837  11.428   4.052
59340SOL    HW178044   9.864  11.369   3.977
59340SOL    HW278045   9.837  11.523   4.021
59341SOL     OW78046  11.064  12.395   5.312
59341SOL    HW178047  11.155  12.356   5.299
59341SOL    HW278048  11.072  12.491   5.336
59342SOL     OW78049  10.374  12.519   5.064
59342SOL    HW178050  10.294  12.496   5.119
59342SOL    HW278051  10.457  12.493   5.113
59343SOL     OW78052  10.421  12.367   4.824
59343SOL    HW178053  10.381  12.411   4.905
59343SOL    HW278054  10.380  12.404   4.741
59344SOL     OW78055  10.948  12.271   4.803
59344SOL    HW178056  10.953  12.352   4.862
59344SOL    HW278057  10.862  12.273   4.752
59345SOL     OW78058  10.225  11.261   5.126
59345SOL    HW178059  10.250  11.241   5.031
59345SOL    HW278060  10.297  11.317   5.168
59346SOL     OW78061  10.290  12.288   5.443
59346SOL    HW178062  10.191  12.294   5.453
59346SOL    HW278063  10.313  12.208   5.387
59347SOL     OW78064  10.015  12.222   4.092
59347SOL    HW178065  10.001  12.229   4.191
59347SOL    HW278066  10.099  12.171   4.074
59348SOL     OW78067   9.720  11.985   4.975
59348SOL    HW178068   9.806  11.997   5.025
59348SOL    HW278069   9.678  11.898   5.002
59349SOL     OW78070  10.584  11.558   4.986
59349SOL    HW178071  10.605  11.632   5.050
59349SOL    HW278072  10.495  11.575   4.943
59350SOL     OW78073   9.374  12.736   5.055
59350SOL    HW178074   9.328  12.818   5.021
59350SOL    HW278075   9.472  12.755   5.064
59351SOL     OW78076   9.677  12.272   4.225
59351SOL    HW178077   9.670  12.355   4.169
59351SOL    HW278078   9.681  12.192   4.165
59352SOL     OW78079   9.876  11.709   4.589
59352SOL    HW178080   9.888  11.775   4.515
59352SOL    HW278081   9.922  11.743   4.672
59353SOL     OW78082  10.562  12.520   4.112
59353SOL    HW178083  10.612  12.597   4.152
59353SOL    HW278084  10.467  12.522   4.144
59354SOL     OW78085  10.582  12.617   4.866
59354SOL    HW178086  10.629  12.630   4.953
59354SOL    HW278087  10.516  12.543   4.875
59355SOL     OW78088  10.892  11.811   4.196
59355SOL    HW178089  10.861  11.872   4.269
59355SOL    HW278090  10.942  11.863   4.127
59356SOL     OW78091   9.664  12.682   5.053
59356SOL    HW178092   9.643  12.638   4.966
59356SOL    HW278093   9.761  12.708   5.056
59357SOL     OW78094   9.712  11.923   5.322
59357SOL    HW178095   9.780  11.978   5.275
59357SOL    HW278096   9.752  11.835   5.349
59358SOL     OW78097  10.897  11.951   5.394
59358SOL    HW178098  10.805  11.989   5.389
59358SOL    HW278099  10.957  11.998   5.329
59359SOL     OW78100  10.323  11.277   5.494
59359SOL    HW178101  10.329  11.362   5.442
59359SOL    HW278102  10.355  11.201   5.437
59360SOL     OW78103   9.814  11.222   5.464
59360SOL    HW178104   9.772  11.165   5.394
59360SOL    HW278105   9.748  11.291   5.496
59361SOL     OW78106   9.883  12.042   4.753
59361SOL    HW178107   9.927  12.131   4.744
59361SOL    HW278108   9.820  12.042   4.830
59362SOL     OW78109  10.670  12.034   4.769
59362SOL    HW178110  10.595  12.034   4.703
59362SOL    HW278111  10.707  11.942   4.778
59363SOL     OW78112  10.519  11.697   3.999
59363SOL    HW178113  10.532  11.613   4.053
59363SOL    HW278114  10.490  11.771   4.059
59364SOL     OW78115   9.617  11.385   4.955
59364SOL    HW178116   9.594  11.422   5.045
59364SOL    HW278117   9.587  11.290   4.949
59365SOL     OW78118   9.347  12.482   5.006
59365SOL    HW178119   9.400  12.433   5.074
59365SOL    HW278120   9.369  12.580   5.011
59366SOL     OW78121  10.042  11.806   4.788
59366SOL    HW178122  10.101  11.780   4.712
59366SOL    HW278123  10.014  11.902   4.777
59367SOL     OW78124  11.038  12.107   5.578
59367SOL    HW178125  10.992  12.100   5.489
59367SOL    HW278126  10.976  12.151   5.644
59368SOL     OW78127   9.617  11.235   4.342
59368SOL    HW178128   9.606  11.329   4.375
59368SOL    HW278129   9.612  11.172   4.419
59369SOL     OW78130  10.932  11.539   4.098
59369SOL    HW178131  10.934  11.463   4.162
59369SOL    HW278132  10.884  11.616   4.138
59370SOL     OW78133  10.333  11.938   4.690
59370SOL    HW178134  10.348  11.959   4.786
59370SOL    HW278135  10.303  11.843   4.681
59371SOL     OW78136  11.169  12.690   5.329
59371SOL    HW178137  11.183  12.717   5.234
59371SOL    HW278138  11.252  12.712   5.382
59372SOL     OW78139   9.660  12.070   5.528
59372SOL    HW178140   9.736  12.114   5.576
59372SOL    HW278141   9.695  12.023   5.446
59373SOL     OW78142  10.850  11.446   3.849
59373SOL    HW178143  10.789  11.371   3.872
59373SOL    HW278144  10.872  11.498   3.932
59374SOL     OW78145  10.613  12.010   3.766
59374SOL    HW178146  10.647  11.917   3.781
59374SOL    HW278147  10.631  12.037   3.671
59375SOL     OW78148  10.378  12.505   4.573
59375SOL    HW178149  10.385  12.421   4.518
59375SOL    HW278150  10.440  12.574   4.537
59376SOL     OW78151   9.629  11.982   4.673
59376SOL    HW178152   9.722  12.018   4.678
59376SOL    HW278153   9.623  11.897   4.725
59377SOL     OW78154   9.649  11.681   4.730
59377SOL    HW178155   9.597  11.598   4.713
59377SOL    HW278156   9.726  11.686   4.666
59378SOL     OW78157  10.448  11.552   5.402
59378SOL    HW178158  10.403  11.615   5.466
59378SOL    HW278159  10.541  11.583   5.385
59379SOL     OW78160  10.470  11.379   5.201
59379SOL    HW178161  10.470  11.443   5.278
59379SOL    HW278162  10.498  11.427   5.118
59380SOL     OW78163   9.318  12.498   3.924
59380SOL    HW178164   9.225  12.519   3.893
59380SOL    HW278165   9.328  12.399   3.937
59381SOL     OW78166   9.814  12.740   4.634
59381SOL    HW178167   9.880  12.814   4.643
59381SOL    HW278168   9.858  12.661   4.592
59382SOL     OW78169  10.312  11.968   4.962
59382SOL    HW178170  10.353  11.936   5.048
59382SOL    HW278171  10.216  11.941   4.959
59383SOL     OW78172   9.350  11.716   4.838
59383SOL    HW178173   9.435  11.683   4.797
59383SOL    HW278174   9.363  11.731   4.936
59384SOL     OW78175   9.499  11.692   5.446
59384SOL    HW178176   9.558  11.652   5.376
59384SOL    HW278177   9.441  11.763   5.405
59385SOL     OW78178  10.679  12.122   5.384
59385SOL    HW178179  10.718  12.211   5.404
59385SOL    HW278180  10.689  12.102   5.287
59386SOL     OW78181  10.125  11.744   4.049
59386SOL    HW178182  10.132  11.655   4.003
59386SOL    HW278183  10.031  11.778   4.041
59387SOL     OW78184  10.967  11.776   4.930
59387SOL    HW178185  10.929  11.707   4.992
59387SOL    HW278186  11.049  11.740   4.886
59388SOL     OW78187   9.562  12.736   5.468
59388SOL    HW178188   9.532  12.793   5.544
59388SOL    HW278189   9.555  12.639   5.494
59389SOL     OW78190   9.981  11.636   4.993
59389SOL    HW178191   9.947  11.547   4.963
59389SOL    HW278192  10.007  11.690   4.913
59390SOL     OW78193   9.783  11.672   3.915
59390SOL    HW178194   9.844  11.752   3.919
59390SOL    HW278195   9.688  11.703   3.922
59391SOL     OW78196   9.469  12.309   5.190
59391SOL    HW178197   9.491  12.248   5.266
59391SOL    HW278198   9.479  12.260   5.104
59392SOL     OW78199  10.657  12.231   4.958
59392SOL    HW178200  10.681  12.168   4.884
59392SOL    HW278201  10.567  12.271   4.940
59393SOL     OW78202  10.612  12.027   4.033
59393SOL    HW178203  10.526  11.996   4.075
59393SOL    HW278204  10.608  12.013   3.934
59394SOL     OW78205  10.562  12.903   4.852
59394SOL    HW178206  10.646  12.908   4.798
59394SOL    HW278207  10.539  12.807   4.870
59395SOL     OW78208   9.393  12.430   4.746
59395SOL    HW178209   9.388  12.429   4.846
59395SOL    HW278210   9.310  12.389   4.708
59396SOL     OW78211  11.036  11.307   4.247
59396SOL    HW178212  11.109  11.290   4.180
59396SOL    HW278213  11.005  11.220   4.285
59397SOL     OW78214   9.440  12.966   5.575
59397SOL    HW178215   9.399  12.892   5.628
59397SOL    HW278216   9.504  13.017   5.633
59398SOL     OW78217  10.590  12.099   4.396
59398SOL    HW178218  10.650  12.018   4.398
59398SOL    HW278219  10.630  12.168   4.336
59399SOL     OW78220  10.140  12.445   5.146
59399SOL    HW178221  10.135  12.478   5.241
59399SOL    HW278222  10.054  12.464   5.100
59400SOL     OW78223   9.982  12.788   3.878
59400SOL    HW178224   9.991  12.798   3.779
59400SOL    HW278225   9.942  12.699   3.899
59401SOL     OW78226  11.151  11.347   4.687
59401SOL    HW178227  11.190  11.262   4.651
59401SOL    HW278228  11.053  11.349   4.668
59402SOL     OW78229   9.573  11.498   4.444
59402SOL    HW178230   9.494  11.549   4.410
59402SOL    HW278231   9.564  11.483   4.542
59403SOL     OW78232  10.504  12.784   3.755
59403SOL    HW178233  10.510  12.691   3.792
59403SOL    HW278234  10.445  12.784   3.675
59404SOL     OW78235  10.132  12.174   5.096
59404SOL    HW178236  10.172  12.173   5.004
59404SOL    HW278237  10.142  12.266   5.136
59405SOL     OW78238  10.226  12.082   4.015
59405SOL    HW178239  10.289  12.120   3.947
59405SOL    HW278240  10.266  11.999   4.054
59406SOL     OW78241   9.682  12.460   5.214
59406SOL    HW178242   9.669  12.553   5.180
59406SOL    HW278243   9.598  12.408   5.201
59407SOL     OW78244  10.924  12.464   5.013
59407SOL    HW178245  10.984  12.467   5.093
59407SOL    HW278246  10.849  12.528   5.026
59408SOL     OW78247  10.349  12.270   4.420
59408SOL    HW178248  10.279  12.223   4.474
59408SOL    HW278249  10.408  12.202   4.377
59409SOL     OW78250  10.324  11.408   4.695
59409SOL    HW178251  10.316  11.372   4.602
59409SOL    HW278252  10.322  11.332   4.760
59410SOL     OW78253   9.900  12.659   4.215
59410SOL    HW178254   9.942  12.601   4.145
59410SOL    HW278255   9.856  12.738   4.171
59411SOL     OW78256  11.019  11.557   5.105
59411SOL    HW178257  11.092  11.626   5.109
59411SOL    HW278258  11.047  11.482   5.046
59412SOL     OW78259   9.565  12.520   4.014
59412SOL    HW178260   9.469  12.521   3.987
59412SOL    HW278261   9.577  12.573   4.098
59413SOL     OW78262   9.415  12.185   5.450
59413SOL    HW178263   9.338  12.152   5.504
59413SOL    HW278264   9.500  12.155   5.492
59414SOL     OW78265   9.982  11.375   5.213
59414SOL    HW178266  10.072  11.359   5.173
59414SOL    HW278267   9.990  11.380   5.312
59415SOL     OW78268   9.385  11.517   3.757
59415SOL    HW178269   9.293  11.489   3.728
59415SOL    HW278270   9.416  11.594   3.701
59416SOL     OW78271  10.750  12.028   5.122
59416SOL    HW178272  10.693  12.080   5.059
59416SOL    HW278273  10.846  12.040   5.098
59417SOL     OW78274   9.382  11.338   4.042
59417SOL    HW178275   9.365  11.421   3.988
59417SOL    HW278276   9.472  11.301   4.020
59418SOL     OW78277  10.493  12.507   3.843
59418SOL    HW178278  10.394  12.496   3.845
59418SOL    HW278279  10.527  12.522   3.936
59419SOL     OW78280   9.923  12.014   5.155
59419SOL    HW178281   9.979  12.095   5.138
59419SOL    HW278282   9.982  11.934   5.158
59420SOL     OW78283  10.026  11.737   5.432
59420SOL    HW178284  10.045  11.802   5.506
59420SOL    HW278285  10.086  11.657   5.441
59421SOL     OW78286  10.760  12.392   5.357
59421SOL    HW178287  10.751  12.382   5.456
59421SOL    HW278288  10.856  12.385   5.331
59422SOL     OW78289  10.984  12.055   4.978
59422SOL    HW178290  10.957  11.966   4.941
59422SOL    HW278291  10.985  12.123   4.905
59423SOL     OW78292  10.535  11.497   4.173
59423SOL    HW178293  10.600  11.423   4.162
59423SOL    HW278294  10.555  11.547   4.257
59424SOL     OW78295   9.904  11.917   4.376
59424SOL    HW178296   9.954  12.002   4.357
59424SOL    HW278297   9.816  11.919   4.328
59425SOL     OW78298  11.087  11.514   5.366
59425SOL    HW178299  11.070  11.545   5.272
59425SOL    HW278300  11.003  11.477   5.404
59426SOL     OW78301  11.040  12.106   5.241
59426SOL    HW178302  11.078  12.197   5.256
59426SOL    HW278303  11.032  12.089   5.142
59427SOL     OW78304  10.169  12.546   3.740
59427SOL    HW178305  10.123  12.561   3.828
59427SOL    HW278306  10.213  12.631   3.710
59428SOL     OW78307  10.169  12.128   4.585
59428SOL    HW178308  10.223  12.059   4.633
59428SOL    HW278309  10.137  12.197   4.651
59429SOL     OW78310  10.393  12.156   3.811
59429SOL    HW178311  10.370  12.209   3.729
59429SOL    HW278312  10.474  12.100   3.792
59430SOL     OW78313  11.171  12.741   4.575
59430SOL    HW178314  11.100  12.729   4.505
59430SOL    HW278315  11.172  12.662   4.635
59431SOL     OW78316   9.531  12.486   5.568
59431SOL    HW178317   9.466  12.413   5.547
59431SOL    HW278318   9.535  12.500   5.666
59432SOL     OW78319   9.389  12.412   4.377
59432SOL    HW178320   9.388  12.365   4.465
59432SOL    HW278321   9.471  12.384   4.326
59433SOL     OW78322   9.982  12.563   5.348
59433SOL    HW178323   9.904  12.513   5.386
59433SOL    HW278324   9.979  12.658   5.379
59434SOL     OW78325  11.134  11.364   4.951
59434SOL    HW178326  11.130  11.274   4.995
59434SOL    HW278327  11.137  11.353   4.852
59435SOL     OW78328   9.738  11.596   4.244
59435SOL    HW178329   9.768  11.524   4.182
59435SOL    HW278330   9.699  11.556   4.327
59436SOL     OW78331  11.015  12.659   4.828
59436SOL    HW178332  10.922  12.634   4.801
59436SOL    HW278333  11.041  12.609   4.910
59437SOL     OW78334   9.627  11.719   5.004
59437SOL    HW178335   9.665  11.660   5.076
59437SOL    HW278336   9.667  11.693   4.916
59438SOL     OW78337  10.734  11.386   4.836
59438SOL    HW178338  10.786  11.321   4.891
59438SOL    HW278339  10.685  11.449   4.897
59439SOL     OW78340  10.311  11.206   4.878
59439SOL    HW178341  10.248  11.134   4.847
59439SOL    HW278342  10.404  11.170   4.878
59440SOL     OW78343  10.080  12.502   4.025
59440SOL    HW178344  10.034  12.415   4.042
59440SOL    HW278345  10.171  12.499   4.066
59441SOL     OW78346   9.928  12.739   5.008
59441SOL    HW178347   9.923  12.821   5.065
59441SOL    HW278348  10.017  12.736   4.963
59442SOL     OW78349  10.662  11.224   3.892
59442SOL    HW178350  10.697  11.183   3.808
59442SOL    HW278351  10.572  11.186   3.912
59443SOL     OW78352  10.610  11.625   4.415
59443SOL    HW178353  10.551  11.705   4.419
59443SOL    HW278354  10.625  11.590   4.508
59444SOL     OW78355  10.903  11.393   4.606
59444SOL    HW178356  10.819  11.392   4.660
59444SOL    HW278357  10.905  11.476   4.550
59445SOL     OW78358   9.349  12.249   4.024
59445SOL    HW178359   9.448  12.238   4.015
59445SOL    HW278360   9.309  12.163   4.056
59446SOL     OW78361   9.540  11.800   5.699
59446SOL    HW178362   9.447  11.798   5.736
59446SOL    HW278363   9.541  11.761   5.607
59447SOL     OW78364   9.535  11.447   6.582
59447SOL    HW178365   9.570  11.430   6.674
59447SOL    HW278366   9.447  11.402   6.570
59448SOL     OW78367   9.329  11.540   6.233
59448SOL    HW178368   9.247  11.583   6.272
59448SOL    HW278369   9.301  11.467   6.170
59449SOL     OW78370   9.879  12.447   6.751
59449SOL    HW178371   9.786  12.440   6.714
59449SOL    HW278372   9.890  12.536   6.795
59450SOL     OW78373  10.865  12.683   6.289
59450SOL    HW178374  10.808  12.667   6.370
59450SOL    HW278375  10.806  12.693   6.209
59451SOL     OW78376  10.445  11.875   6.303
59451SOL    HW178377  10.502  11.953   6.278
59451SOL    HW278378  10.385  11.901   6.379
59452SOL     OW78379  11.065  11.779   5.817
59452SOL    HW178380  11.053  11.766   5.718
59452SOL    HW278381  11.035  11.698   5.866
59453SOL     OW78382  10.078  12.316   6.609
59453SOL    HW178383  10.000  12.333   6.669
59453SOL    HW278384  10.112  12.403   6.573
59454SOL     OW78385  10.160  11.970   7.409
59454SOL    HW178386  10.156  12.046   7.474
59454SOL    HW278387  10.182  12.006   7.318
59455SOL     OW78388   9.995  12.184   6.251
59455SOL    HW178389  10.064  12.168   6.321
59455SOL    HW278390   9.922  12.241   6.289
59456SOL     OW78391   9.996  12.333   7.389
59456SOL    HW178392  10.056  12.412   7.403
59456SOL    HW278393   9.910  12.364   7.348
59457SOL     OW78394   9.645  12.607   6.647
59457SOL    HW178395   9.567  12.576   6.594
59457SOL    HW278396   9.703  12.665   6.590
59458SOL     OW78397  10.770  12.677   6.925
59458SOL    HW178398  10.794  12.771   6.951
59458SOL    HW278399  10.754  12.623   7.007
59459SOL     OW78400   9.748  11.564   7.085
59459SOL    HW178401   9.830  11.508   7.094
59459SOL    HW278402   9.667  11.506   7.089
59460SOL     OW78403  10.913  11.619   6.323
59460SOL    HW178404  10.839  11.665   6.273
59460SOL    HW278405  10.964  11.687   6.376
59461SOL     OW78406  10.437  12.513   7.276
59461SOL    HW178407  10.484  12.513   7.364
59461SOL    HW278408  10.389  12.426   7.265
59462SOL     OW78409   9.540  12.606   6.124
59462SOL    HW178410   9.514  12.702   6.124
59462SOL    HW278411   9.469  12.552   6.169
59463SOL     OW78412   9.550  12.263   6.472
59463SOL    HW178413   9.564  12.179   6.524
59463SOL    HW278414   9.495  12.327   6.527
59464SOL     OW78415   9.916  12.136   5.709
59464SOL    HW178416   9.923  12.220   5.655
59464SOL    HW278417   9.962  12.149   5.797
59465SOL     OW78418  10.904  11.286   7.066
59465SOL    HW178419  10.886  11.353   6.994
59465SOL    HW278420  10.901  11.332   7.155
59466SOL     OW78421   9.432  11.815   6.149
59466SOL    HW178422   9.387  11.727   6.166
59466SOL    HW278423   9.431  11.869   6.233
59467SOL     OW78424   9.337  12.768   5.703
59467SOL    HW178425   9.318  12.672   5.724
59467SOL    HW278426   9.304  12.826   5.778
59468SOL     OW78427  10.999  12.094   6.198
59468SOL    HW178428  11.094  12.065   6.206
59468SOL    HW278429  10.991  12.159   6.123
59469SOL     OW78430  10.951  12.280   6.018
59469SOL    HW178431  11.037  12.282   5.966
59469SOL    HW278432  10.965  12.327   6.106
59470SOL     OW78433   9.423  11.909   7.183
59470SOL    HW178434   9.511  11.896   7.228
59470SOL    HW278435   9.410  12.006   7.161
59471SOL     OW78436   9.923  12.537   6.312
59471SOL    HW178437   9.874  12.450   6.321
59471SOL    HW278438   9.900  12.580   6.225
59472SOL     OW78439  10.603  12.400   7.009
59472SOL    HW178440  10.640  12.327   6.951
59472SOL    HW278441  10.655  12.405   7.094
59473SOL     OW78442  10.119  11.176   6.088
59473SOL    HW178443  10.159  11.267   6.079
59473SOL    HW278444  10.019  11.184   6.094
59474SOL     OW78445   9.507  12.148   6.850
59474SOL    HW178446   9.596  12.103   6.836
59474SOL    HW278447   9.434  12.083   6.831
59475SOL     OW78448  10.835  12.171   5.776
59475SOL    HW178449  10.772  12.095   5.789
59475SOL    HW278450  10.883  12.189   5.862
59476SOL     OW78451   9.627  11.423   7.387
59476SOL    HW178452   9.698  11.494   7.393
59476SOL    HW278453   9.539  11.462   7.415
59477SOL     OW78454  10.776  12.589   6.539
59477SOL    HW178455  10.717  12.595   6.619
59477SOL    HW278456  10.761  12.501   6.493
59478SOL     OW78457   9.908  11.901   5.856
59478SOL    HW178458   9.932  11.970   5.788
59478SOL    HW278459   9.830  11.934   5.910
59479SOL     OW78460  10.591  11.517   6.530
59479SOL    HW178461  10.505  11.467   6.517
59479SOL    HW278462  10.653  11.463   6.586
59480SOL     OW78463  10.886  12.834   5.893
59480SOL    HW178464  10.975  12.880   5.896
59480SOL    HW278465  10.865  12.810   5.798
59481SOL     OW78466  10.117  11.777   7.051
59481SOL    HW178467  10.070  11.774   7.140
59481SOL    HW278468  10.066  11.722   6.985
59482SOL     OW78469  10.704  11.641   7.260
59482SOL    HW178470  10.684  11.684   7.348
59482SOL    HW278471  10.782  11.579   7.269
59483SOL     OW78472  10.283  12.062   7.158
59483SOL    HW178473  10.329  11.978   7.129
59483SOL    HW278474  10.227  12.096   7.083
59484SOL     OW78475  10.301  11.582   6.828
59484SOL    HW178476  10.224  11.616   6.882
59484SOL    HW278477  10.267  11.531   6.749
59485SOL     OW78478  10.351  11.873   6.015
59485SOL    HW178479  10.377  11.869   6.111
59485SOL    HW278480  10.266  11.822   6.001
59486SOL     OW78481   9.386  11.983   6.375
59486SOL    HW178482   9.485  11.971   6.384
59486SOL    HW278483   9.362  12.078   6.396
59487SOL     OW78484  10.175  11.520   5.781
59487SOL    HW178485  10.234  11.583   5.732
59487SOL    HW278486  10.194  11.426   5.752
59488SOL     OW78487  11.029  11.757   7.417
59488SOL    HW178488  11.003  11.846   7.381
59488SOL    HW278489  11.027  11.689   7.344
59489SOL     OW78490  10.672  12.316   6.131
59489SOL    HW178491  10.755  12.287   6.083
59489SOL    HW278492  10.623  12.383   6.075
59490SOL     OW78493   9.860  11.368   6.471
59490SOL    HW178494   9.855  11.363   6.571
59490SOL    HW278495   9.862  11.464   6.442
59491SOL     OW78496  10.318  12.628   6.063
59491SOL    HW178497  10.272  12.700   6.011
59491SOL    HW278498  10.314  12.648   6.161
59492SOL     OW78499  11.105  12.238   6.459
59492SOL    HW178500  11.043  12.223   6.383
59492SOL    HW278501  11.053  12.249   6.544
59493SOL     OW78502  10.537  12.722   7.092
59493SOL    HW178503  10.543  12.645   7.156
59493SOL    HW278504  10.485  12.696   7.012
59494SOL     OW78505   9.631  12.115   5.828
59494SOL    HW178506   9.713  12.154   5.786
59494SOL    HW278507   9.604  12.033   5.779
59495SOL     OW78508  10.768  11.907   6.314
59495SOL    HW178509  10.763  11.842   6.389
59495SOL    HW278510  10.848  11.966   6.327
59496SOL     OW78511   9.771  12.438   7.313
59496SOL    HW178512   9.721  12.439   7.227
59496SOL    HW278513   9.708  12.420   7.389
59497SOL     OW78514   9.512  11.457   7.084
59497SOL    HW178515   9.432  11.517   7.071
59497SOL    HW278516   9.502  11.408   7.170
59498SOL     OW78517  10.942  12.549   5.667
59498SOL    HW178518  10.910  12.643   5.657
59498SOL    HW278519  10.866  12.486   5.655
59499SOL     OW78520  10.710  11.279   6.012
59499SOL    HW178521  10.686  11.242   5.922
59499SOL    HW278522  10.809  11.295   6.016
59500SOL     OW78523   9.692  11.872   6.066
59500SOL    HW178524   9.737  11.782   6.063
59500SOL    HW278525   9.598  11.861   6.099
59501SOL     OW78526  10.857  11.394   7.315
59501SOL    HW178527  10.852  11.431   7.407
59501SOL    HW278528  10.785  11.325   7.303
59502SOL     OW78529   9.924  11.294   5.703
59502SOL    HW178530  10.022  11.272   5.710
59502SOL    HW278531   9.893  11.277   5.610
59503SOL     OW78532  10.091  11.436   7.335
59503SOL    HW178533  10.158  11.375   7.378
59503SOL    HW278534  10.018  11.455   7.400
59504SOL     OW78535  10.661  11.762   7.019
59504SOL    HW178536  10.689  11.719   7.104
59504SOL    HW278537  10.686  11.858   7.020
59505SOL     OW78538  10.113  12.574   6.510
59505SOL    HW178539  10.203  12.588   6.468
59505SOL    HW278540  10.042  12.576   6.439
59506SOL     OW78541  10.232  11.675   6.485
59506SOL    HW178542  10.207  11.666   6.389
59506SOL    HW278543  10.280  11.593   6.516
59507SOL     OW78544   9.849  11.236   6.098
59507SOL    HW178545   9.768  11.237   6.156
59507SOL    HW278546   9.852  11.319   6.043
59508SOL     OW78547  10.744  12.360   5.627
59508SOL    HW178548  10.776  12.284   5.684
59508SOL    HW278549  10.652  12.387   5.657
59509SOL     OW78550   9.607  11.207   5.757
59509SOL    HW178551   9.656  11.291   5.736
59509SOL    HW278552   9.669  11.142   5.802
59510SOL     OW78553  10.245  11.408   6.066
59510SOL    HW178554  10.197  11.449   5.988
59510SOL    HW278555  10.344  11.406   6.047
59511SOL     OW78556  10.386  11.855   7.050
59511SOL    HW178557  10.306  11.794   7.053
59511SOL    HW278558  10.467  11.802   7.026
59512SOL     OW78559  10.537  12.742   6.379
59512SOL    HW178560  10.558  12.816   6.314
59512SOL    HW278561  10.605  12.742   6.452
59513SOL     OW78562   9.769  12.324   6.327
59513SOL    HW178563   9.698  12.297   6.392
59513SOL    HW278564   9.743  12.296   6.234
59514SOL     OW78565  10.342  11.721   5.602
59514SOL    HW178566  10.301  11.803   5.563
59514SOL    HW278567  10.406  11.747   5.675
59515SOL     OW78568   9.388  11.728   6.972
59515SOL    HW178569   9.480  11.727   6.931
59515SOL    HW278570   9.382  11.802   7.039
59516SOL     OW78571   9.871  11.394   6.733
59516SOL    HW178572   9.909  11.310   6.770
59516SOL    HW278573   9.783  11.413   6.777
59517SOL     OW78574  10.176  11.626   6.228
59517SOL    HW178575  10.144  11.698   6.166
59517SOL    HW278576  10.200  11.545   6.175
59518SOL     OW78577  10.327  11.211   6.339
59518SOL    HW178578  10.255  11.216   6.270
59518SOL    HW278579  10.303  11.142   6.408
59519SOL     OW78580  10.739  12.345   6.453
59519SOL    HW178581  10.684  12.261   6.446
59519SOL    HW278582  10.765  12.374   6.361
59520SOL     OW78583  10.776  11.762   6.578
59520SOL    HW178584  10.746  11.667   6.585
59520SOL    HW278585  10.849  11.778   6.644
59521SOL     OW78586  11.167  12.005   5.963
59521SOL    HW178587  11.209  11.941   6.027
59521SOL    HW278588  11.129  11.954   5.885
59522SOL     OW78589   9.798  12.557   5.760
59522SOL    HW178590   9.711  12.542   5.807
59522SOL    HW278591   9.781  12.583   5.665
59523SOL     OW78592  10.974  12.452   6.243
59523SOL    HW178593  11.073  12.460   6.257
59523SOL    HW278594  10.929  12.536   6.274
59524SOL     OW78595  10.700  11.747   5.664
59524SOL    HW178596  10.646  11.726   5.745
59524SOL    HW278597  10.791  11.706   5.673
59525SOL     OW78598   9.837  11.428   5.914
59525SOL    HW178599   9.864  11.369   5.839
59525SOL    HW278600   9.837  11.523   5.883
59526SOL     OW78601  11.064  12.395   7.174
59526SOL    HW178602  11.155  12.356   7.161
59526SOL    HW278603  11.072  12.491   7.198
59527SOL     OW78604  10.374  12.519   6.926
59527SOL    HW178605  10.294  12.496   6.981
59527SOL    HW278606  10.457  12.493   6.975
59528SOL     OW78607  10.421  12.367   6.686
59528SOL    HW178608  10.381  12.411   6.767
59528SOL    HW278609  10.380  12.404   6.603
59529SOL     OW78610  10.948  12.271   6.665
59529SOL    HW178611  10.953  12.352   6.724
59529SOL    HW278612  10.862  12.273   6.614
59530SOL     OW78613  10.225  11.261   6.988
59530SOL    HW178614  10.250  11.241   6.893
59530SOL    HW278615  10.297  11.317   7.030
59531SOL     OW78616  10.290  12.288   7.305
59531SOL    HW178617  10.191  12.294   7.315
59531SOL    HW278618  10.313  12.208   7.249
59532SOL     OW78619  10.015  12.222   5.954
59532SOL    HW178620  10.001  12.229   6.053
59532SOL    HW278621  10.099  12.171   5.936
59533SOL     OW78622   9.720  11.985   6.837
59533SOL    HW178623   9.806  11.997   6.887
59533SOL    HW278624   9.678  11.898   6.864
59534SOL     OW78625  10.584  11.558   6.848
59534SOL    HW178626  10.605  11.632   6.912
59534SOL    HW278627  10.495  11.575   6.805
59535SOL     OW78628   9.374  12.736   6.917
59535SOL    HW178629   9.328  12.818   6.883
59535SOL    HW278630   9.472  12.755   6.926
59536SOL     OW78631   9.677  12.272   6.087
59536SOL    HW178632   9.670  12.355   6.031
59536SOL    HW278633   9.681  12.192   6.027
59537SOL     OW78634   9.876  11.709   6.451
59537SOL    HW178635   9.888  11.775   6.377
59537SOL    HW278636   9.922  11.743   6.534
59538SOL     OW78637  10.562  12.520   5.974
59538SOL    HW178638  10.612  12.597   6.014
59538SOL    HW278639  10.467  12.522   6.006
59539SOL     OW78640  10.582  12.617   6.728
59539SOL    HW178641  10.629  12.630   6.815
59539SOL    HW278642  10.516  12.543   6.737
59540SOL     OW78643  10.892  11.811   6.058
59540SOL    HW178644  10.861  11.872   6.131
59540SOL    HW278645  10.942  11.863   5.989
59541SOL     OW78646   9.664  12.682   6.915
59541SOL    HW178647   9.643  12.638   6.828
59541SOL    HW278648   9.761  12.708   6.918
59542SOL     OW78649   9.712  11.923   7.184
59542SOL    HW178650   9.780  11.978   7.137
59542SOL    HW278651   9.752  11.835   7.211
59543SOL     OW78652  10.897  11.951   7.256
59543SOL    HW178653  10.805  11.989   7.251
59543SOL    HW278654  10.957  11.998   7.191
59544SOL     OW78655  10.323  11.277   7.356
59544SOL    HW178656  10.329  11.362   7.304
59544SOL    HW278657  10.355  11.201   7.299
59545SOL     OW78658   9.814  11.222   7.326
59545SOL    HW178659   9.772  11.165   7.256
59545SOL    HW278660   9.748  11.291   7.358
59546SOL     OW78661   9.883  12.042   6.615
59546SOL    HW178662   9.927  12.131   6.606
59546SOL    HW278663   9.820  12.042   6.692
59547SOL     OW78664  10.670  12.034   6.631
59547SOL    HW178665  10.595  12.034   6.565
59547SOL    HW278666  10.707  11.942   6.640
59548SOL     OW78667  10.519  11.697   5.861
59548SOL    HW178668  10.532  11.613   5.915
59548SOL    HW278669  10.490  11.771   5.921
59549SOL     OW78670   9.617  11.385   6.817
59549SOL    HW178671   9.594  11.422   6.907
59549SOL    HW278672   9.587  11.290   6.811
59550SOL     OW78673   9.347  12.482   6.868
59550SOL    HW178674   9.400  12.433   6.936
59550SOL    HW278675   9.369  12.580   6.873
59551SOL     OW78676  10.042  11.806   6.650
59551SOL    HW178677  10.101  11.780   6.574
59551SOL    HW278678  10.014  11.902   6.639
59552SOL     OW78679  11.038  12.107   7.440
59552SOL    HW178680  10.992  12.100   7.351
59552SOL    HW278681  10.976  12.151   7.506
59553SOL     OW78682   9.617  11.235   6.204
59553SOL    HW178683   9.606  11.329   6.237
59553SOL    HW278684   9.612  11.172   6.281
59554SOL     OW78685  10.932  11.539   5.960
59554SOL    HW178686  10.934  11.463   6.024
59554SOL    HW278687  10.884  11.616   6.000
59555SOL     OW78688  10.333  11.938   6.552
59555SOL    HW178689  10.348  11.959   6.648
59555SOL    HW278690  10.303  11.843   6.543
59556SOL     OW78691  11.169  12.690   7.191
59556SOL    HW178692  11.183  12.717   7.096
59556SOL    HW278693  11.252  12.712   7.244
59557SOL     OW78694   9.660  12.070   7.390
59557SOL    HW178695   9.736  12.114   7.438
59557SOL    HW278696   9.695  12.023   7.308
59558SOL     OW78697  10.850  11.446   5.711
59558SOL    HW178698  10.789  11.371   5.734
59558SOL    HW278699  10.872  11.498   5.794
59559SOL     OW78700  10.613  12.010   5.628
59559SOL    HW178701  10.647  11.917   5.643
59559SOL    HW278702  10.631  12.037   5.533
59560SOL     OW78703  10.378  12.505   6.435
59560SOL    HW178704  10.385  12.421   6.380
59560SOL    HW278705  10.440  12.574   6.399
59561SOL     OW78706   9.629  11.982   6.535
59561SOL    HW178707   9.722  12.018   6.540
59561SOL    HW278708   9.623  11.897   6.587
59562SOL     OW78709   9.649  11.681   6.592
59562SOL    HW178710   9.597  11.598   6.575
59562SOL    HW278711   9.726  11.686   6.528
59563SOL     OW78712  10.448  11.552   7.264
59563SOL    HW178713  10.403  11.615   7.328
59563SOL    HW278714  10.541  11.583   7.247
59564SOL     OW78715  10.470  11.379   7.063
59564SOL    HW178716  10.470  11.443   7.140
59564SOL    HW278717  10.498  11.427   6.980
59565SOL     OW78718   9.318  12.498   5.786
59565SOL    HW178719   9.225  12.519   5.755
59565SOL    HW278720   9.328  12.399   5.799
59566SOL     OW78721   9.814  12.740   6.496
59566SOL    HW178722   9.880  12.814   6.505
59566SOL    HW278723   9.858  12.661   6.454
59567SOL     OW78724  10.312  11.968   6.824
59567SOL    HW178725  10.353  11.936   6.910
59567SOL    HW278726  10.216  11.941   6.821
59568SOL     OW78727   9.350  11.716   6.700
59568SOL    HW178728   9.435  11.683   6.659
59568SOL    HW278729   9.363  11.731   6.798
59569SOL     OW78730   9.499  11.692   7.308
59569SOL    HW178731   9.558  11.652   7.238
59569SOL    HW278732   9.441  11.763   7.267
59570SOL     OW78733  10.679  12.122   7.246
59570SOL    HW178734  10.718  12.211   7.266
59570SOL    HW278735  10.689  12.102   7.149
59571SOL     OW78736  10.125  11.744   5.911
59571SOL    HW178737  10.132  11.655   5.865
59571SOL    HW278738  10.031  11.778   5.903
59572SOL     OW78739  10.967  11.776   6.792
59572SOL    HW178740  10.929  11.707   6.854
59572SOL    HW278741  11.049  11.740   6.748
59573SOL     OW78742   9.562  12.736   7.330
59573SOL    HW178743   9.532  12.793   7.406
59573SOL    HW278744   9.555  12.639   7.356
59574SOL     OW78745   9.981  11.636   6.855
59574SOL    HW178746   9.947  11.547   6.825
59574SOL    HW278747  10.007  11.690   6.775
59575SOL     OW78748   9.783  11.672   5.777
59575SOL    HW178749   9.844  11.752   5.781
59575SOL    HW278750   9.688  11.703   5.784
59576SOL     OW78751   9.469  12.309   7.052
59576SOL    HW178752   9.491  12.248   7.128
59576SOL    HW278753   9.479  12.260   6.966
59577SOL     OW78754  10.657  12.231   6.820
59577SOL    HW178755  10.681  12.168   6.746
59577SOL    HW278756  10.567  12.271   6.802
59578SOL     OW78757  10.612  12.027   5.895
59578SOL    HW178758  10.526  11.996   5.937
59578SOL    HW278759  10.608  12.013   5.796
59579SOL     OW78760  10.562  12.903   6.714
59579SOL    HW178761  10.646  12.908   6.660
59579SOL    HW278762  10.539  12.807   6.732
59580SOL     OW78763   9.393  12.430   6.608
59580SOL    HW178764   9.388  12.429   6.708
59580SOL    HW278765   9.310  12.389   6.570
59581SOL     OW78766  11.036  11.307   6.109
59581SOL    HW178767  11.109  11.290   6.042
59581SOL    HW278768  11.005  11.220   6.147
59582SOL     OW78769   9.440  12.966   7.437
59582SOL    HW178770   9.399  12.892   7.490
59582SOL    HW278771   9.504  13.017   7.495
59583SOL     OW78772  10.590  12.099   6.258
59583SOL    HW178773  10.650  12.018   6.260
59583SOL    HW278774  10.630  12.168   6.198
59584SOL     OW78775  10.140  12.445   7.008
59584SOL    HW178776  10.135  12.478   7.103
59584SOL    HW278777  10.054  12.464   6.962
59585SOL     OW78778   9.982  12.788   5.740
59585SOL    HW178779   9.991  12.798   5.641
59585SOL    HW278780   9.942  12.699   5.761
59586SOL     OW78781  11.151  11.347   6.549
59586SOL    HW178782  11.190  11.262   6.513
59586SOL    HW278783  11.053  11.349   6.530
59587SOL     OW78784   9.573  11.498   6.306
59587SOL    HW178785   9.494  11.549   6.272
59587SOL    HW278786   9.564  11.483   6.404
59588SOL     OW78787  10.504  12.784   5.617
59588SOL    HW178788  10.510  12.691   5.654
59588SOL    HW278789  10.445  12.784   5.537
59589SOL     OW78790  10.132  12.174   6.958
59589SOL    HW178791  10.172  12.173   6.866
59589SOL    HW278792  10.142  12.266   6.998
59590SOL     OW78793  10.226  12.082   5.877
59590SOL    HW178794  10.289  12.120   5.809
59590SOL    HW278795  10.266  11.999   5.916
59591SOL     OW78796   9.682  12.460   7.076
59591SOL    HW178797   9.669  12.553   7.042
59591SOL    HW278798   9.598  12.408   7.063
59592SOL     OW78799  10.924  12.464   6.875
59592SOL    HW178800  10.984  12.467   6.955
59592SOL    HW278801  10.849  12.528   6.888
59593SOL     OW78802  10.349  12.270   6.282
59593SOL    HW178803  10.279  12.223   6.336
59593SOL    HW278804  10.408  12.202   6.239
59594SOL     OW78805  10.324  11.408   6.557
59594SOL    HW178806  10.316  11.372   6.464
59594SOL    HW278807  10.322  11.332   6.622
59595SOL     OW78808   9.900  12.659   6.077
59595SOL    HW178809   9.942  12.601   6.007
59595SOL    HW278810   9.856  12.738   6.033
59596SOL     OW78811  11.019  11.557   6.967
59596SOL    HW178812  11.092  11.626   6.971
59596SOL    HW278813  11.047  11.482   6.908
59597SOL     OW78814   9.565  12.520   5.876
59597SOL    HW178815   9.469  12.521   5.849
59597SOL    HW278816   9.577  12.573   5.960
59598SOL     OW78817   9.415  12.185   7.312
59598SOL    HW178818   9.338  12.152   7.366
59598SOL    HW278819   9.500  12.155   7.354
59599SOL     OW78820   9.982  11.375   7.075
59599SOL    HW178821  10.072  11.359   7.035
59599SOL    HW278822   9.990  11.380   7.174
59600SOL     OW78823   9.385  11.517   5.619
59600SOL    HW178824   9.293  11.489   5.590
59600SOL    HW278825   9.416  11.594   5.563
59601SOL     OW78826  10.750  12.028   6.984
59601SOL    HW178827  10.693  12.080   6.921
59601SOL    HW278828  10.846  12.040   6.960
59602SOL     OW78829   9.382  11.338   5.904
59602SOL    HW178830   9.365  11.421   5.850
59602SOL    HW278831   9.472  11.301   5.882
59603SOL     OW78832  10.493  12.507   5.705
59603SOL    HW178833  10.394  12.496   5.707
59603SOL    HW278834  10.527  12.522   5.798
59604SOL     OW78835   9.923  12.014   7.017
59604SOL    HW178836   9.979  12.095   7.000
59604SOL    HW278837   9.982  11.934   7.020
59605SOL     OW78838  10.026  11.737   7.294
59605SOL    HW178839  10.045  11.802   7.368
59605SOL    HW278840  10.086  11.657   7.303
59606SOL     OW78841  10.760  12.392   7.219
59606SOL    HW178842  10.751  12.382   7.318
59606SOL    HW278843  10.856  12.385   7.193
59607SOL     OW78844  10.984  12.055   6.840
59607SOL    HW178845  10.957  11.966   6.803
59607SOL    HW278846  10.985  12.123   6.767
59608SOL     OW78847  10.535  11.497   6.035
59608SOL    HW178848  10.600  11.423   6.024
59608SOL    HW278849  10.555  11.547   6.119
59609SOL     OW78850   9.904  11.917   6.238
59609SOL    HW178851   9.954  12.002   6.219
59609SOL    HW278852   9.816  11.919   6.190
59610SOL     OW78853  11.087  11.514   7.228
59610SOL    HW178854  11.070  11.545   7.134
59610SOL    HW278855  11.003  11.477   7.266
59611SOL     OW78856  11.040  12.106   7.103
59611SOL    HW178857  11.078  12.197   7.118
59611SOL    HW278858  11.032  12.089   7.004
59612SOL     OW78859  10.169  12.546   5.602
59612SOL    HW178860  10.123  12.561   5.690
59612SOL    HW278861  10.213  12.631   5.572
59613SOL     OW78862  10.169  12.128   6.447
59613SOL    HW178863  10.223  12.059   6.495
59613SOL    HW278864  10.137  12.197   6.513
59614SOL     OW78865  10.393  12.156   5.673
59614SOL    HW178866  10.370  12.209   5.591
59614SOL    HW278867  10.474  12.100   5.654
59615SOL     OW78868  11.171  12.741   6.437
59615SOL    HW178869  11.100  12.729   6.367
59615SOL    HW278870  11.172  12.662   6.497
59616SOL     OW78871   9.531  12.486   7.430
59616SOL    HW178872   9.466  12.413   7.409
59616SOL    HW278873   9.535  12.500   7.528
59617SOL     OW78874   9.389  12.412   6.239
59617SOL    HW178875   9.388  12.365   6.327
59617SOL    HW278876   9.471  12.384   6.188
59618SOL     OW78877   9.982  12.563   7.210
59618SOL    HW178878   9.904  12.513   7.248
59618SOL    HW278879   9.979  12.658   7.241
59619SOL     OW78880  11.134  11.364   6.813
59619SOL    HW178881  11.130  11.274   6.857
59619SOL    HW278882  11.137  11.353   6.714
59620SOL     OW78883   9.738  11.596   6.106
59620SOL    HW178884   9.768  11.524   6.044
59620SOL    HW278885   9.699  11.556   6.189
59621SOL     OW78886  11.015  12.659   6.690
59621SOL    HW178887  10.922  12.634   6.663
59621SOL    HW278888  11.041  12.609   6.772
59622SOL     OW78889   9.627  11.719   6.866
59622SOL    HW178890   9.665  11.660   6.938
59622SOL    HW278891   9.667  11.693   6.778
59623SOL     OW78892  10.734  11.386   6.698
59623SOL    HW178893  10.786  11.321   6.753
59623SOL    HW278894  10.685  11.449   6.759
59624SOL     OW78895  10.311  11.206   6.740
59624SOL    HW178896  10.248  11.134   6.709
59624SOL    HW278897  10.404  11.170   6.740
59625SOL     OW78898  10.080  12.502   5.887
59625SOL    HW178899  10.034  12.415   5.904
59625SOL    HW278900  10.171  12.499   5.928
59626SOL     OW78901   9.928  12.739   6.870
59626SOL    HW178902   9.923  12.821   6.927
59626SOL    HW278903  10.017  12.736   6.825
59627SOL     OW78904  10.662  11.224   5.754
59627SOL    HW178905  10.697  11.183   5.670
59627SOL    HW278906  10.572  11.186   5.774
59628SOL     OW78907  10.610  11.625   6.277
59628SOL    HW178908  10.551  11.705   6.281
59628SOL    HW278909  10.625  11.590   6.370
59629SOL     OW78910  10.903  11.393   6.468
59629SOL    HW178911  10.819  11.392   6.522
59629SOL    HW278912  10.905  11.476   6.412
59630SOL     OW78913   9.349  12.249   5.886
59630SOL    HW178914   9.448  12.238   5.877
59630SOL    HW278915   9.309  12.163   5.918
59631SOL     OW78916   9.540  11.800   7.561
59631SOL    HW178917   9.447  11.798   7.598
59631SOL    HW278918   9.541  11.761   7.469
59632SOL     OW78919   9.535  11.447   8.444
59632SOL    HW178920   9.570  11.430   8.536
59632SOL    HW278921   9.447  11.402   8.432
59633SOL     OW78922   9.329  11.540   8.095
59633SOL    HW178923   9.247  11.583   8.134
59633SOL    HW278924   9.301  11.467   8.032
59634SOL     OW78925   9.879  12.447   8.613
59634SOL    HW178926   9.786  12.440   8.576
59634SOL    HW278927   9.890  12.536   8.657
59635SOL     OW78928  10.865  12.683   8.151
59635SOL    HW178929  10.808  12.667   8.232
59635SOL    HW278930  10.806  12.693   8.071
59636SOL     OW78931  10.445  11.875   8.165
59636SOL    HW178932  10.502  11.953   8.140
59636SOL    HW278933  10.385  11.901   8.241
59637SOL     OW78934  11.065  11.779   7.679
59637SOL    HW178935  11.053  11.766   7.580
59637SOL    HW278936  11.035  11.698   7.728
59638SOL     OW78937  10.078  12.316   8.471
59638SOL    HW178938  10.000  12.333   8.531
59638SOL    HW278939  10.112  12.403   8.435
59639SOL     OW78940  10.160  11.970   9.271
59639SOL    HW178941  10.156  12.046   9.336
59639SOL    HW278942  10.182  12.006   9.180
59640SOL     OW78943   9.995  12.184   8.113
59640SOL    HW178944  10.064  12.168   8.183
59640SOL    HW278945   9.922  12.241   8.151
59641SOL     OW78946   9.996  12.333   9.251
59641SOL    HW178947  10.056  12.412   9.265
59641SOL    HW278948   9.910  12.364   9.210
59642SOL     OW78949   9.645  12.607   8.509
59642SOL    HW178950   9.567  12.576   8.456
59642SOL    HW278951   9.703  12.665   8.452
59643SOL     OW78952  10.770  12.677   8.787
59643SOL    HW178953  10.794  12.771   8.813
59643SOL    HW278954  10.754  12.623   8.869
59644SOL     OW78955   9.748  11.564   8.947
59644SOL    HW178956   9.830  11.508   8.956
59644SOL    HW278957   9.667  11.506   8.951
59645SOL     OW78958  10.913  11.619   8.185
59645SOL    HW178959  10.839  11.665   8.135
59645SOL    HW278960  10.964  11.687   8.238
59646SOL     OW78961  10.437  12.513   9.138
59646SOL    HW178962  10.484  12.513   9.226
59646SOL    HW278963  10.389  12.426   9.127
59647SOL     OW78964   9.540  12.606   7.986
59647SOL    HW178965   9.514  12.702   7.986
59647SOL    HW278966   9.469  12.552   8.031
59648SOL     OW78967   9.550  12.263   8.334
59648SOL    HW178968   9.564  12.179   8.386
59648SOL    HW278969   9.495  12.327   8.389
59649SOL     OW78970   9.916  12.136   7.571
59649SOL    HW178971   9.923  12.220   7.517
59649SOL    HW278972   9.962  12.149   7.659
59650SOL     OW78973  10.904  11.286   8.928
59650SOL    HW178974  10.886  11.353   8.856
59650SOL    HW278975  10.901  11.332   9.017
59651SOL     OW78976   9.432  11.815   8.011
59651SOL    HW178977   9.387  11.727   8.028
59651SOL    HW278978   9.431  11.869   8.095
59652SOL     OW78979   9.337  12.768   7.565
59652SOL    HW178980   9.318  12.672   7.586
59652SOL    HW278981   9.304  12.826   7.640
59653SOL     OW78982  10.999  12.094   8.060
59653SOL    HW178983  11.094  12.065   8.068
59653SOL    HW278984  10.991  12.159   7.985
59654SOL     OW78985  10.951  12.280   7.880
59654SOL    HW178986  11.037  12.282   7.828
59654SOL    HW278987  10.965  12.327   7.968
59655SOL     OW78988   9.423  11.909   9.045
59655SOL    HW178989   9.511  11.896   9.090
59655SOL    HW278990   9.410  12.006   9.023
59656SOL     OW78991   9.923  12.537   8.174
59656SOL    HW178992   9.874  12.450   8.183
59656SOL    HW278993   9.900  12.580   8.087
59657SOL     OW78994  10.603  12.400   8.871
59657SOL    HW178995  10.640  12.327   8.813
59657SOL    HW278996  10.655  12.405   8.956
59658SOL     OW78997  10.119  11.176   7.950
59658SOL    HW178998  10.159  11.267   7.941
59658SOL    HW278999  10.019  11.184   7.956
59659SOL     OW79000   9.507  12.148   8.712
59659SOL    HW179001   9.596  12.103   8.698
59659SOL    HW279002   9.434  12.083   8.693
59660SOL     OW79003  10.835  12.171   7.638
59660SOL    HW179004  10.772  12.095   7.651
59660SOL    HW279005  10.883  12.189   7.724
59661SOL     OW79006   9.627  11.423   9.249
59661SOL    HW179007   9.698  11.494   9.255
59661SOL    HW279008   9.539  11.462   9.277
59662SOL     OW79009  10.776  12.589   8.401
59662SOL    HW179010  10.717  12.595   8.481
59662SOL    HW279011  10.761  12.501   8.355
59663SOL     OW79012   9.908  11.901   7.718
59663SOL    HW179013   9.932  11.970   7.650
59663SOL    HW279014   9.830  11.934   7.772
59664SOL     OW79015  10.591  11.517   8.392
59664SOL    HW179016  10.505  11.467   8.379
59664SOL    HW279017  10.653  11.463   8.448
59665SOL     OW79018  10.886  12.834   7.755
59665SOL    HW179019  10.975  12.880   7.758
59665SOL    HW279020  10.865  12.810   7.660
59666SOL     OW79021  10.117  11.777   8.913
59666SOL    HW179022  10.070  11.774   9.002
59666SOL    HW279023  10.066  11.722   8.847
59667SOL     OW79024  10.704  11.641   9.122
59667SOL    HW179025  10.684  11.684   9.210
59667SOL    HW279026  10.782  11.579   9.131
59668SOL     OW79027  10.283  12.062   9.020
59668SOL    HW179028  10.329  11.978   8.991
59668SOL    HW279029  10.227  12.096   8.945
59669SOL     OW79030  10.301  11.582   8.690
59669SOL    HW179031  10.224  11.616   8.744
59669SOL    HW279032  10.267  11.531   8.611
59670SOL     OW79033  10.351  11.873   7.877
59670SOL    HW179034  10.377  11.869   7.973
59670SOL    HW279035  10.266  11.822   7.863
59671SOL     OW79036   9.386  11.983   8.237
59671SOL    HW179037   9.485  11.971   8.246
59671SOL    HW279038   9.362  12.078   8.258
59672SOL     OW79039  10.175  11.520   7.643
59672SOL    HW179040  10.234  11.583   7.594
59672SOL    HW279041  10.194  11.426   7.614
59673SOL     OW79042  11.029  11.757   9.279
59673SOL    HW179043  11.003  11.846   9.243
59673SOL    HW279044  11.027  11.689   9.206
59674SOL     OW79045  10.672  12.316   7.993
59674SOL    HW179046  10.755  12.287   7.945
59674SOL    HW279047  10.623  12.383   7.937
59675SOL     OW79048   9.860  11.368   8.333
59675SOL    HW179049   9.855  11.363   8.433
59675SOL    HW279050   9.862  11.464   8.304
59676SOL     OW79051  10.318  12.628   7.925
59676SOL    HW179052  10.272  12.700   7.873
59676SOL    HW279053  10.314  12.648   8.023
59677SOL     OW79054  11.105  12.238   8.321
59677SOL    HW179055  11.043  12.223   8.245
59677SOL    HW279056  11.053  12.249   8.406
59678SOL     OW79057  10.537  12.722   8.954
59678SOL    HW179058  10.543  12.645   9.018
59678SOL    HW279059  10.485  12.696   8.874
59679SOL     OW79060   9.631  12.115   7.690
59679SOL    HW179061   9.713  12.154   7.648
59679SOL    HW279062   9.604  12.033   7.641
59680SOL     OW79063  10.768  11.907   8.176
59680SOL    HW179064  10.763  11.842   8.251
59680SOL    HW279065  10.848  11.966   8.189
59681SOL     OW79066   9.771  12.438   9.175
59681SOL    HW179067   9.721  12.439   9.089
59681SOL    HW279068   9.708  12.420   9.251
59682SOL     OW79069   9.512  11.457   8.946
59682SOL    HW179070   9.432  11.517   8.933
59682SOL    HW279071   9.502  11.408   9.032
59683SOL     OW79072  10.942  12.549   7.529
59683SOL    HW179073  10.910  12.643   7.519
59683SOL    HW279074  10.866  12.486   7.517
59684SOL     OW79075  10.710  11.279   7.874
59684SOL    HW179076  10.686  11.242   7.784
59684SOL    HW279077  10.809  11.295   7.878
59685SOL     OW79078   9.692  11.872   7.928
59685SOL    HW179079   9.737  11.782   7.925
59685SOL    HW279080   9.598  11.861   7.961
59686SOL     OW79081  10.857  11.394   9.177
59686SOL    HW179082  10.852  11.431   9.269
59686SOL    HW279083  10.785  11.325   9.165
59687SOL     OW79084   9.924  11.294   7.565
59687SOL    HW179085  10.022  11.272   7.572
59687SOL    HW279086   9.893  11.277   7.472
59688SOL     OW79087  10.091  11.436   9.197
59688SOL    HW179088  10.158  11.375   9.240
59688SOL    HW279089  10.018  11.455   9.262
59689SOL     OW79090  10.661  11.762   8.881
59689SOL    HW179091  10.689  11.719   8.966
59689SOL    HW279092  10.686  11.858   8.882
59690SOL     OW79093  10.113  12.574   8.372
59690SOL    HW179094  10.203  12.588   8.330
59690SOL    HW279095  10.042  12.576   8.301
59691SOL     OW79096  10.232  11.675   8.347
59691SOL    HW179097  10.207  11.666   8.251
59691SOL    HW279098  10.280  11.593   8.378
59692SOL     OW79099   9.849  11.236   7.960
59692SOL    HW179100   9.768  11.237   8.018
59692SOL    HW279101   9.852  11.319   7.905
59693SOL     OW79102  10.744  12.360   7.489
59693SOL    HW179103  10.776  12.284   7.546
59693SOL    HW279104  10.652  12.387   7.519
59694SOL     OW79105   9.607  11.207   7.619
59694SOL    HW179106   9.656  11.291   7.598
59694SOL    HW279107   9.669  11.142   7.664
59695SOL     OW79108  10.245  11.408   7.928
59695SOL    HW179109  10.197  11.449   7.850
59695SOL    HW279110  10.344  11.406   7.909
59696SOL     OW79111  10.386  11.855   8.912
59696SOL    HW179112  10.306  11.794   8.915
59696SOL    HW279113  10.467  11.802   8.888
59697SOL     OW79114  10.537  12.742   8.241
59697SOL    HW179115  10.558  12.816   8.176
59697SOL    HW279116  10.605  12.742   8.314
59698SOL     OW79117   9.769  12.324   8.189
59698SOL    HW179118   9.698  12.297   8.254
59698SOL    HW279119   9.743  12.296   8.096
59699SOL     OW79120  10.342  11.721   7.464
59699SOL    HW179121  10.301  11.803   7.425
59699SOL    HW279122  10.406  11.747   7.537
59700SOL     OW79123   9.388  11.728   8.834
59700SOL    HW179124   9.480  11.727   8.793
59700SOL    HW279125   9.382  11.802   8.901
59701SOL     OW79126   9.871  11.394   8.595
59701SOL    HW179127   9.909  11.310   8.632
59701SOL    HW279128   9.783  11.413   8.639
59702SOL     OW79129  10.176  11.626   8.090
59702SOL    HW179130  10.144  11.698   8.028
59702SOL    HW279131  10.200  11.545   8.037
59703SOL     OW79132  10.327  11.211   8.201
59703SOL    HW179133  10.255  11.216   8.132
59703SOL    HW279134  10.303  11.142   8.270
59704SOL     OW79135  10.739  12.345   8.315
59704SOL    HW179136  10.684  12.261   8.308
59704SOL    HW279137  10.765  12.374   8.223
59705SOL     OW79138  10.776  11.762   8.440
59705SOL    HW179139  10.746  11.667   8.447
59705SOL    HW279140  10.849  11.778   8.506
59706SOL     OW79141  11.167  12.005   7.825
59706SOL    HW179142  11.209  11.941   7.889
59706SOL    HW279143  11.129  11.954   7.747
59707SOL     OW79144   9.798  12.557   7.622
59707SOL    HW179145   9.711  12.542   7.669
59707SOL    HW279146   9.781  12.583   7.527
59708SOL     OW79147  10.974  12.452   8.105
59708SOL    HW179148  11.073  12.460   8.119
59708SOL    HW279149  10.929  12.536   8.136
59709SOL     OW79150  10.700  11.747   7.526
59709SOL    HW179151  10.646  11.726   7.607
59709SOL    HW279152  10.791  11.706   7.535
59710SOL     OW79153   9.837  11.428   7.776
59710SOL    HW179154   9.864  11.369   7.701
59710SOL    HW279155   9.837  11.523   7.745
59711SOL     OW79156  11.064  12.395   9.036
59711SOL    HW179157  11.155  12.356   9.023
59711SOL    HW279158  11.072  12.491   9.060
59712SOL     OW79159  10.374  12.519   8.788
59712SOL    HW179160  10.294  12.496   8.843
59712SOL    HW279161  10.457  12.493   8.837
59713SOL     OW79162  10.421  12.367   8.548
59713SOL    HW179163  10.381  12.411   8.629
59713SOL    HW279164  10.380  12.404   8.465
59714SOL     OW79165  10.948  12.271   8.527
59714SOL    HW179166  10.953  12.352   8.586
59714SOL    HW279167  10.862  12.273   8.476
59715SOL     OW79168  10.225  11.261   8.850
59715SOL    HW179169  10.250  11.241   8.755
59715SOL    HW279170  10.297  11.317   8.892
59716SOL     OW79171  10.290  12.288   9.167
59716SOL    HW179172  10.191  12.294   9.177
59716SOL    HW279173  10.313  12.208   9.111
59717SOL     OW79174  10.015  12.222   7.816
59717SOL    HW179175  10.001  12.229   7.915
59717SOL    HW279176  10.099  12.171   7.798
59718SOL     OW79177   9.720  11.985   8.699
59718SOL    HW179178   9.806  11.997   8.749
59718SOL    HW279179   9.678  11.898   8.726
59719SOL     OW79180  10.584  11.558   8.710
59719SOL    HW179181  10.605  11.632   8.774
59719SOL    HW279182  10.495  11.575   8.667
59720SOL     OW79183   9.374  12.736   8.779
59720SOL    HW179184   9.328  12.818   8.745
59720SOL    HW279185   9.472  12.755   8.788
59721SOL     OW79186   9.677  12.272   7.949
59721SOL    HW179187   9.670  12.355   7.893
59721SOL    HW279188   9.681  12.192   7.889
59722SOL     OW79189   9.876  11.709   8.313
59722SOL    HW179190   9.888  11.775   8.239
59722SOL    HW279191   9.922  11.743   8.396
59723SOL     OW79192  10.562  12.520   7.836
59723SOL    HW179193  10.612  12.597   7.876
59723SOL    HW279194  10.467  12.522   7.868
59724SOL     OW79195  10.582  12.617   8.590
59724SOL    HW179196  10.629  12.630   8.677
59724SOL    HW279197  10.516  12.543   8.599
59725SOL     OW79198  10.892  11.811   7.920
59725SOL    HW179199  10.861  11.872   7.993
59725SOL    HW279200  10.942  11.863   7.851
59726SOL     OW79201   9.664  12.682   8.777
59726SOL    HW179202   9.643  12.638   8.690
59726SOL    HW279203   9.761  12.708   8.780
59727SOL     OW79204   9.712  11.923   9.046
59727SOL    HW179205   9.780  11.978   8.999
59727SOL    HW279206   9.752  11.835   9.073
59728SOL     OW79207  10.897  11.951   9.118
59728SOL    HW179208  10.805  11.989   9.113
59728SOL    HW279209  10.957  11.998   9.053
59729SOL     OW79210  10.323  11.277   9.218
59729SOL    HW179211  10.329  11.362   9.166
59729SOL    HW279212  10.355  11.201   9.161
59730SOL     OW79213   9.814  11.222   9.188
59730SOL    HW179214   9.772  11.165   9.118
59730SOL    HW279215   9.748  11.291   9.220
59731SOL     OW79216   9.883  12.042   8.477
59731SOL    HW179217   9.927  12.131   8.468
59731SOL    HW279218   9.820  12.042   8.554
59732SOL     OW79219  10.670  12.034   8.493
59732SOL    HW179220  10.595  12.034   8.427
59732SOL    HW279221  10.707  11.942   8.502
59733SOL     OW79222  10.519  11.697   7.723
59733SOL    HW179223  10.532  11.613   7.777
59733SOL    HW279224  10.490  11.771   7.783
59734SOL     OW79225   9.617  11.385   8.679
59734SOL    HW179226   9.594  11.422   8.769
59734SOL    HW279227   9.587  11.290   8.673
59735SOL     OW79228   9.347  12.482   8.730
59735SOL    HW179229   9.400  12.433   8.798
59735SOL    HW279230   9.369  12.580   8.735
59736SOL     OW79231  10.042  11.806   8.512
59736SOL    HW179232  10.101  11.780   8.436
59736SOL    HW279233  10.014  11.902   8.501
59737SOL     OW79234  11.038  12.107   9.302
59737SOL    HW179235  10.992  12.100   9.213
59737SOL    HW279236  10.976  12.151   9.368
59738SOL     OW79237   9.617  11.235   8.066
59738SOL    HW179238   9.606  11.329   8.099
59738SOL    HW279239   9.612  11.172   8.143
59739SOL     OW79240  10.932  11.539   7.822
59739SOL    HW179241  10.934  11.463   7.886
59739SOL    HW279242  10.884  11.616   7.862
59740SOL     OW79243  10.333  11.938   8.414
59740SOL    HW179244  10.348  11.959   8.510
59740SOL    HW279245  10.303  11.843   8.405
59741SOL     OW79246  11.169  12.690   9.053
59741SOL    HW179247  11.183  12.717   8.958
59741SOL    HW279248  11.252  12.712   9.106
59742SOL     OW79249   9.660  12.070   9.252
59742SOL    HW179250   9.736  12.114   9.300
59742SOL    HW279251   9.695  12.023   9.170
59743SOL     OW79252  10.850  11.446   7.573
59743SOL    HW179253  10.789  11.371   7.596
59743SOL    HW279254  10.872  11.498   7.656
59744SOL     OW79255  10.613  12.010   7.490
59744SOL    HW179256  10.647  11.917   7.505
59744SOL    HW279257  10.631  12.037   7.395
59745SOL     OW79258  10.378  12.505   8.297
59745SOL    HW179259  10.385  12.421   8.242
59745SOL    HW279260  10.440  12.574   8.261
59746SOL     OW79261   9.629  11.982   8.397
59746SOL    HW179262   9.722  12.018   8.402
59746SOL    HW279263   9.623  11.897   8.449
59747SOL     OW79264   9.649  11.681   8.454
59747SOL    HW179265   9.597  11.598   8.437
59747SOL    HW279266   9.726  11.686   8.390
59748SOL     OW79267  10.448  11.552   9.126
59748SOL    HW179268  10.403  11.615   9.190
59748SOL    HW279269  10.541  11.583   9.109
59749SOL     OW79270  10.470  11.379   8.925
59749SOL    HW179271  10.470  11.443   9.002
59749SOL    HW279272  10.498  11.427   8.842
59750SOL     OW79273   9.318  12.498   7.648
59750SOL    HW179274   9.225  12.519   7.617
59750SOL    HW279275   9.328  12.399   7.661
59751SOL     OW79276   9.814  12.740   8.358
59751SOL    HW179277   9.880  12.814   8.367
59751SOL    HW279278   9.858  12.661   8.316
59752SOL     OW79279  10.312  11.968   8.686
59752SOL    HW179280  10.353  11.936   8.772
59752SOL    HW279281  10.216  11.941   8.683
59753SOL     OW79282   9.350  11.716   8.562
59753SOL    HW179283   9.435  11.683   8.521
59753SOL    HW279284   9.363  11.731   8.660
59754SOL     OW79285   9.499  11.692   9.170
59754SOL    HW179286   9.558  11.652   9.100
59754SOL    HW279287   9.441  11.763   9.129
59755SOL     OW79288  10.679  12.122   9.108
59755SOL    HW179289  10.718  12.211   9.128
59755SOL    HW279290  10.689  12.102   9.011
59756SOL     OW79291  10.125  11.744   7.773
59756SOL    HW179292  10.132  11.655   7.727
59756SOL    HW279293  10.031  11.778   7.765
59757SOL     OW79294  10.967  11.776   8.654
59757SOL    HW179295  10.929  11.707   8.716
59757SOL    HW279296  11.049  11.740   8.610
59758SOL     OW79297   9.562  12.736   9.192
59758SOL    HW179298   9.532  12.793   9.268
59758SOL    HW279299   9.555  12.639   9.218
59759SOL     OW79300   9.981  11.636   8.717
59759SOL    HW179301   9.947  11.547   8.687
59759SOL    HW279302  10.007  11.690   8.637
59760SOL     OW79303   9.783  11.672   7.639
59760SOL    HW179304   9.844  11.752   7.643
59760SOL    HW279305   9.688  11.703   7.646
59761SOL     OW79306   9.469  12.309   8.914
59761SOL    HW179307   9.491  12.248   8.990
59761SOL    HW279308   9.479  12.260   8.828
59762SOL     OW79309  10.657  12.231   8.682
59762SOL    HW179310  10.681  12.168   8.608
59762SOL    HW279311  10.567  12.271   8.664
59763SOL     OW79312  10.612  12.027   7.757
59763SOL    HW179313  10.526  11.996   7.799
59763SOL    HW279314  10.608  12.013   7.658
59764SOL     OW79315  10.562  12.903   8.576
59764SOL    HW179316  10.646  12.908   8.522
59764SOL    HW279317  10.539  12.807   8.594
59765SOL     OW79318   9.393  12.430   8.470
59765SOL    HW179319   9.388  12.429   8.570
59765SOL    HW279320   9.310  12.389   8.432
59766SOL     OW79321  11.036  11.307   7.971
59766SOL    HW179322  11.109  11.290   7.904
59766SOL    HW279323  11.005  11.220   8.009
59767SOL     OW79324   9.440  12.966   9.299
59767SOL    HW179325   9.399  12.892   9.352
59767SOL    HW279326   9.504  13.017   9.357
59768SOL     OW79327  10.590  12.099   8.120
59768SOL    HW179328  10.650  12.018   8.122
59768SOL    HW279329  10.630  12.168   8.060
59769SOL     OW79330  10.140  12.445   8.870
59769SOL    HW179331  10.135  12.478   8.965
59769SOL    HW279332  10.054  12.464   8.824
59770SOL     OW79333   9.982  12.788   7.602
59770SOL    HW179334   9.991  12.798   7.503
59770SOL    HW279335   9.942  12.699   7.623
59771SOL     OW79336  11.151  11.347   8.411
59771SOL    HW179337  11.190  11.262   8.375
59771SOL    HW279338  11.053  11.349   8.392
59772SOL     OW79339   9.573  11.498   8.168
59772SOL    HW179340   9.494  11.549   8.134
59772SOL    HW279341   9.564  11.483   8.266
59773SOL     OW79342  10.504  12.784   7.479
59773SOL    HW179343  10.510  12.691   7.516
59773SOL    HW279344  10.445  12.784   7.399
59774SOL     OW79345  10.132  12.174   8.820
59774SOL    HW179346  10.172  12.173   8.728
59774SOL    HW279347  10.142  12.266   8.860
59775SOL     OW79348  10.226  12.082   7.739
59775SOL    HW179349  10.289  12.120   7.671
59775SOL    HW279350  10.266  11.999   7.778
59776SOL     OW79351   9.682  12.460   8.938
59776SOL    HW179352   9.669  12.553   8.904
59776SOL    HW279353   9.598  12.408   8.925
59777SOL     OW79354  10.924  12.464   8.737
59777SOL    HW179355  10.984  12.467   8.817
59777SOL    HW279356  10.849  12.528   8.750
59778SOL     OW79357  10.349  12.270   8.144
59778SOL    HW179358  10.279  12.223   8.198
59778SOL    HW279359  10.408  12.202   8.101
59779SOL     OW79360  10.324  11.408   8.419
59779SOL    HW179361  10.316  11.372   8.326
59779SOL    HW279362  10.322  11.332   8.484
59780SOL     OW79363   9.900  12.659   7.939
59780SOL    HW179364   9.942  12.601   7.869
59780SOL    HW279365   9.856  12.738   7.895
59781SOL     OW79366  11.019  11.557   8.829
59781SOL    HW179367  11.092  11.626   8.833
59781SOL    HW279368  11.047  11.482   8.770
59782SOL     OW79369   9.565  12.520   7.738
59782SOL    HW179370   9.469  12.521   7.711
59782SOL    HW279371   9.577  12.573   7.822
59783SOL     OW79372   9.415  12.185   9.174
59783SOL    HW179373   9.338  12.152   9.228
59783SOL    HW279374   9.500  12.155   9.216
59784SOL     OW79375   9.982  11.375   8.937
59784SOL    HW179376  10.072  11.359   8.897
59784SOL    HW279377   9.990  11.380   9.036
59785SOL     OW79378   9.385  11.517   7.481
59785SOL    HW179379   9.293  11.489   7.452
59785SOL    HW279380   9.416  11.594   7.425
59786SOL     OW79381  10.750  12.028   8.846
59786SOL    HW179382  10.693  12.080   8.783
59786SOL    HW279383  10.846  12.040   8.822
59787SOL     OW79384   9.382  11.338   7.766
59787SOL    HW179385   9.365  11.421   7.712
59787SOL    HW279386   9.472  11.301   7.744
59788SOL     OW79387  10.493  12.507   7.567
59788SOL    HW179388  10.394  12.496   7.569
59788SOL    HW279389  10.527  12.522   7.660
59789SOL     OW79390   9.923  12.014   8.879
59789SOL    HW179391   9.979  12.095   8.862
59789SOL    HW279392   9.982  11.934   8.882
59790SOL     OW79393  10.026  11.737   9.156
59790SOL    HW179394  10.045  11.802   9.230
59790SOL    HW279395  10.086  11.657   9.165
59791SOL     OW79396  10.760  12.392   9.081
59791SOL    HW179397  10.751  12.382   9.180
59791SOL    HW279398  10.856  12.385   9.055
59792SOL     OW79399  10.984  12.055   8.702
59792SOL    HW179400  10.957  11.966   8.665
59792SOL    HW279401  10.985  12.123   8.629
59793SOL     OW79402  10.535  11.497   7.897
59793SOL    HW179403  10.600  11.423   7.886
59793SOL    HW279404  10.555  11.547   7.981
59794SOL     OW79405   9.904  11.917   8.100
59794SOL    HW179406   9.954  12.002   8.081
59794SOL    HW279407   9.816  11.919   8.052
59795SOL     OW79408  11.087  11.514   9.090
59795SOL    HW179409  11.070  11.545   8.996
59795SOL    HW279410  11.003  11.477   9.128
59796SOL     OW79411  11.040  12.106   8.965
59796SOL    HW179412  11.078  12.197   8.980
59796SOL    HW279413  11.032  12.089   8.866
59797SOL     OW79414  10.169  12.546   7.464
59797SOL    HW179415  10.123  12.561   7.552
59797SOL    HW279416  10.213  12.631   7.434
59798SOL     OW79417  10.169  12.128   8.309
59798SOL    HW179418  10.223  12.059   8.357
59798SOL    HW279419  10.137  12.197   8.375
59799SOL     OW79420  10.393  12.156   7.535
59799SOL    HW179421  10.370  12.209   7.453
59799SOL    HW279422  10.474  12.100   7.516
59800SOL     OW79423  11.171  12.741   8.299
59800SOL    HW179424  11.100  12.729   8.229
59800SOL    HW279425  11.172  12.662   8.359
59801SOL     OW79426   9.531  12.486   9.292
59801SOL    HW179427   9.466  12.413   9.271
59801SOL    HW279428   9.535  12.500   9.390
59802SOL     OW79429   9.389  12.412   8.101
59802SOL    HW179430   9.388  12.365   8.189
59802SOL    HW279431   9.471  12.384   8.050
59803SOL     OW79432   9.982  12.563   9.072
59803SOL    HW179433   9.904  12.513   9.110
59803SOL    HW279434   9.979  12.658   9.103
59804SOL     OW79435  11.134  11.364   8.675
59804SOL    HW179436  11.130  11.274   8.719
59804SOL    HW279437  11.137  11.353   8.576
59805SOL     OW79438   9.738  11.596   7.968
59805SOL    HW179439   9.768  11.524   7.906
59805SOL    HW279440   9.699  11.556   8.051
59806SOL     OW79441  11.015  12.659   8.552
59806SOL    HW179442  10.922  12.634   8.525
59806SOL    HW279443  11.041  12.609   8.634
59807SOL     OW79444   9.627  11.719   8.728
59807SOL    HW179445   9.665  11.660   8.800
59807SOL    HW279446   9.667  11.693   8.640
59808SOL     OW79447  10.734  11.386   8.560
59808SOL    HW179448  10.786  11.321   8.615
59808SOL    HW279449  10.685  11.449   8.621
59809SOL     OW79450  10.311  11.206   8.602
59809SOL    HW179451  10.248  11.134   8.571
59809SOL    HW279452  10.404  11.170   8.602
59810SOL     OW79453  10.080  12.502   7.749
59810SOL    HW179454  10.034  12.415   7.766
59810SOL    HW279455  10.171  12.499   7.790
59811SOL     OW79456   9.928  12.739   8.732
59811SOL    HW179457   9.923  12.821   8.789
59811SOL    HW279458  10.017  12.736   8.687
59812SOL     OW79459  10.662  11.224   7.616
59812SOL    HW179460  10.697  11.183   7.532
59812SOL    HW279461  10.572  11.186   7.636
59813SOL     OW79462  10.610  11.625   8.139
59813SOL    HW179463  10.551  11.705   8.143
59813SOL    HW279464  10.625  11.590   8.232
59814SOL     OW79465  10.903  11.393   8.330
59814SOL    HW179466  10.819  11.392   8.384
59814SOL    HW279467  10.905  11.476   8.274
59815SOL     OW79468   9.349  12.249   7.748
59815SOL    HW179469   9.448  12.238   7.739
59815SOL    HW279470   9.309  12.163   7.780
59816SOL     OW79471   9.540  11.800   9.423
59816SOL    HW179472   9.447  11.798   9.460
59816SOL    HW279473   9.541  11.761   9.331
59817SOL     OW79474   9.535  11.447  10.306
59817SOL    HW179475   9.570  11.430  10.398
59817SOL    HW279476   9.447  11.402  10.294
59818SOL     OW79477   9.329  11.540   9.957
59818SOL    HW179478   9.247  11.583   9.996
59818SOL    HW279479   9.301  11.467   9.894
59819SOL     OW79480   9.879  12.447  10.475
59819SOL    HW179481   9.786  12.440  10.438
59819SOL    HW279482   9.890  12.536  10.519
59820SOL     OW79483  10.865  12.683  10.013
59820SOL    HW179484  10.808  12.667  10.094
59820SOL    HW279485  10.806  12.693   9.933
59821SOL     OW79486  10.445  11.875  10.027
59821SOL    HW179487  10.502  11.953  10.002
59821SOL    HW279488  10.385  11.901  10.103
59822SOL     OW79489  11.065  11.779   9.541
59822SOL    HW179490  11.053  11.766   9.442
59822SOL    HW279491  11.035  11.698   9.590
59823SOL     OW79492  10.078  12.316  10.333
59823SOL    HW179493  10.000  12.333  10.393
59823SOL    HW279494  10.112  12.403  10.297
59824SOL     OW79495  10.160  11.970  11.133
59824SOL    HW179496  10.156  12.046  11.198
59824SOL    HW279497  10.182  12.006  11.042
59825SOL     OW79498   9.995  12.184   9.975
59825SOL    HW179499  10.064  12.168  10.045
59825SOL    HW279500   9.922  12.241  10.013
59826SOL     OW79501   9.996  12.333  11.113
59826SOL    HW179502  10.056  12.412  11.127
59826SOL    HW279503   9.910  12.364  11.072
59827SOL     OW79504   9.645  12.607  10.371
59827SOL    HW179505   9.567  12.576  10.318
59827SOL    HW279506   9.703  12.665  10.314
59828SOL     OW79507  10.770  12.677  10.649
59828SOL    HW179508  10.794  12.771  10.675
59828SOL    HW279509  10.754  12.623  10.731
59829SOL     OW79510   9.748  11.564  10.809
59829SOL    HW179511   9.830  11.508  10.818
59829SOL    HW279512   9.667  11.506  10.813
59830SOL     OW79513  10.913  11.619  10.047
59830SOL    HW179514  10.839  11.665   9.997
59830SOL    HW279515  10.964  11.687  10.100
59831SOL     OW79516  10.437  12.513  11.000
59831SOL    HW179517  10.484  12.513  11.088
59831SOL    HW279518  10.389  12.426  10.989
59832SOL     OW79519   9.540  12.606   9.848
59832SOL    HW179520   9.514  12.702   9.848
59832SOL    HW279521   9.469  12.552   9.893
59833SOL     OW79522   9.550  12.263  10.196
59833SOL    HW179523   9.564  12.179  10.248
59833SOL    HW279524   9.495  12.327  10.251
59834SOL     OW79525   9.916  12.136   9.433
59834SOL    HW179526   9.923  12.220   9.379
59834SOL    HW279527   9.962  12.149   9.521
59835SOL     OW79528  10.904  11.286  10.790
59835SOL    HW179529  10.886  11.353  10.718
59835SOL    HW279530  10.901  11.332  10.879
59836SOL     OW79531   9.432  11.815   9.873
59836SOL    HW179532   9.387  11.727   9.890
59836SOL    HW279533   9.431  11.869   9.957
59837SOL     OW79534   9.337  12.768   9.427
59837SOL    HW179535   9.318  12.672   9.448
59837SOL    HW279536   9.304  12.826   9.502
59838SOL     OW79537  10.999  12.094   9.922
59838SOL    HW179538  11.094  12.065   9.930
59838SOL    HW279539  10.991  12.159   9.847
59839SOL     OW79540  10.951  12.280   9.742
59839SOL    HW179541  11.037  12.282   9.690
59839SOL    HW279542  10.965  12.327   9.830
59840SOL     OW79543   9.423  11.909  10.907
59840SOL    HW179544   9.511  11.896  10.952
59840SOL    HW279545   9.410  12.006  10.885
59841SOL     OW79546   9.923  12.537  10.036
59841SOL    HW179547   9.874  12.450  10.045
59841SOL    HW279548   9.900  12.580   9.949
59842SOL     OW79549  10.603  12.400  10.733
59842SOL    HW179550  10.640  12.327  10.675
59842SOL    HW279551  10.655  12.405  10.818
59843SOL     OW79552  10.119  11.176   9.812
59843SOL    HW179553  10.159  11.267   9.803
59843SOL    HW279554  10.019  11.184   9.818
59844SOL     OW79555   9.507  12.148  10.574
59844SOL    HW179556   9.596  12.103  10.560
59844SOL    HW279557   9.434  12.083  10.555
59845SOL     OW79558  10.835  12.171   9.500
59845SOL    HW179559  10.772  12.095   9.513
59845SOL    HW279560  10.883  12.189   9.586
59846SOL     OW79561   9.627  11.423  11.111
59846SOL    HW179562   9.698  11.494  11.117
59846SOL    HW279563   9.539  11.462  11.139
59847SOL     OW79564  10.776  12.589  10.263
59847SOL    HW179565  10.717  12.595  10.343
59847SOL    HW279566  10.761  12.501  10.217
59848SOL     OW79567   9.908  11.901   9.580
59848SOL    HW179568   9.932  11.970   9.512
59848SOL    HW279569   9.830  11.934   9.634
59849SOL     OW79570  10.591  11.517  10.254
59849SOL    HW179571  10.505  11.467  10.241
59849SOL    HW279572  10.653  11.463  10.310
59850SOL     OW79573  10.886  12.834   9.617
59850SOL    HW179574  10.975  12.880   9.620
59850SOL    HW279575  10.865  12.810   9.522
59851SOL     OW79576  10.117  11.777  10.775
59851SOL    HW179577  10.070  11.774  10.864
59851SOL    HW279578  10.066  11.722  10.709
59852SOL     OW79579  10.704  11.641  10.984
59852SOL    HW179580  10.684  11.684  11.072
59852SOL    HW279581  10.782  11.579  10.993
59853SOL     OW79582  10.283  12.062  10.882
59853SOL    HW179583  10.329  11.978  10.853
59853SOL    HW279584  10.227  12.096  10.807
59854SOL     OW79585  10.301  11.582  10.552
59854SOL    HW179586  10.224  11.616  10.606
59854SOL    HW279587  10.267  11.531  10.473
59855SOL     OW79588  10.351  11.873   9.739
59855SOL    HW179589  10.377  11.869   9.835
59855SOL    HW279590  10.266  11.822   9.725
59856SOL     OW79591   9.386  11.983  10.099
59856SOL    HW179592   9.485  11.971  10.108
59856SOL    HW279593   9.362  12.078  10.120
59857SOL     OW79594  10.175  11.520   9.505
59857SOL    HW179595  10.234  11.583   9.456
59857SOL    HW279596  10.194  11.426   9.476
59858SOL     OW79597  11.029  11.757  11.141
59858SOL    HW179598  11.003  11.846  11.105
59858SOL    HW279599  11.027  11.689  11.068
59859SOL     OW79600  10.672  12.316   9.855
59859SOL    HW179601  10.755  12.287   9.807
59859SOL    HW279602  10.623  12.383   9.799
59860SOL     OW79603   9.860  11.368  10.195
59860SOL    HW179604   9.855  11.363  10.295
59860SOL    HW279605   9.862  11.464  10.166
59861SOL     OW79606  10.318  12.628   9.787
59861SOL    HW179607  10.272  12.700   9.735
59861SOL    HW279608  10.314  12.648   9.885
59862SOL     OW79609  11.105  12.238  10.183
59862SOL    HW179610  11.043  12.223  10.107
59862SOL    HW279611  11.053  12.249  10.268
59863SOL     OW79612  10.537  12.722  10.816
59863SOL    HW179613  10.543  12.645  10.880
59863SOL    HW279614  10.485  12.696  10.736
59864SOL     OW79615   9.631  12.115   9.552
59864SOL    HW179616   9.713  12.154   9.510
59864SOL    HW279617   9.604  12.033   9.503
59865SOL     OW79618  10.768  11.907  10.038
59865SOL    HW179619  10.763  11.842  10.113
59865SOL    HW279620  10.848  11.966  10.051
59866SOL     OW79621   9.771  12.438  11.037
59866SOL    HW179622   9.721  12.439  10.951
59866SOL    HW279623   9.708  12.420  11.113
59867SOL     OW79624   9.512  11.457  10.808
59867SOL    HW179625   9.432  11.517  10.795
59867SOL    HW279626   9.502  11.408  10.894
59868SOL     OW79627  10.942  12.549   9.391
59868SOL    HW179628  10.910  12.643   9.381
59868SOL    HW279629  10.866  12.486   9.379
59869SOL     OW79630  10.710  11.279   9.736
59869SOL    HW179631  10.686  11.242   9.646
59869SOL    HW279632  10.809  11.295   9.740
59870SOL     OW79633   9.692  11.872   9.790
59870SOL    HW179634   9.737  11.782   9.787
59870SOL    HW279635   9.598  11.861   9.823
59871SOL     OW79636  10.857  11.394  11.039
59871SOL    HW179637  10.852  11.431  11.131
59871SOL    HW279638  10.785  11.325  11.027
59872SOL     OW79639   9.924  11.294   9.427
59872SOL    HW179640  10.022  11.272   9.434
59872SOL    HW279641   9.893  11.277   9.334
59873SOL     OW79642  10.091  11.436  11.059
59873SOL    HW179643  10.158  11.375  11.102
59873SOL    HW279644  10.018  11.455  11.124
59874SOL     OW79645  10.661  11.762  10.743
59874SOL    HW179646  10.689  11.719  10.828
59874SOL    HW279647  10.686  11.858  10.744
59875SOL     OW79648  10.113  12.574  10.234
59875SOL    HW179649  10.203  12.588  10.192
59875SOL    HW279650  10.042  12.576  10.163
59876SOL     OW79651  10.232  11.675  10.209
59876SOL    HW179652  10.207  11.666  10.113
59876SOL    HW279653  10.280  11.593  10.240
59877SOL     OW79654   9.849  11.236   9.822
59877SOL    HW179655   9.768  11.237   9.880
59877SOL    HW279656   9.852  11.319   9.767
59878SOL     OW79657  10.744  12.360   9.351
59878SOL    HW179658  10.776  12.284   9.408
59878SOL    HW279659  10.652  12.387   9.381
59879SOL     OW79660   9.607  11.207   9.481
59879SOL    HW179661   9.656  11.291   9.460
59879SOL    HW279662   9.669  11.142   9.526
59880SOL     OW79663  10.245  11.408   9.790
59880SOL    HW179664  10.197  11.449   9.712
59880SOL    HW279665  10.344  11.406   9.771
59881SOL     OW79666  10.386  11.855  10.774
59881SOL    HW179667  10.306  11.794  10.777
59881SOL    HW279668  10.467  11.802  10.750
59882SOL     OW79669  10.537  12.742  10.103
59882SOL    HW179670  10.558  12.816  10.038
59882SOL    HW279671  10.605  12.742  10.176
59883SOL     OW79672   9.769  12.324  10.051
59883SOL    HW179673   9.698  12.297  10.116
59883SOL    HW279674   9.743  12.296   9.958
59884SOL     OW79675  10.342  11.721   9.326
59884SOL    HW179676  10.301  11.803   9.287
59884SOL    HW279677  10.406  11.747   9.399
59885SOL     OW79678   9.388  11.728  10.696
59885SOL    HW179679   9.480  11.727  10.655
59885SOL    HW279680   9.382  11.802  10.763
59886SOL     OW79681   9.871  11.394  10.457
59886SOL    HW179682   9.909  11.310  10.494
59886SOL    HW279683   9.783  11.413  10.501
59887SOL     OW79684  10.176  11.626   9.952
59887SOL    HW179685  10.144  11.698   9.890
59887SOL    HW279686  10.200  11.545   9.899
59888SOL     OW79687  10.327  11.211  10.063
59888SOL    HW179688  10.255  11.216   9.994
59888SOL    HW279689  10.303  11.142  10.132
59889SOL     OW79690  10.739  12.345  10.177
59889SOL    HW179691  10.684  12.261  10.170
59889SOL    HW279692  10.765  12.374  10.085
59890SOL     OW79693  10.776  11.762  10.302
59890SOL    HW179694  10.746  11.667  10.309
59890SOL    HW279695  10.849  11.778  10.368
59891SOL     OW79696  11.167  12.005   9.687
59891SOL    HW179697  11.209  11.941   9.751
59891SOL    HW279698  11.129  11.954   9.609
59892SOL     OW79699   9.798  12.557   9.484
59892SOL    HW179700   9.711  12.542   9.531
59892SOL    HW279701   9.781  12.583   9.389
59893SOL     OW79702  10.974  12.452   9.967
59893SOL    HW179703  11.073  12.460   9.981
59893SOL    HW279704  10.929  12.536   9.998
59894SOL     OW79705  10.700  11.747   9.388
59894SOL    HW179706  10.646  11.726   9.469
59894SOL    HW279707  10.791  11.706   9.397
59895SOL     OW79708   9.837  11.428   9.638
59895SOL    HW179709   9.864  11.369   9.563
59895SOL    HW279710   9.837  11.523   9.607
59896SOL     OW79711  11.064  12.395  10.898
59896SOL    HW179712  11.155  12.356  10.885
59896SOL    HW279713  11.072  12.491  10.922
59897SOL     OW79714  10.374  12.519  10.650
59897SOL    HW179715  10.294  12.496  10.705
59897SOL    HW279716  10.457  12.493  10.699
59898SOL     OW79717  10.421  12.367  10.410
59898SOL    HW179718  10.381  12.411  10.491
59898SOL    HW279719  10.380  12.404  10.327
59899SOL     OW79720  10.948  12.271  10.389
59899SOL    HW179721  10.953  12.352  10.448
59899SOL    HW279722  10.862  12.273  10.338
59900SOL     OW79723  10.225  11.261  10.712
59900SOL    HW179724  10.250  11.241  10.617
59900SOL    HW279725  10.297  11.317  10.754
59901SOL     OW79726  10.290  12.288  11.029
59901SOL    HW179727  10.191  12.294  11.039
59901SOL    HW279728  10.313  12.208  10.973
59902SOL     OW79729  10.015  12.222   9.678
59902SOL    HW179730  10.001  12.229   9.777
59902SOL    HW279731  10.099  12.171   9.660
59903SOL     OW79732   9.720  11.985  10.561
59903SOL    HW179733   9.806  11.997  10.611
59903SOL    HW279734   9.678  11.898  10.588
59904SOL     OW79735  10.584  11.558  10.572
59904SOL    HW179736  10.605  11.632  10.636
59904SOL    HW279737  10.495  11.575  10.529
59905SOL     OW79738   9.374  12.736  10.641
59905SOL    HW179739   9.328  12.818  10.607
59905SOL    HW279740   9.472  12.755  10.650
59906SOL     OW79741   9.677  12.272   9.811
59906SOL    HW179742   9.670  12.355   9.755
59906SOL    HW279743   9.681  12.192   9.751
59907SOL     OW79744   9.876  11.709  10.175
59907SOL    HW179745   9.888  11.775  10.101
59907SOL    HW279746   9.922  11.743  10.258
59908SOL     OW79747  10.562  12.520   9.698
59908SOL    HW179748  10.612  12.597   9.738
59908SOL    HW279749  10.467  12.522   9.730
59909SOL     OW79750  10.582  12.617  10.452
59909SOL    HW179751  10.629  12.630  10.539
59909SOL    HW279752  10.516  12.543  10.461
59910SOL     OW79753  10.892  11.811   9.782
59910SOL    HW179754  10.861  11.872   9.855
59910SOL    HW279755  10.942  11.863   9.713
59911SOL     OW79756   9.664  12.682  10.639
59911SOL    HW179757   9.643  12.638  10.552
59911SOL    HW279758   9.761  12.708  10.642
59912SOL     OW79759   9.712  11.923  10.908
59912SOL    HW179760   9.780  11.978  10.861
59912SOL    HW279761   9.752  11.835  10.935
59913SOL     OW79762  10.897  11.951  10.980
59913SOL    HW179763  10.805  11.989  10.975
59913SOL    HW279764  10.957  11.998  10.915
59914SOL     OW79765  10.323  11.277  11.080
59914SOL    HW179766  10.329  11.362  11.028
59914SOL    HW279767  10.355  11.201  11.023
59915SOL     OW79768   9.814  11.222  11.050
59915SOL    HW179769   9.772  11.165  10.980
59915SOL    HW279770   9.748  11.291  11.082
59916SOL     OW79771   9.883  12.042  10.339
59916SOL    HW179772   9.927  12.131  10.330
59916SOL    HW279773   9.820  12.042  10.416
59917SOL     OW79774  10.670  12.034  10.355
59917SOL    HW179775  10.595  12.034  10.289
59917SOL    HW279776  10.707  11.942  10.364
59918SOL     OW79777  10.519  11.697   9.585
59918SOL    HW179778  10.532  11.613   9.639
59918SOL    HW279779  10.490  11.771   9.645
59919SOL     OW79780   9.617  11.385  10.541
59919SOL    HW179781   9.594  11.422  10.631
59919SOL    HW279782   9.587  11.290  10.535
59920SOL     OW79783   9.347  12.482  10.592
59920SOL    HW179784   9.400  12.433  10.660
59920SOL    HW279785   9.369  12.580  10.597
59921SOL     OW79786  10.042  11.806  10.374
59921SOL    HW179787  10.101  11.780  10.298
59921SOL    HW279788  10.014  11.902  10.363
59922SOL     OW79789  11.038  12.107  11.164
59922SOL    HW179790  10.992  12.100  11.075
59922SOL    HW279791  10.976  12.151  11.230
59923SOL     OW79792   9.617  11.235   9.928
59923SOL    HW179793   9.606  11.329   9.961
59923SOL    HW279794   9.612  11.172  10.005
59924SOL     OW79795  10.932  11.539   9.684
59924SOL    HW179796  10.934  11.463   9.748
59924SOL    HW279797  10.884  11.616   9.724
59925SOL     OW79798  10.333  11.938  10.276
59925SOL    HW179799  10.348  11.959  10.372
59925SOL    HW279800  10.303  11.843  10.267
59926SOL     OW79801  11.169  12.690  10.915
59926SOL    HW179802  11.183  12.717  10.820
59926SOL    HW279803  11.252  12.712  10.968
59927SOL     OW79804   9.660  12.070  11.114
59927SOL    HW179805   9.736  12.114  11.162
59927SOL    HW279806   9.695  12.023  11.032
59928SOL     OW79807  10.850  11.446   9.435
59928SOL    HW179808  10.789  11.371   9.458
59928SOL    HW279809  10.872  11.498   9.518
59929SOL     OW79810  10.613  12.010   9.352
59929SOL    HW179811  10.647  11.917   9.367
59929SOL    HW279812  10.631  12.037   9.257
59930SOL     OW79813  10.378  12.505  10.159
59930SOL    HW179814  10.385  12.421  10.104
59930SOL    HW279815  10.440  12.574  10.123
59931SOL     OW79816   9.629  11.982  10.259
59931SOL    HW179817   9.722  12.018  10.264
59931SOL    HW279818   9.623  11.897  10.311
59932SOL     OW79819   9.649  11.681  10.316
59932SOL    HW179820   9.597  11.598  10.299
59932SOL    HW279821   9.726  11.686  10.252
59933SOL     OW79822  10.448  11.552  10.988
59933SOL    HW179823  10.403  11.615  11.052
59933SOL    HW279824  10.541  11.583  10.971
59934SOL     OW79825  10.470  11.379  10.787
59934SOL    HW179826  10.470  11.443  10.864
59934SOL    HW279827  10.498  11.427  10.704
59935SOL     OW79828   9.318  12.498   9.510
59935SOL    HW179829   9.225  12.519   9.479
59935SOL    HW279830   9.328  12.399   9.523
59936SOL     OW79831   9.814  12.740  10.220
59936SOL    HW179832   9.880  12.814  10.229
59936SOL    HW279833   9.858  12.661  10.178
59937SOL     OW79834  10.312  11.968  10.548
59937SOL    HW179835  10.353  11.936  10.634
59937SOL    HW279836  10.216  11.941  10.545
59938SOL     OW79837   9.350  11.716  10.424
59938SOL    HW179838   9.435  11.683  10.383
59938SOL    HW279839   9.363  11.731  10.522
59939SOL     OW79840   9.499  11.692  11.032
59939SOL    HW179841   9.558  11.652  10.962
59939SOL    HW279842   9.441  11.763  10.991
59940SOL     OW79843  10.679  12.122  10.970
59940SOL    HW179844  10.718  12.211  10.990
59940SOL    HW279845  10.689  12.102  10.873
59941SOL     OW79846  10.125  11.744   9.635
59941SOL    HW179847  10.132  11.655   9.589
59941SOL    HW279848  10.031  11.778   9.627
59942SOL     OW79849  10.967  11.776  10.516
59942SOL    HW179850  10.929  11.707  10.578
59942SOL    HW279851  11.049  11.740  10.472
59943SOL     OW79852   9.562  12.736  11.054
59943SOL    HW179853   9.532  12.793  11.130
59943SOL    HW279854   9.555  12.639  11.080
59944SOL     OW79855   9.981  11.636  10.579
59944SOL    HW179856   9.947  11.547  10.549
59944SOL    HW279857  10.007  11.690  10.499
59945SOL     OW79858   9.783  11.672   9.501
59945SOL    HW179859   9.844  11.752   9.505
59945SOL    HW279860   9.688  11.703   9.508
59946SOL     OW79861   9.469  12.309  10.776
59946SOL    HW179862   9.491  12.248  10.852
59946SOL    HW279863   9.479  12.260  10.690
59947SOL     OW79864  10.657  12.231  10.544
59947SOL    HW179865  10.681  12.168  10.470
59947SOL    HW279866  10.567  12.271  10.526
59948SOL     OW79867  10.612  12.027   9.619
59948SOL    HW179868  10.526  11.996   9.661
59948SOL    HW279869  10.608  12.013   9.520
59949SOL     OW79870  10.562  12.903  10.438
59949SOL    HW179871  10.646  12.908  10.384
59949SOL    HW279872  10.539  12.807  10.456
59950SOL     OW79873   9.393  12.430  10.332
59950SOL    HW179874   9.388  12.429  10.432
59950SOL    HW279875   9.310  12.389  10.294
59951SOL     OW79876  11.036  11.307   9.833
59951SOL    HW179877  11.109  11.290   9.766
59951SOL    HW279878  11.005  11.220   9.871
59952SOL     OW79879   9.440  12.966  11.161
59952SOL    HW179880   9.399  12.892  11.214
59952SOL    HW279881   9.504  13.017  11.219
59953SOL     OW79882  10.590  12.099   9.982
59953SOL    HW179883  10.650  12.018   9.984
59953SOL    HW279884  10.630  12.168   9.922
59954SOL     OW79885  10.140  12.445  10.732
59954SOL    HW179886  10.135  12.478  10.827
59954SOL    HW279887  10.054  12.464  10.686
59955SOL     OW79888   9.982  12.788   9.464
59955SOL    HW179889   9.991  12.798   9.365
59955SOL    HW279890   9.942  12.699   9.485
59956SOL     OW79891  11.151  11.347  10.273
59956SOL    HW179892  11.190  11.262  10.237
59956SOL    HW279893  11.053  11.349  10.254
59957SOL     OW79894   9.573  11.498  10.030
59957SOL    HW179895   9.494  11.549   9.996
59957SOL    HW279896   9.564  11.483  10.128
59958SOL     OW79897  10.504  12.784   9.341
59958SOL    HW179898  10.510  12.691   9.378
59958SOL    HW279899  10.445  12.784   9.261
59959SOL     OW79900  10.132  12.174  10.682
59959SOL    HW179901  10.172  12.173  10.590
59959SOL    HW279902  10.142  12.266  10.722
59960SOL     OW79903  10.226  12.082   9.601
59960SOL    HW179904  10.289  12.120   9.533
59960SOL    HW279905  10.266  11.999   9.640
59961SOL     OW79906   9.682  12.460  10.800
59961SOL    HW179907   9.669  12.553  10.766
59961SOL    HW279908   9.598  12.408  10.787
59962SOL     OW79909  10.924  12.464  10.599
59962SOL    HW179910  10.984  12.467  10.679
59962SOL    HW279911  10.849  12.528  10.612
59963SOL     OW79912  10.349  12.270  10.006
59963SOL    HW179913  10.279  12.223  10.060
59963SOL    HW279914  10.408  12.202   9.963
59964SOL     OW79915  10.324  11.408  10.281
59964SOL    HW179916  10.316  11.372  10.188
59964SOL    HW279917  10.322  11.332  10.346
59965SOL     OW79918   9.900  12.659   9.801
59965SOL    HW179919   9.942  12.601   9.731
59965SOL    HW279920   9.856  12.738   9.757
59966SOL     OW79921  11.019  11.557  10.691
59966SOL    HW179922  11.092  11.626  10.695
59966SOL    HW279923  11.047  11.482  10.632
59967SOL     OW79924   9.565  12.520   9.600
59967SOL    HW179925   9.469  12.521   9.573
59967SOL    HW279926   9.577  12.573   9.684
59968SOL     OW79927   9.415  12.185  11.036
59968SOL    HW179928   9.338  12.152  11.090
59968SOL    HW279929   9.500  12.155  11.078
59969SOL     OW79930   9.982  11.375  10.799
59969SOL    HW179931  10.072  11.359  10.759
59969SOL    HW279932   9.990  11.380  10.898
59970SOL     OW79933   9.385  11.517   9.343
59970SOL    HW179934   9.293  11.489   9.314
59970SOL    HW279935   9.416  11.594   9.287
59971SOL     OW79936  10.750  12.028  10.708
59971SOL    HW179937  10.693  12.080  10.645
59971SOL    HW279938  10.846  12.040  10.684
59972SOL     OW79939   9.382  11.338   9.628
59972SOL    HW179940   9.365  11.421   9.574
59972SOL    HW279941   9.472  11.301   9.606
59973SOL     OW79942  10.493  12.507   9.429
59973SOL    HW179943  10.394  12.496   9.431
59973SOL    HW279944  10.527  12.522   9.522
59974SOL     OW79945   9.923  12.014  10.741
59974SOL    HW179946   9.979  12.095  10.724
59974SOL    HW279947   9.982  11.934  10.744
59975SOL     OW79948  10.026  11.737  11.018
59975SOL    HW179949  10.045  11.802  11.092
59975SOL    HW279950  10.086  11.657  11.027
59976SOL     OW79951  10.760  12.392  10.943
59976SOL    HW179952  10.751  12.382  11.042
59976SOL    HW279953  10.856  12.385  10.917
59977SOL     OW79954  10.984  12.055  10.564
59977SOL    HW179955  10.957  11.966  10.527
59977SOL    HW279956  10.985  12.123  10.491
59978SOL     OW79957  10.535  11.497   9.759
59978SOL    HW179958  10.600  11.423   9.748
59978SOL    HW279959  10.555  11.547   9.843
59979SOL     OW79960   9.904  11.917   9.962
59979SOL    HW179961   9.954  12.002   9.943
59979SOL    HW279962   9.816  11.919   9.914
59980SOL     OW79963  11.087  11.514  10.952
59980SOL    HW179964  11.070  11.545  10.858
59980SOL    HW279965  11.003  11.477  10.990
59981SOL     OW79966  11.040  12.106  10.827
59981SOL    HW179967  11.078  12.197  10.842
59981SOL    HW279968  11.032  12.089  10.728
59982SOL     OW79969  10.169  12.546   9.326
59982SOL    HW179970  10.123  12.561   9.414
59982SOL    HW279971  10.213  12.631   9.296
59983SOL     OW79972  10.169  12.128  10.171
59983SOL    HW179973  10.223  12.059  10.219
59983SOL    HW279974  10.137  12.197  10.237
59984SOL     OW79975  10.393  12.156   9.397
59984SOL    HW179976  10.370  12.209   9.315
59984SOL    HW279977  10.474  12.100   9.378
59985SOL     OW79978  11.171  12.741  10.161
59985SOL    HW179979  11.100  12.729  10.091
59985SOL    HW279980  11.172  12.662  10.221
59986SOL     OW79981   9.531  12.486  11.154
59986SOL    HW179982   9.466  12.413  11.133
59986SOL    HW279983   9.535  12.500  11.252
59987SOL     OW79984   9.389  12.412   9.963
59987SOL    HW179985   9.388  12.365  10.051
59987SOL    HW279986   9.471  12.384   9.912
59988SOL     OW79987   9.982  12.563  10.934
59988SOL    HW179988   9.904  12.513  10.972
59988SOL    HW279989   9.979  12.658  10.965
59989SOL     OW79990  11.134  11.364  10.537
59989SOL    HW179991  11.130  11.274  10.581
59989SOL    HW279992  11.137  11.353  10.438
59990SOL     OW79993   9.738  11.596   9.830
59990SOL    HW179994   9.768  11.524   9.768
59990SOL    HW279995   9.699  11.556   9.913
59991SOL     OW79996  11.015  12.659  10.414
59991SOL    HW179997  10.922  12.634  10.387
59991SOL    HW279998  11.041  12.609  10.496
59992SOL     OW79999   9.627  11.719  10.590
59992SOL    HW180000   9.665  11.660  10.662
59992SOL    HW280001   9.667  11.693  10.502
59993SOL     OW80002  10.734  11.386  10.422
59993SOL    HW180003  10.786  11.321  10.477
59993SOL    HW280004  10.685  11.449  10.483
59994SOL     OW80005  10.311  11.206  10.464
59994SOL    HW180006  10.248  11.134  10.433
59994SOL    HW280007  10.404  11.170  10.464
59995SOL     OW80008  10.080  12.502   9.611
59995SOL    HW180009  10.034  12.415   9.628
59995SOL    HW280010  10.171  12.499   9.652
59996SOL     OW80011   9.928  12.739  10.594
59996SOL    HW180012   9.923  12.821  10.651
59996SOL    HW280013  10.017  12.736  10.549
59997SOL     OW80014  10.662  11.224   9.478
59997SOL    HW180015  10.697  11.183   9.394
59997SOL    HW280016  10.572  11.186   9.498
59998SOL     OW80017  10.610  11.625  10.001
59998SOL    HW180018  10.551  11.705  10.005
59998SOL    HW280019  10.625  11.590  10.094
59999SOL     OW80020  10.903  11.393  10.192
59999SOL    HW180021  10.819  11.392  10.246
59999SOL    HW280022  10.905  11.476  10.136
60000SOL     OW80023   9.349  12.249   9.610
60000SOL    HW180024   9.448  12.238   9.601
60000SOL    HW280025   9.309  12.163   9.642
60001SOL     OW80026   9.540  11.800  11.285
60001SOL    HW180027   9.447  11.798  11.322
60001SOL    HW280028   9.541  11.761  11.193
60002SOL     OW80029   9.535  11.447  12.168
60002SOL    HW180030   9.570  11.430  12.260
60002SOL    HW280031   9.447  11.402  12.156
60003SOL     OW80032   9.329  11.540  11.819
60003SOL    HW180033   9.247  11.583  11.858
60003SOL    HW280034   9.301  11.467  11.756
60004SOL     OW80035   9.879  12.447  12.337
60004SOL    HW180036   9.786  12.440  12.300
60004SOL    HW280037   9.890  12.536  12.381
60005SOL     OW80038  10.865  12.683  11.875
60005SOL    HW180039  10.808  12.667  11.956
60005SOL    HW280040  10.806  12.693  11.795
60006SOL     OW80041  10.445  11.875  11.889
60006SOL    HW180042  10.502  11.953  11.864
60006SOL    HW280043  10.385  11.901  11.965
60007SOL     OW80044  11.065  11.779  11.403
60007SOL    HW180045  11.053  11.766  11.304
60007SOL    HW280046  11.035  11.698  11.452
60008SOL     OW80047  10.078  12.316  12.195
60008SOL    HW180048  10.000  12.333  12.255
60008SOL    HW280049  10.112  12.403  12.159
60009SOL     OW80050   9.995  12.184  11.837
60009SOL    HW180051  10.064  12.168  11.907
60009SOL    HW280052   9.922  12.241  11.875
60010SOL     OW80053   9.645  12.607  12.233
60010SOL    HW180054   9.567  12.576  12.180
60010SOL    HW280055   9.703  12.665  12.176
60011SOL     OW80056  10.770  12.677  12.511
60011SOL    HW180057  10.794  12.771  12.537
60011SOL    HW280058  10.754  12.623  12.593
60012SOL     OW80059   9.748  11.564  12.671
60012SOL    HW180060   9.830  11.508  12.680
60012SOL    HW280061   9.667  11.506  12.675
60013SOL     OW80062  10.913  11.619  11.909
60013SOL    HW180063  10.839  11.665  11.859
60013SOL    HW280064  10.964  11.687  11.962
60014SOL     OW80065   9.540  12.606  11.710
60014SOL    HW180066   9.514  12.702  11.710
60014SOL    HW280067   9.469  12.552  11.755
60015SOL     OW80068   9.550  12.263  12.058
60015SOL    HW180069   9.564  12.179  12.110
60015SOL    HW280070   9.495  12.327  12.113
60016SOL     OW80071   9.916  12.136  11.295
60016SOL    HW180072   9.923  12.220  11.241
60016SOL    HW280073   9.962  12.149  11.383
60017SOL     OW80074  10.904  11.286  12.652
60017SOL    HW180075  10.886  11.353  12.580
60017SOL    HW280076  10.901  11.332  12.741
60018SOL     OW80077   9.432  11.815  11.735
60018SOL    HW180078   9.387  11.727  11.752
60018SOL    HW280079   9.431  11.869  11.819
60019SOL     OW80080   9.337  12.768  11.289
60019SOL    HW180081   9.318  12.672  11.310
60019SOL    HW280082   9.304  12.826  11.364
60020SOL     OW80083  10.999  12.094  11.784
60020SOL    HW180084  11.094  12.065  11.792
60020SOL    HW280085  10.991  12.159  11.709
60021SOL     OW80086  10.951  12.280  11.604
60021SOL    HW180087  11.037  12.282  11.552
60021SOL    HW280088  10.965  12.327  11.692
60022SOL     OW80089   9.423  11.909  12.769
60022SOL    HW180090   9.511  11.896  12.814
60022SOL    HW280091   9.410  12.006  12.747
60023SOL     OW80092   9.923  12.537  11.898
60023SOL    HW180093   9.874  12.450  11.907
60023SOL    HW280094   9.900  12.580  11.811
60024SOL     OW80095  10.603  12.400  12.595
60024SOL    HW180096  10.640  12.327  12.537
60024SOL    HW280097  10.655  12.405  12.680
60025SOL     OW80098  10.119  11.176  11.674
60025SOL    HW180099  10.159  11.267  11.665
60025SOL    HW280100  10.019  11.184  11.680
60026SOL     OW80101   9.507  12.148  12.436
60026SOL    HW180102   9.596  12.103  12.422
60026SOL    HW280103   9.434  12.083  12.417
60027SOL     OW80104  10.835  12.171  11.362
60027SOL    HW180105  10.772  12.095  11.375
60027SOL    HW280106  10.883  12.189  11.448
60028SOL     OW80107  10.776  12.589  12.125
60028SOL    HW180108  10.717  12.595  12.205
60028SOL    HW280109  10.761  12.501  12.079
60029SOL     OW80110   9.908  11.901  11.442
60029SOL    HW180111   9.932  11.970  11.374
60029SOL    HW280112   9.830  11.934  11.496
60030SOL     OW80113  10.591  11.517  12.116
60030SOL    HW180114  10.505  11.467  12.103
60030SOL    HW280115  10.653  11.463  12.172
60031SOL     OW80116  10.886  12.834  11.479
60031SOL    HW180117  10.975  12.880  11.482
60031SOL    HW280118  10.865  12.810  11.384
60032SOL     OW80119  10.117  11.777  12.637
60032SOL    HW180120  10.070  11.774  12.726
60032SOL    HW280121  10.066  11.722  12.571
60033SOL     OW80122  10.283  12.062  12.744
60033SOL    HW180123  10.329  11.978  12.715
60033SOL    HW280124  10.227  12.096  12.669
60034SOL     OW80125  10.301  11.582  12.414
60034SOL    HW180126  10.224  11.616  12.468
60034SOL    HW280127  10.267  11.531  12.335
60035SOL     OW80128  10.351  11.873  11.601
60035SOL    HW180129  10.377  11.869  11.697
60035SOL    HW280130  10.266  11.822  11.587
60036SOL     OW80131   9.386  11.983  11.961
60036SOL    HW180132   9.485  11.971  11.970
60036SOL    HW280133   9.362  12.078  11.982
60037SOL     OW80134  10.175  11.520  11.367
60037SOL    HW180135  10.234  11.583  11.318
60037SOL    HW280136  10.194  11.426  11.338
60038SOL     OW80137  10.672  12.316  11.717
60038SOL    HW180138  10.755  12.287  11.669
60038SOL    HW280139  10.623  12.383  11.661
60039SOL     OW80140   9.860  11.368  12.057
60039SOL    HW180141   9.855  11.363  12.157
60039SOL    HW280142   9.862  11.464  12.028
60040SOL     OW80143  10.318  12.628  11.649
60040SOL    HW180144  10.272  12.700  11.597
60040SOL    HW280145  10.314  12.648  11.747
60041SOL     OW80146  11.105  12.238  12.045
60041SOL    HW180147  11.043  12.223  11.969
60041SOL    HW280148  11.053  12.249  12.130
60042SOL     OW80149  10.537  12.722  12.678
60042SOL    HW180150  10.543  12.645  12.742
60042SOL    HW280151  10.485  12.696  12.598
60043SOL     OW80152   9.631  12.115  11.414
60043SOL    HW180153   9.713  12.154  11.372
60043SOL    HW280154   9.604  12.033  11.365
60044SOL     OW80155  10.768  11.907  11.900
60044SOL    HW180156  10.763  11.842  11.975
60044SOL    HW280157  10.848  11.966  11.913
60045SOL     OW80158   9.512  11.457  12.670
60045SOL    HW180159   9.432  11.517  12.657
60045SOL    HW280160   9.502  11.408  12.756
60046SOL     OW80161  10.942  12.549  11.253
60046SOL    HW180162  10.910  12.643  11.243
60046SOL    HW280163  10.866  12.486  11.241
60047SOL     OW80164  10.710  11.279  11.598
60047SOL    HW180165  10.686  11.242  11.508
60047SOL    HW280166  10.809  11.295  11.602
60048SOL     OW80167   9.692  11.872  11.652
60048SOL    HW180168   9.737  11.782  11.649
60048SOL    HW280169   9.598  11.861  11.685
60049SOL     OW80170   9.924  11.294  11.289
60049SOL    HW180171  10.022  11.272  11.296
60049SOL    HW280172   9.893  11.277  11.196
60050SOL     OW80173  10.661  11.762  12.605
60050SOL    HW180174  10.689  11.719  12.690
60050SOL    HW280175  10.686  11.858  12.606
60051SOL     OW80176  10.113  12.574  12.096
60051SOL    HW180177  10.203  12.588  12.054
60051SOL    HW280178  10.042  12.576  12.025
60052SOL     OW80179  10.232  11.675  12.071
60052SOL    HW180180  10.207  11.666  11.975
60052SOL    HW280181  10.280  11.593  12.102
60053SOL     OW80182   9.849  11.236  11.684
60053SOL    HW180183   9.768  11.237  11.742
60053SOL    HW280184   9.852  11.319  11.629
60054SOL     OW80185  10.744  12.360  11.213
60054SOL    HW180186  10.776  12.284  11.270
60054SOL    HW280187  10.652  12.387  11.243
60055SOL     OW80188   9.607  11.207  11.343
60055SOL    HW180189   9.656  11.291  11.322
60055SOL    HW280190   9.669  11.142  11.388
60056SOL     OW80191  10.245  11.408  11.652
60056SOL    HW180192  10.197  11.449  11.574
60056SOL    HW280193  10.344  11.406  11.633
60057SOL     OW80194  10.386  11.855  12.636
60057SOL    HW180195  10.306  11.794  12.639
60057SOL    HW280196  10.467  11.802  12.612
60058SOL     OW80197  10.537  12.742  11.965
60058SOL    HW180198  10.558  12.816  11.900
60058SOL    HW280199  10.605  12.742  12.038
60059SOL     OW80200   9.769  12.324  11.913
60059SOL    HW180201   9.698  12.297  11.978
60059SOL    HW280202   9.743  12.296  11.820
60060SOL     OW80203  10.342  11.721  11.188
60060SOL    HW180204  10.301  11.803  11.149
60060SOL    HW280205  10.406  11.747  11.261
60061SOL     OW80206   9.388  11.728  12.558
60061SOL    HW180207   9.480  11.727  12.517
60061SOL    HW280208   9.382  11.802  12.625
60062SOL     OW80209   9.871  11.394  12.319
60062SOL    HW180210   9.909  11.310  12.356
60062SOL    HW280211   9.783  11.413  12.363
60063SOL     OW80212  10.176  11.626  11.814
60063SOL    HW180213  10.144  11.698  11.752
60063SOL    HW280214  10.200  11.545  11.761
60064SOL     OW80215  10.327  11.211  11.925
60064SOL    HW180216  10.255  11.216  11.856
60064SOL    HW280217  10.303  11.142  11.994
60065SOL     OW80218  10.739  12.345  12.039
60065SOL    HW180219  10.684  12.261  12.032
60065SOL    HW280220  10.765  12.374  11.947
60066SOL     OW80221  10.776  11.762  12.164
60066SOL    HW180222  10.746  11.667  12.171
60066SOL    HW280223  10.849  11.778  12.230
60067SOL     OW80224  11.167  12.005  11.549
60067SOL    HW180225  11.209  11.941  11.613
60067SOL    HW280226  11.129  11.954  11.471
60068SOL     OW80227   9.798  12.557  11.346
60068SOL    HW180228   9.711  12.542  11.393
60068SOL    HW280229   9.781  12.583  11.251
60069SOL     OW80230  10.974  12.452  11.829
60069SOL    HW180231  11.073  12.460  11.843
60069SOL    HW280232  10.929  12.536  11.860
60070SOL     OW80233  10.700  11.747  11.250
60070SOL    HW180234  10.646  11.726  11.331
60070SOL    HW280235  10.791  11.706  11.259
60071SOL     OW80236   9.837  11.428  11.500
60071SOL    HW180237   9.864  11.369  11.425
60071SOL    HW280238   9.837  11.523  11.469
60072SOL     OW80239  11.064  12.395  12.760
60072SOL    HW180240  11.155  12.356  12.747
60072SOL    HW280241  11.072  12.491  12.784
60073SOL     OW80242  10.374  12.519  12.512
60073SOL    HW180243  10.294  12.496  12.567
60073SOL    HW280244  10.457  12.493  12.561
60074SOL     OW80245  10.421  12.367  12.272
60074SOL    HW180246  10.381  12.411  12.353
60074SOL    HW280247  10.380  12.404  12.189
60075SOL     OW80248  10.948  12.271  12.251
60075SOL    HW180249  10.953  12.352  12.310
60075SOL    HW280250  10.862  12.273  12.200
60076SOL     OW80251  10.225  11.261  12.574
60076SOL    HW180252  10.250  11.241  12.479
60076SOL    HW280253  10.297  11.317  12.616
60077SOL     OW80254  10.015  12.222  11.540
60077SOL    HW180255  10.001  12.229  11.639
60077SOL    HW280256  10.099  12.171  11.522
60078SOL     OW80257   9.720  11.985  12.423
60078SOL    HW180258   9.806  11.997  12.473
60078SOL    HW280259   9.678  11.898  12.450
60079SOL     OW80260  10.584  11.558  12.434
60079SOL    HW180261  10.605  11.632  12.498
60079SOL    HW280262  10.495  11.575  12.391
60080SOL     OW80263   9.374  12.736  12.503
60080SOL    HW180264   9.328  12.818  12.469
60080SOL    HW280265   9.472  12.755  12.512
60081SOL     OW80266   9.677  12.272  11.673
60081SOL    HW180267   9.670  12.355  11.617
60081SOL    HW280268   9.681  12.192  11.613
60082SOL     OW80269   9.876  11.709  12.037
60082SOL    HW180270   9.888  11.775  11.963
60082SOL    HW280271   9.922  11.743  12.120
60083SOL     OW80272  10.562  12.520  11.560
60083SOL    HW180273  10.612  12.597  11.600
60083SOL    HW280274  10.467  12.522  11.592
60084SOL     OW80275  10.582  12.617  12.314
60084SOL    HW180276  10.629  12.630  12.401
60084SOL    HW280277  10.516  12.543  12.323
60085SOL     OW80278  10.892  11.811  11.644
60085SOL    HW180279  10.861  11.872  11.717
60085SOL    HW280280  10.942  11.863  11.575
60086SOL     OW80281   9.664  12.682  12.501
60086SOL    HW180282   9.643  12.638  12.414
60086SOL    HW280283   9.761  12.708  12.504
60087SOL     OW80284   9.712  11.923  12.770
60087SOL    HW180285   9.780  11.978  12.723
60087SOL    HW280286   9.752  11.835  12.797
60088SOL     OW80287  10.897  11.951  12.842
60088SOL    HW180288  10.805  11.989  12.837
60088SOL    HW280289  10.957  11.998  12.777
60089SOL     OW80290   9.883  12.042  12.201
60089SOL    HW180291   9.927  12.131  12.192
60089SOL    HW280292   9.820  12.042  12.278
60090SOL     OW80293  10.670  12.034  12.217
60090SOL    HW180294  10.595  12.034  12.151
60090SOL    HW280295  10.707  11.942  12.226
60091SOL     OW80296  10.519  11.697  11.447
60091SOL    HW180297  10.532  11.613  11.501
60091SOL    HW280298  10.490  11.771  11.507
60092SOL     OW80299   9.617  11.385  12.403
60092SOL    HW180300   9.594  11.422  12.493
60092SOL    HW280301   9.587  11.290  12.397
60093SOL     OW80302   9.347  12.482  12.454
60093SOL    HW180303   9.400  12.433  12.522
60093SOL    HW280304   9.369  12.580  12.459
60094SOL     OW80305  10.042  11.806  12.236
60094SOL    HW180306  10.101  11.780  12.160
60094SOL    HW280307  10.014  11.902  12.225
60095SOL     OW80308   9.617  11.235  11.790
60095SOL    HW180309   9.606  11.329  11.823
60095SOL    HW280310   9.612  11.172  11.867
60096SOL     OW80311  10.932  11.539  11.546
60096SOL    HW180312  10.934  11.463  11.610
60096SOL    HW280313  10.884  11.616  11.586
60097SOL     OW80314  10.333  11.938  12.138
60097SOL    HW180315  10.348  11.959  12.234
60097SOL    HW280316  10.303  11.843  12.129
60098SOL     OW80317  10.850  11.446  11.297
60098SOL    HW180318  10.789  11.371  11.320
60098SOL    HW280319  10.872  11.498  11.380
60099SOL     OW80320  10.613  12.010  11.214
60099SOL    HW180321  10.647  11.917  11.229
60099SOL    HW280322  10.631  12.037  11.119
60100SOL     OW80323  10.378  12.505  12.021
60100SOL    HW180324  10.385  12.421  11.966
60100SOL    HW280325  10.440  12.574  11.985
60101SOL     OW80326   9.629  11.982  12.121
60101SOL    HW180327   9.722  12.018  12.126
60101SOL    HW280328   9.623  11.897  12.173
60102SOL     OW80329   9.649  11.681  12.178
60102SOL    HW180330   9.597  11.598  12.161
60102SOL    HW280331   9.726  11.686  12.114
60103SOL     OW80332  10.470  11.379  12.649
60103SOL    HW180333  10.470  11.443  12.726
60103SOL    HW280334  10.498  11.427  12.566
60104SOL     OW80335   9.318  12.498  11.372
60104SOL    HW180336   9.225  12.519  11.341
60104SOL    HW280337   9.328  12.399  11.385
60105SOL     OW80338   9.814  12.740  12.082
60105SOL    HW180339   9.880  12.814  12.091
60105SOL    HW280340   9.858  12.661  12.040
60106SOL     OW80341  10.312  11.968  12.410
60106SOL    HW180342  10.353  11.936  12.496
60106SOL    HW280343  10.216  11.941  12.407
60107SOL     OW80344   9.350  11.716  12.286
60107SOL    HW180345   9.435  11.683  12.245
60107SOL    HW280346   9.363  11.731  12.384
60108SOL     OW80347  10.125  11.744  11.497
60108SOL    HW180348  10.132  11.655  11.451
60108SOL    HW280349  10.031  11.778  11.489
60109SOL     OW80350  10.967  11.776  12.378
60109SOL    HW180351  10.929  11.707  12.440
60109SOL    HW280352  11.049  11.740  12.334
60110SOL     OW80353   9.981  11.636  12.441
60110SOL    HW180354   9.947  11.547  12.411
60110SOL    HW280355  10.007  11.690  12.361
60111SOL     OW80356   9.783  11.672  11.363
60111SOL    HW180357   9.844  11.752  11.367
60111SOL    HW280358   9.688  11.703  11.370
60112SOL     OW80359   9.469  12.309  12.638
60112SOL    HW180360   9.491  12.248  12.714
60112SOL    HW280361   9.479  12.260  12.552
60113SOL     OW80362  10.657  12.231  12.406
60113SOL    HW180363  10.681  12.168  12.332
60113SOL    HW280364  10.567  12.271  12.388
60114SOL     OW80365  10.612  12.027  11.481
60114SOL    HW180366  10.526  11.996  11.523
60114SOL    HW280367  10.608  12.013  11.382
60115SOL     OW80368  10.562  12.903  12.300
60115SOL    HW180369  10.646  12.908  12.246
60115SOL    HW280370  10.539  12.807  12.318
60116SOL     OW80371   9.393  12.430  12.194
60116SOL    HW180372   9.388  12.429  12.294
60116SOL    HW280373   9.310  12.389  12.156
60117SOL     OW80374  11.036  11.307  11.695
60117SOL    HW180375  11.109  11.290  11.628
60117SOL    HW280376  11.005  11.220  11.733
60118SOL     OW80377  10.590  12.099  11.844
60118SOL    HW180378  10.650  12.018  11.846
60118SOL    HW280379  10.630  12.168  11.784
60119SOL     OW80380  10.140  12.445  12.594
60119SOL    HW180381  10.135  12.478  12.689
60119SOL    HW280382  10.054  12.464  12.548
60120SOL     OW80383   9.982  12.788  11.326
60120SOL    HW180384   9.991  12.798  11.227
60120SOL    HW280385   9.942  12.699  11.347
60121SOL     OW80386  11.151  11.347  12.135
60121SOL    HW180387  11.190  11.262  12.099
60121SOL    HW280388  11.053  11.349  12.116
60122SOL     OW80389   9.573  11.498  11.892
60122SOL    HW180390   9.494  11.549  11.858
60122SOL    HW280391   9.564  11.483  11.990
60123SOL     OW80392  10.504  12.784  11.203
60123SOL    HW180393  10.510  12.691  11.240
60123SOL    HW280394  10.445  12.784  11.123
60124SOL     OW80395  10.132  12.174  12.544
60124SOL    HW180396  10.172  12.173  12.452
60124SOL    HW280397  10.142  12.266  12.584
60125SOL     OW80398  10.226  12.082  11.463
60125SOL    HW180399  10.289  12.120  11.395
60125SOL    HW280400  10.266  11.999  11.502
60126SOL     OW80401   9.682  12.460  12.662
60126SOL    HW180402   9.669  12.553  12.628
60126SOL    HW280403   9.598  12.408  12.649
60127SOL     OW80404  10.924  12.464  12.461
60127SOL    HW180405  10.984  12.467  12.541
60127SOL    HW280406  10.849  12.528  12.474
60128SOL     OW80407  10.349  12.270  11.868
60128SOL    HW180408  10.279  12.223  11.922
60128SOL    HW280409  10.408  12.202  11.825
60129SOL     OW80410  10.324  11.408  12.143
60129SOL    HW180411  10.316  11.372  12.050
60129SOL    HW280412  10.322  11.332  12.208
60130SOL     OW80413   9.900  12.659  11.663
60130SOL    HW180414   9.942  12.601  11.593
60130SOL    HW280415   9.856  12.738  11.619
60131SOL     OW80416  11.019  11.557  12.553
60131SOL    HW180417  11.092  11.626  12.557
60131SOL    HW280418  11.047  11.482  12.494
60132SOL     OW80419   9.565  12.520  11.462
60132SOL    HW180420   9.469  12.521  11.435
60132SOL    HW280421   9.577  12.573  11.546
60133SOL     OW80422   9.415  12.185  12.898
60133SOL    HW180423   9.338  12.152  12.952
60133SOL    HW280424   9.500  12.155  12.940
60134SOL     OW80425   9.982  11.375  12.661
60134SOL    HW180426  10.072  11.359  12.621
60134SOL    HW280427   9.990  11.380  12.760
60135SOL     OW80428   9.385  11.517  11.205
60135SOL    HW180429   9.293  11.489  11.176
60135SOL    HW280430   9.416  11.594  11.149
60136SOL     OW80431  10.750  12.028  12.570
60136SOL    HW180432  10.693  12.080  12.507
60136SOL    HW280433  10.846  12.040  12.546
60137SOL     OW80434   9.382  11.338  11.490
60137SOL    HW180435   9.365  11.421  11.436
60137SOL    HW280436   9.472  11.301  11.468
60138SOL     OW80437  10.493  12.507  11.291
60138SOL    HW180438  10.394  12.496  11.293
60138SOL    HW280439  10.527  12.522  11.384
60139SOL     OW80440   9.923  12.014  12.603
60139SOL    HW180441   9.979  12.095  12.586
60139SOL    HW280442   9.982  11.934  12.606
60140SOL     OW80443  10.026  11.737  12.880
60140SOL    HW180444  10.045  11.802  12.954
60140SOL    HW280445  10.086  11.657  12.889
60141SOL     OW80446   9.700  12.913  12.732
60141SOL    HW180447   9.609  12.954  12.730
60141SOL    HW280448   9.693  12.819  12.764
60142SOL     OW80449  10.984  12.055  12.426
60142SOL    HW180450  10.957  11.966  12.389
60142SOL    HW280451  10.985  12.123  12.353
60143SOL     OW80452  10.535  11.497  11.621
60143SOL    HW180453  10.600  11.423  11.610
60143SOL    HW280454  10.555  11.547  11.705
60144SOL     OW80455   9.904  11.917  11.824
60144SOL    HW180456   9.954  12.002  11.805
60144SOL    HW280457   9.816  11.919  11.776
60145SOL     OW80458  11.087  11.514  12.814
60145SOL    HW180459  11.070  11.545  12.720
60145SOL    HW280460  11.003  11.477  12.852
60146SOL     OW80461  11.040  12.106  12.689
60146SOL    HW180462  11.078  12.197  12.704
60146SOL    HW280463  11.032  12.089  12.590
60147SOL     OW80464  10.169  12.546  11.188
60147SOL    HW180465  10.123  12.561  11.276
60147SOL    HW280466  10.213  12.631  11.158
60148SOL     OW80467  10.169  12.128  12.033
60148SOL    HW180468  10.223  12.059  12.081
60148SOL    HW280469  10.137  12.197  12.099
60149SOL     OW80470  10.393  12.156  11.259
60149SOL    HW180471  10.370  12.209  11.177
60149SOL    HW280472  10.474  12.100  11.240
60150SOL     OW80473  11.171  12.741  12.023
60150SOL    HW180474  11.100  12.729  11.953
60150SOL    HW280475  11.172  12.662  12.083
60151SOL     OW80476   9.389  12.412  11.825
60151SOL    HW180477   9.388  12.365  11.913
60151SOL    HW280478   9.471  12.384  11.774
60152SOL     OW80479   9.982  12.563  12.796
60152SOL    HW180480   9.904  12.513  12.834
60152SOL    HW280481   9.979  12.658  12.827
60153SOL     OW80482  11.134  11.364  12.399
60153SOL    HW180483  11.130  11.274  12.443
60153SOL    HW280484  11.137  11.353  12.300
60154SOL     OW80485   9.738  11.596  11.692
60154SOL    HW180486   9.768  11.524  11.630
60154SOL    HW280487   9.699  11.556  11.775
60155SOL     OW80488  11.015  12.659  12.276
60155SOL    HW180489  10.922  12.634  12.249
60155SOL    HW280490  11.041  12.609  12.358
60156SOL     OW80491   9.627  11.719  12.452
60156SOL    HW180492   9.665  11.660  12.524
60156SOL    HW280493   9.667  11.693  12.364
60157SOL     OW80494  10.734  11.386  12.284
60157SOL    HW180495  10.786  11.321  12.339
60157SOL    HW280496  10.685  11.449  12.345
60158SOL     OW80497  10.311  11.206  12.326
60158SOL    HW180498  10.248  11.134  12.295
60158SOL    HW280499  10.404  11.170  12.326
60159SOL     OW80500  10.080  12.502  11.473
60159SOL    HW180501  10.034  12.415  11.490
60159SOL    HW280502  10.171  12.499  11.514
60160SOL     OW80503   9.928  12.739  12.456
60160SOL    HW180504   9.923  12.821  12.513
60160SOL    HW280505  10.017  12.736  12.411
60161SOL     OW80506  10.662  11.224  11.340
60161SOL    HW180507  10.697  11.183  11.256
60161SOL    HW280508  10.572  11.186  11.360
60162SOL     OW80509  10.610  11.625  11.863
60162SOL    HW180510  10.551  11.705  11.867
60162SOL    HW280511  10.625  11.590  11.956
60163SOL     OW80512  10.903  11.393  12.054
60163SOL    HW180513  10.819  11.392  12.108
60163SOL    HW280514  10.905  11.476  11.998
60164SOL     OW80515   9.349  12.249  11.472
60164SOL    HW180516   9.448  12.238  11.463
60164SOL    HW280517   9.309  12.163  11.504
60165SOL     OW80518  11.402   0.628   0.113
60165SOL    HW180519  11.309   0.626   0.150
60165SOL    HW280520  11.403   0.589   0.021
60166SOL     OW80521  11.397   0.275   0.996
60166SOL    HW180522  11.432   0.258   1.088
60166SOL    HW280523  11.309   0.230   0.984
60167SOL     OW80524  11.191   0.368   0.647
60167SOL    HW180525  11.109   0.411   0.686
60167SOL    HW280526  11.163   0.295   0.584
60168SOL     OW80527  11.741   1.275   1.165
60168SOL    HW180528  11.648   1.268   1.128
60168SOL    HW280529  11.752   1.364   1.209
60169SOL     OW80530  12.727   1.511   0.703
60169SOL    HW180531  12.670   1.495   0.784
60169SOL    HW280532  12.668   1.521   0.623
60170SOL     OW80533  12.307   0.703   0.717
60170SOL    HW180534  12.364   0.781   0.692
60170SOL    HW280535  12.247   0.729   0.793
60171SOL     OW80536  11.940   1.144   1.023
60171SOL    HW180537  11.862   1.161   1.083
60171SOL    HW280538  11.974   1.231   0.987
60172SOL     OW80539  12.022   0.798   1.823
60172SOL    HW180540  12.018   0.874   1.888
60172SOL    HW280541  12.044   0.834   1.732
60173SOL     OW80542  11.857   1.012   0.665
60173SOL    HW180543  11.926   0.996   0.735
60173SOL    HW280544  11.784   1.069   0.703
60174SOL     OW80545  11.858   1.161   1.803
60174SOL    HW180546  11.918   1.240   1.817
60174SOL    HW280547  11.772   1.192   1.762
60175SOL     OW80548  11.507   1.435   1.061
60175SOL    HW180549  11.429   1.404   1.008
60175SOL    HW280550  11.565   1.493   1.004
60176SOL     OW80551  12.632   1.505   1.339
60176SOL    HW180552  12.656   1.599   1.365
60176SOL    HW280553  12.616   1.451   1.421
60177SOL     OW80554  11.610   0.392   1.499
60177SOL    HW180555  11.692   0.336   1.508
60177SOL    HW280556  11.529   0.334   1.503
60178SOL     OW80557  11.403   1.713   0.483
60178SOL    HW180558  11.437   1.790   0.537
60178SOL    HW280559  11.447   1.713   0.393
60179SOL     OW80560  12.299   1.341   1.690
60179SOL    HW180561  12.346   1.341   1.778
60179SOL    HW280562  12.251   1.254   1.679
60180SOL     OW80563  11.402   1.434   0.538
60180SOL    HW180564  11.376   1.530   0.538
60180SOL    HW280565  11.331   1.380   0.583
60181SOL     OW80566  11.412   1.091   0.886
60181SOL    HW180567  11.426   1.007   0.938
60181SOL    HW280568  11.357   1.155   0.941
60182SOL     OW80569  11.792   1.786   1.439
60182SOL    HW180570  11.700   1.769   1.474
60182SOL    HW280571  11.820   1.878   1.465
60183SOL     OW80572  11.778   0.964   0.123
60183SOL    HW180573  11.785   1.048   0.069
60183SOL    HW280574  11.824   0.977   0.211
60184SOL     OW80575  12.766   0.114   1.480
60184SOL    HW180576  12.748   0.181   1.408
60184SOL    HW280577  12.763   0.160   1.569
60185SOL     OW80578  11.294   0.643   0.563
60185SOL    HW180579  11.249   0.555   0.580
60185SOL    HW280580  11.293   0.697   0.647
60186SOL     OW80581  11.199   1.596   0.117
60186SOL    HW180582  11.180   1.500   0.138
60186SOL    HW280583  11.166   1.654   0.192
60187SOL     OW80584  12.861   0.922   0.612
60187SOL    HW180585  12.956   0.893   0.620
60187SOL    HW280586  12.853   0.987   0.537
60188SOL     OW80587  11.285   0.737   1.597
60188SOL    HW180588  11.373   0.724   1.642
60188SOL    HW280589  11.272   0.834   1.575
60189SOL     OW80590  11.785   1.365   0.726
60189SOL    HW180591  11.736   1.278   0.735
60189SOL    HW280592  11.762   1.408   0.639
60190SOL     OW80593  12.465   1.228   1.423
60190SOL    HW180594  12.502   1.155   1.365
60190SOL    HW280595  12.517   1.233   1.508
60191SOL     OW80596  11.981   0.004   0.502
60191SOL    HW180597  12.021   0.095   0.493
60191SOL    HW280598  11.881   0.012   0.508
60192SOL     OW80599  11.369   0.976   1.264
60192SOL    HW180600  11.458   0.931   1.250
60192SOL    HW280601  11.296   0.911   1.245
60193SOL     OW80602  12.359   1.792   1.616
60193SOL    HW180603  12.383   1.852   1.540
60193SOL    HW280604  12.366   1.697   1.586
60194SOL     OW80605  11.489   0.251   1.801
60194SOL    HW180606  11.560   0.322   1.807
60194SOL    HW280607  11.401   0.290   1.829
60195SOL     OW80608  12.638   1.417   0.953
60195SOL    HW180609  12.579   1.423   1.033
60195SOL    HW280610  12.623   1.329   0.907
60196SOL     OW80611  12.839   1.714   0.572
60196SOL    HW180612  12.798   1.691   0.484
60196SOL    HW280613  12.821   1.640   0.637
60197SOL     OW80614  11.770   0.729   0.270
60197SOL    HW180615  11.794   0.798   0.202
60197SOL    HW280616  11.692   0.762   0.324
60198SOL     OW80617  12.453   0.345   0.944
60198SOL    HW180618  12.367   0.295   0.931
60198SOL    HW280619  12.515   0.291   1.000
60199SOL     OW80620  11.979   0.605   1.465
60199SOL    HW180621  11.932   0.602   1.554
60199SOL    HW280622  11.928   0.550   1.399
60200SOL     OW80623  12.566   0.469   1.674
60200SOL    HW180624  12.546   0.512   1.762
60200SOL    HW280625  12.644   0.407   1.683
60201SOL     OW80626  12.145   0.890   1.572
60201SOL    HW180627  12.191   0.806   1.543
60201SOL    HW280628  12.089   0.924   1.497
60202SOL     OW80629  12.163   0.410   1.242
60202SOL    HW180630  12.086   0.444   1.296
60202SOL    HW280631  12.129   0.359   1.163
60203SOL     OW80632  12.213   0.701   0.429
60203SOL    HW180633  12.239   0.697   0.525
60203SOL    HW280634  12.128   0.650   0.415
60204SOL     OW80635  11.248   0.811   0.789
60204SOL    HW180636  11.347   0.799   0.798
60204SOL    HW280637  11.224   0.906   0.810
60205SOL     OW80638  11.302   1.821   1.571
60205SOL    HW180639  11.292   1.806   1.670
60205SOL    HW280640  11.216   1.857   1.535
60206SOL     OW80641  12.037   0.348   0.195
60206SOL    HW180642  12.096   0.411   0.146
60206SOL    HW280643  12.056   0.254   0.166
60207SOL     OW80644  12.534   1.144   0.545
60207SOL    HW180645  12.617   1.115   0.497
60207SOL    HW280646  12.485   1.211   0.489
60208SOL     OW80647  11.722   0.196   0.885
60208SOL    HW180648  11.717   0.191   0.985
60208SOL    HW280649  11.724   0.292   0.856
60209SOL     OW80650  12.180   1.456   0.477
60209SOL    HW180651  12.134   1.528   0.425
60209SOL    HW280652  12.176   1.476   0.575
60210SOL     OW80653  11.523   1.801   0.853
60210SOL    HW180654  11.573   1.715   0.859
60210SOL    HW280655  11.588   1.878   0.850
60211SOL     OW80656  12.399   1.550   1.506
60211SOL    HW180657  12.405   1.473   1.570
60211SOL    HW280658  12.347   1.524   1.426
60212SOL     OW80659  11.493   0.943   0.242
60212SOL    HW180660  11.575   0.982   0.200
60212SOL    HW280661  11.466   0.861   0.193
60213SOL     OW80662  12.630   0.735   0.728
60213SOL    HW180663  12.625   0.670   0.803
60213SOL    HW280664  12.710   0.794   0.741
60214SOL     OW80665  11.633   1.266   1.727
60214SOL    HW180666  11.583   1.267   1.641
60214SOL    HW280667  11.570   1.248   1.803
60215SOL     OW80668  12.283   1.776   0.237
60215SOL    HW180669  12.223   1.714   0.287
60215SOL    HW280670  12.314   1.732   0.152
60216SOL     OW80671  11.374   0.285   1.498
60216SOL    HW180672  11.294   0.345   1.485
60216SOL    HW280673  11.364   0.236   1.584
60217SOL     OW80674  11.636   1.743   0.323
60217SOL    HW180675  11.669   1.782   0.409
60217SOL    HW280676  11.712   1.736   0.258
60218SOL     OW80677  12.572   0.107   0.426
60218SOL    HW180678  12.548   0.070   0.336
60218SOL    HW280679  12.671   0.123   0.430
60219SOL     OW80680  11.421   1.785   1.241
60219SOL    HW180681  11.478   1.720   1.291
60219SOL    HW280682  11.405   1.752   1.148
60220SOL     OW80683  12.112   1.698   0.904
60220SOL    HW180684  12.192   1.641   0.925
60220SOL    HW280685  12.063   1.658   0.827
60221SOL     OW80686  11.554   0.700   0.480
60221SOL    HW180687  11.599   0.610   0.477
60221SOL    HW280688  11.460   0.689   0.513
60222SOL     OW80689  11.786   0.122   0.117
60222SOL    HW180690  11.884   0.100   0.124
60222SOL    HW280691  11.755   0.105   0.024
60223SOL     OW80692  11.953   0.264   1.749
60223SOL    HW180693  12.020   0.203   1.792
60223SOL    HW280694  11.880   0.283   1.814
60224SOL     OW80695  12.060   1.514   1.195
60224SOL    HW180696  12.037   1.489   1.101
60224SOL    HW280697  12.121   1.445   1.234
60225SOL     OW80698  12.523   0.590   1.433
60225SOL    HW180699  12.551   0.547   1.518
60225SOL    HW280700  12.548   0.686   1.434
60226SOL     OW80701  11.975   1.402   0.924
60226SOL    HW180702  12.065   1.416   0.882
60226SOL    HW280703  11.904   1.404   0.853
60227SOL     OW80704  12.094   0.503   0.899
60227SOL    HW180705  12.069   0.494   0.803
60227SOL    HW280706  12.142   0.421   0.930
60228SOL     OW80707  11.711   0.064   0.512
60228SOL    HW180708  11.630   0.065   0.570
60228SOL    HW280709  11.714   0.147   0.457
60229SOL     OW80710  12.606   1.188   0.041
60229SOL    HW180711  12.638   1.112   0.098
60229SOL    HW280712  12.514   1.215   0.071
60230SOL     OW80713  11.469   0.035   0.171
60230SOL    HW180714  11.518   0.119   0.150
60230SOL    HW280715  11.531  -0.030   0.216
60231SOL     OW80716  12.107   0.236   0.480
60231SOL    HW180717  12.059   0.277   0.402
60231SOL    HW280718  12.206   0.234   0.461
60232SOL     OW80719  12.248   0.683   1.464
60232SOL    HW180720  12.168   0.622   1.467
60232SOL    HW280721  12.329   0.630   1.440
60233SOL     OW80722  12.399   1.570   0.793
60233SOL    HW180723  12.420   1.644   0.728
60233SOL    HW280724  12.467   1.570   0.866
60234SOL     OW80725  11.631   1.152   0.741
60234SOL    HW180726  11.560   1.125   0.806
60234SOL    HW280727  11.605   1.124   0.648
60235SOL     OW80728  12.443   1.797   0.591
60235SOL    HW180729  12.487   1.861   0.527
60235SOL    HW280730  12.393   1.849   0.661
60236SOL     OW80731  12.204   0.549   0.016
60236SOL    HW180732  12.163   0.631  -0.023
60236SOL    HW280733  12.268   0.575   0.089
60237SOL     OW80734  11.250   0.556   1.386
60237SOL    HW180735  11.342   0.555   1.345
60237SOL    HW280736  11.244   0.630   1.453
60238SOL     OW80737  11.733   0.222   1.147
60238SOL    HW180738  11.771   0.138   1.184
60238SOL    HW280739  11.645   0.241   1.191
60239SOL     OW80740  12.038   0.454   0.642
60239SOL    HW180741  12.006   0.526   0.580
60239SOL    HW280742  12.062   0.373   0.589
60240SOL     OW80743  12.189   0.039   0.753
60240SOL    HW180744  12.117   0.044   0.684
60240SOL    HW280745  12.165  -0.030   0.822
60241SOL     OW80746  12.601   1.173   0.867
60241SOL    HW180747  12.546   1.089   0.860
60241SOL    HW280748  12.627   1.202   0.775
60242SOL     OW80749  12.638   0.590   0.992
60242SOL    HW180750  12.608   0.495   0.999
60242SOL    HW280751  12.711   0.606   1.058
60243SOL     OW80752  11.660   1.385   0.174
60243SOL    HW180753  11.573   1.370   0.221
60243SOL    HW280754  11.643   1.411   0.079
60244SOL     OW80755  12.562   0.575   0.078
60244SOL    HW180756  12.508   0.554   0.159
60244SOL    HW280757  12.653   0.534   0.087
60245SOL     OW80758  11.699   0.256   0.328
60245SOL    HW180759  11.726   0.197   0.253
60245SOL    HW280760  11.699   0.351   0.297
60246SOL     OW80761  12.236   1.347   1.340
60246SOL    HW180762  12.156   1.324   1.395
60246SOL    HW280763  12.319   1.321   1.389
60247SOL     OW80764  12.764   1.629   1.625
60247SOL    HW180765  12.791   1.663   1.535
60247SOL    HW280766  12.843   1.591   1.671
60248SOL     OW80767  12.283   1.195   1.100
60248SOL    HW180768  12.243   1.239   1.181
60248SOL    HW280769  12.242   1.232   1.017
60249SOL     OW80770  12.087   0.089   1.402
60249SOL    HW180771  12.112   0.069   1.307
60249SOL    HW280772  12.159   0.145   1.444
60250SOL     OW80773  12.152   1.116   1.719
60250SOL    HW180774  12.053   1.122   1.729
60250SOL    HW280775  12.175   1.036   1.663
60251SOL     OW80776  11.877   1.050   0.368
60251SOL    HW180777  11.863   1.057   0.467
60251SOL    HW280778  11.961   0.999   0.350
60252SOL     OW80779  11.582   0.813   1.251
60252SOL    HW180780  11.668   0.825   1.301
60252SOL    HW280781  11.540   0.726   1.278
60253SOL     OW80782  12.446   0.386   1.262
60253SOL    HW180783  12.467   0.460   1.326
60253SOL    HW280784  12.357   0.403   1.219
60254SOL     OW80785  11.236   1.564   1.331
60254SOL    HW180786  11.190   1.646   1.297
60254SOL    HW280787  11.334   1.583   1.340
60255SOL     OW80788  11.539   1.100   0.501
60255SOL    HW180789  11.532   1.183   0.445
60255SOL    HW280790  11.543   1.020   0.441
60256SOL     OW80791  11.738   0.537   0.865
60256SOL    HW180792  11.750   0.603   0.791
60256SOL    HW280793  11.784   0.571   0.948
60257SOL     OW80794  12.424   1.348   0.388
60257SOL    HW180795  12.474   1.425   0.428
60257SOL    HW280796  12.329   1.350   0.420
60258SOL     OW80797  12.444   1.445   1.142
60258SOL    HW180798  12.491   1.458   1.229
60258SOL    HW280799  12.378   1.371   1.151
60259SOL     OW80800  12.754   0.639   0.472
60259SOL    HW180801  12.723   0.700   0.545
60259SOL    HW280802  12.804   0.691   0.403
60260SOL     OW80803  11.526   1.510   1.329
60260SOL    HW180804  11.505   1.466   1.242
60260SOL    HW280805  11.623   1.536   1.332
60261SOL     OW80806  11.574   0.751   1.598
60261SOL    HW180807  11.642   0.806   1.551
60261SOL    HW280808  11.614   0.663   1.625
60262SOL     OW80809  12.185   0.105   1.770
60262SOL    HW180810  12.191   0.190   1.718
60262SOL    HW280811  12.217   0.029   1.713
60263SOL     OW80812  11.676   0.050   1.740
60263SOL    HW180813  11.634  -0.007   1.670
60263SOL    HW280814  11.610   0.119   1.772
60264SOL     OW80815  11.745   0.870   1.029
60264SOL    HW180816  11.789   0.959   1.020
60264SOL    HW280817  11.682   0.870   1.106
60265SOL     OW80818  12.532   0.862   1.045
60265SOL    HW180819  12.457   0.862   0.979
60265SOL    HW280820  12.569   0.770   1.054
60266SOL     OW80821  12.381   0.525   0.275
60266SOL    HW180822  12.394   0.441   0.329
60266SOL    HW280823  12.352   0.599   0.335
60267SOL     OW80824  11.479   0.213   1.231
60267SOL    HW180825  11.456   0.250   1.321
60267SOL    HW280826  11.449   0.118   1.225
60268SOL     OW80827  11.209   1.310   1.282
60268SOL    HW180828  11.262   1.261   1.350
60268SOL    HW280829  11.231   1.408   1.287
60269SOL     OW80830  11.904   0.634   1.064
60269SOL    HW180831  11.963   0.608   0.988
60269SOL    HW280832  11.876   0.730   1.053
60270SOL     OW80833  11.479   0.063   0.618
60270SOL    HW180834  11.468   0.157   0.651
60270SOL    HW280835  11.474   0.000   0.695
60271SOL     OW80836  12.794   0.367   0.374
60271SOL    HW180837  12.796   0.291   0.438
60271SOL    HW280838  12.746   0.444   0.414
60272SOL     OW80839  12.195   0.766   0.966
60272SOL    HW180840  12.210   0.787   1.062
60272SOL    HW280841  12.165   0.671   0.957
60273SOL     OW80842  12.152   1.573   1.700
60273SOL    HW180843  12.132   1.617   1.612
60273SOL    HW280844  12.191   1.482   1.684
60274SOL     OW80845  11.522   0.898   1.804
60274SOL    HW180846  11.598   0.942   1.852
60274SOL    HW280847  11.557   0.851   1.722
60275SOL     OW80848  12.712   0.274   0.125
60275SOL    HW180849  12.651   0.199   0.148
60275SOL    HW280850  12.734   0.326   0.208
60276SOL     OW80851  12.475   0.838   0.042
60276SOL    HW180852  12.509   0.745   0.057
60276SOL    HW280853  12.493   0.865  -0.053
60277SOL     OW80854  12.240   1.333   0.849
60277SOL    HW180855  12.247   1.249   0.794
60277SOL    HW280856  12.302   1.402   0.813
60278SOL     OW80857  11.491   0.810   0.949
60278SOL    HW180858  11.584   0.846   0.954
60278SOL    HW280859  11.485   0.725   1.001
60279SOL     OW80860  11.511   0.509   1.006
60279SOL    HW180861  11.459   0.426   0.989
60279SOL    HW280862  11.588   0.514   0.942
60280SOL     OW80863  12.310   0.380   1.678
60280SOL    HW180864  12.265   0.443   1.742
60280SOL    HW280865  12.403   0.411   1.661
60281SOL     OW80866  12.332   0.207   1.477
60281SOL    HW180867  12.332   0.271   1.554
60281SOL    HW280868  12.360   0.255   1.394
60282SOL     OW80869  11.180   1.326   0.200
60282SOL    HW180870  11.087   1.347   0.169
60282SOL    HW280871  11.190   1.227   0.213
60283SOL     OW80872  11.260   1.801   0.927
60283SOL    HW180873  11.218   1.715   0.900
60283SOL    HW280874  11.354   1.804   0.893
60284SOL     OW80875  11.676   1.568   0.910
60284SOL    HW180876  11.742   1.642   0.919
60284SOL    HW280877  11.720   1.489   0.868
60285SOL     OW80878  12.174   0.796   1.238
60285SOL    HW180879  12.215   0.764   1.324
60285SOL    HW280880  12.078   0.769   1.235
60286SOL     OW80881  11.212   0.544   1.114
60286SOL    HW180882  11.297   0.511   1.073
60286SOL    HW280883  11.225   0.559   1.212
60287SOL     OW80884  11.361   0.520   1.722
60287SOL    HW180885  11.420   0.480   1.652
60287SOL    HW280886  11.303   0.591   1.681
60288SOL     OW80887  12.541   0.950   1.660
60288SOL    HW180888  12.580   1.039   1.680
60288SOL    HW280889  12.551   0.930   1.563
60289SOL     OW80890  11.987   0.572   0.325
60289SOL    HW180891  11.994   0.483   0.279
60289SOL    HW280892  11.893   0.606   0.317
60290SOL     OW80893  11.424   1.564   1.744
60290SOL    HW180894  11.394   1.621   1.820
60290SOL    HW280895  11.417   1.467   1.770
60291SOL     OW80896  11.843   0.464   1.269
60291SOL    HW180897  11.809   0.375   1.239
60291SOL    HW280898  11.869   0.518   1.189
60292SOL     OW80899  12.102   1.678   1.465
60292SOL    HW180900  12.078   1.660   1.370
60292SOL    HW280901  12.132   1.772   1.475
60293SOL     OW80902  11.645   0.500   0.191
60293SOL    HW180903  11.706   0.580   0.195
60293SOL    HW280904  11.550   0.531   0.198
60294SOL     OW80905  11.331   1.137   1.466
60294SOL    HW180906  11.353   1.076   1.542
60294SOL    HW280907  11.341   1.088   1.380
60295SOL     OW80908  12.519   1.059   1.234
60295SOL    HW180909  12.543   0.996   1.160
60295SOL    HW280910  12.429   1.099   1.216
60296SOL     OW80911  12.474   0.855   0.309
60296SOL    HW180912  12.388   0.824   0.351
60296SOL    HW280913  12.470   0.841   0.210
60297SOL     OW80914  12.424   1.731   1.128
60297SOL    HW180915  12.508   1.736   1.074
60297SOL    HW280916  12.401   1.635   1.146
60298SOL     OW80917  11.255   1.258   1.022
60298SOL    HW180918  11.250   1.257   1.122
60298SOL    HW280919  11.172   1.217   0.984
60299SOL     OW80920  11.860   1.662   1.716
60299SOL    HW180921  11.804   1.743   1.725
60299SOL    HW280922  11.912   1.666   1.630
60300SOL     OW80923  12.075   0.086   0.133
60300SOL    HW180924  12.126   0.087   0.047
60300SOL    HW280925  12.131   0.044   0.204
60301SOL     OW80926  12.898   0.135   0.523
60301SOL    HW180927  12.971   0.118   0.456
60301SOL    HW280928  12.867   0.048   0.561
60302SOL     OW80929  12.560   1.573   0.477
60302SOL    HW180930  12.627   1.585   0.403
60302SOL    HW280931  12.520   1.662   0.500
60303SOL     OW80932  11.302   1.794   1.851
60303SOL    HW180933  11.261   1.720   1.904
60303SOL    HW280934  11.366   1.845   1.909
60304SOL     OW80935  12.452   0.927   0.672
60304SOL    HW180936  12.512   0.846   0.674
60304SOL    HW280937  12.492   0.996   0.612
60305SOL     OW80938  12.002   1.273   1.422
60305SOL    HW180939  11.997   1.306   1.517
60305SOL    HW280940  11.916   1.292   1.376
60306SOL     OW80941  11.844   1.616   0.154
60306SOL    HW180942  11.853   1.626   0.055
60306SOL    HW280943  11.804   1.527   0.175
60307SOL     OW80944  11.435   0.326   0.720
60307SOL    HW180945  11.356   0.377   0.686
60307SOL    HW280946  11.426   0.311   0.818
60308SOL     OW80947  12.366   1.612   0.031
60308SOL    HW180948  12.372   1.519   0.068
60308SOL    HW280949  12.307   1.612  -0.049
60309SOL     OW80950  11.994   1.002   1.372
60309SOL    HW180951  12.034   1.001   1.280
60309SOL    HW280952  12.004   1.094   1.412
60310SOL     OW80953  12.088   0.910   0.291
60310SOL    HW180954  12.151   0.948   0.223
60310SOL    HW280955  12.128   0.827   0.330
60311SOL     OW80956  12.676   1.607   0.044
60311SOL    HW180957  12.584   1.644   0.051
60311SOL    HW280958  12.714   1.627  -0.046
60312SOL     OW80959  11.544   1.288   1.490
60312SOL    HW180960  11.531   1.381   1.456
60312SOL    HW280961  11.460   1.236   1.477
60313SOL     OW80962  12.211   1.098   0.696
60313SOL    HW180963  12.141   1.051   0.750
60313SOL    HW280964  12.270   1.030   0.653
60314SOL     OW80965  12.186   0.236   0.971
60314SOL    HW180966  12.178   0.200   0.878
60314SOL    HW280967  12.184   0.160   1.036
60315SOL     OW80968  11.762   1.487   0.491
60315SOL    HW180969  11.804   1.429   0.421
60315SOL    HW280970  11.718   1.566   0.447
60316SOL     OW80971  11.427   1.348   0.290
60316SOL    HW180972  11.331   1.349   0.263
60316SOL    HW280973  11.439   1.401   0.374
60317SOL     OW80974  11.277   1.013   1.726
60317SOL    HW180975  11.200   0.980   1.780
60317SOL    HW280976  11.362   0.983   1.768
60318SOL     OW80977  11.844   0.203   1.489
60318SOL    HW180978  11.934   0.187   1.449
60318SOL    HW280979  11.852   0.208   1.588
60319SOL     OW80980  12.612   0.856   1.398
60319SOL    HW180981  12.555   0.908   1.335
60319SOL    HW280982  12.708   0.868   1.374
60320SOL     OW80983  11.244   0.166   0.318
60320SOL    HW180984  11.227   0.249   0.264
60320SOL    HW280985  11.334   0.129   0.296
60321SOL     OW80986  12.355   1.335   0.119
60321SOL    HW180987  12.256   1.324   0.121
60321SOL    HW280988  12.389   1.350   0.212
60322SOL     OW80989  11.785   0.842   1.431
60322SOL    HW180990  11.841   0.923   1.414
60322SOL    HW280991  11.844   0.762   1.434
60323SOL     OW80992  12.665   1.767   0.959
60323SOL    HW180993  12.698   1.831   0.890
60323SOL    HW280994  12.731   1.761   1.034
60324SOL     OW80995  11.888   0.565   1.708
60324SOL    HW180996  11.907   0.630   1.782
60324SOL    HW280997  11.948   0.485   1.717
60325SOL     OW80998  12.622   1.220   1.633
60325SOL    HW180999  12.613   1.210   1.732
60325SOL    HW281000  12.718   1.213   1.607
60326SOL     OW81001  11.562   1.741   1.560
60326SOL    HW181002  11.471   1.782   1.558
60326SOL    HW281003  11.555   1.647   1.592
60327SOL     OW81004  12.397   0.325   0.449
60327SOL    HW181005  12.462   0.251   0.438
60327SOL    HW281006  12.417   0.375   0.533
60328SOL     OW81007  11.766   0.745   0.652
60328SOL    HW181008  11.816   0.830   0.633
60328SOL    HW281009  11.678   0.747   0.604
60329SOL     OW81010  12.031   1.374   0.016
60329SOL    HW181011  11.985   1.389   0.104
60329SOL    HW281012  12.075   1.459  -0.014
60330SOL     OW81013  11.833   1.790   0.953
60330SOL    HW181014  11.787   1.878   0.940
60330SOL    HW281015  11.932   1.802   0.946
60331SOL     OW81016  12.031   0.956   0.861
60331SOL    HW181017  12.085   0.887   0.909
60331SOL    HW281018  11.999   1.025   0.927
60332SOL     OW81019  12.255   0.984   0.087
60332SOL    HW181020  12.232   1.037   0.005
60332SOL    HW281021  12.336   0.928   0.068
60333SOL     OW81022  13.033   1.569   0.851
60333SOL    HW181023  12.962   1.557   0.781
60333SOL    HW281024  13.034   1.490   0.911
60334SOL     OW81025  11.393   1.314   1.844
60334SOL    HW181026  11.328   1.241   1.823
60334SOL    HW281027  11.397   1.328   1.942
60335SOL     OW81028  11.251   1.240   0.653
60335SOL    HW181029  11.250   1.193   0.741
60335SOL    HW281030  11.333   1.212   0.602
60336SOL     OW81031  11.844   1.391   1.624
60336SOL    HW181032  11.766   1.341   1.662
60336SOL    HW281033  11.841   1.486   1.655
60337SOL     OW81034  11.600   0.424   0.520
60337SOL    HW181035  11.630   0.352   0.458
60337SOL    HW281036  11.561   0.384   0.603
60338SOL     OW81037  11.489   0.547   1.280
60338SOL    HW181038  11.527   0.488   1.352
60338SOL    HW281039  11.529   0.521   1.192
60339SOL     OW81040  11.984   1.586   0.687
60339SOL    HW181041  12.016   1.596   0.593
60339SOL    HW281042  11.905   1.524   0.689
60340SOL     OW81043  12.596   0.214   1.112
60340SOL    HW181044  12.648   0.149   1.167
60340SOL    HW281045  12.547   0.277   1.173
60341SOL     OW81046  12.173   0.034   1.154
60341SOL    HW181047  12.110  -0.038   1.123
60341SOL    HW281048  12.266  -0.002   1.154
60342SOL     OW81049  11.942   1.330   0.301
60342SOL    HW181050  11.896   1.243   0.318
60342SOL    HW281051  12.033   1.327   0.342
60343SOL     OW81052  11.790   1.567   1.284
60343SOL    HW181053  11.785   1.649   1.341
60343SOL    HW281054  11.879   1.564   1.239
60344SOL     OW81055  12.524   0.052   0.168
60344SOL    HW181056  12.559   0.011   0.084
60344SOL    HW281057  12.434   0.014   0.188
60345SOL     OW81058  12.472   0.453   0.691
60345SOL    HW181059  12.413   0.533   0.695
60345SOL    HW281060  12.487   0.418   0.784
60346SOL     OW81061  12.765   0.221   0.882
60346SOL    HW181062  12.681   0.220   0.936
60346SOL    HW281063  12.767   0.304   0.826
60347SOL     OW81064  11.211   1.077   0.300
60347SOL    HW181065  11.310   1.066   0.291
60347SOL    HW281066  11.171   0.991   0.332
60348SOL     OW81067  12.047   1.646   0.337
60348SOL    HW181068  11.970   1.611   0.283
60348SOL    HW281069  12.015   1.717   0.399
60349SOL     OW81070  11.402   0.628   1.975
60349SOL    HW181071  11.309   0.626   2.012
60349SOL    HW281072  11.403   0.589   1.883
60350SOL     OW81073  11.397   0.275   2.858
60350SOL    HW181074  11.432   0.258   2.950
60350SOL    HW281075  11.309   0.230   2.846
60351SOL     OW81076  11.191   0.368   2.509
60351SOL    HW181077  11.109   0.411   2.548
60351SOL    HW281078  11.163   0.295   2.446
60352SOL     OW81079  11.741   1.275   3.027
60352SOL    HW181080  11.648   1.268   2.990
60352SOL    HW281081  11.752   1.364   3.071
60353SOL     OW81082  12.727   1.511   2.565
60353SOL    HW181083  12.670   1.495   2.646
60353SOL    HW281084  12.668   1.521   2.485
60354SOL     OW81085  12.307   0.703   2.579
60354SOL    HW181086  12.364   0.781   2.554
60354SOL    HW281087  12.247   0.729   2.655
60355SOL     OW81088  11.940   1.144   2.885
60355SOL    HW181089  11.862   1.161   2.945
60355SOL    HW281090  11.974   1.231   2.849
60356SOL     OW81091  12.022   0.798   3.685
60356SOL    HW181092  12.018   0.874   3.750
60356SOL    HW281093  12.044   0.834   3.594
60357SOL     OW81094  11.857   1.012   2.527
60357SOL    HW181095  11.926   0.996   2.597
60357SOL    HW281096  11.784   1.069   2.565
60358SOL     OW81097  11.858   1.161   3.665
60358SOL    HW181098  11.918   1.240   3.679
60358SOL    HW281099  11.772   1.192   3.624
60359SOL     OW81100  11.507   1.435   2.923
60359SOL    HW181101  11.429   1.404   2.870
60359SOL    HW281102  11.565   1.493   2.866
60360SOL     OW81103  12.632   1.505   3.201
60360SOL    HW181104  12.656   1.599   3.227
60360SOL    HW281105  12.616   1.451   3.283
60361SOL     OW81106  11.610   0.392   3.361
60361SOL    HW181107  11.692   0.336   3.370
60361SOL    HW281108  11.529   0.334   3.365
60362SOL     OW81109  11.403   1.713   2.345
60362SOL    HW181110  11.437   1.790   2.399
60362SOL    HW281111  11.447   1.713   2.255
60363SOL     OW81112  12.299   1.341   3.552
60363SOL    HW181113  12.346   1.341   3.640
60363SOL    HW281114  12.251   1.254   3.541
60364SOL     OW81115  11.402   1.434   2.400
60364SOL    HW181116  11.376   1.530   2.400
60364SOL    HW281117  11.331   1.380   2.445
60365SOL     OW81118  11.412   1.091   2.748
60365SOL    HW181119  11.426   1.007   2.800
60365SOL    HW281120  11.357   1.155   2.803
60366SOL     OW81121  11.792   1.786   3.301
60366SOL    HW181122  11.700   1.769   3.336
60366SOL    HW281123  11.820   1.878   3.327
60367SOL     OW81124  11.778   0.964   1.985
60367SOL    HW181125  11.785   1.048   1.931
60367SOL    HW281126  11.824   0.977   2.073
60368SOL     OW81127  12.766   0.114   3.342
60368SOL    HW181128  12.748   0.181   3.270
60368SOL    HW281129  12.763   0.160   3.431
60369SOL     OW81130  11.294   0.643   2.425
60369SOL    HW181131  11.249   0.555   2.442
60369SOL    HW281132  11.293   0.697   2.509
60370SOL     OW81133  11.199   1.596   1.979
60370SOL    HW181134  11.180   1.500   2.000
60370SOL    HW281135  11.166   1.654   2.054
60371SOL     OW81136  12.861   0.922   2.474
60371SOL    HW181137  12.956   0.893   2.482
60371SOL    HW281138  12.853   0.987   2.399
60372SOL     OW81139  11.285   0.737   3.459
60372SOL    HW181140  11.373   0.724   3.504
60372SOL    HW281141  11.272   0.834   3.437
60373SOL     OW81142  11.785   1.365   2.588
60373SOL    HW181143  11.736   1.278   2.597
60373SOL    HW281144  11.762   1.408   2.501
60374SOL     OW81145  12.465   1.228   3.285
60374SOL    HW181146  12.502   1.155   3.227
60374SOL    HW281147  12.517   1.233   3.370
60375SOL     OW81148  11.981   0.004   2.364
60375SOL    HW181149  12.021   0.095   2.355
60375SOL    HW281150  11.881   0.012   2.370
60376SOL     OW81151  11.369   0.976   3.126
60376SOL    HW181152  11.458   0.931   3.112
60376SOL    HW281153  11.296   0.911   3.107
60377SOL     OW81154  12.359   1.792   3.478
60377SOL    HW181155  12.383   1.852   3.402
60377SOL    HW281156  12.366   1.697   3.448
60378SOL     OW81157  11.489   0.251   3.663
60378SOL    HW181158  11.560   0.322   3.669
60378SOL    HW281159  11.401   0.290   3.691
60379SOL     OW81160  12.638   1.417   2.815
60379SOL    HW181161  12.579   1.423   2.895
60379SOL    HW281162  12.623   1.329   2.769
60380SOL     OW81163  12.839   1.714   2.434
60380SOL    HW181164  12.798   1.691   2.346
60380SOL    HW281165  12.821   1.640   2.499
60381SOL     OW81166  11.770   0.729   2.132
60381SOL    HW181167  11.794   0.798   2.064
60381SOL    HW281168  11.692   0.762   2.186
60382SOL     OW81169  12.453   0.345   2.806
60382SOL    HW181170  12.367   0.295   2.793
60382SOL    HW281171  12.515   0.291   2.862
60383SOL     OW81172  11.979   0.605   3.327
60383SOL    HW181173  11.932   0.602   3.416
60383SOL    HW281174  11.928   0.550   3.261
60384SOL     OW81175  12.566   0.469   3.536
60384SOL    HW181176  12.546   0.512   3.624
60384SOL    HW281177  12.644   0.407   3.545
60385SOL     OW81178  12.145   0.890   3.434
60385SOL    HW181179  12.191   0.806   3.405
60385SOL    HW281180  12.089   0.924   3.359
60386SOL     OW81181  12.163   0.410   3.104
60386SOL    HW181182  12.086   0.444   3.158
60386SOL    HW281183  12.129   0.359   3.025
60387SOL     OW81184  12.213   0.701   2.291
60387SOL    HW181185  12.239   0.697   2.387
60387SOL    HW281186  12.128   0.650   2.277
60388SOL     OW81187  11.248   0.811   2.651
60388SOL    HW181188  11.347   0.799   2.660
60388SOL    HW281189  11.224   0.906   2.672
60389SOL     OW81190  11.302   1.821   3.433
60389SOL    HW181191  11.292   1.806   3.532
60389SOL    HW281192  11.216   1.857   3.397
60390SOL     OW81193  12.037   0.348   2.057
60390SOL    HW181194  12.096   0.411   2.008
60390SOL    HW281195  12.056   0.254   2.028
60391SOL     OW81196  12.534   1.144   2.407
60391SOL    HW181197  12.617   1.115   2.359
60391SOL    HW281198  12.485   1.211   2.351
60392SOL     OW81199  11.722   0.196   2.747
60392SOL    HW181200  11.717   0.191   2.847
60392SOL    HW281201  11.724   0.292   2.718
60393SOL     OW81202  12.180   1.456   2.339
60393SOL    HW181203  12.134   1.528   2.287
60393SOL    HW281204  12.176   1.476   2.437
60394SOL     OW81205  11.523   1.801   2.715
60394SOL    HW181206  11.573   1.715   2.721
60394SOL    HW281207  11.588   1.878   2.712
60395SOL     OW81208  12.399   1.550   3.368
60395SOL    HW181209  12.405   1.473   3.432
60395SOL    HW281210  12.347   1.524   3.288
60396SOL     OW81211  11.493   0.943   2.104
60396SOL    HW181212  11.575   0.982   2.062
60396SOL    HW281213  11.466   0.861   2.055
60397SOL     OW81214  12.630   0.735   2.590
60397SOL    HW181215  12.625   0.670   2.665
60397SOL    HW281216  12.710   0.794   2.603
60398SOL     OW81217  11.633   1.266   3.589
60398SOL    HW181218  11.583   1.267   3.503
60398SOL    HW281219  11.570   1.248   3.665
60399SOL     OW81220  12.283   1.776   2.099
60399SOL    HW181221  12.223   1.714   2.149
60399SOL    HW281222  12.314   1.732   2.014
60400SOL     OW81223  11.374   0.285   3.360
60400SOL    HW181224  11.294   0.345   3.347
60400SOL    HW281225  11.364   0.236   3.446
60401SOL     OW81226  11.636   1.743   2.185
60401SOL    HW181227  11.669   1.782   2.271
60401SOL    HW281228  11.712   1.736   2.120
60402SOL     OW81229  12.572   0.107   2.288
60402SOL    HW181230  12.548   0.070   2.198
60402SOL    HW281231  12.671   0.123   2.292
60403SOL     OW81232  11.421   1.785   3.103
60403SOL    HW181233  11.478   1.720   3.153
60403SOL    HW281234  11.405   1.752   3.010
60404SOL     OW81235  12.112   1.698   2.766
60404SOL    HW181236  12.192   1.641   2.787
60404SOL    HW281237  12.063   1.658   2.689
60405SOL     OW81238  11.554   0.700   2.342
60405SOL    HW181239  11.599   0.610   2.339
60405SOL    HW281240  11.460   0.689   2.375
60406SOL     OW81241  11.786   0.122   1.979
60406SOL    HW181242  11.884   0.100   1.986
60406SOL    HW281243  11.755   0.105   1.886
60407SOL     OW81244  11.953   0.264   3.611
60407SOL    HW181245  12.020   0.203   3.654
60407SOL    HW281246  11.880   0.283   3.676
60408SOL     OW81247  12.060   1.514   3.057
60408SOL    HW181248  12.037   1.489   2.963
60408SOL    HW281249  12.121   1.445   3.096
60409SOL     OW81250  12.523   0.590   3.295
60409SOL    HW181251  12.551   0.547   3.380
60409SOL    HW281252  12.548   0.686   3.296
60410SOL     OW81253  11.975   1.402   2.786
60410SOL    HW181254  12.065   1.416   2.744
60410SOL    HW281255  11.904   1.404   2.715
60411SOL     OW81256  12.094   0.503   2.761
60411SOL    HW181257  12.069   0.494   2.665
60411SOL    HW281258  12.142   0.421   2.792
60412SOL     OW81259  11.711   0.064   2.374
60412SOL    HW181260  11.630   0.065   2.432
60412SOL    HW281261  11.714   0.147   2.319
60413SOL     OW81262  12.606   1.188   1.903
60413SOL    HW181263  12.638   1.112   1.960
60413SOL    HW281264  12.514   1.215   1.933
60414SOL     OW81265  11.469   0.035   2.033
60414SOL    HW181266  11.518   0.119   2.012
60414SOL    HW281267  11.531  -0.030   2.078
60415SOL     OW81268  12.107   0.236   2.342
60415SOL    HW181269  12.059   0.277   2.264
60415SOL    HW281270  12.206   0.234   2.323
60416SOL     OW81271  12.248   0.683   3.326
60416SOL    HW181272  12.168   0.622   3.329
60416SOL    HW281273  12.329   0.630   3.302
60417SOL     OW81274  12.399   1.570   2.655
60417SOL    HW181275  12.420   1.644   2.590
60417SOL    HW281276  12.467   1.570   2.728
60418SOL     OW81277  11.631   1.152   2.603
60418SOL    HW181278  11.560   1.125   2.668
60418SOL    HW281279  11.605   1.124   2.510
60419SOL     OW81280  12.443   1.797   2.453
60419SOL    HW181281  12.487   1.861   2.389
60419SOL    HW281282  12.393   1.849   2.523
60420SOL     OW81283  12.204   0.549   1.878
60420SOL    HW181284  12.163   0.631   1.839
60420SOL    HW281285  12.268   0.575   1.951
60421SOL     OW81286  11.250   0.556   3.248
60421SOL    HW181287  11.342   0.555   3.207
60421SOL    HW281288  11.244   0.630   3.315
60422SOL     OW81289  11.733   0.222   3.009
60422SOL    HW181290  11.771   0.138   3.046
60422SOL    HW281291  11.645   0.241   3.053
60423SOL     OW81292  12.038   0.454   2.504
60423SOL    HW181293  12.006   0.526   2.442
60423SOL    HW281294  12.062   0.373   2.451
60424SOL     OW81295  12.189   0.039   2.615
60424SOL    HW181296  12.117   0.044   2.546
60424SOL    HW281297  12.165  -0.030   2.684
60425SOL     OW81298  12.601   1.173   2.729
60425SOL    HW181299  12.546   1.089   2.722
60425SOL    HW281300  12.627   1.202   2.637
60426SOL     OW81301  12.638   0.590   2.854
60426SOL    HW181302  12.608   0.495   2.861
60426SOL    HW281303  12.711   0.606   2.920
60427SOL     OW81304  11.660   1.385   2.036
60427SOL    HW181305  11.573   1.370   2.083
60427SOL    HW281306  11.643   1.411   1.941
60428SOL     OW81307  12.562   0.575   1.940
60428SOL    HW181308  12.508   0.554   2.021
60428SOL    HW281309  12.653   0.534   1.949
60429SOL     OW81310  11.699   0.256   2.190
60429SOL    HW181311  11.726   0.197   2.115
60429SOL    HW281312  11.699   0.351   2.159
60430SOL     OW81313  12.236   1.347   3.202
60430SOL    HW181314  12.156   1.324   3.257
60430SOL    HW281315  12.319   1.321   3.251
60431SOL     OW81316  12.764   1.629   3.487
60431SOL    HW181317  12.791   1.663   3.397
60431SOL    HW281318  12.843   1.591   3.533
60432SOL     OW81319  12.283   1.195   2.962
60432SOL    HW181320  12.243   1.239   3.043
60432SOL    HW281321  12.242   1.232   2.879
60433SOL     OW81322  12.087   0.089   3.264
60433SOL    HW181323  12.112   0.069   3.169
60433SOL    HW281324  12.159   0.145   3.306
60434SOL     OW81325  12.152   1.116   3.581
60434SOL    HW181326  12.053   1.122   3.591
60434SOL    HW281327  12.175   1.036   3.525
60435SOL     OW81328  11.877   1.050   2.230
60435SOL    HW181329  11.863   1.057   2.329
60435SOL    HW281330  11.961   0.999   2.212
60436SOL     OW81331  11.582   0.813   3.113
60436SOL    HW181332  11.668   0.825   3.163
60436SOL    HW281333  11.540   0.726   3.140
60437SOL     OW81334  12.446   0.386   3.124
60437SOL    HW181335  12.467   0.460   3.188
60437SOL    HW281336  12.357   0.403   3.081
60438SOL     OW81337  11.236   1.564   3.193
60438SOL    HW181338  11.190   1.646   3.159
60438SOL    HW281339  11.334   1.583   3.202
60439SOL     OW81340  11.539   1.100   2.363
60439SOL    HW181341  11.532   1.183   2.307
60439SOL    HW281342  11.543   1.020   2.303
60440SOL     OW81343  11.738   0.537   2.727
60440SOL    HW181344  11.750   0.603   2.653
60440SOL    HW281345  11.784   0.571   2.810
60441SOL     OW81346  12.424   1.348   2.250
60441SOL    HW181347  12.474   1.425   2.290
60441SOL    HW281348  12.329   1.350   2.282
60442SOL     OW81349  12.444   1.445   3.004
60442SOL    HW181350  12.491   1.458   3.091
60442SOL    HW281351  12.378   1.371   3.013
60443SOL     OW81352  12.754   0.639   2.334
60443SOL    HW181353  12.723   0.700   2.407
60443SOL    HW281354  12.804   0.691   2.265
60444SOL     OW81355  11.526   1.510   3.191
60444SOL    HW181356  11.505   1.466   3.104
60444SOL    HW281357  11.623   1.536   3.194
60445SOL     OW81358  11.574   0.751   3.460
60445SOL    HW181359  11.642   0.806   3.413
60445SOL    HW281360  11.614   0.663   3.487
60446SOL     OW81361  12.185   0.105   3.632
60446SOL    HW181362  12.191   0.190   3.580
60446SOL    HW281363  12.217   0.029   3.575
60447SOL     OW81364  11.676   0.050   3.602
60447SOL    HW181365  11.634  -0.007   3.532
60447SOL    HW281366  11.610   0.119   3.634
60448SOL     OW81367  11.745   0.870   2.891
60448SOL    HW181368  11.789   0.959   2.882
60448SOL    HW281369  11.682   0.870   2.968
60449SOL     OW81370  12.532   0.862   2.907
60449SOL    HW181371  12.457   0.862   2.841
60449SOL    HW281372  12.569   0.770   2.916
60450SOL     OW81373  12.381   0.525   2.137
60450SOL    HW181374  12.394   0.441   2.191
60450SOL    HW281375  12.352   0.599   2.197
60451SOL     OW81376  11.479   0.213   3.093
60451SOL    HW181377  11.456   0.250   3.183
60451SOL    HW281378  11.449   0.118   3.087
60452SOL     OW81379  11.209   1.310   3.144
60452SOL    HW181380  11.262   1.261   3.212
60452SOL    HW281381  11.231   1.408   3.149
60453SOL     OW81382  11.904   0.634   2.926
60453SOL    HW181383  11.963   0.608   2.850
60453SOL    HW281384  11.876   0.730   2.915
60454SOL     OW81385  11.479   0.063   2.480
60454SOL    HW181386  11.468   0.157   2.513
60454SOL    HW281387  11.474   0.000   2.557
60455SOL     OW81388  12.794   0.367   2.236
60455SOL    HW181389  12.796   0.291   2.300
60455SOL    HW281390  12.746   0.444   2.276
60456SOL     OW81391  12.195   0.766   2.828
60456SOL    HW181392  12.210   0.787   2.924
60456SOL    HW281393  12.165   0.671   2.819
60457SOL     OW81394  12.152   1.573   3.562
60457SOL    HW181395  12.132   1.617   3.474
60457SOL    HW281396  12.191   1.482   3.546
60458SOL     OW81397  11.522   0.898   3.666
60458SOL    HW181398  11.598   0.942   3.714
60458SOL    HW281399  11.557   0.851   3.584
60459SOL     OW81400  12.712   0.274   1.987
60459SOL    HW181401  12.651   0.199   2.010
60459SOL    HW281402  12.734   0.326   2.070
60460SOL     OW81403  12.475   0.838   1.904
60460SOL    HW181404  12.509   0.745   1.919
60460SOL    HW281405  12.493   0.865   1.809
60461SOL     OW81406  12.240   1.333   2.711
60461SOL    HW181407  12.247   1.249   2.656
60461SOL    HW281408  12.302   1.402   2.675
60462SOL     OW81409  11.491   0.810   2.811
60462SOL    HW181410  11.584   0.846   2.816
60462SOL    HW281411  11.485   0.725   2.863
60463SOL     OW81412  11.511   0.509   2.868
60463SOL    HW181413  11.459   0.426   2.851
60463SOL    HW281414  11.588   0.514   2.804
60464SOL     OW81415  12.310   0.380   3.540
60464SOL    HW181416  12.265   0.443   3.604
60464SOL    HW281417  12.403   0.411   3.523
60465SOL     OW81418  12.332   0.207   3.339
60465SOL    HW181419  12.332   0.271   3.416
60465SOL    HW281420  12.360   0.255   3.256
60466SOL     OW81421  11.180   1.326   2.062
60466SOL    HW181422  11.087   1.347   2.031
60466SOL    HW281423  11.190   1.227   2.075
60467SOL     OW81424  11.260   1.801   2.789
60467SOL    HW181425  11.218   1.715   2.762
60467SOL    HW281426  11.354   1.804   2.755
60468SOL     OW81427  11.676   1.568   2.772
60468SOL    HW181428  11.742   1.642   2.781
60468SOL    HW281429  11.720   1.489   2.730
60469SOL     OW81430  12.174   0.796   3.100
60469SOL    HW181431  12.215   0.764   3.186
60469SOL    HW281432  12.078   0.769   3.097
60470SOL     OW81433  11.212   0.544   2.976
60470SOL    HW181434  11.297   0.511   2.935
60470SOL    HW281435  11.225   0.559   3.074
60471SOL     OW81436  11.361   0.520   3.584
60471SOL    HW181437  11.420   0.480   3.514
60471SOL    HW281438  11.303   0.591   3.543
60472SOL     OW81439  12.541   0.950   3.522
60472SOL    HW181440  12.580   1.039   3.542
60472SOL    HW281441  12.551   0.930   3.425
60473SOL     OW81442  11.987   0.572   2.187
60473SOL    HW181443  11.994   0.483   2.141
60473SOL    HW281444  11.893   0.606   2.179
60474SOL     OW81445  11.424   1.564   3.606
60474SOL    HW181446  11.394   1.621   3.682
60474SOL    HW281447  11.417   1.467   3.632
60475SOL     OW81448  11.843   0.464   3.131
60475SOL    HW181449  11.809   0.375   3.101
60475SOL    HW281450  11.869   0.518   3.051
60476SOL     OW81451  12.102   1.678   3.327
60476SOL    HW181452  12.078   1.660   3.232
60476SOL    HW281453  12.132   1.772   3.337
60477SOL     OW81454  11.645   0.500   2.053
60477SOL    HW181455  11.706   0.580   2.057
60477SOL    HW281456  11.550   0.531   2.060
60478SOL     OW81457  11.331   1.137   3.328
60478SOL    HW181458  11.353   1.076   3.404
60478SOL    HW281459  11.341   1.088   3.242
60479SOL     OW81460  12.519   1.059   3.096
60479SOL    HW181461  12.543   0.996   3.022
60479SOL    HW281462  12.429   1.099   3.078
60480SOL     OW81463  12.474   0.855   2.171
60480SOL    HW181464  12.388   0.824   2.213
60480SOL    HW281465  12.470   0.841   2.072
60481SOL     OW81466  12.424   1.731   2.990
60481SOL    HW181467  12.508   1.736   2.936
60481SOL    HW281468  12.401   1.635   3.008
60482SOL     OW81469  11.255   1.258   2.884
60482SOL    HW181470  11.250   1.257   2.984
60482SOL    HW281471  11.172   1.217   2.846
60483SOL     OW81472  11.860   1.662   3.578
60483SOL    HW181473  11.804   1.743   3.587
60483SOL    HW281474  11.912   1.666   3.492
60484SOL     OW81475  12.898   0.135   2.385
60484SOL    HW181476  12.971   0.118   2.318
60484SOL    HW281477  12.867   0.048   2.423
60485SOL     OW81478  12.560   1.573   2.339
60485SOL    HW181479  12.627   1.585   2.265
60485SOL    HW281480  12.520   1.662   2.362
60486SOL     OW81481  11.302   1.794   3.713
60486SOL    HW181482  11.261   1.720   3.766
60486SOL    HW281483  11.366   1.845   3.771
60487SOL     OW81484  12.452   0.927   2.534
60487SOL    HW181485  12.512   0.846   2.536
60487SOL    HW281486  12.492   0.996   2.474
60488SOL     OW81487  12.002   1.273   3.284
60488SOL    HW181488  11.997   1.306   3.379
60488SOL    HW281489  11.916   1.292   3.238
60489SOL     OW81490  11.844   1.616   2.016
60489SOL    HW181491  11.853   1.626   1.917
60489SOL    HW281492  11.804   1.527   2.037
60490SOL     OW81493  11.435   0.326   2.582
60490SOL    HW181494  11.356   0.377   2.548
60490SOL    HW281495  11.426   0.311   2.680
60491SOL     OW81496  12.366   1.612   1.893
60491SOL    HW181497  12.372   1.519   1.930
60491SOL    HW281498  12.307   1.612   1.813
60492SOL     OW81499  11.994   1.002   3.234
60492SOL    HW181500  12.034   1.001   3.142
60492SOL    HW281501  12.004   1.094   3.274
60493SOL     OW81502  12.088   0.910   2.153
60493SOL    HW181503  12.151   0.948   2.085
60493SOL    HW281504  12.128   0.827   2.192
60494SOL     OW81505  12.676   1.607   1.906
60494SOL    HW181506  12.584   1.644   1.913
60494SOL    HW281507  12.714   1.627   1.816
60495SOL     OW81508  11.544   1.288   3.352
60495SOL    HW181509  11.531   1.381   3.318
60495SOL    HW281510  11.460   1.236   3.339
60496SOL     OW81511  12.211   1.098   2.558
60496SOL    HW181512  12.141   1.051   2.612
60496SOL    HW281513  12.270   1.030   2.515
60497SOL     OW81514  12.186   0.236   2.833
60497SOL    HW181515  12.178   0.200   2.740
60497SOL    HW281516  12.184   0.160   2.898
60498SOL     OW81517  11.762   1.487   2.353
60498SOL    HW181518  11.804   1.429   2.283
60498SOL    HW281519  11.718   1.566   2.309
60499SOL     OW81520  11.427   1.348   2.152
60499SOL    HW181521  11.331   1.349   2.125
60499SOL    HW281522  11.439   1.401   2.236
60500SOL     OW81523  11.277   1.013   3.588
60500SOL    HW181524  11.200   0.980   3.642
60500SOL    HW281525  11.362   0.983   3.630
60501SOL     OW81526  11.844   0.203   3.351
60501SOL    HW181527  11.934   0.187   3.311
60501SOL    HW281528  11.852   0.208   3.450
60502SOL     OW81529  11.247   0.345   1.895
60502SOL    HW181530  11.155   0.317   1.866
60502SOL    HW281531  11.278   0.422   1.839
60503SOL     OW81532  12.612   0.856   3.260
60503SOL    HW181533  12.555   0.908   3.197
60503SOL    HW281534  12.708   0.868   3.236
60504SOL     OW81535  11.244   0.166   2.180
60504SOL    HW181536  11.227   0.249   2.126
60504SOL    HW281537  11.334   0.129   2.158
60505SOL     OW81538  12.355   1.335   1.981
60505SOL    HW181539  12.256   1.324   1.983
60505SOL    HW281540  12.389   1.350   2.074
60506SOL     OW81541  11.785   0.842   3.293
60506SOL    HW181542  11.841   0.923   3.276
60506SOL    HW281543  11.844   0.762   3.296
60507SOL     OW81544  12.665   1.767   2.821
60507SOL    HW181545  12.698   1.831   2.752
60507SOL    HW281546  12.731   1.761   2.896
60508SOL     OW81547  11.888   0.565   3.570
60508SOL    HW181548  11.907   0.630   3.644
60508SOL    HW281549  11.948   0.485   3.579
60509SOL     OW81550  12.622   1.220   3.495
60509SOL    HW181551  12.613   1.210   3.594
60509SOL    HW281552  12.718   1.213   3.469
60510SOL     OW81553  11.562   1.741   3.422
60510SOL    HW181554  11.471   1.782   3.420
60510SOL    HW281555  11.555   1.647   3.454
60511SOL     OW81556  12.397   0.325   2.311
60511SOL    HW181557  12.462   0.251   2.300
60511SOL    HW281558  12.417   0.375   2.395
60512SOL     OW81559  11.766   0.745   2.514
60512SOL    HW181560  11.816   0.830   2.495
60512SOL    HW281561  11.678   0.747   2.466
60513SOL     OW81562  12.031   1.374   1.878
60513SOL    HW181563  11.985   1.389   1.966
60513SOL    HW281564  12.075   1.459   1.848
60514SOL     OW81565  11.833   1.790   2.815
60514SOL    HW181566  11.787   1.878   2.802
60514SOL    HW281567  11.932   1.802   2.808
60515SOL     OW81568  12.031   0.956   2.723
60515SOL    HW181569  12.085   0.887   2.771
60515SOL    HW281570  11.999   1.025   2.789
60516SOL     OW81571  12.255   0.984   1.949
60516SOL    HW181572  12.232   1.037   1.867
60516SOL    HW281573  12.336   0.928   1.930
60517SOL     OW81574  13.033   1.569   2.713
60517SOL    HW181575  12.962   1.557   2.643
60517SOL    HW281576  13.034   1.490   2.773
60518SOL     OW81577  11.393   1.314   3.706
60518SOL    HW181578  11.328   1.241   3.685
60518SOL    HW281579  11.397   1.328   3.804
60519SOL     OW81580  11.251   1.240   2.515
60519SOL    HW181581  11.250   1.193   2.603
60519SOL    HW281582  11.333   1.212   2.464
60520SOL     OW81583  11.844   1.391   3.486
60520SOL    HW181584  11.766   1.341   3.524
60520SOL    HW281585  11.841   1.486   3.517
60521SOL     OW81586  11.600   0.424   2.382
60521SOL    HW181587  11.630   0.352   2.320
60521SOL    HW281588  11.561   0.384   2.465
60522SOL     OW81589  11.489   0.547   3.142
60522SOL    HW181590  11.527   0.488   3.214
60522SOL    HW281591  11.529   0.521   3.054
60523SOL     OW81592  11.984   1.586   2.549
60523SOL    HW181593  12.016   1.596   2.455
60523SOL    HW281594  11.905   1.524   2.551
60524SOL     OW81595  12.596   0.214   2.974
60524SOL    HW181596  12.648   0.149   3.029
60524SOL    HW281597  12.547   0.277   3.035
60525SOL     OW81598  12.173   0.034   3.016
60525SOL    HW181599  12.110  -0.038   2.985
60525SOL    HW281600  12.266  -0.002   3.016
60526SOL     OW81601  11.942   1.330   2.163
60526SOL    HW181602  11.896   1.243   2.180
60526SOL    HW281603  12.033   1.327   2.204
60527SOL     OW81604  11.790   1.567   3.146
60527SOL    HW181605  11.785   1.649   3.203
60527SOL    HW281606  11.879   1.564   3.101
60528SOL     OW81607  12.524   0.052   2.030
60528SOL    HW181608  12.559   0.011   1.946
60528SOL    HW281609  12.434   0.014   2.050
60529SOL     OW81610  12.472   0.453   2.553
60529SOL    HW181611  12.413   0.533   2.557
60529SOL    HW281612  12.487   0.418   2.646
60530SOL     OW81613  12.765   0.221   2.744
60530SOL    HW181614  12.681   0.220   2.798
60530SOL    HW281615  12.767   0.304   2.688
60531SOL     OW81616  11.211   1.077   2.162
60531SOL    HW181617  11.310   1.066   2.153
60531SOL    HW281618  11.171   0.991   2.194
60532SOL     OW81619  12.047   1.646   2.199
60532SOL    HW181620  11.970   1.611   2.145
60532SOL    HW281621  12.015   1.717   2.261
60533SOL     OW81622  11.402   0.628   3.837
60533SOL    HW181623  11.309   0.626   3.874
60533SOL    HW281624  11.403   0.589   3.745
60534SOL     OW81625  11.397   0.275   4.720
60534SOL    HW181626  11.432   0.258   4.812
60534SOL    HW281627  11.309   0.230   4.708
60535SOL     OW81628  11.191   0.368   4.371
60535SOL    HW181629  11.109   0.411   4.410
60535SOL    HW281630  11.163   0.295   4.308
60536SOL     OW81631  11.741   1.275   4.889
60536SOL    HW181632  11.648   1.268   4.852
60536SOL    HW281633  11.752   1.364   4.933
60537SOL     OW81634  12.727   1.511   4.427
60537SOL    HW181635  12.670   1.495   4.508
60537SOL    HW281636  12.668   1.521   4.347
60538SOL     OW81637  12.307   0.703   4.441
60538SOL    HW181638  12.364   0.781   4.416
60538SOL    HW281639  12.247   0.729   4.517
60539SOL     OW81640  11.940   1.144   4.747
60539SOL    HW181641  11.862   1.161   4.807
60539SOL    HW281642  11.974   1.231   4.711
60540SOL     OW81643  12.022   0.798   5.547
60540SOL    HW181644  12.018   0.874   5.612
60540SOL    HW281645  12.044   0.834   5.456
60541SOL     OW81646  11.857   1.012   4.389
60541SOL    HW181647  11.926   0.996   4.459
60541SOL    HW281648  11.784   1.069   4.427
60542SOL     OW81649  11.858   1.161   5.527
60542SOL    HW181650  11.918   1.240   5.541
60542SOL    HW281651  11.772   1.192   5.486
60543SOL     OW81652  11.507   1.435   4.785
60543SOL    HW181653  11.429   1.404   4.732
60543SOL    HW281654  11.565   1.493   4.728
60544SOL     OW81655  12.632   1.505   5.063
60544SOL    HW181656  12.656   1.599   5.089
60544SOL    HW281657  12.616   1.451   5.145
60545SOL     OW81658  11.610   0.392   5.223
60545SOL    HW181659  11.692   0.336   5.232
60545SOL    HW281660  11.529   0.334   5.227
60546SOL     OW81661  11.403   1.713   4.207
60546SOL    HW181662  11.437   1.790   4.261
60546SOL    HW281663  11.447   1.713   4.117
60547SOL     OW81664  12.299   1.341   5.414
60547SOL    HW181665  12.346   1.341   5.502
60547SOL    HW281666  12.251   1.254   5.403
60548SOL     OW81667  11.402   1.434   4.262
60548SOL    HW181668  11.376   1.530   4.262
60548SOL    HW281669  11.331   1.380   4.307
60549SOL     OW81670  11.412   1.091   4.610
60549SOL    HW181671  11.426   1.007   4.662
60549SOL    HW281672  11.357   1.155   4.665
60550SOL     OW81673  11.792   1.786   5.163
60550SOL    HW181674  11.700   1.769   5.198
60550SOL    HW281675  11.820   1.878   5.189
60551SOL     OW81676  11.778   0.964   3.847
60551SOL    HW181677  11.785   1.048   3.793
60551SOL    HW281678  11.824   0.977   3.935
60552SOL     OW81679  12.766   0.114   5.204
60552SOL    HW181680  12.748   0.181   5.132
60552SOL    HW281681  12.763   0.160   5.293
60553SOL     OW81682  11.294   0.643   4.287
60553SOL    HW181683  11.249   0.555   4.304
60553SOL    HW281684  11.293   0.697   4.371
60554SOL     OW81685  11.199   1.596   3.841
60554SOL    HW181686  11.180   1.500   3.862
60554SOL    HW281687  11.166   1.654   3.916
60555SOL     OW81688  12.861   0.922   4.336
60555SOL    HW181689  12.956   0.893   4.344
60555SOL    HW281690  12.853   0.987   4.261
60556SOL     OW81691  11.285   0.737   5.321
60556SOL    HW181692  11.373   0.724   5.366
60556SOL    HW281693  11.272   0.834   5.299
60557SOL     OW81694  11.785   1.365   4.450
60557SOL    HW181695  11.736   1.278   4.459
60557SOL    HW281696  11.762   1.408   4.363
60558SOL     OW81697  12.465   1.228   5.147
60558SOL    HW181698  12.502   1.155   5.089
60558SOL    HW281699  12.517   1.233   5.232
60559SOL     OW81700  11.981   0.004   4.226
60559SOL    HW181701  12.021   0.095   4.217
60559SOL    HW281702  11.881   0.012   4.232
60560SOL     OW81703  11.369   0.976   4.988
60560SOL    HW181704  11.458   0.931   4.974
60560SOL    HW281705  11.296   0.911   4.969
60561SOL     OW81706  12.359   1.792   5.340
60561SOL    HW181707  12.383   1.852   5.264
60561SOL    HW281708  12.366   1.697   5.310
60562SOL     OW81709  11.489   0.251   5.525
60562SOL    HW181710  11.560   0.322   5.531
60562SOL    HW281711  11.401   0.290   5.553
60563SOL     OW81712  12.638   1.417   4.677
60563SOL    HW181713  12.579   1.423   4.757
60563SOL    HW281714  12.623   1.329   4.631
60564SOL     OW81715  12.839   1.714   4.296
60564SOL    HW181716  12.798   1.691   4.208
60564SOL    HW281717  12.821   1.640   4.361
60565SOL     OW81718  11.770   0.729   3.994
60565SOL    HW181719  11.794   0.798   3.926
60565SOL    HW281720  11.692   0.762   4.048
60566SOL     OW81721  12.453   0.345   4.668
60566SOL    HW181722  12.367   0.295   4.655
60566SOL    HW281723  12.515   0.291   4.724
60567SOL     OW81724  11.979   0.605   5.189
60567SOL    HW181725  11.932   0.602   5.278
60567SOL    HW281726  11.928   0.550   5.123
60568SOL     OW81727  12.566   0.469   5.398
60568SOL    HW181728  12.546   0.512   5.486
60568SOL    HW281729  12.644   0.407   5.407
60569SOL     OW81730  12.145   0.890   5.296
60569SOL    HW181731  12.191   0.806   5.267
60569SOL    HW281732  12.089   0.924   5.221
60570SOL     OW81733  12.163   0.410   4.966
60570SOL    HW181734  12.086   0.444   5.020
60570SOL    HW281735  12.129   0.359   4.887
60571SOL     OW81736  12.213   0.701   4.153
60571SOL    HW181737  12.239   0.697   4.249
60571SOL    HW281738  12.128   0.650   4.139
60572SOL     OW81739  11.248   0.811   4.513
60572SOL    HW181740  11.347   0.799   4.522
60572SOL    HW281741  11.224   0.906   4.534
60573SOL     OW81742  11.302   1.821   5.295
60573SOL    HW181743  11.292   1.806   5.394
60573SOL    HW281744  11.216   1.857   5.259
60574SOL     OW81745  12.037   0.348   3.919
60574SOL    HW181746  12.096   0.411   3.870
60574SOL    HW281747  12.056   0.254   3.890
60575SOL     OW81748  12.534   1.144   4.269
60575SOL    HW181749  12.617   1.115   4.221
60575SOL    HW281750  12.485   1.211   4.213
60576SOL     OW81751  11.722   0.196   4.609
60576SOL    HW181752  11.717   0.191   4.709
60576SOL    HW281753  11.724   0.292   4.580
60577SOL     OW81754  12.180   1.456   4.201
60577SOL    HW181755  12.134   1.528   4.149
60577SOL    HW281756  12.176   1.476   4.299
60578SOL     OW81757  11.523   1.801   4.577
60578SOL    HW181758  11.573   1.715   4.583
60578SOL    HW281759  11.588   1.878   4.574
60579SOL     OW81760  12.399   1.550   5.230
60579SOL    HW181761  12.405   1.473   5.294
60579SOL    HW281762  12.347   1.524   5.150
60580SOL     OW81763  11.493   0.943   3.966
60580SOL    HW181764  11.575   0.982   3.924
60580SOL    HW281765  11.466   0.861   3.917
60581SOL     OW81766  12.630   0.735   4.452
60581SOL    HW181767  12.625   0.670   4.527
60581SOL    HW281768  12.710   0.794   4.465
60582SOL     OW81769  11.633   1.266   5.451
60582SOL    HW181770  11.583   1.267   5.365
60582SOL    HW281771  11.570   1.248   5.527
60583SOL     OW81772  12.283   1.776   3.961
60583SOL    HW181773  12.223   1.714   4.011
60583SOL    HW281774  12.314   1.732   3.876
60584SOL     OW81775  11.374   0.285   5.222
60584SOL    HW181776  11.294   0.345   5.209
60584SOL    HW281777  11.364   0.236   5.308
60585SOL     OW81778  11.636   1.743   4.047
60585SOL    HW181779  11.669   1.782   4.133
60585SOL    HW281780  11.712   1.736   3.982
60586SOL     OW81781  12.572   0.107   4.150
60586SOL    HW181782  12.548   0.070   4.060
60586SOL    HW281783  12.671   0.123   4.154
60587SOL     OW81784  11.421   1.785   4.965
60587SOL    HW181785  11.478   1.720   5.015
60587SOL    HW281786  11.405   1.752   4.872
60588SOL     OW81787  12.112   1.698   4.628
60588SOL    HW181788  12.192   1.641   4.649
60588SOL    HW281789  12.063   1.658   4.551
60589SOL     OW81790  11.554   0.700   4.204
60589SOL    HW181791  11.599   0.610   4.201
60589SOL    HW281792  11.460   0.689   4.237
60590SOL     OW81793  11.786   0.122   3.841
60590SOL    HW181794  11.884   0.100   3.848
60590SOL    HW281795  11.755   0.105   3.748
60591SOL     OW81796  11.953   0.264   5.473
60591SOL    HW181797  12.020   0.203   5.516
60591SOL    HW281798  11.880   0.283   5.538
60592SOL     OW81799  12.060   1.514   4.919
60592SOL    HW181800  12.037   1.489   4.825
60592SOL    HW281801  12.121   1.445   4.958
60593SOL     OW81802  12.523   0.590   5.157
60593SOL    HW181803  12.551   0.547   5.242
60593SOL    HW281804  12.548   0.686   5.158
60594SOL     OW81805  11.975   1.402   4.648
60594SOL    HW181806  12.065   1.416   4.606
60594SOL    HW281807  11.904   1.404   4.577
60595SOL     OW81808  12.094   0.503   4.623
60595SOL    HW181809  12.069   0.494   4.527
60595SOL    HW281810  12.142   0.421   4.654
60596SOL     OW81811  11.711   0.064   4.236
60596SOL    HW181812  11.630   0.065   4.294
60596SOL    HW281813  11.714   0.147   4.181
60597SOL     OW81814  12.606   1.188   3.765
60597SOL    HW181815  12.638   1.112   3.822
60597SOL    HW281816  12.514   1.215   3.795
60598SOL     OW81817  11.469   0.035   3.895
60598SOL    HW181818  11.518   0.119   3.874
60598SOL    HW281819  11.531  -0.030   3.940
60599SOL     OW81820  12.107   0.236   4.204
60599SOL    HW181821  12.059   0.277   4.126
60599SOL    HW281822  12.206   0.234   4.185
60600SOL     OW81823  12.248   0.683   5.188
60600SOL    HW181824  12.168   0.622   5.191
60600SOL    HW281825  12.329   0.630   5.164
60601SOL     OW81826  12.399   1.570   4.517
60601SOL    HW181827  12.420   1.644   4.452
60601SOL    HW281828  12.467   1.570   4.590
60602SOL     OW81829  11.631   1.152   4.465
60602SOL    HW181830  11.560   1.125   4.530
60602SOL    HW281831  11.605   1.124   4.372
60603SOL     OW81832  12.443   1.797   4.315
60603SOL    HW181833  12.487   1.861   4.251
60603SOL    HW281834  12.393   1.849   4.385
60604SOL     OW81835  12.204   0.549   3.740
60604SOL    HW181836  12.163   0.631   3.701
60604SOL    HW281837  12.268   0.575   3.813
60605SOL     OW81838  11.250   0.556   5.110
60605SOL    HW181839  11.342   0.555   5.069
60605SOL    HW281840  11.244   0.630   5.177
60606SOL     OW81841  11.733   0.222   4.871
60606SOL    HW181842  11.771   0.138   4.908
60606SOL    HW281843  11.645   0.241   4.915
60607SOL     OW81844  12.038   0.454   4.366
60607SOL    HW181845  12.006   0.526   4.304
60607SOL    HW281846  12.062   0.373   4.313
60608SOL     OW81847  12.189   0.039   4.477
60608SOL    HW181848  12.117   0.044   4.408
60608SOL    HW281849  12.165  -0.030   4.546
60609SOL     OW81850  12.601   1.173   4.591
60609SOL    HW181851  12.546   1.089   4.584
60609SOL    HW281852  12.627   1.202   4.499
60610SOL     OW81853  12.638   0.590   4.716
60610SOL    HW181854  12.608   0.495   4.723
60610SOL    HW281855  12.711   0.606   4.782
60611SOL     OW81856  11.660   1.385   3.898
60611SOL    HW181857  11.573   1.370   3.945
60611SOL    HW281858  11.643   1.411   3.803
60612SOL     OW81859  12.562   0.575   3.802
60612SOL    HW181860  12.508   0.554   3.883
60612SOL    HW281861  12.653   0.534   3.811
60613SOL     OW81862  11.699   0.256   4.052
60613SOL    HW181863  11.726   0.197   3.977
60613SOL    HW281864  11.699   0.351   4.021
60614SOL     OW81865  12.236   1.347   5.064
60614SOL    HW181866  12.156   1.324   5.119
60614SOL    HW281867  12.319   1.321   5.113
60615SOL     OW81868  12.764   1.629   5.349
60615SOL    HW181869  12.791   1.663   5.259
60615SOL    HW281870  12.843   1.591   5.395
60616SOL     OW81871  12.283   1.195   4.824
60616SOL    HW181872  12.243   1.239   4.905
60616SOL    HW281873  12.242   1.232   4.741
60617SOL     OW81874  12.087   0.089   5.126
60617SOL    HW181875  12.112   0.069   5.031
60617SOL    HW281876  12.159   0.145   5.168
60618SOL     OW81877  12.152   1.116   5.443
60618SOL    HW181878  12.053   1.122   5.453
60618SOL    HW281879  12.175   1.036   5.387
60619SOL     OW81880  11.877   1.050   4.092
60619SOL    HW181881  11.863   1.057   4.191
60619SOL    HW281882  11.961   0.999   4.074
60620SOL     OW81883  11.582   0.813   4.975
60620SOL    HW181884  11.668   0.825   5.025
60620SOL    HW281885  11.540   0.726   5.002
60621SOL     OW81886  12.446   0.386   4.986
60621SOL    HW181887  12.467   0.460   5.050
60621SOL    HW281888  12.357   0.403   4.943
60622SOL     OW81889  11.236   1.564   5.055
60622SOL    HW181890  11.190   1.646   5.021
60622SOL    HW281891  11.334   1.583   5.064
60623SOL     OW81892  11.539   1.100   4.225
60623SOL    HW181893  11.532   1.183   4.169
60623SOL    HW281894  11.543   1.020   4.165
60624SOL     OW81895  11.738   0.537   4.589
60624SOL    HW181896  11.750   0.603   4.515
60624SOL    HW281897  11.784   0.571   4.672
60625SOL     OW81898  12.424   1.348   4.112
60625SOL    HW181899  12.474   1.425   4.152
60625SOL    HW281900  12.329   1.350   4.144
60626SOL     OW81901  12.444   1.445   4.866
60626SOL    HW181902  12.491   1.458   4.953
60626SOL    HW281903  12.378   1.371   4.875
60627SOL     OW81904  12.754   0.639   4.196
60627SOL    HW181905  12.723   0.700   4.269
60627SOL    HW281906  12.804   0.691   4.127
60628SOL     OW81907  11.526   1.510   5.053
60628SOL    HW181908  11.505   1.466   4.966
60628SOL    HW281909  11.623   1.536   5.056
60629SOL     OW81910  11.574   0.751   5.322
60629SOL    HW181911  11.642   0.806   5.275
60629SOL    HW281912  11.614   0.663   5.349
60630SOL     OW81913  12.185   0.105   5.494
60630SOL    HW181914  12.191   0.190   5.442
60630SOL    HW281915  12.217   0.029   5.437
60631SOL     OW81916  11.676   0.050   5.464
60631SOL    HW181917  11.634  -0.007   5.394
60631SOL    HW281918  11.610   0.119   5.496
60632SOL     OW81919  11.745   0.870   4.753
60632SOL    HW181920  11.789   0.959   4.744
60632SOL    HW281921  11.682   0.870   4.830
60633SOL     OW81922  12.532   0.862   4.769
60633SOL    HW181923  12.457   0.862   4.703
60633SOL    HW281924  12.569   0.770   4.778
60634SOL     OW81925  12.381   0.525   3.999
60634SOL    HW181926  12.394   0.441   4.053
60634SOL    HW281927  12.352   0.599   4.059
60635SOL     OW81928  11.479   0.213   4.955
60635SOL    HW181929  11.456   0.250   5.045
60635SOL    HW281930  11.449   0.118   4.949
60636SOL     OW81931  11.209   1.310   5.006
60636SOL    HW181932  11.262   1.261   5.074
60636SOL    HW281933  11.231   1.408   5.011
60637SOL     OW81934  11.904   0.634   4.788
60637SOL    HW181935  11.963   0.608   4.712
60637SOL    HW281936  11.876   0.730   4.777
60638SOL     OW81937  11.479   0.063   4.342
60638SOL    HW181938  11.468   0.157   4.375
60638SOL    HW281939  11.474   0.000   4.419
60639SOL     OW81940  12.794   0.367   4.098
60639SOL    HW181941  12.796   0.291   4.162
60639SOL    HW281942  12.746   0.444   4.138
60640SOL     OW81943  12.195   0.766   4.690
60640SOL    HW181944  12.210   0.787   4.786
60640SOL    HW281945  12.165   0.671   4.681
60641SOL     OW81946  12.152   1.573   5.424
60641SOL    HW181947  12.132   1.617   5.336
60641SOL    HW281948  12.191   1.482   5.408
60642SOL     OW81949  11.522   0.898   5.528
60642SOL    HW181950  11.598   0.942   5.576
60642SOL    HW281951  11.557   0.851   5.446
60643SOL     OW81952  12.712   0.274   3.849
60643SOL    HW181953  12.651   0.199   3.872
60643SOL    HW281954  12.734   0.326   3.932
60644SOL     OW81955  12.475   0.838   3.766
60644SOL    HW181956  12.509   0.745   3.781
60644SOL    HW281957  12.493   0.865   3.671
60645SOL     OW81958  12.240   1.333   4.573
60645SOL    HW181959  12.247   1.249   4.518
60645SOL    HW281960  12.302   1.402   4.537
60646SOL     OW81961  11.491   0.810   4.673
60646SOL    HW181962  11.584   0.846   4.678
60646SOL    HW281963  11.485   0.725   4.725
60647SOL     OW81964  11.511   0.509   4.730
60647SOL    HW181965  11.459   0.426   4.713
60647SOL    HW281966  11.588   0.514   4.666
60648SOL     OW81967  12.310   0.380   5.402
60648SOL    HW181968  12.265   0.443   5.466
60648SOL    HW281969  12.403   0.411   5.385
60649SOL     OW81970  12.332   0.207   5.201
60649SOL    HW181971  12.332   0.271   5.278
60649SOL    HW281972  12.360   0.255   5.118
60650SOL     OW81973  11.180   1.326   3.924
60650SOL    HW181974  11.087   1.347   3.893
60650SOL    HW281975  11.190   1.227   3.937
60651SOL     OW81976  11.260   1.801   4.651
60651SOL    HW181977  11.218   1.715   4.624
60651SOL    HW281978  11.354   1.804   4.617
60652SOL     OW81979  11.676   1.568   4.634
60652SOL    HW181980  11.742   1.642   4.643
60652SOL    HW281981  11.720   1.489   4.592
60653SOL     OW81982  12.174   0.796   4.962
60653SOL    HW181983  12.215   0.764   5.048
60653SOL    HW281984  12.078   0.769   4.959
60654SOL     OW81985  11.212   0.544   4.838
60654SOL    HW181986  11.297   0.511   4.797
60654SOL    HW281987  11.225   0.559   4.936
60655SOL     OW81988  11.361   0.520   5.446
60655SOL    HW181989  11.420   0.480   5.376
60655SOL    HW281990  11.303   0.591   5.405
60656SOL     OW81991  12.541   0.950   5.384
60656SOL    HW181992  12.580   1.039   5.404
60656SOL    HW281993  12.551   0.930   5.287
60657SOL     OW81994  11.987   0.572   4.049
60657SOL    HW181995  11.994   0.483   4.003
60657SOL    HW281996  11.893   0.606   4.041
60658SOL     OW81997  11.424   1.564   5.468
60658SOL    HW181998  11.394   1.621   5.544
60658SOL    HW281999  11.417   1.467   5.494
60659SOL     OW82000  11.843   0.464   4.993
60659SOL    HW182001  11.809   0.375   4.963
60659SOL    HW282002  11.869   0.518   4.913
60660SOL     OW82003  12.102   1.678   5.189
60660SOL    HW182004  12.078   1.660   5.094
60660SOL    HW282005  12.132   1.772   5.199
60661SOL     OW82006  11.645   0.500   3.915
60661SOL    HW182007  11.706   0.580   3.919
60661SOL    HW282008  11.550   0.531   3.922
60662SOL     OW82009  11.331   1.137   5.190
60662SOL    HW182010  11.353   1.076   5.266
60662SOL    HW282011  11.341   1.088   5.104
60663SOL     OW82012  12.519   1.059   4.958
60663SOL    HW182013  12.543   0.996   4.884
60663SOL    HW282014  12.429   1.099   4.940
60664SOL     OW82015  12.474   0.855   4.033
60664SOL    HW182016  12.388   0.824   4.075
60664SOL    HW282017  12.470   0.841   3.934
60665SOL     OW82018  12.424   1.731   4.852
60665SOL    HW182019  12.508   1.736   4.798
60665SOL    HW282020  12.401   1.635   4.870
60666SOL     OW82021  11.255   1.258   4.746
60666SOL    HW182022  11.250   1.257   4.846
60666SOL    HW282023  11.172   1.217   4.708
60667SOL     OW82024  11.860   1.662   5.440
60667SOL    HW182025  11.804   1.743   5.449
60667SOL    HW282026  11.912   1.666   5.354
60668SOL     OW82027  12.898   0.135   4.247
60668SOL    HW182028  12.971   0.118   4.180
60668SOL    HW282029  12.867   0.048   4.285
60669SOL     OW82030  12.560   1.573   4.201
60669SOL    HW182031  12.627   1.585   4.127
60669SOL    HW282032  12.520   1.662   4.224
60670SOL     OW82033  11.302   1.794   5.575
60670SOL    HW182034  11.261   1.720   5.628
60670SOL    HW282035  11.366   1.845   5.633
60671SOL     OW82036  12.452   0.927   4.396
60671SOL    HW182037  12.512   0.846   4.398
60671SOL    HW282038  12.492   0.996   4.336
60672SOL     OW82039  12.002   1.273   5.146
60672SOL    HW182040  11.997   1.306   5.241
60672SOL    HW282041  11.916   1.292   5.100
60673SOL     OW82042  11.844   1.616   3.878
60673SOL    HW182043  11.853   1.626   3.779
60673SOL    HW282044  11.804   1.527   3.899
60674SOL     OW82045  11.435   0.326   4.444
60674SOL    HW182046  11.356   0.377   4.410
60674SOL    HW282047  11.426   0.311   4.542
60675SOL     OW82048  12.366   1.612   3.755
60675SOL    HW182049  12.372   1.519   3.792
60675SOL    HW282050  12.307   1.612   3.675
60676SOL     OW82051  11.994   1.002   5.096
60676SOL    HW182052  12.034   1.001   5.004
60676SOL    HW282053  12.004   1.094   5.136
60677SOL     OW82054  12.088   0.910   4.015
60677SOL    HW182055  12.151   0.948   3.947
60677SOL    HW282056  12.128   0.827   4.054
60678SOL     OW82057  12.676   1.607   3.768
60678SOL    HW182058  12.584   1.644   3.775
60678SOL    HW282059  12.714   1.627   3.678
60679SOL     OW82060  11.544   1.288   5.214
60679SOL    HW182061  11.531   1.381   5.180
60679SOL    HW282062  11.460   1.236   5.201
60680SOL     OW82063  12.211   1.098   4.420
60680SOL    HW182064  12.141   1.051   4.474
60680SOL    HW282065  12.270   1.030   4.377
60681SOL     OW82066  12.186   0.236   4.695
60681SOL    HW182067  12.178   0.200   4.602
60681SOL    HW282068  12.184   0.160   4.760
60682SOL     OW82069  11.762   1.487   4.215
60682SOL    HW182070  11.804   1.429   4.145
60682SOL    HW282071  11.718   1.566   4.171
60683SOL     OW82072  11.427   1.348   4.014
60683SOL    HW182073  11.331   1.349   3.987
60683SOL    HW282074  11.439   1.401   4.098
60684SOL     OW82075  11.277   1.013   5.450
60684SOL    HW182076  11.200   0.980   5.504
60684SOL    HW282077  11.362   0.983   5.492
60685SOL     OW82078  11.844   0.203   5.213
60685SOL    HW182079  11.934   0.187   5.173
60685SOL    HW282080  11.852   0.208   5.312
60686SOL     OW82081  11.247   0.345   3.757
60686SOL    HW182082  11.155   0.317   3.728
60686SOL    HW282083  11.278   0.422   3.701
60687SOL     OW82084  12.612   0.856   5.122
60687SOL    HW182085  12.555   0.908   5.059
60687SOL    HW282086  12.708   0.868   5.098
60688SOL     OW82087  11.244   0.166   4.042
60688SOL    HW182088  11.227   0.249   3.988
60688SOL    HW282089  11.334   0.129   4.020
60689SOL     OW82090  12.355   1.335   3.843
60689SOL    HW182091  12.256   1.324   3.845
60689SOL    HW282092  12.389   1.350   3.936
60690SOL     OW82093  11.785   0.842   5.155
60690SOL    HW182094  11.841   0.923   5.138
60690SOL    HW282095  11.844   0.762   5.158
60691SOL     OW82096  12.665   1.767   4.683
60691SOL    HW182097  12.698   1.831   4.614
60691SOL    HW282098  12.731   1.761   4.758
60692SOL     OW82099  11.888   0.565   5.432
60692SOL    HW182100  11.907   0.630   5.506
60692SOL    HW282101  11.948   0.485   5.441
60693SOL     OW82102  12.622   1.220   5.357
60693SOL    HW182103  12.613   1.210   5.456
60693SOL    HW282104  12.718   1.213   5.331
60694SOL     OW82105  11.562   1.741   5.284
60694SOL    HW182106  11.471   1.782   5.282
60694SOL    HW282107  11.555   1.647   5.316
60695SOL     OW82108  12.397   0.325   4.173
60695SOL    HW182109  12.462   0.251   4.162
60695SOL    HW282110  12.417   0.375   4.257
60696SOL     OW82111  11.766   0.745   4.376
60696SOL    HW182112  11.816   0.830   4.357
60696SOL    HW282113  11.678   0.747   4.328
60697SOL     OW82114  12.031   1.374   3.740
60697SOL    HW182115  11.985   1.389   3.828
60697SOL    HW282116  12.075   1.459   3.710
60698SOL     OW82117  11.833   1.790   4.677
60698SOL    HW182118  11.787   1.878   4.664
60698SOL    HW282119  11.932   1.802   4.670
60699SOL     OW82120  12.031   0.956   4.585
60699SOL    HW182121  12.085   0.887   4.633
60699SOL    HW282122  11.999   1.025   4.651
60700SOL     OW82123  12.255   0.984   3.811
60700SOL    HW182124  12.232   1.037   3.729
60700SOL    HW282125  12.336   0.928   3.792
60701SOL     OW82126  13.033   1.569   4.575
60701SOL    HW182127  12.962   1.557   4.505
60701SOL    HW282128  13.034   1.490   4.635
60702SOL     OW82129  11.393   1.314   5.568
60702SOL    HW182130  11.328   1.241   5.547
60702SOL    HW282131  11.397   1.328   5.666
60703SOL     OW82132  11.251   1.240   4.377
60703SOL    HW182133  11.250   1.193   4.465
60703SOL    HW282134  11.333   1.212   4.326
60704SOL     OW82135  11.844   1.391   5.348
60704SOL    HW182136  11.766   1.341   5.386
60704SOL    HW282137  11.841   1.486   5.379
60705SOL     OW82138  11.600   0.424   4.244
60705SOL    HW182139  11.630   0.352   4.182
60705SOL    HW282140  11.561   0.384   4.327
60706SOL     OW82141  11.489   0.547   5.004
60706SOL    HW182142  11.527   0.488   5.076
60706SOL    HW282143  11.529   0.521   4.916
60707SOL     OW82144  11.984   1.586   4.411
60707SOL    HW182145  12.016   1.596   4.317
60707SOL    HW282146  11.905   1.524   4.413
60708SOL     OW82147  12.596   0.214   4.836
60708SOL    HW182148  12.648   0.149   4.891
60708SOL    HW282149  12.547   0.277   4.897
60709SOL     OW82150  12.173   0.034   4.878
60709SOL    HW182151  12.110  -0.038   4.847
60709SOL    HW282152  12.266  -0.002   4.878
60710SOL     OW82153  11.942   1.330   4.025
60710SOL    HW182154  11.896   1.243   4.042
60710SOL    HW282155  12.033   1.327   4.066
60711SOL     OW82156  11.790   1.567   5.008
60711SOL    HW182157  11.785   1.649   5.065
60711SOL    HW282158  11.879   1.564   4.963
60712SOL     OW82159  12.524   0.052   3.892
60712SOL    HW182160  12.559   0.011   3.808
60712SOL    HW282161  12.434   0.014   3.912
60713SOL     OW82162  12.472   0.453   4.415
60713SOL    HW182163  12.413   0.533   4.419
60713SOL    HW282164  12.487   0.418   4.508
60714SOL     OW82165  12.765   0.221   4.606
60714SOL    HW182166  12.681   0.220   4.660
60714SOL    HW282167  12.767   0.304   4.550
60715SOL     OW82168  11.211   1.077   4.024
60715SOL    HW182169  11.310   1.066   4.015
60715SOL    HW282170  11.171   0.991   4.056
60716SOL     OW82171  12.047   1.646   4.061
60716SOL    HW182172  11.970   1.611   4.007
60716SOL    HW282173  12.015   1.717   4.123
60717SOL     OW82174  11.402   0.628   5.699
60717SOL    HW182175  11.309   0.626   5.736
60717SOL    HW282176  11.403   0.589   5.607
60718SOL     OW82177  11.397   0.275   6.582
60718SOL    HW182178  11.432   0.258   6.674
60718SOL    HW282179  11.309   0.230   6.570
60719SOL     OW82180  11.191   0.368   6.233
60719SOL    HW182181  11.109   0.411   6.272
60719SOL    HW282182  11.163   0.295   6.170
60720SOL     OW82183  11.741   1.275   6.751
60720SOL    HW182184  11.648   1.268   6.714
60720SOL    HW282185  11.752   1.364   6.795
60721SOL     OW82186  12.727   1.511   6.289
60721SOL    HW182187  12.670   1.495   6.370
60721SOL    HW282188  12.668   1.521   6.209
60722SOL     OW82189  12.307   0.703   6.303
60722SOL    HW182190  12.364   0.781   6.278
60722SOL    HW282191  12.247   0.729   6.379
60723SOL     OW82192  11.940   1.144   6.609
60723SOL    HW182193  11.862   1.161   6.669
60723SOL    HW282194  11.974   1.231   6.573
60724SOL     OW82195  12.022   0.798   7.409
60724SOL    HW182196  12.018   0.874   7.474
60724SOL    HW282197  12.044   0.834   7.318
60725SOL     OW82198  11.857   1.012   6.251
60725SOL    HW182199  11.926   0.996   6.321
60725SOL    HW282200  11.784   1.069   6.289
60726SOL     OW82201  11.858   1.161   7.389
60726SOL    HW182202  11.918   1.240   7.403
60726SOL    HW282203  11.772   1.192   7.348
60727SOL     OW82204  11.507   1.435   6.647
60727SOL    HW182205  11.429   1.404   6.594
60727SOL    HW282206  11.565   1.493   6.590
60728SOL     OW82207  12.632   1.505   6.925
60728SOL    HW182208  12.656   1.599   6.951
60728SOL    HW282209  12.616   1.451   7.007
60729SOL     OW82210  11.610   0.392   7.085
60729SOL    HW182211  11.692   0.336   7.094
60729SOL    HW282212  11.529   0.334   7.089
60730SOL     OW82213  11.403   1.713   6.069
60730SOL    HW182214  11.437   1.790   6.123
60730SOL    HW282215  11.447   1.713   5.979
60731SOL     OW82216  12.299   1.341   7.276
60731SOL    HW182217  12.346   1.341   7.364
60731SOL    HW282218  12.251   1.254   7.265
60732SOL     OW82219  11.402   1.434   6.124
60732SOL    HW182220  11.376   1.530   6.124
60732SOL    HW282221  11.331   1.380   6.169
60733SOL     OW82222  11.412   1.091   6.472
60733SOL    HW182223  11.426   1.007   6.524
60733SOL    HW282224  11.357   1.155   6.527
60734SOL     OW82225  11.792   1.786   7.025
60734SOL    HW182226  11.700   1.769   7.060
60734SOL    HW282227  11.820   1.878   7.051
60735SOL     OW82228  11.778   0.964   5.709
60735SOL    HW182229  11.785   1.048   5.655
60735SOL    HW282230  11.824   0.977   5.797
60736SOL     OW82231  12.766   0.114   7.066
60736SOL    HW182232  12.748   0.181   6.994
60736SOL    HW282233  12.763   0.160   7.155
60737SOL     OW82234  11.294   0.643   6.149
60737SOL    HW182235  11.249   0.555   6.166
60737SOL    HW282236  11.293   0.697   6.233
60738SOL     OW82237  11.199   1.596   5.703
60738SOL    HW182238  11.180   1.500   5.724
60738SOL    HW282239  11.166   1.654   5.778
60739SOL     OW82240  12.861   0.922   6.198
60739SOL    HW182241  12.956   0.893   6.206
60739SOL    HW282242  12.853   0.987   6.123
60740SOL     OW82243  11.285   0.737   7.183
60740SOL    HW182244  11.373   0.724   7.228
60740SOL    HW282245  11.272   0.834   7.161
60741SOL     OW82246  11.785   1.365   6.312
60741SOL    HW182247  11.736   1.278   6.321
60741SOL    HW282248  11.762   1.408   6.225
60742SOL     OW82249  12.465   1.228   7.009
60742SOL    HW182250  12.502   1.155   6.951
60742SOL    HW282251  12.517   1.233   7.094
60743SOL     OW82252  11.981   0.004   6.088
60743SOL    HW182253  12.021   0.095   6.079
60743SOL    HW282254  11.881   0.012   6.094
60744SOL     OW82255  11.369   0.976   6.850
60744SOL    HW182256  11.458   0.931   6.836
60744SOL    HW282257  11.296   0.911   6.831
60745SOL     OW82258  12.359   1.792   7.202
60745SOL    HW182259  12.383   1.852   7.126
60745SOL    HW282260  12.366   1.697   7.172
60746SOL     OW82261  11.489   0.251   7.387
60746SOL    HW182262  11.560   0.322   7.393
60746SOL    HW282263  11.401   0.290   7.415
60747SOL     OW82264  12.638   1.417   6.539
60747SOL    HW182265  12.579   1.423   6.619
60747SOL    HW282266  12.623   1.329   6.493
60748SOL     OW82267  12.839   1.714   6.158
60748SOL    HW182268  12.798   1.691   6.070
60748SOL    HW282269  12.821   1.640   6.223
60749SOL     OW82270  11.770   0.729   5.856
60749SOL    HW182271  11.794   0.798   5.788
60749SOL    HW282272  11.692   0.762   5.910
60750SOL     OW82273  12.453   0.345   6.530
60750SOL    HW182274  12.367   0.295   6.517
60750SOL    HW282275  12.515   0.291   6.586
60751SOL     OW82276  11.979   0.605   7.051
60751SOL    HW182277  11.932   0.602   7.140
60751SOL    HW282278  11.928   0.550   6.985
60752SOL     OW82279  12.566   0.469   7.260
60752SOL    HW182280  12.546   0.512   7.348
60752SOL    HW282281  12.644   0.407   7.269
60753SOL     OW82282  12.145   0.890   7.158
60753SOL    HW182283  12.191   0.806   7.129
60753SOL    HW282284  12.089   0.924   7.083
60754SOL     OW82285  12.163   0.410   6.828
60754SOL    HW182286  12.086   0.444   6.882
60754SOL    HW282287  12.129   0.359   6.749
60755SOL     OW82288  12.213   0.701   6.015
60755SOL    HW182289  12.239   0.697   6.111
60755SOL    HW282290  12.128   0.650   6.001
60756SOL     OW82291  11.248   0.811   6.375
60756SOL    HW182292  11.347   0.799   6.384
60756SOL    HW282293  11.224   0.906   6.396
60757SOL     OW82294  11.302   1.821   7.157
60757SOL    HW182295  11.292   1.806   7.256
60757SOL    HW282296  11.216   1.857   7.121
60758SOL     OW82297  12.037   0.348   5.781
60758SOL    HW182298  12.096   0.411   5.732
60758SOL    HW282299  12.056   0.254   5.752
60759SOL     OW82300  12.534   1.144   6.131
60759SOL    HW182301  12.617   1.115   6.083
60759SOL    HW282302  12.485   1.211   6.075
60760SOL     OW82303  11.722   0.196   6.471
60760SOL    HW182304  11.717   0.191   6.571
60760SOL    HW282305  11.724   0.292   6.442
60761SOL     OW82306  12.180   1.456   6.063
60761SOL    HW182307  12.134   1.528   6.011
60761SOL    HW282308  12.176   1.476   6.161
60762SOL     OW82309  11.523   1.801   6.439
60762SOL    HW182310  11.573   1.715   6.445
60762SOL    HW282311  11.588   1.878   6.436
60763SOL     OW82312  12.399   1.550   7.092
60763SOL    HW182313  12.405   1.473   7.156
60763SOL    HW282314  12.347   1.524   7.012
60764SOL     OW82315  11.493   0.943   5.828
60764SOL    HW182316  11.575   0.982   5.786
60764SOL    HW282317  11.466   0.861   5.779
60765SOL     OW82318  12.630   0.735   6.314
60765SOL    HW182319  12.625   0.670   6.389
60765SOL    HW282320  12.710   0.794   6.327
60766SOL     OW82321  11.633   1.266   7.313
60766SOL    HW182322  11.583   1.267   7.227
60766SOL    HW282323  11.570   1.248   7.389
60767SOL     OW82324  12.283   1.776   5.823
60767SOL    HW182325  12.223   1.714   5.873
60767SOL    HW282326  12.314   1.732   5.738
60768SOL     OW82327  11.374   0.285   7.084
60768SOL    HW182328  11.294   0.345   7.071
60768SOL    HW282329  11.364   0.236   7.170
60769SOL     OW82330  11.636   1.743   5.909
60769SOL    HW182331  11.669   1.782   5.995
60769SOL    HW282332  11.712   1.736   5.844
60770SOL     OW82333  12.572   0.107   6.012
60770SOL    HW182334  12.548   0.070   5.922
60770SOL    HW282335  12.671   0.123   6.016
60771SOL     OW82336  11.421   1.785   6.827
60771SOL    HW182337  11.478   1.720   6.877
60771SOL    HW282338  11.405   1.752   6.734
60772SOL     OW82339  12.112   1.698   6.490
60772SOL    HW182340  12.192   1.641   6.511
60772SOL    HW282341  12.063   1.658   6.413
60773SOL     OW82342  11.554   0.700   6.066
60773SOL    HW182343  11.599   0.610   6.063
60773SOL    HW282344  11.460   0.689   6.099
60774SOL     OW82345  11.786   0.122   5.703
60774SOL    HW182346  11.884   0.100   5.710
60774SOL    HW282347  11.755   0.105   5.610
60775SOL     OW82348  11.953   0.264   7.335
60775SOL    HW182349  12.020   0.203   7.378
60775SOL    HW282350  11.880   0.283   7.400
60776SOL     OW82351  12.060   1.514   6.781
60776SOL    HW182352  12.037   1.489   6.687
60776SOL    HW282353  12.121   1.445   6.820
60777SOL     OW82354  12.523   0.590   7.019
60777SOL    HW182355  12.551   0.547   7.104
60777SOL    HW282356  12.548   0.686   7.020
60778SOL     OW82357  11.975   1.402   6.510
60778SOL    HW182358  12.065   1.416   6.468
60778SOL    HW282359  11.904   1.404   6.439
60779SOL     OW82360  12.094   0.503   6.485
60779SOL    HW182361  12.069   0.494   6.389
60779SOL    HW282362  12.142   0.421   6.516
60780SOL     OW82363  11.711   0.064   6.098
60780SOL    HW182364  11.630   0.065   6.156
60780SOL    HW282365  11.714   0.147   6.043
60781SOL     OW82366  12.606   1.188   5.627
60781SOL    HW182367  12.638   1.112   5.684
60781SOL    HW282368  12.514   1.215   5.657
60782SOL     OW82369  11.469   0.035   5.757
60782SOL    HW182370  11.518   0.119   5.736
60782SOL    HW282371  11.531  -0.030   5.802
60783SOL     OW82372  12.107   0.236   6.066
60783SOL    HW182373  12.059   0.277   5.988
60783SOL    HW282374  12.206   0.234   6.047
60784SOL     OW82375  12.248   0.683   7.050
60784SOL    HW182376  12.168   0.622   7.053
60784SOL    HW282377  12.329   0.630   7.026
60785SOL     OW82378  12.399   1.570   6.379
60785SOL    HW182379  12.420   1.644   6.314
60785SOL    HW282380  12.467   1.570   6.452
60786SOL     OW82381  11.631   1.152   6.327
60786SOL    HW182382  11.560   1.125   6.392
60786SOL    HW282383  11.605   1.124   6.234
60787SOL     OW82384  12.443   1.797   6.177
60787SOL    HW182385  12.487   1.861   6.113
60787SOL    HW282386  12.393   1.849   6.247
60788SOL     OW82387  12.204   0.549   5.602
60788SOL    HW182388  12.163   0.631   5.563
60788SOL    HW282389  12.268   0.575   5.675
60789SOL     OW82390  11.250   0.556   6.972
60789SOL    HW182391  11.342   0.555   6.931
60789SOL    HW282392  11.244   0.630   7.039
60790SOL     OW82393  11.733   0.222   6.733
60790SOL    HW182394  11.771   0.138   6.770
60790SOL    HW282395  11.645   0.241   6.777
60791SOL     OW82396  12.038   0.454   6.228
60791SOL    HW182397  12.006   0.526   6.166
60791SOL    HW282398  12.062   0.373   6.175
60792SOL     OW82399  12.189   0.039   6.339
60792SOL    HW182400  12.117   0.044   6.270
60792SOL    HW282401  12.165  -0.030   6.408
60793SOL     OW82402  12.601   1.173   6.453
60793SOL    HW182403  12.546   1.089   6.446
60793SOL    HW282404  12.627   1.202   6.361
60794SOL     OW82405  12.638   0.590   6.578
60794SOL    HW182406  12.608   0.495   6.585
60794SOL    HW282407  12.711   0.606   6.644
60795SOL     OW82408  11.660   1.385   5.760
60795SOL    HW182409  11.573   1.370   5.807
60795SOL    HW282410  11.643   1.411   5.665
60796SOL     OW82411  12.562   0.575   5.664
60796SOL    HW182412  12.508   0.554   5.745
60796SOL    HW282413  12.653   0.534   5.673
60797SOL     OW82414  11.699   0.256   5.914
60797SOL    HW182415  11.726   0.197   5.839
60797SOL    HW282416  11.699   0.351   5.883
60798SOL     OW82417  12.236   1.347   6.926
60798SOL    HW182418  12.156   1.324   6.981
60798SOL    HW282419  12.319   1.321   6.975
60799SOL     OW82420  12.764   1.629   7.211
60799SOL    HW182421  12.791   1.663   7.121
60799SOL    HW282422  12.843   1.591   7.257
60800SOL     OW82423  12.283   1.195   6.686
60800SOL    HW182424  12.243   1.239   6.767
60800SOL    HW282425  12.242   1.232   6.603
60801SOL     OW82426  12.087   0.089   6.988
60801SOL    HW182427  12.112   0.069   6.893
60801SOL    HW282428  12.159   0.145   7.030
60802SOL     OW82429  12.152   1.116   7.305
60802SOL    HW182430  12.053   1.122   7.315
60802SOL    HW282431  12.175   1.036   7.249
60803SOL     OW82432  11.877   1.050   5.954
60803SOL    HW182433  11.863   1.057   6.053
60803SOL    HW282434  11.961   0.999   5.936
60804SOL     OW82435  11.582   0.813   6.837
60804SOL    HW182436  11.668   0.825   6.887
60804SOL    HW282437  11.540   0.726   6.864
60805SOL     OW82438  12.446   0.386   6.848
60805SOL    HW182439  12.467   0.460   6.912
60805SOL    HW282440  12.357   0.403   6.805
60806SOL     OW82441  11.236   1.564   6.917
60806SOL    HW182442  11.190   1.646   6.883
60806SOL    HW282443  11.334   1.583   6.926
60807SOL     OW82444  11.539   1.100   6.087
60807SOL    HW182445  11.532   1.183   6.031
60807SOL    HW282446  11.543   1.020   6.027
60808SOL     OW82447  11.738   0.537   6.451
60808SOL    HW182448  11.750   0.603   6.377
60808SOL    HW282449  11.784   0.571   6.534
60809SOL     OW82450  12.424   1.348   5.974
60809SOL    HW182451  12.474   1.425   6.014
60809SOL    HW282452  12.329   1.350   6.006
60810SOL     OW82453  12.444   1.445   6.728
60810SOL    HW182454  12.491   1.458   6.815
60810SOL    HW282455  12.378   1.371   6.737
60811SOL     OW82456  12.754   0.639   6.058
60811SOL    HW182457  12.723   0.700   6.131
60811SOL    HW282458  12.804   0.691   5.989
60812SOL     OW82459  11.526   1.510   6.915
60812SOL    HW182460  11.505   1.466   6.828
60812SOL    HW282461  11.623   1.536   6.918
60813SOL     OW82462  11.574   0.751   7.184
60813SOL    HW182463  11.642   0.806   7.137
60813SOL    HW282464  11.614   0.663   7.211
60814SOL     OW82465  12.185   0.105   7.356
60814SOL    HW182466  12.191   0.190   7.304
60814SOL    HW282467  12.217   0.029   7.299
60815SOL     OW82468  11.676   0.050   7.326
60815SOL    HW182469  11.634  -0.007   7.256
60815SOL    HW282470  11.610   0.119   7.358
60816SOL     OW82471  11.745   0.870   6.615
60816SOL    HW182472  11.789   0.959   6.606
60816SOL    HW282473  11.682   0.870   6.692
60817SOL     OW82474  12.532   0.862   6.631
60817SOL    HW182475  12.457   0.862   6.565
60817SOL    HW282476  12.569   0.770   6.640
60818SOL     OW82477  12.381   0.525   5.861
60818SOL    HW182478  12.394   0.441   5.915
60818SOL    HW282479  12.352   0.599   5.921
60819SOL     OW82480  11.479   0.213   6.817
60819SOL    HW182481  11.456   0.250   6.907
60819SOL    HW282482  11.449   0.118   6.811
60820SOL     OW82483  11.209   1.310   6.868
60820SOL    HW182484  11.262   1.261   6.936
60820SOL    HW282485  11.231   1.408   6.873
60821SOL     OW82486  11.904   0.634   6.650
60821SOL    HW182487  11.963   0.608   6.574
60821SOL    HW282488  11.876   0.730   6.639
60822SOL     OW82489  11.479   0.063   6.204
60822SOL    HW182490  11.468   0.157   6.237
60822SOL    HW282491  11.474   0.000   6.281
60823SOL     OW82492  12.794   0.367   5.960
60823SOL    HW182493  12.796   0.291   6.024
60823SOL    HW282494  12.746   0.444   6.000
60824SOL     OW82495  12.195   0.766   6.552
60824SOL    HW182496  12.210   0.787   6.648
60824SOL    HW282497  12.165   0.671   6.543
60825SOL     OW82498  12.152   1.573   7.286
60825SOL    HW182499  12.132   1.617   7.198
60825SOL    HW282500  12.191   1.482   7.270
60826SOL     OW82501  11.522   0.898   7.390
60826SOL    HW182502  11.598   0.942   7.438
60826SOL    HW282503  11.557   0.851   7.308
60827SOL     OW82504  12.712   0.274   5.711
60827SOL    HW182505  12.651   0.199   5.734
60827SOL    HW282506  12.734   0.326   5.794
60828SOL     OW82507  12.475   0.838   5.628
60828SOL    HW182508  12.509   0.745   5.643
60828SOL    HW282509  12.493   0.865   5.533
60829SOL     OW82510  12.240   1.333   6.435
60829SOL    HW182511  12.247   1.249   6.380
60829SOL    HW282512  12.302   1.402   6.399
60830SOL     OW82513  11.491   0.810   6.535
60830SOL    HW182514  11.584   0.846   6.540
60830SOL    HW282515  11.485   0.725   6.587
60831SOL     OW82516  11.511   0.509   6.592
60831SOL    HW182517  11.459   0.426   6.575
60831SOL    HW282518  11.588   0.514   6.528
60832SOL     OW82519  12.310   0.380   7.264
60832SOL    HW182520  12.265   0.443   7.328
60832SOL    HW282521  12.403   0.411   7.247
60833SOL     OW82522  12.332   0.207   7.063
60833SOL    HW182523  12.332   0.271   7.140
60833SOL    HW282524  12.360   0.255   6.980
60834SOL     OW82525  11.180   1.326   5.786
60834SOL    HW182526  11.087   1.347   5.755
60834SOL    HW282527  11.190   1.227   5.799
60835SOL     OW82528  11.260   1.801   6.513
60835SOL    HW182529  11.218   1.715   6.486
60835SOL    HW282530  11.354   1.804   6.479
60836SOL     OW82531  11.676   1.568   6.496
60836SOL    HW182532  11.742   1.642   6.505
60836SOL    HW282533  11.720   1.489   6.454
60837SOL     OW82534  12.174   0.796   6.824
60837SOL    HW182535  12.215   0.764   6.910
60837SOL    HW282536  12.078   0.769   6.821
60838SOL     OW82537  11.212   0.544   6.700
60838SOL    HW182538  11.297   0.511   6.659
60838SOL    HW282539  11.225   0.559   6.798
60839SOL     OW82540  11.361   0.520   7.308
60839SOL    HW182541  11.420   0.480   7.238
60839SOL    HW282542  11.303   0.591   7.267
60840SOL     OW82543  12.541   0.950   7.246
60840SOL    HW182544  12.580   1.039   7.266
60840SOL    HW282545  12.551   0.930   7.149
60841SOL     OW82546  11.987   0.572   5.911
60841SOL    HW182547  11.994   0.483   5.865
60841SOL    HW282548  11.893   0.606   5.903
60842SOL     OW82549  11.424   1.564   7.330
60842SOL    HW182550  11.394   1.621   7.406
60842SOL    HW282551  11.417   1.467   7.356
60843SOL     OW82552  11.843   0.464   6.855
60843SOL    HW182553  11.809   0.375   6.825
60843SOL    HW282554  11.869   0.518   6.775
60844SOL     OW82555  12.102   1.678   7.051
60844SOL    HW182556  12.078   1.660   6.956
60844SOL    HW282557  12.132   1.772   7.061
60845SOL     OW82558  11.645   0.500   5.777
60845SOL    HW182559  11.706   0.580   5.781
60845SOL    HW282560  11.550   0.531   5.784
60846SOL     OW82561  11.331   1.137   7.052
60846SOL    HW182562  11.353   1.076   7.128
60846SOL    HW282563  11.341   1.088   6.966
60847SOL     OW82564  12.519   1.059   6.820
60847SOL    HW182565  12.543   0.996   6.746
60847SOL    HW282566  12.429   1.099   6.802
60848SOL     OW82567  12.474   0.855   5.895
60848SOL    HW182568  12.388   0.824   5.937
60848SOL    HW282569  12.470   0.841   5.796
60849SOL     OW82570  12.424   1.731   6.714
60849SOL    HW182571  12.508   1.736   6.660
60849SOL    HW282572  12.401   1.635   6.732
60850SOL     OW82573  11.255   1.258   6.608
60850SOL    HW182574  11.250   1.257   6.708
60850SOL    HW282575  11.172   1.217   6.570
60851SOL     OW82576  11.860   1.662   7.302
60851SOL    HW182577  11.804   1.743   7.311
60851SOL    HW282578  11.912   1.666   7.216
60852SOL     OW82579  12.898   0.135   6.109
60852SOL    HW182580  12.971   0.118   6.042
60852SOL    HW282581  12.867   0.048   6.147
60853SOL     OW82582  12.560   1.573   6.063
60853SOL    HW182583  12.627   1.585   5.989
60853SOL    HW282584  12.520   1.662   6.086
60854SOL     OW82585  11.302   1.794   7.437
60854SOL    HW182586  11.261   1.720   7.490
60854SOL    HW282587  11.366   1.845   7.495
60855SOL     OW82588  12.452   0.927   6.258
60855SOL    HW182589  12.512   0.846   6.260
60855SOL    HW282590  12.492   0.996   6.198
60856SOL     OW82591  12.002   1.273   7.008
60856SOL    HW182592  11.997   1.306   7.103
60856SOL    HW282593  11.916   1.292   6.962
60857SOL     OW82594  11.844   1.616   5.740
60857SOL    HW182595  11.853   1.626   5.641
60857SOL    HW282596  11.804   1.527   5.761
60858SOL     OW82597  11.435   0.326   6.306
60858SOL    HW182598  11.356   0.377   6.272
60858SOL    HW282599  11.426   0.311   6.404
60859SOL     OW82600  12.366   1.612   5.617
60859SOL    HW182601  12.372   1.519   5.654
60859SOL    HW282602  12.307   1.612   5.537
60860SOL     OW82603  11.994   1.002   6.958
60860SOL    HW182604  12.034   1.001   6.866
60860SOL    HW282605  12.004   1.094   6.998
60861SOL     OW82606  12.088   0.910   5.877
60861SOL    HW182607  12.151   0.948   5.809
60861SOL    HW282608  12.128   0.827   5.916
60862SOL     OW82609  12.676   1.607   5.630
60862SOL    HW182610  12.584   1.644   5.637
60862SOL    HW282611  12.714   1.627   5.540
60863SOL     OW82612  11.544   1.288   7.076
60863SOL    HW182613  11.531   1.381   7.042
60863SOL    HW282614  11.460   1.236   7.063
60864SOL     OW82615  12.211   1.098   6.282
60864SOL    HW182616  12.141   1.051   6.336
60864SOL    HW282617  12.270   1.030   6.239
60865SOL     OW82618  12.186   0.236   6.557
60865SOL    HW182619  12.178   0.200   6.464
60865SOL    HW282620  12.184   0.160   6.622
60866SOL     OW82621  11.762   1.487   6.077
60866SOL    HW182622  11.804   1.429   6.007
60866SOL    HW282623  11.718   1.566   6.033
60867SOL     OW82624  11.427   1.348   5.876
60867SOL    HW182625  11.331   1.349   5.849
60867SOL    HW282626  11.439   1.401   5.960
60868SOL     OW82627  11.277   1.013   7.312
60868SOL    HW182628  11.200   0.980   7.366
60868SOL    HW282629  11.362   0.983   7.354
60869SOL     OW82630  11.844   0.203   7.075
60869SOL    HW182631  11.934   0.187   7.035
60869SOL    HW282632  11.852   0.208   7.174
60870SOL     OW82633  11.247   0.345   5.619
60870SOL    HW182634  11.155   0.317   5.590
60870SOL    HW282635  11.278   0.422   5.563
60871SOL     OW82636  12.612   0.856   6.984
60871SOL    HW182637  12.555   0.908   6.921
60871SOL    HW282638  12.708   0.868   6.960
60872SOL     OW82639  11.244   0.166   5.904
60872SOL    HW182640  11.227   0.249   5.850
60872SOL    HW282641  11.334   0.129   5.882
60873SOL     OW82642  12.355   1.335   5.705
60873SOL    HW182643  12.256   1.324   5.707
60873SOL    HW282644  12.389   1.350   5.798
60874SOL     OW82645  11.785   0.842   7.017
60874SOL    HW182646  11.841   0.923   7.000
60874SOL    HW282647  11.844   0.762   7.020
60875SOL     OW82648  12.665   1.767   6.545
60875SOL    HW182649  12.698   1.831   6.476
60875SOL    HW282650  12.731   1.761   6.620
60876SOL     OW82651  11.888   0.565   7.294
60876SOL    HW182652  11.907   0.630   7.368
60876SOL    HW282653  11.948   0.485   7.303
60877SOL     OW82654  12.622   1.220   7.219
60877SOL    HW182655  12.613   1.210   7.318
60877SOL    HW282656  12.718   1.213   7.193
60878SOL     OW82657  11.562   1.741   7.146
60878SOL    HW182658  11.471   1.782   7.144
60878SOL    HW282659  11.555   1.647   7.178
60879SOL     OW82660  12.397   0.325   6.035
60879SOL    HW182661  12.462   0.251   6.024
60879SOL    HW282662  12.417   0.375   6.119
60880SOL     OW82663  11.766   0.745   6.238
60880SOL    HW182664  11.816   0.830   6.219
60880SOL    HW282665  11.678   0.747   6.190
60881SOL     OW82666  12.031   1.374   5.602
60881SOL    HW182667  11.985   1.389   5.690
60881SOL    HW282668  12.075   1.459   5.572
60882SOL     OW82669  11.833   1.790   6.539
60882SOL    HW182670  11.787   1.878   6.526
60882SOL    HW282671  11.932   1.802   6.532
60883SOL     OW82672  12.031   0.956   6.447
60883SOL    HW182673  12.085   0.887   6.495
60883SOL    HW282674  11.999   1.025   6.513
60884SOL     OW82675  12.255   0.984   5.673
60884SOL    HW182676  12.232   1.037   5.591
60884SOL    HW282677  12.336   0.928   5.654
60885SOL     OW82678  13.033   1.569   6.437
60885SOL    HW182679  12.962   1.557   6.367
60885SOL    HW282680  13.034   1.490   6.497
60886SOL     OW82681  11.393   1.314   7.430
60886SOL    HW182682  11.328   1.241   7.409
60886SOL    HW282683  11.397   1.328   7.528
60887SOL     OW82684  11.251   1.240   6.239
60887SOL    HW182685  11.250   1.193   6.327
60887SOL    HW282686  11.333   1.212   6.188
60888SOL     OW82687  11.844   1.391   7.210
60888SOL    HW182688  11.766   1.341   7.248
60888SOL    HW282689  11.841   1.486   7.241
60889SOL     OW82690  11.600   0.424   6.106
60889SOL    HW182691  11.630   0.352   6.044
60889SOL    HW282692  11.561   0.384   6.189
60890SOL     OW82693  11.489   0.547   6.866
60890SOL    HW182694  11.527   0.488   6.938
60890SOL    HW282695  11.529   0.521   6.778
60891SOL     OW82696  11.984   1.586   6.273
60891SOL    HW182697  12.016   1.596   6.179
60891SOL    HW282698  11.905   1.524   6.275
60892SOL     OW82699  12.596   0.214   6.698
60892SOL    HW182700  12.648   0.149   6.753
60892SOL    HW282701  12.547   0.277   6.759
60893SOL     OW82702  12.173   0.034   6.740
60893SOL    HW182703  12.110  -0.038   6.709
60893SOL    HW282704  12.266  -0.002   6.740
60894SOL     OW82705  11.942   1.330   5.887
60894SOL    HW182706  11.896   1.243   5.904
60894SOL    HW282707  12.033   1.327   5.928
60895SOL     OW82708  11.790   1.567   6.870
60895SOL    HW182709  11.785   1.649   6.927
60895SOL    HW282710  11.879   1.564   6.825
60896SOL     OW82711  12.524   0.052   5.754
60896SOL    HW182712  12.559   0.011   5.670
60896SOL    HW282713  12.434   0.014   5.774
60897SOL     OW82714  12.472   0.453   6.277
60897SOL    HW182715  12.413   0.533   6.281
60897SOL    HW282716  12.487   0.418   6.370
60898SOL     OW82717  12.765   0.221   6.468
60898SOL    HW182718  12.681   0.220   6.522
60898SOL    HW282719  12.767   0.304   6.412
60899SOL     OW82720  11.211   1.077   5.886
60899SOL    HW182721  11.310   1.066   5.877
60899SOL    HW282722  11.171   0.991   5.918
60900SOL     OW82723  12.047   1.646   5.923
60900SOL    HW182724  11.970   1.611   5.869
60900SOL    HW282725  12.015   1.717   5.985
60901SOL     OW82726  11.402   0.628   7.561
60901SOL    HW182727  11.309   0.626   7.598
60901SOL    HW282728  11.403   0.589   7.469
60902SOL     OW82729  11.397   0.275   8.444
60902SOL    HW182730  11.432   0.258   8.536
60902SOL    HW282731  11.309   0.230   8.432
60903SOL     OW82732  11.191   0.368   8.095
60903SOL    HW182733  11.109   0.411   8.134
60903SOL    HW282734  11.163   0.295   8.032
60904SOL     OW82735  11.741   1.275   8.613
60904SOL    HW182736  11.648   1.268   8.576
60904SOL    HW282737  11.752   1.364   8.657
60905SOL     OW82738  12.727   1.511   8.151
60905SOL    HW182739  12.670   1.495   8.232
60905SOL    HW282740  12.668   1.521   8.071
60906SOL     OW82741  12.307   0.703   8.165
60906SOL    HW182742  12.364   0.781   8.140
60906SOL    HW282743  12.247   0.729   8.241
60907SOL     OW82744  11.940   1.144   8.471
60907SOL    HW182745  11.862   1.161   8.531
60907SOL    HW282746  11.974   1.231   8.435
60908SOL     OW82747  12.022   0.798   9.271
60908SOL    HW182748  12.018   0.874   9.336
60908SOL    HW282749  12.044   0.834   9.180
60909SOL     OW82750  11.857   1.012   8.113
60909SOL    HW182751  11.926   0.996   8.183
60909SOL    HW282752  11.784   1.069   8.151
60910SOL     OW82753  11.858   1.161   9.251
60910SOL    HW182754  11.918   1.240   9.265
60910SOL    HW282755  11.772   1.192   9.210
60911SOL     OW82756  11.507   1.435   8.509
60911SOL    HW182757  11.429   1.404   8.456
60911SOL    HW282758  11.565   1.493   8.452
60912SOL     OW82759  12.632   1.505   8.787
60912SOL    HW182760  12.656   1.599   8.813
60912SOL    HW282761  12.616   1.451   8.869
60913SOL     OW82762  11.610   0.392   8.947
60913SOL    HW182763  11.692   0.336   8.956
60913SOL    HW282764  11.529   0.334   8.951
60914SOL     OW82765  11.403   1.713   7.931
60914SOL    HW182766  11.437   1.790   7.985
60914SOL    HW282767  11.447   1.713   7.841
60915SOL     OW82768  12.299   1.341   9.138
60915SOL    HW182769  12.346   1.341   9.226
60915SOL    HW282770  12.251   1.254   9.127
60916SOL     OW82771  11.402   1.434   7.986
60916SOL    HW182772  11.376   1.530   7.986
60916SOL    HW282773  11.331   1.380   8.031
60917SOL     OW82774  11.412   1.091   8.334
60917SOL    HW182775  11.426   1.007   8.386
60917SOL    HW282776  11.357   1.155   8.389
60918SOL     OW82777  11.792   1.786   8.887
60918SOL    HW182778  11.700   1.769   8.922
60918SOL    HW282779  11.820   1.878   8.913
60919SOL     OW82780  11.778   0.964   7.571
60919SOL    HW182781  11.785   1.048   7.517
60919SOL    HW282782  11.824   0.977   7.659
60920SOL     OW82783  12.766   0.114   8.928
60920SOL    HW182784  12.748   0.181   8.856
60920SOL    HW282785  12.763   0.160   9.017
60921SOL     OW82786  11.294   0.643   8.011
60921SOL    HW182787  11.249   0.555   8.028
60921SOL    HW282788  11.293   0.697   8.095
60922SOL     OW82789  11.199   1.596   7.565
60922SOL    HW182790  11.180   1.500   7.586
60922SOL    HW282791  11.166   1.654   7.640
60923SOL     OW82792  12.861   0.922   8.060
60923SOL    HW182793  12.956   0.893   8.068
60923SOL    HW282794  12.853   0.987   7.985
60924SOL     OW82795  11.285   0.737   9.045
60924SOL    HW182796  11.373   0.724   9.090
60924SOL    HW282797  11.272   0.834   9.023
60925SOL     OW82798  11.785   1.365   8.174
60925SOL    HW182799  11.736   1.278   8.183
60925SOL    HW282800  11.762   1.408   8.087
60926SOL     OW82801  12.465   1.228   8.871
60926SOL    HW182802  12.502   1.155   8.813
60926SOL    HW282803  12.517   1.233   8.956
60927SOL     OW82804  11.981   0.004   7.950
60927SOL    HW182805  12.021   0.095   7.941
60927SOL    HW282806  11.881   0.012   7.956
60928SOL     OW82807  11.369   0.976   8.712
60928SOL    HW182808  11.458   0.931   8.698
60928SOL    HW282809  11.296   0.911   8.693
60929SOL     OW82810  12.359   1.792   9.064
60929SOL    HW182811  12.383   1.852   8.988
60929SOL    HW282812  12.366   1.697   9.034
60930SOL     OW82813  11.489   0.251   9.249
60930SOL    HW182814  11.560   0.322   9.255
60930SOL    HW282815  11.401   0.290   9.277
60931SOL     OW82816  12.638   1.417   8.401
60931SOL    HW182817  12.579   1.423   8.481
60931SOL    HW282818  12.623   1.329   8.355
60932SOL     OW82819  12.839   1.714   8.020
60932SOL    HW182820  12.798   1.691   7.932
60932SOL    HW282821  12.821   1.640   8.085
60933SOL     OW82822  11.770   0.729   7.718
60933SOL    HW182823  11.794   0.798   7.650
60933SOL    HW282824  11.692   0.762   7.772
60934SOL     OW82825  12.453   0.345   8.392
60934SOL    HW182826  12.367   0.295   8.379
60934SOL    HW282827  12.515   0.291   8.448
60935SOL     OW82828  11.979   0.605   8.913
60935SOL    HW182829  11.932   0.602   9.002
60935SOL    HW282830  11.928   0.550   8.847
60936SOL     OW82831  12.566   0.469   9.122
60936SOL    HW182832  12.546   0.512   9.210
60936SOL    HW282833  12.644   0.407   9.131
60937SOL     OW82834  12.145   0.890   9.020
60937SOL    HW182835  12.191   0.806   8.991
60937SOL    HW282836  12.089   0.924   8.945
60938SOL     OW82837  12.163   0.410   8.690
60938SOL    HW182838  12.086   0.444   8.744
60938SOL    HW282839  12.129   0.359   8.611
60939SOL     OW82840  12.213   0.701   7.877
60939SOL    HW182841  12.239   0.697   7.973
60939SOL    HW282842  12.128   0.650   7.863
60940SOL     OW82843  11.248   0.811   8.237
60940SOL    HW182844  11.347   0.799   8.246
60940SOL    HW282845  11.224   0.906   8.258
60941SOL     OW82846  11.302   1.821   9.019
60941SOL    HW182847  11.292   1.806   9.118
60941SOL    HW282848  11.216   1.857   8.983
60942SOL     OW82849  12.037   0.348   7.643
60942SOL    HW182850  12.096   0.411   7.594
60942SOL    HW282851  12.056   0.254   7.614
60943SOL     OW82852  12.534   1.144   7.993
60943SOL    HW182853  12.617   1.115   7.945
60943SOL    HW282854  12.485   1.211   7.937
60944SOL     OW82855  11.722   0.196   8.333
60944SOL    HW182856  11.717   0.191   8.433
60944SOL    HW282857  11.724   0.292   8.304
60945SOL     OW82858  12.180   1.456   7.925
60945SOL    HW182859  12.134   1.528   7.873
60945SOL    HW282860  12.176   1.476   8.023
60946SOL     OW82861  11.523   1.801   8.301
60946SOL    HW182862  11.573   1.715   8.307
60946SOL    HW282863  11.588   1.878   8.298
60947SOL     OW82864  12.399   1.550   8.954
60947SOL    HW182865  12.405   1.473   9.018
60947SOL    HW282866  12.347   1.524   8.874
60948SOL     OW82867  11.493   0.943   7.690
60948SOL    HW182868  11.575   0.982   7.648
60948SOL    HW282869  11.466   0.861   7.641
60949SOL     OW82870  12.630   0.735   8.176
60949SOL    HW182871  12.625   0.670   8.251
60949SOL    HW282872  12.710   0.794   8.189
60950SOL     OW82873  11.633   1.266   9.175
60950SOL    HW182874  11.583   1.267   9.089
60950SOL    HW282875  11.570   1.248   9.251
60951SOL     OW82876  12.283   1.776   7.685
60951SOL    HW182877  12.223   1.714   7.735
60951SOL    HW282878  12.314   1.732   7.600
60952SOL     OW82879  11.374   0.285   8.946
60952SOL    HW182880  11.294   0.345   8.933
60952SOL    HW282881  11.364   0.236   9.032
60953SOL     OW82882  11.636   1.743   7.771
60953SOL    HW182883  11.669   1.782   7.857
60953SOL    HW282884  11.712   1.736   7.706
60954SOL     OW82885  12.572   0.107   7.874
60954SOL    HW182886  12.548   0.070   7.784
60954SOL    HW282887  12.671   0.123   7.878
60955SOL     OW82888  11.421   1.785   8.689
60955SOL    HW182889  11.478   1.720   8.739
60955SOL    HW282890  11.405   1.752   8.596
60956SOL     OW82891  12.112   1.698   8.352
60956SOL    HW182892  12.192   1.641   8.373
60956SOL    HW282893  12.063   1.658   8.275
60957SOL     OW82894  11.554   0.700   7.928
60957SOL    HW182895  11.599   0.610   7.925
60957SOL    HW282896  11.460   0.689   7.961
60958SOL     OW82897  11.786   0.122   7.565
60958SOL    HW182898  11.884   0.100   7.572
60958SOL    HW282899  11.755   0.105   7.472
60959SOL     OW82900  11.953   0.264   9.197
60959SOL    HW182901  12.020   0.203   9.240
60959SOL    HW282902  11.880   0.283   9.262
60960SOL     OW82903  12.060   1.514   8.643
60960SOL    HW182904  12.037   1.489   8.549
60960SOL    HW282905  12.121   1.445   8.682
60961SOL     OW82906  12.523   0.590   8.881
60961SOL    HW182907  12.551   0.547   8.966
60961SOL    HW282908  12.548   0.686   8.882
60962SOL     OW82909  11.975   1.402   8.372
60962SOL    HW182910  12.065   1.416   8.330
60962SOL    HW282911  11.904   1.404   8.301
60963SOL     OW82912  12.094   0.503   8.347
60963SOL    HW182913  12.069   0.494   8.251
60963SOL    HW282914  12.142   0.421   8.378
60964SOL     OW82915  11.711   0.064   7.960
60964SOL    HW182916  11.630   0.065   8.018
60964SOL    HW282917  11.714   0.147   7.905
60965SOL     OW82918  12.606   1.188   7.489
60965SOL    HW182919  12.638   1.112   7.546
60965SOL    HW282920  12.514   1.215   7.519
60966SOL     OW82921  11.469   0.035   7.619
60966SOL    HW182922  11.518   0.119   7.598
60966SOL    HW282923  11.531  -0.030   7.664
60967SOL     OW82924  12.107   0.236   7.928
60967SOL    HW182925  12.059   0.277   7.850
60967SOL    HW282926  12.206   0.234   7.909
60968SOL     OW82927  12.248   0.683   8.912
60968SOL    HW182928  12.168   0.622   8.915
60968SOL    HW282929  12.329   0.630   8.888
60969SOL     OW82930  12.399   1.570   8.241
60969SOL    HW182931  12.420   1.644   8.176
60969SOL    HW282932  12.467   1.570   8.314
60970SOL     OW82933  11.631   1.152   8.189
60970SOL    HW182934  11.560   1.125   8.254
60970SOL    HW282935  11.605   1.124   8.096
60971SOL     OW82936  12.443   1.797   8.039
60971SOL    HW182937  12.487   1.861   7.975
60971SOL    HW282938  12.393   1.849   8.109
60972SOL     OW82939  12.204   0.549   7.464
60972SOL    HW182940  12.163   0.631   7.425
60972SOL    HW282941  12.268   0.575   7.537
60973SOL     OW82942  11.250   0.556   8.834
60973SOL    HW182943  11.342   0.555   8.793
60973SOL    HW282944  11.244   0.630   8.901
60974SOL     OW82945  11.733   0.222   8.595
60974SOL    HW182946  11.771   0.138   8.632
60974SOL    HW282947  11.645   0.241   8.639
60975SOL     OW82948  12.038   0.454   8.090
60975SOL    HW182949  12.006   0.526   8.028
60975SOL    HW282950  12.062   0.373   8.037
60976SOL     OW82951  12.189   0.039   8.201
60976SOL    HW182952  12.117   0.044   8.132
60976SOL    HW282953  12.165  -0.030   8.270
60977SOL     OW82954  12.601   1.173   8.315
60977SOL    HW182955  12.546   1.089   8.308
60977SOL    HW282956  12.627   1.202   8.223
60978SOL     OW82957  12.638   0.590   8.440
60978SOL    HW182958  12.608   0.495   8.447
60978SOL    HW282959  12.711   0.606   8.506
60979SOL     OW82960  11.660   1.385   7.622
60979SOL    HW182961  11.573   1.370   7.669
60979SOL    HW282962  11.643   1.411   7.527
60980SOL     OW82963  12.562   0.575   7.526
60980SOL    HW182964  12.508   0.554   7.607
60980SOL    HW282965  12.653   0.534   7.535
60981SOL     OW82966  11.699   0.256   7.776
60981SOL    HW182967  11.726   0.197   7.701
60981SOL    HW282968  11.699   0.351   7.745
60982SOL     OW82969  12.236   1.347   8.788
60982SOL    HW182970  12.156   1.324   8.843
60982SOL    HW282971  12.319   1.321   8.837
60983SOL     OW82972  12.764   1.629   9.073
60983SOL    HW182973  12.791   1.663   8.983
60983SOL    HW282974  12.843   1.591   9.119
60984SOL     OW82975  12.283   1.195   8.548
60984SOL    HW182976  12.243   1.239   8.629
60984SOL    HW282977  12.242   1.232   8.465
60985SOL     OW82978  12.087   0.089   8.850
60985SOL    HW182979  12.112   0.069   8.755
60985SOL    HW282980  12.159   0.145   8.892
60986SOL     OW82981  12.152   1.116   9.167
60986SOL    HW182982  12.053   1.122   9.177
60986SOL    HW282983  12.175   1.036   9.111
60987SOL     OW82984  11.877   1.050   7.816
60987SOL    HW182985  11.863   1.057   7.915
60987SOL    HW282986  11.961   0.999   7.798
60988SOL     OW82987  11.582   0.813   8.699
60988SOL    HW182988  11.668   0.825   8.749
60988SOL    HW282989  11.540   0.726   8.726
60989SOL     OW82990  12.446   0.386   8.710
60989SOL    HW182991  12.467   0.460   8.774
60989SOL    HW282992  12.357   0.403   8.667
60990SOL     OW82993  11.236   1.564   8.779
60990SOL    HW182994  11.190   1.646   8.745
60990SOL    HW282995  11.334   1.583   8.788
60991SOL     OW82996  11.539   1.100   7.949
60991SOL    HW182997  11.532   1.183   7.893
60991SOL    HW282998  11.543   1.020   7.889
60992SOL     OW82999  11.738   0.537   8.313
60992SOL    HW183000  11.750   0.603   8.239
60992SOL    HW283001  11.784   0.571   8.396
60993SOL     OW83002  12.424   1.348   7.836
60993SOL    HW183003  12.474   1.425   7.876
60993SOL    HW283004  12.329   1.350   7.868
60994SOL     OW83005  12.444   1.445   8.590
60994SOL    HW183006  12.491   1.458   8.677
60994SOL    HW283007  12.378   1.371   8.599
60995SOL     OW83008  12.754   0.639   7.920
60995SOL    HW183009  12.723   0.700   7.993
60995SOL    HW283010  12.804   0.691   7.851
60996SOL     OW83011  11.526   1.510   8.777
60996SOL    HW183012  11.505   1.466   8.690
60996SOL    HW283013  11.623   1.536   8.780
60997SOL     OW83014  11.574   0.751   9.046
60997SOL    HW183015  11.642   0.806   8.999
60997SOL    HW283016  11.614   0.663   9.073
60998SOL     OW83017  12.185   0.105   9.218
60998SOL    HW183018  12.191   0.190   9.166
60998SOL    HW283019  12.217   0.029   9.161
60999SOL     OW83020  11.676   0.050   9.188
60999SOL    HW183021  11.634  -0.007   9.118
60999SOL    HW283022  11.610   0.119   9.220
61000SOL     OW83023  11.745   0.870   8.477
61000SOL    HW183024  11.789   0.959   8.468
61000SOL    HW283025  11.682   0.870   8.554
61001SOL     OW83026  12.532   0.862   8.493
61001SOL    HW183027  12.457   0.862   8.427
61001SOL    HW283028  12.569   0.770   8.502
61002SOL     OW83029  12.381   0.525   7.723
61002SOL    HW183030  12.394   0.441   7.777
61002SOL    HW283031  12.352   0.599   7.783
61003SOL     OW83032  11.479   0.213   8.679
61003SOL    HW183033  11.456   0.250   8.769
61003SOL    HW283034  11.449   0.118   8.673
61004SOL     OW83035  11.209   1.310   8.730
61004SOL    HW183036  11.262   1.261   8.798
61004SOL    HW283037  11.231   1.408   8.735
61005SOL     OW83038  11.904   0.634   8.512
61005SOL    HW183039  11.963   0.608   8.436
61005SOL    HW283040  11.876   0.730   8.501
61006SOL     OW83041  11.479   0.063   8.066
61006SOL    HW183042  11.468   0.157   8.099
61006SOL    HW283043  11.474   0.000   8.143
61007SOL     OW83044  12.794   0.367   7.822
61007SOL    HW183045  12.796   0.291   7.886
61007SOL    HW283046  12.746   0.444   7.862
61008SOL     OW83047  12.195   0.766   8.414
61008SOL    HW183048  12.210   0.787   8.510
61008SOL    HW283049  12.165   0.671   8.405
61009SOL     OW83050  12.152   1.573   9.148
61009SOL    HW183051  12.132   1.617   9.060
61009SOL    HW283052  12.191   1.482   9.132
61010SOL     OW83053  11.522   0.898   9.252
61010SOL    HW183054  11.598   0.942   9.300
61010SOL    HW283055  11.557   0.851   9.170
61011SOL     OW83056  12.712   0.274   7.573
61011SOL    HW183057  12.651   0.199   7.596
61011SOL    HW283058  12.734   0.326   7.656
61012SOL     OW83059  12.475   0.838   7.490
61012SOL    HW183060  12.509   0.745   7.505
61012SOL    HW283061  12.493   0.865   7.395
61013SOL     OW83062  12.240   1.333   8.297
61013SOL    HW183063  12.247   1.249   8.242
61013SOL    HW283064  12.302   1.402   8.261
61014SOL     OW83065  11.491   0.810   8.397
61014SOL    HW183066  11.584   0.846   8.402
61014SOL    HW283067  11.485   0.725   8.449
61015SOL     OW83068  11.511   0.509   8.454
61015SOL    HW183069  11.459   0.426   8.437
61015SOL    HW283070  11.588   0.514   8.390
61016SOL     OW83071  12.310   0.380   9.126
61016SOL    HW183072  12.265   0.443   9.190
61016SOL    HW283073  12.403   0.411   9.109
61017SOL     OW83074  12.332   0.207   8.925
61017SOL    HW183075  12.332   0.271   9.002
61017SOL    HW283076  12.360   0.255   8.842
61018SOL     OW83077  11.180   1.326   7.648
61018SOL    HW183078  11.087   1.347   7.617
61018SOL    HW283079  11.190   1.227   7.661
61019SOL     OW83080  11.260   1.801   8.375
61019SOL    HW183081  11.218   1.715   8.348
61019SOL    HW283082  11.354   1.804   8.341
61020SOL     OW83083  11.676   1.568   8.358
61020SOL    HW183084  11.742   1.642   8.367
61020SOL    HW283085  11.720   1.489   8.316
61021SOL     OW83086  12.174   0.796   8.686
61021SOL    HW183087  12.215   0.764   8.772
61021SOL    HW283088  12.078   0.769   8.683
61022SOL     OW83089  11.212   0.544   8.562
61022SOL    HW183090  11.297   0.511   8.521
61022SOL    HW283091  11.225   0.559   8.660
61023SOL     OW83092  11.361   0.520   9.170
61023SOL    HW183093  11.420   0.480   9.100
61023SOL    HW283094  11.303   0.591   9.129
61024SOL     OW83095  12.541   0.950   9.108
61024SOL    HW183096  12.580   1.039   9.128
61024SOL    HW283097  12.551   0.930   9.011
61025SOL     OW83098  11.987   0.572   7.773
61025SOL    HW183099  11.994   0.483   7.727
61025SOL    HW283100  11.893   0.606   7.765
61026SOL     OW83101  11.424   1.564   9.192
61026SOL    HW183102  11.394   1.621   9.268
61026SOL    HW283103  11.417   1.467   9.218
61027SOL     OW83104  11.843   0.464   8.717
61027SOL    HW183105  11.809   0.375   8.687
61027SOL    HW283106  11.869   0.518   8.637
61028SOL     OW83107  12.102   1.678   8.913
61028SOL    HW183108  12.078   1.660   8.818
61028SOL    HW283109  12.132   1.772   8.923
61029SOL     OW83110  11.645   0.500   7.639
61029SOL    HW183111  11.706   0.580   7.643
61029SOL    HW283112  11.550   0.531   7.646
61030SOL     OW83113  11.331   1.137   8.914
61030SOL    HW183114  11.353   1.076   8.990
61030SOL    HW283115  11.341   1.088   8.828
61031SOL     OW83116  12.519   1.059   8.682
61031SOL    HW183117  12.543   0.996   8.608
61031SOL    HW283118  12.429   1.099   8.664
61032SOL     OW83119  12.474   0.855   7.757
61032SOL    HW183120  12.388   0.824   7.799
61032SOL    HW283121  12.470   0.841   7.658
61033SOL     OW83122  12.424   1.731   8.576
61033SOL    HW183123  12.508   1.736   8.522
61033SOL    HW283124  12.401   1.635   8.594
61034SOL     OW83125  11.255   1.258   8.470
61034SOL    HW183126  11.250   1.257   8.570
61034SOL    HW283127  11.172   1.217   8.432
61035SOL     OW83128  11.860   1.662   9.164
61035SOL    HW183129  11.804   1.743   9.173
61035SOL    HW283130  11.912   1.666   9.078
61036SOL     OW83131  12.898   0.135   7.971
61036SOL    HW183132  12.971   0.118   7.904
61036SOL    HW283133  12.867   0.048   8.009
61037SOL     OW83134  12.560   1.573   7.925
61037SOL    HW183135  12.627   1.585   7.851
61037SOL    HW283136  12.520   1.662   7.948
61038SOL     OW83137  11.302   1.794   9.299
61038SOL    HW183138  11.261   1.720   9.352
61038SOL    HW283139  11.366   1.845   9.357
61039SOL     OW83140  12.452   0.927   8.120
61039SOL    HW183141  12.512   0.846   8.122
61039SOL    HW283142  12.492   0.996   8.060
61040SOL     OW83143  12.002   1.273   8.870
61040SOL    HW183144  11.997   1.306   8.965
61040SOL    HW283145  11.916   1.292   8.824
61041SOL     OW83146  11.844   1.616   7.602
61041SOL    HW183147  11.853   1.626   7.503
61041SOL    HW283148  11.804   1.527   7.623
61042SOL     OW83149  11.435   0.326   8.168
61042SOL    HW183150  11.356   0.377   8.134
61042SOL    HW283151  11.426   0.311   8.266
61043SOL     OW83152  12.366   1.612   7.479
61043SOL    HW183153  12.372   1.519   7.516
61043SOL    HW283154  12.307   1.612   7.399
61044SOL     OW83155  11.994   1.002   8.820
61044SOL    HW183156  12.034   1.001   8.728
61044SOL    HW283157  12.004   1.094   8.860
61045SOL     OW83158  12.088   0.910   7.739
61045SOL    HW183159  12.151   0.948   7.671
61045SOL    HW283160  12.128   0.827   7.778
61046SOL     OW83161  12.676   1.607   7.492
61046SOL    HW183162  12.584   1.644   7.499
61046SOL    HW283163  12.714   1.627   7.402
61047SOL     OW83164  11.544   1.288   8.938
61047SOL    HW183165  11.531   1.381   8.904
61047SOL    HW283166  11.460   1.236   8.925
61048SOL     OW83167  12.211   1.098   8.144
61048SOL    HW183168  12.141   1.051   8.198
61048SOL    HW283169  12.270   1.030   8.101
61049SOL     OW83170  12.186   0.236   8.419
61049SOL    HW183171  12.178   0.200   8.326
61049SOL    HW283172  12.184   0.160   8.484
61050SOL     OW83173  11.762   1.487   7.939
61050SOL    HW183174  11.804   1.429   7.869
61050SOL    HW283175  11.718   1.566   7.895
61051SOL     OW83176  11.427   1.348   7.738
61051SOL    HW183177  11.331   1.349   7.711
61051SOL    HW283178  11.439   1.401   7.822
61052SOL     OW83179  11.277   1.013   9.174
61052SOL    HW183180  11.200   0.980   9.228
61052SOL    HW283181  11.362   0.983   9.216
61053SOL     OW83182  11.844   0.203   8.937
61053SOL    HW183183  11.934   0.187   8.897
61053SOL    HW283184  11.852   0.208   9.036
61054SOL     OW83185  11.247   0.345   7.481
61054SOL    HW183186  11.155   0.317   7.452
61054SOL    HW283187  11.278   0.422   7.425
61055SOL     OW83188  12.612   0.856   8.846
61055SOL    HW183189  12.555   0.908   8.783
61055SOL    HW283190  12.708   0.868   8.822
61056SOL     OW83191  11.244   0.166   7.766
61056SOL    HW183192  11.227   0.249   7.712
61056SOL    HW283193  11.334   0.129   7.744
61057SOL     OW83194  12.355   1.335   7.567
61057SOL    HW183195  12.256   1.324   7.569
61057SOL    HW283196  12.389   1.350   7.660
61058SOL     OW83197  11.785   0.842   8.879
61058SOL    HW183198  11.841   0.923   8.862
61058SOL    HW283199  11.844   0.762   8.882
61059SOL     OW83200  12.665   1.767   8.407
61059SOL    HW183201  12.698   1.831   8.338
61059SOL    HW283202  12.731   1.761   8.482
61060SOL     OW83203  11.888   0.565   9.156
61060SOL    HW183204  11.907   0.630   9.230
61060SOL    HW283205  11.948   0.485   9.165
61061SOL     OW83206  12.622   1.220   9.081
61061SOL    HW183207  12.613   1.210   9.180
61061SOL    HW283208  12.718   1.213   9.055
61062SOL     OW83209  11.562   1.741   9.008
61062SOL    HW183210  11.471   1.782   9.006
61062SOL    HW283211  11.555   1.647   9.040
61063SOL     OW83212  12.397   0.325   7.897
61063SOL    HW183213  12.462   0.251   7.886
61063SOL    HW283214  12.417   0.375   7.981
61064SOL     OW83215  11.766   0.745   8.100
61064SOL    HW183216  11.816   0.830   8.081
61064SOL    HW283217  11.678   0.747   8.052
61065SOL     OW83218  12.031   1.374   7.464
61065SOL    HW183219  11.985   1.389   7.552
61065SOL    HW283220  12.075   1.459   7.434
61066SOL     OW83221  11.833   1.790   8.401
61066SOL    HW183222  11.787   1.878   8.388
61066SOL    HW283223  11.932   1.802   8.394
61067SOL     OW83224  12.031   0.956   8.309
61067SOL    HW183225  12.085   0.887   8.357
61067SOL    HW283226  11.999   1.025   8.375
61068SOL     OW83227  12.255   0.984   7.535
61068SOL    HW183228  12.232   1.037   7.453
61068SOL    HW283229  12.336   0.928   7.516
61069SOL     OW83230  13.033   1.569   8.299
61069SOL    HW183231  12.962   1.557   8.229
61069SOL    HW283232  13.034   1.490   8.359
61070SOL     OW83233  11.393   1.314   9.292
61070SOL    HW183234  11.328   1.241   9.271
61070SOL    HW283235  11.397   1.328   9.390
61071SOL     OW83236  11.251   1.240   8.101
61071SOL    HW183237  11.250   1.193   8.189
61071SOL    HW283238  11.333   1.212   8.050
61072SOL     OW83239  11.844   1.391   9.072
61072SOL    HW183240  11.766   1.341   9.110
61072SOL    HW283241  11.841   1.486   9.103
61073SOL     OW83242  11.600   0.424   7.968
61073SOL    HW183243  11.630   0.352   7.906
61073SOL    HW283244  11.561   0.384   8.051
61074SOL     OW83245  11.489   0.547   8.728
61074SOL    HW183246  11.527   0.488   8.800
61074SOL    HW283247  11.529   0.521   8.640
61075SOL     OW83248  11.984   1.586   8.135
61075SOL    HW183249  12.016   1.596   8.041
61075SOL    HW283250  11.905   1.524   8.137
61076SOL     OW83251  12.596   0.214   8.560
61076SOL    HW183252  12.648   0.149   8.615
61076SOL    HW283253  12.547   0.277   8.621
61077SOL     OW83254  12.173   0.034   8.602
61077SOL    HW183255  12.110  -0.038   8.571
61077SOL    HW283256  12.266  -0.002   8.602
61078SOL     OW83257  11.942   1.330   7.749
61078SOL    HW183258  11.896   1.243   7.766
61078SOL    HW283259  12.033   1.327   7.790
61079SOL     OW83260  11.790   1.567   8.732
61079SOL    HW183261  11.785   1.649   8.789
61079SOL    HW283262  11.879   1.564   8.687
61080SOL     OW83263  12.524   0.052   7.616
61080SOL    HW183264  12.559   0.011   7.532
61080SOL    HW283265  12.434   0.014   7.636
61081SOL     OW83266  12.472   0.453   8.139
61081SOL    HW183267  12.413   0.533   8.143
61081SOL    HW283268  12.487   0.418   8.232
61082SOL     OW83269  12.765   0.221   8.330
61082SOL    HW183270  12.681   0.220   8.384
61082SOL    HW283271  12.767   0.304   8.274
61083SOL     OW83272  11.211   1.077   7.748
61083SOL    HW183273  11.310   1.066   7.739
61083SOL    HW283274  11.171   0.991   7.780
61084SOL     OW83275  12.047   1.646   7.785
61084SOL    HW183276  11.970   1.611   7.731
61084SOL    HW283277  12.015   1.717   7.847
61085SOL     OW83278  11.402   0.628   9.423
61085SOL    HW183279  11.309   0.626   9.460
61085SOL    HW283280  11.403   0.589   9.331
61086SOL     OW83281  11.397   0.275  10.306
61086SOL    HW183282  11.432   0.258  10.398
61086SOL    HW283283  11.309   0.230  10.294
61087SOL     OW83284  11.191   0.368   9.957
61087SOL    HW183285  11.109   0.411   9.996
61087SOL    HW283286  11.163   0.295   9.894
61088SOL     OW83287  11.741   1.275  10.475
61088SOL    HW183288  11.648   1.268  10.438
61088SOL    HW283289  11.752   1.364  10.519
61089SOL     OW83290  12.727   1.511  10.013
61089SOL    HW183291  12.670   1.495  10.094
61089SOL    HW283292  12.668   1.521   9.933
61090SOL     OW83293  12.307   0.703  10.027
61090SOL    HW183294  12.364   0.781  10.002
61090SOL    HW283295  12.247   0.729  10.103
61091SOL     OW83296  11.940   1.144  10.333
61091SOL    HW183297  11.862   1.161  10.393
61091SOL    HW283298  11.974   1.231  10.297
61092SOL     OW83299  12.022   0.798  11.133
61092SOL    HW183300  12.018   0.874  11.198
61092SOL    HW283301  12.044   0.834  11.042
61093SOL     OW83302  11.857   1.012   9.975
61093SOL    HW183303  11.926   0.996  10.045
61093SOL    HW283304  11.784   1.069  10.013
61094SOL     OW83305  11.858   1.161  11.113
61094SOL    HW183306  11.918   1.240  11.127
61094SOL    HW283307  11.772   1.192  11.072
61095SOL     OW83308  11.507   1.435  10.371
61095SOL    HW183309  11.429   1.404  10.318
61095SOL    HW283310  11.565   1.493  10.314
61096SOL     OW83311  12.632   1.505  10.649
61096SOL    HW183312  12.656   1.599  10.675
61096SOL    HW283313  12.616   1.451  10.731
61097SOL     OW83314  11.610   0.392  10.809
61097SOL    HW183315  11.692   0.336  10.818
61097SOL    HW283316  11.529   0.334  10.813
61098SOL     OW83317  11.403   1.713   9.793
61098SOL    HW183318  11.437   1.790   9.847
61098SOL    HW283319  11.447   1.713   9.703
61099SOL     OW83320  12.299   1.341  11.000
61099SOL    HW183321  12.346   1.341  11.088
61099SOL    HW283322  12.251   1.254  10.989
61100SOL     OW83323  11.402   1.434   9.848
61100SOL    HW183324  11.376   1.530   9.848
61100SOL    HW283325  11.331   1.380   9.893
61101SOL     OW83326  11.412   1.091  10.196
61101SOL    HW183327  11.426   1.007  10.248
61101SOL    HW283328  11.357   1.155  10.251
61102SOL     OW83329  11.792   1.786  10.749
61102SOL    HW183330  11.700   1.769  10.784
61102SOL    HW283331  11.820   1.878  10.775
61103SOL     OW83332  11.778   0.964   9.433
61103SOL    HW183333  11.785   1.048   9.379
61103SOL    HW283334  11.824   0.977   9.521
61104SOL     OW83335  12.766   0.114  10.790
61104SOL    HW183336  12.748   0.181  10.718
61104SOL    HW283337  12.763   0.160  10.879
61105SOL     OW83338  11.294   0.643   9.873
61105SOL    HW183339  11.249   0.555   9.890
61105SOL    HW283340  11.293   0.697   9.957
61106SOL     OW83341  11.199   1.596   9.427
61106SOL    HW183342  11.180   1.500   9.448
61106SOL    HW283343  11.166   1.654   9.502
61107SOL     OW83344  12.861   0.922   9.922
61107SOL    HW183345  12.956   0.893   9.930
61107SOL    HW283346  12.853   0.987   9.847
61108SOL     OW83347  11.285   0.737  10.907
61108SOL    HW183348  11.373   0.724  10.952
61108SOL    HW283349  11.272   0.834  10.885
61109SOL     OW83350  11.785   1.365  10.036
61109SOL    HW183351  11.736   1.278  10.045
61109SOL    HW283352  11.762   1.408   9.949
61110SOL     OW83353  12.465   1.228  10.733
61110SOL    HW183354  12.502   1.155  10.675
61110SOL    HW283355  12.517   1.233  10.818
61111SOL     OW83356  11.981   0.004   9.812
61111SOL    HW183357  12.021   0.095   9.803
61111SOL    HW283358  11.881   0.012   9.818
61112SOL     OW83359  11.369   0.976  10.574
61112SOL    HW183360  11.458   0.931  10.560
61112SOL    HW283361  11.296   0.911  10.555
61113SOL     OW83362  12.359   1.792  10.926
61113SOL    HW183363  12.383   1.852  10.850
61113SOL    HW283364  12.366   1.697  10.896
61114SOL     OW83365  11.489   0.251  11.111
61114SOL    HW183366  11.560   0.322  11.117
61114SOL    HW283367  11.401   0.290  11.139
61115SOL     OW83368  12.638   1.417  10.263
61115SOL    HW183369  12.579   1.423  10.343
61115SOL    HW283370  12.623   1.329  10.217
61116SOL     OW83371  12.839   1.714   9.882
61116SOL    HW183372  12.798   1.691   9.794
61116SOL    HW283373  12.821   1.640   9.947
61117SOL     OW83374  11.770   0.729   9.580
61117SOL    HW183375  11.794   0.798   9.512
61117SOL    HW283376  11.692   0.762   9.634
61118SOL     OW83377  12.453   0.345  10.254
61118SOL    HW183378  12.367   0.295  10.241
61118SOL    HW283379  12.515   0.291  10.310
61119SOL     OW83380  11.979   0.605  10.775
61119SOL    HW183381  11.932   0.602  10.864
61119SOL    HW283382  11.928   0.550  10.709
61120SOL     OW83383  12.566   0.469  10.984
61120SOL    HW183384  12.546   0.512  11.072
61120SOL    HW283385  12.644   0.407  10.993
61121SOL     OW83386  12.145   0.890  10.882
61121SOL    HW183387  12.191   0.806  10.853
61121SOL    HW283388  12.089   0.924  10.807
61122SOL     OW83389  12.163   0.410  10.552
61122SOL    HW183390  12.086   0.444  10.606
61122SOL    HW283391  12.129   0.359  10.473
61123SOL     OW83392  12.213   0.701   9.739
61123SOL    HW183393  12.239   0.697   9.835
61123SOL    HW283394  12.128   0.650   9.725
61124SOL     OW83395  11.248   0.811  10.099
61124SOL    HW183396  11.347   0.799  10.108
61124SOL    HW283397  11.224   0.906  10.120
61125SOL     OW83398  11.302   1.821  10.881
61125SOL    HW183399  11.292   1.806  10.980
61125SOL    HW283400  11.216   1.857  10.845
61126SOL     OW83401  12.037   0.348   9.505
61126SOL    HW183402  12.096   0.411   9.456
61126SOL    HW283403  12.056   0.254   9.476
61127SOL     OW83404  12.534   1.144   9.855
61127SOL    HW183405  12.617   1.115   9.807
61127SOL    HW283406  12.485   1.211   9.799
61128SOL     OW83407  11.722   0.196  10.195
61128SOL    HW183408  11.717   0.191  10.295
61128SOL    HW283409  11.724   0.292  10.166
61129SOL     OW83410  12.180   1.456   9.787
61129SOL    HW183411  12.134   1.528   9.735
61129SOL    HW283412  12.176   1.476   9.885
61130SOL     OW83413  11.523   1.801  10.163
61130SOL    HW183414  11.573   1.715  10.169
61130SOL    HW283415  11.588   1.878  10.160
61131SOL     OW83416  12.399   1.550  10.816
61131SOL    HW183417  12.405   1.473  10.880
61131SOL    HW283418  12.347   1.524  10.736
61132SOL     OW83419  11.493   0.943   9.552
61132SOL    HW183420  11.575   0.982   9.510
61132SOL    HW283421  11.466   0.861   9.503
61133SOL     OW83422  12.630   0.735  10.038
61133SOL    HW183423  12.625   0.670  10.113
61133SOL    HW283424  12.710   0.794  10.051
61134SOL     OW83425  11.633   1.266  11.037
61134SOL    HW183426  11.583   1.267  10.951
61134SOL    HW283427  11.570   1.248  11.113
61135SOL     OW83428  12.283   1.776   9.547
61135SOL    HW183429  12.223   1.714   9.597
61135SOL    HW283430  12.314   1.732   9.462
61136SOL     OW83431  11.374   0.285  10.808
61136SOL    HW183432  11.294   0.345  10.795
61136SOL    HW283433  11.364   0.236  10.894
61137SOL     OW83434  11.636   1.743   9.633
61137SOL    HW183435  11.669   1.782   9.719
61137SOL    HW283436  11.712   1.736   9.568
61138SOL     OW83437  12.572   0.107   9.736
61138SOL    HW183438  12.548   0.070   9.646
61138SOL    HW283439  12.671   0.123   9.740
61139SOL     OW83440  11.421   1.785  10.551
61139SOL    HW183441  11.478   1.720  10.601
61139SOL    HW283442  11.405   1.752  10.458
61140SOL     OW83443  12.112   1.698  10.214
61140SOL    HW183444  12.192   1.641  10.235
61140SOL    HW283445  12.063   1.658  10.137
61141SOL     OW83446  11.554   0.700   9.790
61141SOL    HW183447  11.599   0.610   9.787
61141SOL    HW283448  11.460   0.689   9.823
61142SOL     OW83449  11.786   0.122   9.427
61142SOL    HW183450  11.884   0.100   9.434
61142SOL    HW283451  11.755   0.105   9.334
61143SOL     OW83452  11.953   0.264  11.059
61143SOL    HW183453  12.020   0.203  11.102
61143SOL    HW283454  11.880   0.283  11.124
61144SOL     OW83455  12.060   1.514  10.505
61144SOL    HW183456  12.037   1.489  10.411
61144SOL    HW283457  12.121   1.445  10.544
61145SOL     OW83458  12.523   0.590  10.743
61145SOL    HW183459  12.551   0.547  10.828
61145SOL    HW283460  12.548   0.686  10.744
61146SOL     OW83461  11.975   1.402  10.234
61146SOL    HW183462  12.065   1.416  10.192
61146SOL    HW283463  11.904   1.404  10.163
61147SOL     OW83464  12.094   0.503  10.209
61147SOL    HW183465  12.069   0.494  10.113
61147SOL    HW283466  12.142   0.421  10.240
61148SOL     OW83467  11.711   0.064   9.822
61148SOL    HW183468  11.630   0.065   9.880
61148SOL    HW283469  11.714   0.147   9.767
61149SOL     OW83470  12.606   1.188   9.351
61149SOL    HW183471  12.638   1.112   9.408
61149SOL    HW283472  12.514   1.215   9.381
61150SOL     OW83473  11.469   0.035   9.481
61150SOL    HW183474  11.518   0.119   9.460
61150SOL    HW283475  11.531  -0.030   9.526
61151SOL     OW83476  12.107   0.236   9.790
61151SOL    HW183477  12.059   0.277   9.712
61151SOL    HW283478  12.206   0.234   9.771
61152SOL     OW83479  12.248   0.683  10.774
61152SOL    HW183480  12.168   0.622  10.777
61152SOL    HW283481  12.329   0.630  10.750
61153SOL     OW83482  12.399   1.570  10.103
61153SOL    HW183483  12.420   1.644  10.038
61153SOL    HW283484  12.467   1.570  10.176
61154SOL     OW83485  11.631   1.152  10.051
61154SOL    HW183486  11.560   1.125  10.116
61154SOL    HW283487  11.605   1.124   9.958
61155SOL     OW83488  12.443   1.797   9.901
61155SOL    HW183489  12.487   1.861   9.837
61155SOL    HW283490  12.393   1.849   9.971
61156SOL     OW83491  12.204   0.549   9.326
61156SOL    HW183492  12.163   0.631   9.287
61156SOL    HW283493  12.268   0.575   9.399
61157SOL     OW83494  11.250   0.556  10.696
61157SOL    HW183495  11.342   0.555  10.655
61157SOL    HW283496  11.244   0.630  10.763
61158SOL     OW83497  11.733   0.222  10.457
61158SOL    HW183498  11.771   0.138  10.494
61158SOL    HW283499  11.645   0.241  10.501
61159SOL     OW83500  12.038   0.454   9.952
61159SOL    HW183501  12.006   0.526   9.890
61159SOL    HW283502  12.062   0.373   9.899
61160SOL     OW83503  12.189   0.039  10.063
61160SOL    HW183504  12.117   0.044   9.994
61160SOL    HW283505  12.165  -0.030  10.132
61161SOL     OW83506  12.601   1.173  10.177
61161SOL    HW183507  12.546   1.089  10.170
61161SOL    HW283508  12.627   1.202  10.085
61162SOL     OW83509  12.638   0.590  10.302
61162SOL    HW183510  12.608   0.495  10.309
61162SOL    HW283511  12.711   0.606  10.368
61163SOL     OW83512  11.660   1.385   9.484
61163SOL    HW183513  11.573   1.370   9.531
61163SOL    HW283514  11.643   1.411   9.389
61164SOL     OW83515  12.562   0.575   9.388
61164SOL    HW183516  12.508   0.554   9.469
61164SOL    HW283517  12.653   0.534   9.397
61165SOL     OW83518  11.699   0.256   9.638
61165SOL    HW183519  11.726   0.197   9.563
61165SOL    HW283520  11.699   0.351   9.607
61166SOL     OW83521  12.236   1.347  10.650
61166SOL    HW183522  12.156   1.324  10.705
61166SOL    HW283523  12.319   1.321  10.699
61167SOL     OW83524  12.764   1.629  10.935
61167SOL    HW183525  12.791   1.663  10.845
61167SOL    HW283526  12.843   1.591  10.981
61168SOL     OW83527  12.283   1.195  10.410
61168SOL    HW183528  12.243   1.239  10.491
61168SOL    HW283529  12.242   1.232  10.327
61169SOL     OW83530  12.087   0.089  10.712
61169SOL    HW183531  12.112   0.069  10.617
61169SOL    HW283532  12.159   0.145  10.754
61170SOL     OW83533  12.152   1.116  11.029
61170SOL    HW183534  12.053   1.122  11.039
61170SOL    HW283535  12.175   1.036  10.973
61171SOL     OW83536  11.877   1.050   9.678
61171SOL    HW183537  11.863   1.057   9.777
61171SOL    HW283538  11.961   0.999   9.660
61172SOL     OW83539  11.582   0.813  10.561
61172SOL    HW183540  11.668   0.825  10.611
61172SOL    HW283541  11.540   0.726  10.588
61173SOL     OW83542  12.446   0.386  10.572
61173SOL    HW183543  12.467   0.460  10.636
61173SOL    HW283544  12.357   0.403  10.529
61174SOL     OW83545  11.236   1.564  10.641
61174SOL    HW183546  11.190   1.646  10.607
61174SOL    HW283547  11.334   1.583  10.650
61175SOL     OW83548  11.539   1.100   9.811
61175SOL    HW183549  11.532   1.183   9.755
61175SOL    HW283550  11.543   1.020   9.751
61176SOL     OW83551  11.738   0.537  10.175
61176SOL    HW183552  11.750   0.603  10.101
61176SOL    HW283553  11.784   0.571  10.258
61177SOL     OW83554  12.424   1.348   9.698
61177SOL    HW183555  12.474   1.425   9.738
61177SOL    HW283556  12.329   1.350   9.730
61178SOL     OW83557  12.444   1.445  10.452
61178SOL    HW183558  12.491   1.458  10.539
61178SOL    HW283559  12.378   1.371  10.461
61179SOL     OW83560  12.754   0.639   9.782
61179SOL    HW183561  12.723   0.700   9.855
61179SOL    HW283562  12.804   0.691   9.713
61180SOL     OW83563  11.526   1.510  10.639
61180SOL    HW183564  11.505   1.466  10.552
61180SOL    HW283565  11.623   1.536  10.642
61181SOL     OW83566  11.574   0.751  10.908
61181SOL    HW183567  11.642   0.806  10.861
61181SOL    HW283568  11.614   0.663  10.935
61182SOL     OW83569  12.185   0.105  11.080
61182SOL    HW183570  12.191   0.190  11.028
61182SOL    HW283571  12.217   0.029  11.023
61183SOL     OW83572  11.676   0.050  11.050
61183SOL    HW183573  11.634  -0.007  10.980
61183SOL    HW283574  11.610   0.119  11.082
61184SOL     OW83575  11.745   0.870  10.339
61184SOL    HW183576  11.789   0.959  10.330
61184SOL    HW283577  11.682   0.870  10.416
61185SOL     OW83578  12.532   0.862  10.355
61185SOL    HW183579  12.457   0.862  10.289
61185SOL    HW283580  12.569   0.770  10.364
61186SOL     OW83581  12.381   0.525   9.585
61186SOL    HW183582  12.394   0.441   9.639
61186SOL    HW283583  12.352   0.599   9.645
61187SOL     OW83584  11.479   0.213  10.541
61187SOL    HW183585  11.456   0.250  10.631
61187SOL    HW283586  11.449   0.118  10.535
61188SOL     OW83587  11.209   1.310  10.592
61188SOL    HW183588  11.262   1.261  10.660
61188SOL    HW283589  11.231   1.408  10.597
61189SOL     OW83590  11.904   0.634  10.374
61189SOL    HW183591  11.963   0.608  10.298
61189SOL    HW283592  11.876   0.730  10.363
61190SOL     OW83593  11.479   0.063   9.928
61190SOL    HW183594  11.468   0.157   9.961
61190SOL    HW283595  11.474   0.000  10.005
61191SOL     OW83596  12.794   0.367   9.684
61191SOL    HW183597  12.796   0.291   9.748
61191SOL    HW283598  12.746   0.444   9.724
61192SOL     OW83599  12.195   0.766  10.276
61192SOL    HW183600  12.210   0.787  10.372
61192SOL    HW283601  12.165   0.671  10.267
61193SOL     OW83602  12.152   1.573  11.010
61193SOL    HW183603  12.132   1.617  10.922
61193SOL    HW283604  12.191   1.482  10.994
61194SOL     OW83605  11.522   0.898  11.114
61194SOL    HW183606  11.598   0.942  11.162
61194SOL    HW283607  11.557   0.851  11.032
61195SOL     OW83608  12.712   0.274   9.435
61195SOL    HW183609  12.651   0.199   9.458
61195SOL    HW283610  12.734   0.326   9.518
61196SOL     OW83611  12.475   0.838   9.352
61196SOL    HW183612  12.509   0.745   9.367
61196SOL    HW283613  12.493   0.865   9.257
61197SOL     OW83614  12.240   1.333  10.159
61197SOL    HW183615  12.247   1.249  10.104
61197SOL    HW283616  12.302   1.402  10.123
61198SOL     OW83617  11.491   0.810  10.259
61198SOL    HW183618  11.584   0.846  10.264
61198SOL    HW283619  11.485   0.725  10.311
61199SOL     OW83620  11.511   0.509  10.316
61199SOL    HW183621  11.459   0.426  10.299
61199SOL    HW283622  11.588   0.514  10.252
61200SOL     OW83623  12.310   0.380  10.988
61200SOL    HW183624  12.265   0.443  11.052
61200SOL    HW283625  12.403   0.411  10.971
61201SOL     OW83626  12.332   0.207  10.787
61201SOL    HW183627  12.332   0.271  10.864
61201SOL    HW283628  12.360   0.255  10.704
61202SOL     OW83629  11.180   1.326   9.510
61202SOL    HW183630  11.087   1.347   9.479
61202SOL    HW283631  11.190   1.227   9.523
61203SOL     OW83632  11.260   1.801  10.237
61203SOL    HW183633  11.218   1.715  10.210
61203SOL    HW283634  11.354   1.804  10.203
61204SOL     OW83635  11.676   1.568  10.220
61204SOL    HW183636  11.742   1.642  10.229
61204SOL    HW283637  11.720   1.489  10.178
61205SOL     OW83638  12.174   0.796  10.548
61205SOL    HW183639  12.215   0.764  10.634
61205SOL    HW283640  12.078   0.769  10.545
61206SOL     OW83641  11.212   0.544  10.424
61206SOL    HW183642  11.297   0.511  10.383
61206SOL    HW283643  11.225   0.559  10.522
61207SOL     OW83644  11.361   0.520  11.032
61207SOL    HW183645  11.420   0.480  10.962
61207SOL    HW283646  11.303   0.591  10.991
61208SOL     OW83647  12.541   0.950  10.970
61208SOL    HW183648  12.580   1.039  10.990
61208SOL    HW283649  12.551   0.930  10.873
61209SOL     OW83650  11.987   0.572   9.635
61209SOL    HW183651  11.994   0.483   9.589
61209SOL    HW283652  11.893   0.606   9.627
61210SOL     OW83653  11.424   1.564  11.054
61210SOL    HW183654  11.394   1.621  11.130
61210SOL    HW283655  11.417   1.467  11.080
61211SOL     OW83656  11.843   0.464  10.579
61211SOL    HW183657  11.809   0.375  10.549
61211SOL    HW283658  11.869   0.518  10.499
61212SOL     OW83659  12.102   1.678  10.775
61212SOL    HW183660  12.078   1.660  10.680
61212SOL    HW283661  12.132   1.772  10.785
61213SOL     OW83662  11.645   0.500   9.501
61213SOL    HW183663  11.706   0.580   9.505
61213SOL    HW283664  11.550   0.531   9.508
61214SOL     OW83665  11.331   1.137  10.776
61214SOL    HW183666  11.353   1.076  10.852
61214SOL    HW283667  11.341   1.088  10.690
61215SOL     OW83668  12.519   1.059  10.544
61215SOL    HW183669  12.543   0.996  10.470
61215SOL    HW283670  12.429   1.099  10.526
61216SOL     OW83671  12.474   0.855   9.619
61216SOL    HW183672  12.388   0.824   9.661
61216SOL    HW283673  12.470   0.841   9.520
61217SOL     OW83674  12.424   1.731  10.438
61217SOL    HW183675  12.508   1.736  10.384
61217SOL    HW283676  12.401   1.635  10.456
61218SOL     OW83677  11.255   1.258  10.332
61218SOL    HW183678  11.250   1.257  10.432
61218SOL    HW283679  11.172   1.217  10.294
61219SOL     OW83680  11.860   1.662  11.026
61219SOL    HW183681  11.804   1.743  11.035
61219SOL    HW283682  11.912   1.666  10.940
61220SOL     OW83683  12.898   0.135   9.833
61220SOL    HW183684  12.971   0.118   9.766
61220SOL    HW283685  12.867   0.048   9.871
61221SOL     OW83686  12.560   1.573   9.787
61221SOL    HW183687  12.627   1.585   9.713
61221SOL    HW283688  12.520   1.662   9.810
61222SOL     OW83689  11.302   1.794  11.161
61222SOL    HW183690  11.261   1.720  11.214
61222SOL    HW283691  11.366   1.845  11.219
61223SOL     OW83692  12.452   0.927   9.982
61223SOL    HW183693  12.512   0.846   9.984
61223SOL    HW283694  12.492   0.996   9.922
61224SOL     OW83695  12.002   1.273  10.732
61224SOL    HW183696  11.997   1.306  10.827
61224SOL    HW283697  11.916   1.292  10.686
61225SOL     OW83698  11.844   1.616   9.464
61225SOL    HW183699  11.853   1.626   9.365
61225SOL    HW283700  11.804   1.527   9.485
61226SOL     OW83701  11.435   0.326  10.030
61226SOL    HW183702  11.356   0.377   9.996
61226SOL    HW283703  11.426   0.311  10.128
61227SOL     OW83704  12.366   1.612   9.341
61227SOL    HW183705  12.372   1.519   9.378
61227SOL    HW283706  12.307   1.612   9.261
61228SOL     OW83707  11.994   1.002  10.682
61228SOL    HW183708  12.034   1.001  10.590
61228SOL    HW283709  12.004   1.094  10.722
61229SOL     OW83710  12.088   0.910   9.601
61229SOL    HW183711  12.151   0.948   9.533
61229SOL    HW283712  12.128   0.827   9.640
61230SOL     OW83713  12.676   1.607   9.354
61230SOL    HW183714  12.584   1.644   9.361
61230SOL    HW283715  12.714   1.627   9.264
61231SOL     OW83716  11.544   1.288  10.800
61231SOL    HW183717  11.531   1.381  10.766
61231SOL    HW283718  11.460   1.236  10.787
61232SOL     OW83719  12.211   1.098  10.006
61232SOL    HW183720  12.141   1.051  10.060
61232SOL    HW283721  12.270   1.030   9.963
61233SOL     OW83722  12.186   0.236  10.281
61233SOL    HW183723  12.178   0.200  10.188
61233SOL    HW283724  12.184   0.160  10.346
61234SOL     OW83725  11.762   1.487   9.801
61234SOL    HW183726  11.804   1.429   9.731
61234SOL    HW283727  11.718   1.566   9.757
61235SOL     OW83728  11.427   1.348   9.600
61235SOL    HW183729  11.331   1.349   9.573
61235SOL    HW283730  11.439   1.401   9.684
61236SOL     OW83731  11.277   1.013  11.036
61236SOL    HW183732  11.200   0.980  11.090
61236SOL    HW283733  11.362   0.983  11.078
61237SOL     OW83734  11.844   0.203  10.799
61237SOL    HW183735  11.934   0.187  10.759
61237SOL    HW283736  11.852   0.208  10.898
61238SOL     OW83737  11.247   0.345   9.343
61238SOL    HW183738  11.155   0.317   9.314
61238SOL    HW283739  11.278   0.422   9.287
61239SOL     OW83740  12.612   0.856  10.708
61239SOL    HW183741  12.555   0.908  10.645
61239SOL    HW283742  12.708   0.868  10.684
61240SOL     OW83743  11.244   0.166   9.628
61240SOL    HW183744  11.227   0.249   9.574
61240SOL    HW283745  11.334   0.129   9.606
61241SOL     OW83746  12.355   1.335   9.429
61241SOL    HW183747  12.256   1.324   9.431
61241SOL    HW283748  12.389   1.350   9.522
61242SOL     OW83749  11.785   0.842  10.741
61242SOL    HW183750  11.841   0.923  10.724
61242SOL    HW283751  11.844   0.762  10.744
61243SOL     OW83752  12.665   1.767  10.269
61243SOL    HW183753  12.698   1.831  10.200
61243SOL    HW283754  12.731   1.761  10.344
61244SOL     OW83755  11.888   0.565  11.018
61244SOL    HW183756  11.907   0.630  11.092
61244SOL    HW283757  11.948   0.485  11.027
61245SOL     OW83758  12.622   1.220  10.943
61245SOL    HW183759  12.613   1.210  11.042
61245SOL    HW283760  12.718   1.213  10.917
61246SOL     OW83761  11.562   1.741  10.870
61246SOL    HW183762  11.471   1.782  10.868
61246SOL    HW283763  11.555   1.647  10.902
61247SOL     OW83764  12.397   0.325   9.759
61247SOL    HW183765  12.462   0.251   9.748
61247SOL    HW283766  12.417   0.375   9.843
61248SOL     OW83767  11.766   0.745   9.962
61248SOL    HW183768  11.816   0.830   9.943
61248SOL    HW283769  11.678   0.747   9.914
61249SOL     OW83770  12.031   1.374   9.326
61249SOL    HW183771  11.985   1.389   9.414
61249SOL    HW283772  12.075   1.459   9.296
61250SOL     OW83773  11.833   1.790  10.263
61250SOL    HW183774  11.787   1.878  10.250
61250SOL    HW283775  11.932   1.802  10.256
61251SOL     OW83776  12.031   0.956  10.171
61251SOL    HW183777  12.085   0.887  10.219
61251SOL    HW283778  11.999   1.025  10.237
61252SOL     OW83779  12.255   0.984   9.397
61252SOL    HW183780  12.232   1.037   9.315
61252SOL    HW283781  12.336   0.928   9.378
61253SOL     OW83782  13.033   1.569  10.161
61253SOL    HW183783  12.962   1.557  10.091
61253SOL    HW283784  13.034   1.490  10.221
61254SOL     OW83785  11.393   1.314  11.154
61254SOL    HW183786  11.328   1.241  11.133
61254SOL    HW283787  11.397   1.328  11.252
61255SOL     OW83788  11.251   1.240   9.963
61255SOL    HW183789  11.250   1.193  10.051
61255SOL    HW283790  11.333   1.212   9.912
61256SOL     OW83791  11.844   1.391  10.934
61256SOL    HW183792  11.766   1.341  10.972
61256SOL    HW283793  11.841   1.486  10.965
61257SOL     OW83794  11.600   0.424   9.830
61257SOL    HW183795  11.630   0.352   9.768
61257SOL    HW283796  11.561   0.384   9.913
61258SOL     OW83797  11.489   0.547  10.590
61258SOL    HW183798  11.527   0.488  10.662
61258SOL    HW283799  11.529   0.521  10.502
61259SOL     OW83800  11.984   1.586   9.997
61259SOL    HW183801  12.016   1.596   9.903
61259SOL    HW283802  11.905   1.524   9.999
61260SOL     OW83803  12.596   0.214  10.422
61260SOL    HW183804  12.648   0.149  10.477
61260SOL    HW283805  12.547   0.277  10.483
61261SOL     OW83806  12.173   0.034  10.464
61261SOL    HW183807  12.110  -0.038  10.433
61261SOL    HW283808  12.266  -0.002  10.464
61262SOL     OW83809  11.942   1.330   9.611
61262SOL    HW183810  11.896   1.243   9.628
61262SOL    HW283811  12.033   1.327   9.652
61263SOL     OW83812  11.790   1.567  10.594
61263SOL    HW183813  11.785   1.649  10.651
61263SOL    HW283814  11.879   1.564  10.549
61264SOL     OW83815  12.524   0.052   9.478
61264SOL    HW183816  12.559   0.011   9.394
61264SOL    HW283817  12.434   0.014   9.498
61265SOL     OW83818  12.472   0.453  10.001
61265SOL    HW183819  12.413   0.533  10.005
61265SOL    HW283820  12.487   0.418  10.094
61266SOL     OW83821  12.765   0.221  10.192
61266SOL    HW183822  12.681   0.220  10.246
61266SOL    HW283823  12.767   0.304  10.136
61267SOL     OW83824  11.211   1.077   9.610
61267SOL    HW183825  11.310   1.066   9.601
61267SOL    HW283826  11.171   0.991   9.642
61268SOL     OW83827  12.047   1.646   9.647
61268SOL    HW183828  11.970   1.611   9.593
61268SOL    HW283829  12.015   1.717   9.709
61269SOL     OW83830  11.402   0.628  11.285
61269SOL    HW183831  11.309   0.626  11.322
61269SOL    HW283832  11.403   0.589  11.193
61270SOL     OW83833  11.397   0.275  12.168
61270SOL    HW183834  11.432   0.258  12.260
61270SOL    HW283835  11.309   0.230  12.156
61271SOL     OW83836  11.191   0.368  11.819
61271SOL    HW183837  11.109   0.411  11.858
61271SOL    HW283838  11.163   0.295  11.756
61272SOL     OW83839  11.741   1.275  12.337
61272SOL    HW183840  11.648   1.268  12.300
61272SOL    HW283841  11.752   1.364  12.381
61273SOL     OW83842  12.727   1.511  11.875
61273SOL    HW183843  12.670   1.495  11.956
61273SOL    HW283844  12.668   1.521  11.795
61274SOL     OW83845  12.307   0.703  11.889
61274SOL    HW183846  12.364   0.781  11.864
61274SOL    HW283847  12.247   0.729  11.965
61275SOL     OW83848  11.940   1.144  12.195
61275SOL    HW183849  11.862   1.161  12.255
61275SOL    HW283850  11.974   1.231  12.159
61276SOL     OW83851  11.857   1.012  11.837
61276SOL    HW183852  11.926   0.996  11.907
61276SOL    HW283853  11.784   1.069  11.875
61277SOL     OW83854  11.507   1.435  12.233
61277SOL    HW183855  11.429   1.404  12.180
61277SOL    HW283856  11.565   1.493  12.176
61278SOL     OW83857  12.632   1.505  12.511
61278SOL    HW183858  12.656   1.599  12.537
61278SOL    HW283859  12.616   1.451  12.593
61279SOL     OW83860  11.610   0.392  12.671
61279SOL    HW183861  11.692   0.336  12.680
61279SOL    HW283862  11.529   0.334  12.675
61280SOL     OW83863  11.403   1.713  11.655
61280SOL    HW183864  11.437   1.790  11.709
61280SOL    HW283865  11.447   1.713  11.565
61281SOL     OW83866  11.402   1.434  11.710
61281SOL    HW183867  11.376   1.530  11.710
61281SOL    HW283868  11.331   1.380  11.755
61282SOL     OW83869  11.412   1.091  12.058
61282SOL    HW183870  11.426   1.007  12.110
61282SOL    HW283871  11.357   1.155  12.113
61283SOL     OW83872  11.792   1.786  12.611
61283SOL    HW183873  11.700   1.769  12.646
61283SOL    HW283874  11.820   1.878  12.637
61284SOL     OW83875  11.778   0.964  11.295
61284SOL    HW183876  11.785   1.048  11.241
61284SOL    HW283877  11.824   0.977  11.383
61285SOL     OW83878  12.766   0.114  12.652
61285SOL    HW183879  12.748   0.181  12.580
61285SOL    HW283880  12.763   0.160  12.741
61286SOL     OW83881  11.294   0.643  11.735
61286SOL    HW183882  11.249   0.555  11.752
61286SOL    HW283883  11.293   0.697  11.819
61287SOL     OW83884  11.199   1.596  11.289
61287SOL    HW183885  11.180   1.500  11.310
61287SOL    HW283886  11.166   1.654  11.364
61288SOL     OW83887  12.861   0.922  11.784
61288SOL    HW183888  12.956   0.893  11.792
61288SOL    HW283889  12.853   0.987  11.709
61289SOL     OW83890  11.285   0.737  12.769
61289SOL    HW183891  11.373   0.724  12.814
61289SOL    HW283892  11.272   0.834  12.747
61290SOL     OW83893  11.785   1.365  11.898
61290SOL    HW183894  11.736   1.278  11.907
61290SOL    HW283895  11.762   1.408  11.811
61291SOL     OW83896  12.465   1.228  12.595
61291SOL    HW183897  12.502   1.155  12.537
61291SOL    HW283898  12.517   1.233  12.680
61292SOL     OW83899  11.981   0.004  11.674
61292SOL    HW183900  12.021   0.095  11.665
61292SOL    HW283901  11.881   0.012  11.680
61293SOL     OW83902  11.369   0.976  12.436
61293SOL    HW183903  11.458   0.931  12.422
61293SOL    HW283904  11.296   0.911  12.417
61294SOL     OW83905  12.638   1.417  12.125
61294SOL    HW183906  12.579   1.423  12.205
61294SOL    HW283907  12.623   1.329  12.079
61295SOL     OW83908  12.839   1.714  11.744
61295SOL    HW183909  12.798   1.691  11.656
61295SOL    HW283910  12.821   1.640  11.809
61296SOL     OW83911  11.770   0.729  11.442
61296SOL    HW183912  11.794   0.798  11.374
61296SOL    HW283913  11.692   0.762  11.496
61297SOL     OW83914  12.453   0.345  12.116
61297SOL    HW183915  12.367   0.295  12.103
61297SOL    HW283916  12.515   0.291  12.172
61298SOL     OW83917  11.979   0.605  12.637
61298SOL    HW183918  11.932   0.602  12.726
61298SOL    HW283919  11.928   0.550  12.571
61299SOL     OW83920  12.145   0.890  12.744
61299SOL    HW183921  12.191   0.806  12.715
61299SOL    HW283922  12.089   0.924  12.669
61300SOL     OW83923  12.163   0.410  12.414
61300SOL    HW183924  12.086   0.444  12.468
61300SOL    HW283925  12.129   0.359  12.335
61301SOL     OW83926  12.213   0.701  11.601
61301SOL    HW183927  12.239   0.697  11.697
61301SOL    HW283928  12.128   0.650  11.587
61302SOL     OW83929  11.248   0.811  11.961
61302SOL    HW183930  11.347   0.799  11.970
61302SOL    HW283931  11.224   0.906  11.982
61303SOL     OW83932  11.302   1.821  12.743
61303SOL    HW183933  11.292   1.806  12.842
61303SOL    HW283934  11.216   1.857  12.707
61304SOL     OW83935  12.037   0.348  11.367
61304SOL    HW183936  12.096   0.411  11.318
61304SOL    HW283937  12.056   0.254  11.338
61305SOL     OW83938  12.534   1.144  11.717
61305SOL    HW183939  12.617   1.115  11.669
61305SOL    HW283940  12.485   1.211  11.661
61306SOL     OW83941  11.722   0.196  12.057
61306SOL    HW183942  11.717   0.191  12.157
61306SOL    HW283943  11.724   0.292  12.028
61307SOL     OW83944  12.180   1.456  11.649
61307SOL    HW183945  12.134   1.528  11.597
61307SOL    HW283946  12.176   1.476  11.747
61308SOL     OW83947  11.523   1.801  12.025
61308SOL    HW183948  11.573   1.715  12.031
61308SOL    HW283949  11.588   1.878  12.022
61309SOL     OW83950  12.399   1.550  12.678
61309SOL    HW183951  12.405   1.473  12.742
61309SOL    HW283952  12.347   1.524  12.598
61310SOL     OW83953  11.493   0.943  11.414
61310SOL    HW183954  11.575   0.982  11.372
61310SOL    HW283955  11.466   0.861  11.365
61311SOL     OW83956  12.630   0.735  11.900
61311SOL    HW183957  12.625   0.670  11.975
61311SOL    HW283958  12.710   0.794  11.913
61312SOL     OW83959  12.283   1.776  11.409
61312SOL    HW183960  12.223   1.714  11.459
61312SOL    HW283961  12.314   1.732  11.324
61313SOL     OW83962  11.374   0.285  12.670
61313SOL    HW183963  11.294   0.345  12.657
61313SOL    HW283964  11.364   0.236  12.756
61314SOL     OW83965  11.636   1.743  11.495
61314SOL    HW183966  11.669   1.782  11.581
61314SOL    HW283967  11.712   1.736  11.430
61315SOL     OW83968  12.572   0.107  11.598
61315SOL    HW183969  12.548   0.070  11.508
61315SOL    HW283970  12.671   0.123  11.602
61316SOL     OW83971  11.421   1.785  12.413
61316SOL    HW183972  11.478   1.720  12.463
61316SOL    HW283973  11.405   1.752  12.320
61317SOL     OW83974  12.112   1.698  12.076
61317SOL    HW183975  12.192   1.641  12.097
61317SOL    HW283976  12.063   1.658  11.999
61318SOL     OW83977  11.554   0.700  11.652
61318SOL    HW183978  11.599   0.610  11.649
61318SOL    HW283979  11.460   0.689  11.685
61319SOL     OW83980  11.786   0.122  11.289
61319SOL    HW183981  11.884   0.100  11.296
61319SOL    HW283982  11.755   0.105  11.196
61320SOL     OW83983  12.060   1.514  12.367
61320SOL    HW183984  12.037   1.489  12.273
61320SOL    HW283985  12.121   1.445  12.406
61321SOL     OW83986  12.523   0.590  12.605
61321SOL    HW183987  12.551   0.547  12.690
61321SOL    HW283988  12.548   0.686  12.606
61322SOL     OW83989  11.975   1.402  12.096
61322SOL    HW183990  12.065   1.416  12.054
61322SOL    HW283991  11.904   1.404  12.025
61323SOL     OW83992  12.094   0.503  12.071
61323SOL    HW183993  12.069   0.494  11.975
61323SOL    HW283994  12.142   0.421  12.102
61324SOL     OW83995  11.711   0.064  11.684
61324SOL    HW183996  11.630   0.065  11.742
61324SOL    HW283997  11.714   0.147  11.629
61325SOL     OW83998  12.606   1.188  11.213
61325SOL    HW183999  12.638   1.112  11.270
61325SOL    HW284000  12.514   1.215  11.243
61326SOL     OW84001  11.469   0.035  11.343
61326SOL    HW184002  11.518   0.119  11.322
61326SOL    HW284003  11.531  -0.030  11.388
61327SOL     OW84004  12.107   0.236  11.652
61327SOL    HW184005  12.059   0.277  11.574
61327SOL    HW284006  12.206   0.234  11.633
61328SOL     OW84007  12.248   0.683  12.636
61328SOL    HW184008  12.168   0.622  12.639
61328SOL    HW284009  12.329   0.630  12.612
61329SOL     OW84010  12.399   1.570  11.965
61329SOL    HW184011  12.420   1.644  11.900
61329SOL    HW284012  12.467   1.570  12.038
61330SOL     OW84013  11.631   1.152  11.913
61330SOL    HW184014  11.560   1.125  11.978
61330SOL    HW284015  11.605   1.124  11.820
61331SOL     OW84016  12.443   1.797  11.763
61331SOL    HW184017  12.487   1.861  11.699
61331SOL    HW284018  12.393   1.849  11.833
61332SOL     OW84019  12.204   0.549  11.188
61332SOL    HW184020  12.163   0.631  11.149
61332SOL    HW284021  12.268   0.575  11.261
61333SOL     OW84022  11.250   0.556  12.558
61333SOL    HW184023  11.342   0.555  12.517
61333SOL    HW284024  11.244   0.630  12.625
61334SOL     OW84025  11.733   0.222  12.319
61334SOL    HW184026  11.771   0.138  12.356
61334SOL    HW284027  11.645   0.241  12.363
61335SOL     OW84028  12.038   0.454  11.814
61335SOL    HW184029  12.006   0.526  11.752
61335SOL    HW284030  12.062   0.373  11.761
61336SOL     OW84031  12.189   0.039  11.925
61336SOL    HW184032  12.117   0.044  11.856
61336SOL    HW284033  12.165  -0.030  11.994
61337SOL     OW84034  12.601   1.173  12.039
61337SOL    HW184035  12.546   1.089  12.032
61337SOL    HW284036  12.627   1.202  11.947
61338SOL     OW84037  12.638   0.590  12.164
61338SOL    HW184038  12.608   0.495  12.171
61338SOL    HW284039  12.711   0.606  12.230
61339SOL     OW84040  11.660   1.385  11.346
61339SOL    HW184041  11.573   1.370  11.393
61339SOL    HW284042  11.643   1.411  11.251
61340SOL     OW84043  12.562   0.575  11.250
61340SOL    HW184044  12.508   0.554  11.331
61340SOL    HW284045  12.653   0.534  11.259
61341SOL     OW84046  11.699   0.256  11.500
61341SOL    HW184047  11.726   0.197  11.425
61341SOL    HW284048  11.699   0.351  11.469
61342SOL     OW84049  12.236   1.347  12.512
61342SOL    HW184050  12.156   1.324  12.567
61342SOL    HW284051  12.319   1.321  12.561
61343SOL     OW84052  12.283   1.195  12.272
61343SOL    HW184053  12.243   1.239  12.353
61343SOL    HW284054  12.242   1.232  12.189
61344SOL     OW84055  12.087   0.089  12.574
61344SOL    HW184056  12.112   0.069  12.479
61344SOL    HW284057  12.159   0.145  12.616
61345SOL     OW84058  11.877   1.050  11.540
61345SOL    HW184059  11.863   1.057  11.639
61345SOL    HW284060  11.961   0.999  11.522
61346SOL     OW84061  11.582   0.813  12.423
61346SOL    HW184062  11.668   0.825  12.473
61346SOL    HW284063  11.540   0.726  12.450
61347SOL     OW84064  12.446   0.386  12.434
61347SOL    HW184065  12.467   0.460  12.498
61347SOL    HW284066  12.357   0.403  12.391
61348SOL     OW84067  11.236   1.564  12.503
61348SOL    HW184068  11.190   1.646  12.469
61348SOL    HW284069  11.334   1.583  12.512
61349SOL     OW84070  11.539   1.100  11.673
61349SOL    HW184071  11.532   1.183  11.617
61349SOL    HW284072  11.543   1.020  11.613
61350SOL     OW84073  11.738   0.537  12.037
61350SOL    HW184074  11.750   0.603  11.963
61350SOL    HW284075  11.784   0.571  12.120
61351SOL     OW84076  12.424   1.348  11.560
61351SOL    HW184077  12.474   1.425  11.600
61351SOL    HW284078  12.329   1.350  11.592
61352SOL     OW84079  12.444   1.445  12.314
61352SOL    HW184080  12.491   1.458  12.401
61352SOL    HW284081  12.378   1.371  12.323
61353SOL     OW84082  12.754   0.639  11.644
61353SOL    HW184083  12.723   0.700  11.717
61353SOL    HW284084  12.804   0.691  11.575
61354SOL     OW84085  11.526   1.510  12.501
61354SOL    HW184086  11.505   1.466  12.414
61354SOL    HW284087  11.623   1.536  12.504
61355SOL     OW84088  11.574   0.751  12.770
61355SOL    HW184089  11.642   0.806  12.723
61355SOL    HW284090  11.614   0.663  12.797
61356SOL     OW84091  11.745   0.870  12.201
61356SOL    HW184092  11.789   0.959  12.192
61356SOL    HW284093  11.682   0.870  12.278
61357SOL     OW84094  12.532   0.862  12.217
61357SOL    HW184095  12.457   0.862  12.151
61357SOL    HW284096  12.569   0.770  12.226
61358SOL     OW84097  12.381   0.525  11.447
61358SOL    HW184098  12.394   0.441  11.501
61358SOL    HW284099  12.352   0.599  11.507
61359SOL     OW84100  11.479   0.213  12.403
61359SOL    HW184101  11.456   0.250  12.493
61359SOL    HW284102  11.449   0.118  12.397
61360SOL     OW84103  11.209   1.310  12.454
61360SOL    HW184104  11.262   1.261  12.522
61360SOL    HW284105  11.231   1.408  12.459
61361SOL     OW84106  11.904   0.634  12.236
61361SOL    HW184107  11.963   0.608  12.160
61361SOL    HW284108  11.876   0.730  12.225
61362SOL     OW84109  11.479   0.063  11.790
61362SOL    HW184110  11.468   0.157  11.823
61362SOL    HW284111  11.474   0.000  11.867
61363SOL     OW84112  12.794   0.367  11.546
61363SOL    HW184113  12.796   0.291  11.610
61363SOL    HW284114  12.746   0.444  11.586
61364SOL     OW84115  12.195   0.766  12.138
61364SOL    HW184116  12.210   0.787  12.234
61364SOL    HW284117  12.165   0.671  12.129
61365SOL     OW84118  12.712   0.274  11.297
61365SOL    HW184119  12.651   0.199  11.320
61365SOL    HW284120  12.734   0.326  11.380
61366SOL     OW84121  12.475   0.838  11.214
61366SOL    HW184122  12.509   0.745  11.229
61366SOL    HW284123  12.493   0.865  11.119
61367SOL     OW84124  12.240   1.333  12.021
61367SOL    HW184125  12.247   1.249  11.966
61367SOL    HW284126  12.302   1.402  11.985
61368SOL     OW84127  11.491   0.810  12.121
61368SOL    HW184128  11.584   0.846  12.126
61368SOL    HW284129  11.485   0.725  12.173
61369SOL     OW84130  11.511   0.509  12.178
61369SOL    HW184131  11.459   0.426  12.161
61369SOL    HW284132  11.588   0.514  12.114
61370SOL     OW84133  12.332   0.207  12.649
61370SOL    HW184134  12.332   0.271  12.726
61370SOL    HW284135  12.360   0.255  12.566
61371SOL     OW84136  11.180   1.326  11.372
61371SOL    HW184137  11.087   1.347  11.341
61371SOL    HW284138  11.190   1.227  11.385
61372SOL     OW84139  11.260   1.801  12.099
61372SOL    HW184140  11.218   1.715  12.072
61372SOL    HW284141  11.354   1.804  12.065
61373SOL     OW84142  11.676   1.568  12.082
61373SOL    HW184143  11.742   1.642  12.091
61373SOL    HW284144  11.720   1.489  12.040
61374SOL     OW84145  12.174   0.796  12.410
61374SOL    HW184146  12.215   0.764  12.496
61374SOL    HW284147  12.078   0.769  12.407
61375SOL     OW84148  11.212   0.544  12.286
61375SOL    HW184149  11.297   0.511  12.245
61375SOL    HW284150  11.225   0.559  12.384
61376SOL     OW84151  11.987   0.572  11.497
61376SOL    HW184152  11.994   0.483  11.451
61376SOL    HW284153  11.893   0.606  11.489
61377SOL     OW84154  11.424   1.564  12.916
61377SOL    HW184155  11.394   1.621  12.992
61377SOL    HW284156  11.417   1.467  12.942
61378SOL     OW84157  11.843   0.464  12.441
61378SOL    HW184158  11.809   0.375  12.411
61378SOL    HW284159  11.869   0.518  12.361
61379SOL     OW84160  12.102   1.678  12.637
61379SOL    HW184161  12.078   1.660  12.542
61379SOL    HW284162  12.132   1.772  12.647
61380SOL     OW84163  11.645   0.500  11.363
61380SOL    HW184164  11.706   0.580  11.367
61380SOL    HW284165  11.550   0.531  11.370
61381SOL     OW84166  11.331   1.137  12.638
61381SOL    HW184167  11.353   1.076  12.714
61381SOL    HW284168  11.341   1.088  12.552
61382SOL     OW84169  12.519   1.059  12.406
61382SOL    HW184170  12.543   0.996  12.332
61382SOL    HW284171  12.429   1.099  12.388
61383SOL     OW84172  12.474   0.855  11.481
61383SOL    HW184173  12.388   0.824  11.523
61383SOL    HW284174  12.470   0.841  11.382
61384SOL     OW84175  12.424   1.731  12.300
61384SOL    HW184176  12.508   1.736  12.246
61384SOL    HW284177  12.401   1.635  12.318
61385SOL     OW84178  11.255   1.258  12.194
61385SOL    HW184179  11.250   1.257  12.294
61385SOL    HW284180  11.172   1.217  12.156
61386SOL     OW84181  12.898   0.135  11.695
61386SOL    HW184182  12.971   0.118  11.628
61386SOL    HW284183  12.867   0.048  11.733
61387SOL     OW84184  12.560   1.573  11.649
61387SOL    HW184185  12.627   1.585  11.575
61387SOL    HW284186  12.520   1.662  11.672
61388SOL     OW84187  12.452   0.927  11.844
61388SOL    HW184188  12.512   0.846  11.846
61388SOL    HW284189  12.492   0.996  11.784
61389SOL     OW84190  12.002   1.273  12.594
61389SOL    HW184191  11.997   1.306  12.689
61389SOL    HW284192  11.916   1.292  12.548
61390SOL     OW84193  11.844   1.616  11.326
61390SOL    HW184194  11.853   1.626  11.227
61390SOL    HW284195  11.804   1.527  11.347
61391SOL     OW84196  11.435   0.326  11.892
61391SOL    HW184197  11.356   0.377  11.858
61391SOL    HW284198  11.426   0.311  11.990
61392SOL     OW84199  12.366   1.612  11.203
61392SOL    HW184200  12.372   1.519  11.240
61392SOL    HW284201  12.307   1.612  11.123
61393SOL     OW84202  11.994   1.002  12.544
61393SOL    HW184203  12.034   1.001  12.452
61393SOL    HW284204  12.004   1.094  12.584
61394SOL     OW84205  12.088   0.910  11.463
61394SOL    HW184206  12.151   0.948  11.395
61394SOL    HW284207  12.128   0.827  11.502
61395SOL     OW84208  12.676   1.607  11.216
61395SOL    HW184209  12.584   1.644  11.223
61395SOL    HW284210  12.714   1.627  11.126
61396SOL     OW84211  11.544   1.288  12.662
61396SOL    HW184212  11.531   1.381  12.628
61396SOL    HW284213  11.460   1.236  12.649
61397SOL     OW84214  12.211   1.098  11.868
61397SOL    HW184215  12.141   1.051  11.922
61397SOL    HW284216  12.270   1.030  11.825
61398SOL     OW84217  12.186   0.236  12.143
61398SOL    HW184218  12.178   0.200  12.050
61398SOL    HW284219  12.184   0.160  12.208
61399SOL     OW84220  11.762   1.487  11.663
61399SOL    HW184221  11.804   1.429  11.593
61399SOL    HW284222  11.718   1.566  11.619
61400SOL     OW84223  11.427   1.348  11.462
61400SOL    HW184224  11.331   1.349  11.435
61400SOL    HW284225  11.439   1.401  11.546
61401SOL     OW84226  11.277   1.013  12.898
61401SOL    HW184227  11.200   0.980  12.952
61401SOL    HW284228  11.362   0.983  12.940
61402SOL     OW84229  11.844   0.203  12.661
61402SOL    HW184230  11.934   0.187  12.621
61402SOL    HW284231  11.852   0.208  12.760
61403SOL     OW84232  11.247   0.345  11.205
61403SOL    HW184233  11.155   0.317  11.176
61403SOL    HW284234  11.278   0.422  11.149
61404SOL     OW84235  12.612   0.856  12.570
61404SOL    HW184236  12.555   0.908  12.507
61404SOL    HW284237  12.708   0.868  12.546
61405SOL     OW84238  11.244   0.166  11.490
61405SOL    HW184239  11.227   0.249  11.436
61405SOL    HW284240  11.334   0.129  11.468
61406SOL     OW84241  12.355   1.335  11.291
61406SOL    HW184242  12.256   1.324  11.293
61406SOL    HW284243  12.389   1.350  11.384
61407SOL     OW84244  11.785   0.842  12.603
61407SOL    HW184245  11.841   0.923  12.586
61407SOL    HW284246  11.844   0.762  12.606
61408SOL     OW84247  12.665   1.767  12.131
61408SOL    HW184248  12.698   1.831  12.062
61408SOL    HW284249  12.731   1.761  12.206
61409SOL     OW84250  11.888   0.565  12.880
61409SOL    HW184251  11.907   0.630  12.954
61409SOL    HW284252  11.948   0.485  12.889
61410SOL     OW84253  11.562   1.741  12.732
61410SOL    HW184254  11.471   1.782  12.730
61410SOL    HW284255  11.555   1.647  12.764
61411SOL     OW84256  12.397   0.325  11.621
61411SOL    HW184257  12.462   0.251  11.610
61411SOL    HW284258  12.417   0.375  11.705
61412SOL     OW84259  11.766   0.745  11.824
61412SOL    HW184260  11.816   0.830  11.805
61412SOL    HW284261  11.678   0.747  11.776
61413SOL     OW84262  12.031   1.374  11.188
61413SOL    HW184263  11.985   1.389  11.276
61413SOL    HW284264  12.075   1.459  11.158
61414SOL     OW84265  11.833   1.790  12.125
61414SOL    HW184266  11.787   1.878  12.112
61414SOL    HW284267  11.932   1.802  12.118
61415SOL     OW84268  12.031   0.956  12.033
61415SOL    HW184269  12.085   0.887  12.081
61415SOL    HW284270  11.999   1.025  12.099
61416SOL     OW84271  12.255   0.984  11.259
61416SOL    HW184272  12.232   1.037  11.177
61416SOL    HW284273  12.336   0.928  11.240
61417SOL     OW84274  13.033   1.569  12.023
61417SOL    HW184275  12.962   1.557  11.953
61417SOL    HW284276  13.034   1.490  12.083
61418SOL     OW84277  11.251   1.240  11.825
61418SOL    HW184278  11.250   1.193  11.913
61418SOL    HW284279  11.333   1.212  11.774
61419SOL     OW84280  11.844   1.391  12.796
61419SOL    HW184281  11.766   1.341  12.834
61419SOL    HW284282  11.841   1.486  12.827
61420SOL     OW84283  11.600   0.424  11.692
61420SOL    HW184284  11.630   0.352  11.630
61420SOL    HW284285  11.561   0.384  11.775
61421SOL     OW84286  11.489   0.547  12.452
61421SOL    HW184287  11.527   0.488  12.524
61421SOL    HW284288  11.529   0.521  12.364
61422SOL     OW84289  11.984   1.586  11.859
61422SOL    HW184290  12.016   1.596  11.765
61422SOL    HW284291  11.905   1.524  11.861
61423SOL     OW84292  12.596   0.214  12.284
61423SOL    HW184293  12.648   0.149  12.339
61423SOL    HW284294  12.547   0.277  12.345
61424SOL     OW84295  12.173   0.034  12.326
61424SOL    HW184296  12.110  -0.038  12.295
61424SOL    HW284297  12.266  -0.002  12.326
61425SOL     OW84298  11.942   1.330  11.473
61425SOL    HW184299  11.896   1.243  11.490
61425SOL    HW284300  12.033   1.327  11.514
61426SOL     OW84301  11.790   1.567  12.456
61426SOL    HW184302  11.785   1.649  12.513
61426SOL    HW284303  11.879   1.564  12.411
61427SOL     OW84304  12.524   0.052  11.340
61427SOL    HW184305  12.559   0.011  11.256
61427SOL    HW284306  12.434   0.014  11.360
61428SOL     OW84307  12.472   0.453  11.863
61428SOL    HW184308  12.413   0.533  11.867
61428SOL    HW284309  12.487   0.418  11.956
61429SOL     OW84310  12.765   0.221  12.054
61429SOL    HW184311  12.681   0.220  12.108
61429SOL    HW284312  12.767   0.304  11.998
61430SOL     OW84313  11.211   1.077  11.472
61430SOL    HW184314  11.310   1.066  11.463
61430SOL    HW284315  11.171   0.991  11.504
61431SOL     OW84316  12.047   1.646  11.509
61431SOL    HW184317  11.970   1.611  11.455
61431SOL    HW284318  12.015   1.717  11.571
61432SOL     OW84319  11.402   2.490   0.113
61432SOL    HW184320  11.309   2.488   0.150
61432SOL    HW284321  11.403   2.451   0.021
61433SOL     OW84322  11.397   2.137   0.996
61433SOL    HW184323  11.432   2.120   1.088
61433SOL    HW284324  11.309   2.092   0.984
61434SOL     OW84325  11.191   2.230   0.647
61434SOL    HW184326  11.109   2.273   0.686
61434SOL    HW284327  11.163   2.157   0.584
61435SOL     OW84328  11.741   3.137   1.165
61435SOL    HW184329  11.648   3.130   1.128
61435SOL    HW284330  11.752   3.226   1.209
61436SOL     OW84331  12.727   3.373   0.703
61436SOL    HW184332  12.670   3.357   0.784
61436SOL    HW284333  12.668   3.383   0.623
61437SOL     OW84334  12.307   2.565   0.717
61437SOL    HW184335  12.364   2.643   0.692
61437SOL    HW284336  12.247   2.591   0.793
61438SOL     OW84337  11.940   3.006   1.023
61438SOL    HW184338  11.862   3.023   1.083
61438SOL    HW284339  11.974   3.093   0.987
61439SOL     OW84340  12.022   2.660   1.823
61439SOL    HW184341  12.018   2.736   1.888
61439SOL    HW284342  12.044   2.696   1.732
61440SOL     OW84343  11.857   2.874   0.665
61440SOL    HW184344  11.926   2.858   0.735
61440SOL    HW284345  11.784   2.931   0.703
61441SOL     OW84346  11.858   3.023   1.803
61441SOL    HW184347  11.918   3.102   1.817
61441SOL    HW284348  11.772   3.054   1.762
61442SOL     OW84349  11.507   3.297   1.061
61442SOL    HW184350  11.429   3.266   1.008
61442SOL    HW284351  11.565   3.355   1.004
61443SOL     OW84352  12.632   3.367   1.339
61443SOL    HW184353  12.656   3.461   1.365
61443SOL    HW284354  12.616   3.313   1.421
61444SOL     OW84355  11.610   2.254   1.499
61444SOL    HW184356  11.692   2.198   1.508
61444SOL    HW284357  11.529   2.196   1.503
61445SOL     OW84358  11.403   3.575   0.483
61445SOL    HW184359  11.437   3.652   0.537
61445SOL    HW284360  11.447   3.575   0.393
61446SOL     OW84361  12.299   3.203   1.690
61446SOL    HW184362  12.346   3.203   1.778
61446SOL    HW284363  12.251   3.116   1.679
61447SOL     OW84364  11.402   3.296   0.538
61447SOL    HW184365  11.376   3.392   0.538
61447SOL    HW284366  11.331   3.242   0.583
61448SOL     OW84367  11.412   2.953   0.886
61448SOL    HW184368  11.426   2.869   0.938
61448SOL    HW284369  11.357   3.017   0.941
61449SOL     OW84370  11.792   3.648   1.439
61449SOL    HW184371  11.700   3.631   1.474
61449SOL    HW284372  11.820   3.740   1.465
61450SOL     OW84373  11.778   2.826   0.123
61450SOL    HW184374  11.785   2.910   0.069
61450SOL    HW284375  11.824   2.839   0.211
61451SOL     OW84376  12.766   1.976   1.480
61451SOL    HW184377  12.748   2.043   1.408
61451SOL    HW284378  12.763   2.022   1.569
61452SOL     OW84379  11.294   2.505   0.563
61452SOL    HW184380  11.249   2.417   0.580
61452SOL    HW284381  11.293   2.559   0.647
61453SOL     OW84382  11.199   3.458   0.117
61453SOL    HW184383  11.180   3.362   0.138
61453SOL    HW284384  11.166   3.516   0.192
61454SOL     OW84385  12.861   2.784   0.612
61454SOL    HW184386  12.956   2.755   0.620
61454SOL    HW284387  12.853   2.849   0.537
61455SOL     OW84388  11.285   2.599   1.597
61455SOL    HW184389  11.373   2.586   1.642
61455SOL    HW284390  11.272   2.696   1.575
61456SOL     OW84391  11.785   3.227   0.726
61456SOL    HW184392  11.736   3.140   0.735
61456SOL    HW284393  11.762   3.270   0.639
61457SOL     OW84394  12.465   3.090   1.423
61457SOL    HW184395  12.502   3.017   1.365
61457SOL    HW284396  12.517   3.095   1.508
61458SOL     OW84397  11.981   1.866   0.502
61458SOL    HW184398  12.021   1.957   0.493
61458SOL    HW284399  11.881   1.874   0.508
61459SOL     OW84400  11.369   2.838   1.264
61459SOL    HW184401  11.458   2.793   1.250
61459SOL    HW284402  11.296   2.773   1.245
61460SOL     OW84403  12.359   3.654   1.616
61460SOL    HW184404  12.383   3.714   1.540
61460SOL    HW284405  12.366   3.559   1.586
61461SOL     OW84406  11.489   2.113   1.801
61461SOL    HW184407  11.560   2.184   1.807
61461SOL    HW284408  11.401   2.152   1.829
61462SOL     OW84409  12.638   3.279   0.953
61462SOL    HW184410  12.579   3.285   1.033
61462SOL    HW284411  12.623   3.191   0.907
61463SOL     OW84412  12.839   3.576   0.572
61463SOL    HW184413  12.798   3.553   0.484
61463SOL    HW284414  12.821   3.502   0.637
61464SOL     OW84415  11.770   2.591   0.270
61464SOL    HW184416  11.794   2.660   0.202
61464SOL    HW284417  11.692   2.624   0.324
61465SOL     OW84418  12.453   2.207   0.944
61465SOL    HW184419  12.367   2.157   0.931
61465SOL    HW284420  12.515   2.153   1.000
61466SOL     OW84421  11.979   2.467   1.465
61466SOL    HW184422  11.932   2.464   1.554
61466SOL    HW284423  11.928   2.412   1.399
61467SOL     OW84424  12.566   2.331   1.674
61467SOL    HW184425  12.546   2.374   1.762
61467SOL    HW284426  12.644   2.269   1.683
61468SOL     OW84427  12.145   2.752   1.572
61468SOL    HW184428  12.191   2.668   1.543
61468SOL    HW284429  12.089   2.786   1.497
61469SOL     OW84430  12.163   2.272   1.242
61469SOL    HW184431  12.086   2.306   1.296
61469SOL    HW284432  12.129   2.221   1.163
61470SOL     OW84433  12.213   2.563   0.429
61470SOL    HW184434  12.239   2.559   0.525
61470SOL    HW284435  12.128   2.512   0.415
61471SOL     OW84436  11.248   2.673   0.789
61471SOL    HW184437  11.347   2.661   0.798
61471SOL    HW284438  11.224   2.768   0.810
61472SOL     OW84439  11.302   3.683   1.571
61472SOL    HW184440  11.292   3.668   1.670
61472SOL    HW284441  11.216   3.719   1.535
61473SOL     OW84442  12.037   2.210   0.195
61473SOL    HW184443  12.096   2.273   0.146
61473SOL    HW284444  12.056   2.116   0.166
61474SOL     OW84445  12.534   3.006   0.545
61474SOL    HW184446  12.617   2.977   0.497
61474SOL    HW284447  12.485   3.073   0.489
61475SOL     OW84448  11.722   2.058   0.885
61475SOL    HW184449  11.717   2.053   0.985
61475SOL    HW284450  11.724   2.154   0.856
61476SOL     OW84451  12.180   3.318   0.477
61476SOL    HW184452  12.134   3.390   0.425
61476SOL    HW284453  12.176   3.338   0.575
61477SOL     OW84454  11.523   3.663   0.853
61477SOL    HW184455  11.573   3.577   0.859
61477SOL    HW284456  11.588   3.740   0.850
61478SOL     OW84457  12.399   3.412   1.506
61478SOL    HW184458  12.405   3.335   1.570
61478SOL    HW284459  12.347   3.386   1.426
61479SOL     OW84460  11.493   2.805   0.242
61479SOL    HW184461  11.575   2.844   0.200
61479SOL    HW284462  11.466   2.723   0.193
61480SOL     OW84463  12.630   2.597   0.728
61480SOL    HW184464  12.625   2.532   0.803
61480SOL    HW284465  12.710   2.656   0.741
61481SOL     OW84466  11.633   3.128   1.727
61481SOL    HW184467  11.583   3.129   1.641
61481SOL    HW284468  11.570   3.110   1.803
61482SOL     OW84469  12.283   3.638   0.237
61482SOL    HW184470  12.223   3.576   0.287
61482SOL    HW284471  12.314   3.594   0.152
61483SOL     OW84472  11.374   2.147   1.498
61483SOL    HW184473  11.294   2.207   1.485
61483SOL    HW284474  11.364   2.098   1.584
61484SOL     OW84475  11.636   3.605   0.323
61484SOL    HW184476  11.669   3.644   0.409
61484SOL    HW284477  11.712   3.598   0.258
61485SOL     OW84478  12.572   1.969   0.426
61485SOL    HW184479  12.548   1.932   0.336
61485SOL    HW284480  12.671   1.985   0.430
61486SOL     OW84481  11.421   3.647   1.241
61486SOL    HW184482  11.478   3.582   1.291
61486SOL    HW284483  11.405   3.614   1.148
61487SOL     OW84484  12.112   3.560   0.904
61487SOL    HW184485  12.192   3.503   0.925
61487SOL    HW284486  12.063   3.520   0.827
61488SOL     OW84487  11.554   2.562   0.480
61488SOL    HW184488  11.599   2.472   0.477
61488SOL    HW284489  11.460   2.551   0.513
61489SOL     OW84490  11.786   1.984   0.117
61489SOL    HW184491  11.884   1.962   0.124
61489SOL    HW284492  11.755   1.967   0.024
61490SOL     OW84493  11.953   2.126   1.749
61490SOL    HW184494  12.020   2.065   1.792
61490SOL    HW284495  11.880   2.145   1.814
61491SOL     OW84496  12.060   3.376   1.195
61491SOL    HW184497  12.037   3.351   1.101
61491SOL    HW284498  12.121   3.307   1.234
61492SOL     OW84499  12.523   2.452   1.433
61492SOL    HW184500  12.551   2.409   1.518
61492SOL    HW284501  12.548   2.548   1.434
61493SOL     OW84502  11.975   3.264   0.924
61493SOL    HW184503  12.065   3.278   0.882
61493SOL    HW284504  11.904   3.266   0.853
61494SOL     OW84505  12.094   2.365   0.899
61494SOL    HW184506  12.069   2.356   0.803
61494SOL    HW284507  12.142   2.283   0.930
61495SOL     OW84508  11.711   1.926   0.512
61495SOL    HW184509  11.630   1.927   0.570
61495SOL    HW284510  11.714   2.009   0.457
61496SOL     OW84511  12.606   3.050   0.041
61496SOL    HW184512  12.638   2.974   0.098
61496SOL    HW284513  12.514   3.077   0.071
61497SOL     OW84514  11.469   1.897   0.171
61497SOL    HW184515  11.518   1.981   0.150
61497SOL    HW284516  11.531   1.832   0.216
61498SOL     OW84517  12.107   2.098   0.480
61498SOL    HW184518  12.059   2.139   0.402
61498SOL    HW284519  12.206   2.096   0.461
61499SOL     OW84520  12.248   2.545   1.464
61499SOL    HW184521  12.168   2.484   1.467
61499SOL    HW284522  12.329   2.492   1.440
61500SOL     OW84523  12.399   3.432   0.793
61500SOL    HW184524  12.420   3.506   0.728
61500SOL    HW284525  12.467   3.432   0.866
61501SOL     OW84526  11.631   3.014   0.741
61501SOL    HW184527  11.560   2.987   0.806
61501SOL    HW284528  11.605   2.986   0.648
61502SOL     OW84529  12.443   3.659   0.591
61502SOL    HW184530  12.487   3.723   0.527
61502SOL    HW284531  12.393   3.711   0.661
61503SOL     OW84532  12.204   2.411   0.016
61503SOL    HW184533  12.163   2.493  -0.023
61503SOL    HW284534  12.268   2.437   0.089
61504SOL     OW84535  11.250   2.418   1.386
61504SOL    HW184536  11.342   2.417   1.345
61504SOL    HW284537  11.244   2.492   1.453
61505SOL     OW84538  11.733   2.084   1.147
61505SOL    HW184539  11.771   2.000   1.184
61505SOL    HW284540  11.645   2.103   1.191
61506SOL     OW84541  12.038   2.316   0.642
61506SOL    HW184542  12.006   2.388   0.580
61506SOL    HW284543  12.062   2.235   0.589
61507SOL     OW84544  12.189   1.901   0.753
61507SOL    HW184545  12.117   1.906   0.684
61507SOL    HW284546  12.165   1.832   0.822
61508SOL     OW84547  12.601   3.035   0.867
61508SOL    HW184548  12.546   2.951   0.860
61508SOL    HW284549  12.627   3.064   0.775
61509SOL     OW84550  12.638   2.452   0.992
61509SOL    HW184551  12.608   2.357   0.999
61509SOL    HW284552  12.711   2.468   1.058
61510SOL     OW84553  11.660   3.247   0.174
61510SOL    HW184554  11.573   3.232   0.221
61510SOL    HW284555  11.643   3.273   0.079
61511SOL     OW84556  12.562   2.437   0.078
61511SOL    HW184557  12.508   2.416   0.159
61511SOL    HW284558  12.653   2.396   0.087
61512SOL     OW84559  11.699   2.118   0.328
61512SOL    HW184560  11.726   2.059   0.253
61512SOL    HW284561  11.699   2.213   0.297
61513SOL     OW84562  12.236   3.209   1.340
61513SOL    HW184563  12.156   3.186   1.395
61513SOL    HW284564  12.319   3.183   1.389
61514SOL     OW84565  12.764   3.491   1.625
61514SOL    HW184566  12.791   3.525   1.535
61514SOL    HW284567  12.843   3.453   1.671
61515SOL     OW84568  12.283   3.057   1.100
61515SOL    HW184569  12.243   3.101   1.181
61515SOL    HW284570  12.242   3.094   1.017
61516SOL     OW84571  12.087   1.951   1.402
61516SOL    HW184572  12.112   1.931   1.307
61516SOL    HW284573  12.159   2.007   1.444
61517SOL     OW84574  12.152   2.978   1.719
61517SOL    HW184575  12.053   2.984   1.729
61517SOL    HW284576  12.175   2.898   1.663
61518SOL     OW84577  11.877   2.912   0.368
61518SOL    HW184578  11.863   2.919   0.467
61518SOL    HW284579  11.961   2.861   0.350
61519SOL     OW84580  11.582   2.675   1.251
61519SOL    HW184581  11.668   2.687   1.301
61519SOL    HW284582  11.540   2.588   1.278
61520SOL     OW84583  12.446   2.248   1.262
61520SOL    HW184584  12.467   2.322   1.326
61520SOL    HW284585  12.357   2.265   1.219
61521SOL     OW84586  11.236   3.426   1.331
61521SOL    HW184587  11.190   3.508   1.297
61521SOL    HW284588  11.334   3.445   1.340
61522SOL     OW84589  11.539   2.962   0.501
61522SOL    HW184590  11.532   3.045   0.445
61522SOL    HW284591  11.543   2.882   0.441
61523SOL     OW84592  11.738   2.399   0.865
61523SOL    HW184593  11.750   2.465   0.791
61523SOL    HW284594  11.784   2.433   0.948
61524SOL     OW84595  12.424   3.210   0.388
61524SOL    HW184596  12.474   3.287   0.428
61524SOL    HW284597  12.329   3.212   0.420
61525SOL     OW84598  12.444   3.307   1.142
61525SOL    HW184599  12.491   3.320   1.229
61525SOL    HW284600  12.378   3.233   1.151
61526SOL     OW84601  12.754   2.501   0.472
61526SOL    HW184602  12.723   2.562   0.545
61526SOL    HW284603  12.804   2.553   0.403
61527SOL     OW84604  11.526   3.372   1.329
61527SOL    HW184605  11.505   3.328   1.242
61527SOL    HW284606  11.623   3.398   1.332
61528SOL     OW84607  11.574   2.613   1.598
61528SOL    HW184608  11.642   2.668   1.551
61528SOL    HW284609  11.614   2.525   1.625
61529SOL     OW84610  12.185   1.967   1.770
61529SOL    HW184611  12.191   2.052   1.718
61529SOL    HW284612  12.217   1.891   1.713
61530SOL     OW84613  11.676   1.912   1.740
61530SOL    HW184614  11.634   1.855   1.670
61530SOL    HW284615  11.610   1.981   1.772
61531SOL     OW84616  11.745   2.732   1.029
61531SOL    HW184617  11.789   2.821   1.020
61531SOL    HW284618  11.682   2.732   1.106
61532SOL     OW84619  12.532   2.724   1.045
61532SOL    HW184620  12.457   2.724   0.979
61532SOL    HW284621  12.569   2.632   1.054
61533SOL     OW84622  12.381   2.387   0.275
61533SOL    HW184623  12.394   2.303   0.329
61533SOL    HW284624  12.352   2.461   0.335
61534SOL     OW84625  11.479   2.075   1.231
61534SOL    HW184626  11.456   2.112   1.321
61534SOL    HW284627  11.449   1.980   1.225
61535SOL     OW84628  11.209   3.172   1.282
61535SOL    HW184629  11.262   3.123   1.350
61535SOL    HW284630  11.231   3.270   1.287
61536SOL     OW84631  11.904   2.496   1.064
61536SOL    HW184632  11.963   2.470   0.988
61536SOL    HW284633  11.876   2.592   1.053
61537SOL     OW84634  11.479   1.925   0.618
61537SOL    HW184635  11.468   2.019   0.651
61537SOL    HW284636  11.474   1.862   0.695
61538SOL     OW84637  12.794   2.229   0.374
61538SOL    HW184638  12.796   2.153   0.438
61538SOL    HW284639  12.746   2.306   0.414
61539SOL     OW84640  12.195   2.628   0.966
61539SOL    HW184641  12.210   2.649   1.062
61539SOL    HW284642  12.165   2.533   0.957
61540SOL     OW84643  12.152   3.435   1.700
61540SOL    HW184644  12.132   3.479   1.612
61540SOL    HW284645  12.191   3.344   1.684
61541SOL     OW84646  11.522   2.760   1.804
61541SOL    HW184647  11.598   2.804   1.852
61541SOL    HW284648  11.557   2.713   1.722
61542SOL     OW84649  12.712   2.136   0.125
61542SOL    HW184650  12.651   2.061   0.148
61542SOL    HW284651  12.734   2.188   0.208
61543SOL     OW84652  12.475   2.700   0.042
61543SOL    HW184653  12.509   2.607   0.057
61543SOL    HW284654  12.493   2.727  -0.053
61544SOL     OW84655  12.240   3.195   0.849
61544SOL    HW184656  12.247   3.111   0.794
61544SOL    HW284657  12.302   3.264   0.813
61545SOL     OW84658  11.491   2.672   0.949
61545SOL    HW184659  11.584   2.708   0.954
61545SOL    HW284660  11.485   2.587   1.001
61546SOL     OW84661  11.511   2.371   1.006
61546SOL    HW184662  11.459   2.288   0.989
61546SOL    HW284663  11.588   2.376   0.942
61547SOL     OW84664  12.310   2.242   1.678
61547SOL    HW184665  12.265   2.305   1.742
61547SOL    HW284666  12.403   2.273   1.661
61548SOL     OW84667  12.332   2.069   1.477
61548SOL    HW184668  12.332   2.133   1.554
61548SOL    HW284669  12.360   2.117   1.394
61549SOL     OW84670  11.180   3.188   0.200
61549SOL    HW184671  11.087   3.209   0.169
61549SOL    HW284672  11.190   3.089   0.213
61550SOL     OW84673  11.260   3.663   0.927
61550SOL    HW184674  11.218   3.577   0.900
61550SOL    HW284675  11.354   3.666   0.893
61551SOL     OW84676  11.676   3.430   0.910
61551SOL    HW184677  11.742   3.504   0.919
61551SOL    HW284678  11.720   3.351   0.868
61552SOL     OW84679  12.174   2.658   1.238
61552SOL    HW184680  12.215   2.626   1.324
61552SOL    HW284681  12.078   2.631   1.235
61553SOL     OW84682  11.212   2.406   1.114
61553SOL    HW184683  11.297   2.373   1.073
61553SOL    HW284684  11.225   2.421   1.212
61554SOL     OW84685  11.361   2.382   1.722
61554SOL    HW184686  11.420   2.342   1.652
61554SOL    HW284687  11.303   2.453   1.681
61555SOL     OW84688  12.541   2.812   1.660
61555SOL    HW184689  12.580   2.901   1.680
61555SOL    HW284690  12.551   2.792   1.563
61556SOL     OW84691  11.987   2.434   0.325
61556SOL    HW184692  11.994   2.345   0.279
61556SOL    HW284693  11.893   2.468   0.317
61557SOL     OW84694  11.424   3.426   1.744
61557SOL    HW184695  11.394   3.483   1.820
61557SOL    HW284696  11.417   3.329   1.770
61558SOL     OW84697  11.843   2.326   1.269
61558SOL    HW184698  11.809   2.237   1.239
61558SOL    HW284699  11.869   2.380   1.189
61559SOL     OW84700  12.102   3.540   1.465
61559SOL    HW184701  12.078   3.522   1.370
61559SOL    HW284702  12.132   3.634   1.475
61560SOL     OW84703  11.645   2.362   0.191
61560SOL    HW184704  11.706   2.442   0.195
61560SOL    HW284705  11.550   2.393   0.198
61561SOL     OW84706  11.331   2.999   1.466
61561SOL    HW184707  11.353   2.938   1.542
61561SOL    HW284708  11.341   2.950   1.380
61562SOL     OW84709  12.519   2.921   1.234
61562SOL    HW184710  12.543   2.858   1.160
61562SOL    HW284711  12.429   2.961   1.216
61563SOL     OW84712  12.474   2.717   0.309
61563SOL    HW184713  12.388   2.686   0.351
61563SOL    HW284714  12.470   2.703   0.210
61564SOL     OW84715  12.424   3.593   1.128
61564SOL    HW184716  12.508   3.598   1.074
61564SOL    HW284717  12.401   3.497   1.146
61565SOL     OW84718  11.255   3.120   1.022
61565SOL    HW184719  11.250   3.119   1.122
61565SOL    HW284720  11.172   3.079   0.984
61566SOL     OW84721  11.860   3.524   1.716
61566SOL    HW184722  11.804   3.605   1.725
61566SOL    HW284723  11.912   3.528   1.630
61567SOL     OW84724  12.075   1.948   0.133
61567SOL    HW184725  12.126   1.949   0.047
61567SOL    HW284726  12.131   1.906   0.204
61568SOL     OW84727  12.898   1.997   0.523
61568SOL    HW184728  12.971   1.980   0.456
61568SOL    HW284729  12.867   1.910   0.561
61569SOL     OW84730  12.560   3.435   0.477
61569SOL    HW184731  12.627   3.447   0.403
61569SOL    HW284732  12.520   3.524   0.500
61570SOL     OW84733  11.302   3.656   1.851
61570SOL    HW184734  11.261   3.582   1.904
61570SOL    HW284735  11.366   3.707   1.909
61571SOL     OW84736  12.452   2.789   0.672
61571SOL    HW184737  12.512   2.708   0.674
61571SOL    HW284738  12.492   2.858   0.612
61572SOL     OW84739  12.002   3.135   1.422
61572SOL    HW184740  11.997   3.168   1.517
61572SOL    HW284741  11.916   3.154   1.376
61573SOL     OW84742  11.844   3.478   0.154
61573SOL    HW184743  11.853   3.488   0.055
61573SOL    HW284744  11.804   3.389   0.175
61574SOL     OW84745  11.435   2.188   0.720
61574SOL    HW184746  11.356   2.239   0.686
61574SOL    HW284747  11.426   2.173   0.818
61575SOL     OW84748  12.366   3.474   0.031
61575SOL    HW184749  12.372   3.381   0.068
61575SOL    HW284750  12.307   3.474  -0.049
61576SOL     OW84751  11.994   2.864   1.372
61576SOL    HW184752  12.034   2.863   1.280
61576SOL    HW284753  12.004   2.956   1.412
61577SOL     OW84754  12.088   2.772   0.291
61577SOL    HW184755  12.151   2.810   0.223
61577SOL    HW284756  12.128   2.689   0.330
61578SOL     OW84757  12.676   3.469   0.044
61578SOL    HW184758  12.584   3.506   0.051
61578SOL    HW284759  12.714   3.489  -0.046
61579SOL     OW84760  11.544   3.150   1.490
61579SOL    HW184761  11.531   3.243   1.456
61579SOL    HW284762  11.460   3.098   1.477
61580SOL     OW84763  12.211   2.960   0.696
61580SOL    HW184764  12.141   2.913   0.750
61580SOL    HW284765  12.270   2.892   0.653
61581SOL     OW84766  12.186   2.098   0.971
61581SOL    HW184767  12.178   2.062   0.878
61581SOL    HW284768  12.184   2.022   1.036
61582SOL     OW84769  11.762   3.349   0.491
61582SOL    HW184770  11.804   3.291   0.421
61582SOL    HW284771  11.718   3.428   0.447
61583SOL     OW84772  11.427   3.210   0.290
61583SOL    HW184773  11.331   3.211   0.263
61583SOL    HW284774  11.439   3.263   0.374
61584SOL     OW84775  11.277   2.875   1.726
61584SOL    HW184776  11.200   2.842   1.780
61584SOL    HW284777  11.362   2.845   1.768
61585SOL     OW84778  11.844   2.065   1.489
61585SOL    HW184779  11.934   2.049   1.449
61585SOL    HW284780  11.852   2.070   1.588
61586SOL     OW84781  12.612   2.718   1.398
61586SOL    HW184782  12.555   2.770   1.335
61586SOL    HW284783  12.708   2.730   1.374
61587SOL     OW84784  11.244   2.028   0.318
61587SOL    HW184785  11.227   2.111   0.264
61587SOL    HW284786  11.334   1.991   0.296
61588SOL     OW84787  12.355   3.197   0.119
61588SOL    HW184788  12.256   3.186   0.121
61588SOL    HW284789  12.389   3.212   0.212
61589SOL     OW84790  11.785   2.704   1.431
61589SOL    HW184791  11.841   2.785   1.414
61589SOL    HW284792  11.844   2.624   1.434
61590SOL     OW84793  12.665   3.629   0.959
61590SOL    HW184794  12.698   3.693   0.890
61590SOL    HW284795  12.731   3.623   1.034
61591SOL     OW84796  11.888   2.427   1.708
61591SOL    HW184797  11.907   2.492   1.782
61591SOL    HW284798  11.948   2.347   1.717
61592SOL     OW84799  12.622   3.082   1.633
61592SOL    HW184800  12.613   3.072   1.732
61592SOL    HW284801  12.718   3.075   1.607
61593SOL     OW84802  11.562   3.603   1.560
61593SOL    HW184803  11.471   3.644   1.558
61593SOL    HW284804  11.555   3.509   1.592
61594SOL     OW84805  12.397   2.187   0.449
61594SOL    HW184806  12.462   2.113   0.438
61594SOL    HW284807  12.417   2.237   0.533
61595SOL     OW84808  11.766   2.607   0.652
61595SOL    HW184809  11.816   2.692   0.633
61595SOL    HW284810  11.678   2.609   0.604
61596SOL     OW84811  12.031   3.236   0.016
61596SOL    HW184812  11.985   3.251   0.104
61596SOL    HW284813  12.075   3.321  -0.014
61597SOL     OW84814  11.833   3.652   0.953
61597SOL    HW184815  11.787   3.740   0.940
61597SOL    HW284816  11.932   3.664   0.946
61598SOL     OW84817  12.031   2.818   0.861
61598SOL    HW184818  12.085   2.749   0.909
61598SOL    HW284819  11.999   2.887   0.927
61599SOL     OW84820  12.255   2.846   0.087
61599SOL    HW184821  12.232   2.899   0.005
61599SOL    HW284822  12.336   2.790   0.068
61600SOL     OW84823  13.033   3.431   0.851
61600SOL    HW184824  12.962   3.419   0.781
61600SOL    HW284825  13.034   3.352   0.911
61601SOL     OW84826  11.393   3.176   1.844
61601SOL    HW184827  11.328   3.103   1.823
61601SOL    HW284828  11.397   3.190   1.942
61602SOL     OW84829  11.251   3.102   0.653
61602SOL    HW184830  11.250   3.055   0.741
61602SOL    HW284831  11.333   3.074   0.602
61603SOL     OW84832  11.844   3.253   1.624
61603SOL    HW184833  11.766   3.203   1.662
61603SOL    HW284834  11.841   3.348   1.655
61604SOL     OW84835  11.600   2.286   0.520
61604SOL    HW184836  11.630   2.214   0.458
61604SOL    HW284837  11.561   2.246   0.603
61605SOL     OW84838  11.489   2.409   1.280
61605SOL    HW184839  11.527   2.350   1.352
61605SOL    HW284840  11.529   2.383   1.192
61606SOL     OW84841  11.984   3.448   0.687
61606SOL    HW184842  12.016   3.458   0.593
61606SOL    HW284843  11.905   3.386   0.689
61607SOL     OW84844  12.596   2.076   1.112
61607SOL    HW184845  12.648   2.011   1.167
61607SOL    HW284846  12.547   2.139   1.173
61608SOL     OW84847  12.173   1.896   1.154
61608SOL    HW184848  12.110   1.824   1.123
61608SOL    HW284849  12.266   1.860   1.154
61609SOL     OW84850  11.942   3.192   0.301
61609SOL    HW184851  11.896   3.105   0.318
61609SOL    HW284852  12.033   3.189   0.342
61610SOL     OW84853  11.790   3.429   1.284
61610SOL    HW184854  11.785   3.511   1.341
61610SOL    HW284855  11.879   3.426   1.239
61611SOL     OW84856  12.524   1.914   0.168
61611SOL    HW184857  12.559   1.873   0.084
61611SOL    HW284858  12.434   1.876   0.188
61612SOL     OW84859  12.472   2.315   0.691
61612SOL    HW184860  12.413   2.395   0.695
61612SOL    HW284861  12.487   2.280   0.784
61613SOL     OW84862  12.765   2.083   0.882
61613SOL    HW184863  12.681   2.082   0.936
61613SOL    HW284864  12.767   2.166   0.826
61614SOL     OW84865  11.211   2.939   0.300
61614SOL    HW184866  11.310   2.928   0.291
61614SOL    HW284867  11.171   2.853   0.332
61615SOL     OW84868  12.047   3.508   0.337
61615SOL    HW184869  11.970   3.473   0.283
61615SOL    HW284870  12.015   3.579   0.399
61616SOL     OW84871  11.402   2.490   1.975
61616SOL    HW184872  11.309   2.488   2.012
61616SOL    HW284873  11.403   2.451   1.883
61617SOL     OW84874  11.397   2.137   2.858
61617SOL    HW184875  11.432   2.120   2.950
61617SOL    HW284876  11.309   2.092   2.846
61618SOL     OW84877  11.191   2.230   2.509
61618SOL    HW184878  11.109   2.273   2.548
61618SOL    HW284879  11.163   2.157   2.446
61619SOL     OW84880  11.741   3.137   3.027
61619SOL    HW184881  11.648   3.130   2.990
61619SOL    HW284882  11.752   3.226   3.071
61620SOL     OW84883  12.727   3.373   2.565
61620SOL    HW184884  12.670   3.357   2.646
61620SOL    HW284885  12.668   3.383   2.485
61621SOL     OW84886  12.307   2.565   2.579
61621SOL    HW184887  12.364   2.643   2.554
61621SOL    HW284888  12.247   2.591   2.655
61622SOL     OW84889  11.940   3.006   2.885
61622SOL    HW184890  11.862   3.023   2.945
61622SOL    HW284891  11.974   3.093   2.849
61623SOL     OW84892  12.022   2.660   3.685
61623SOL    HW184893  12.018   2.736   3.750
61623SOL    HW284894  12.044   2.696   3.594
61624SOL     OW84895  11.857   2.874   2.527
61624SOL    HW184896  11.926   2.858   2.597
61624SOL    HW284897  11.784   2.931   2.565
61625SOL     OW84898  11.858   3.023   3.665
61625SOL    HW184899  11.918   3.102   3.679
61625SOL    HW284900  11.772   3.054   3.624
61626SOL     OW84901  11.507   3.297   2.923
61626SOL    HW184902  11.429   3.266   2.870
61626SOL    HW284903  11.565   3.355   2.866
61627SOL     OW84904  12.632   3.367   3.201
61627SOL    HW184905  12.656   3.461   3.227
61627SOL    HW284906  12.616   3.313   3.283
61628SOL     OW84907  11.610   2.254   3.361
61628SOL    HW184908  11.692   2.198   3.370
61628SOL    HW284909  11.529   2.196   3.365
61629SOL     OW84910  11.403   3.575   2.345
61629SOL    HW184911  11.437   3.652   2.399
61629SOL    HW284912  11.447   3.575   2.255
61630SOL     OW84913  12.299   3.203   3.552
61630SOL    HW184914  12.346   3.203   3.640
61630SOL    HW284915  12.251   3.116   3.541
61631SOL     OW84916  11.402   3.296   2.400
61631SOL    HW184917  11.376   3.392   2.400
61631SOL    HW284918  11.331   3.242   2.445
61632SOL     OW84919  11.412   2.953   2.748
61632SOL    HW184920  11.426   2.869   2.800
61632SOL    HW284921  11.357   3.017   2.803
61633SOL     OW84922  11.792   3.648   3.301
61633SOL    HW184923  11.700   3.631   3.336
61633SOL    HW284924  11.820   3.740   3.327
61634SOL     OW84925  11.778   2.826   1.985
61634SOL    HW184926  11.785   2.910   1.931
61634SOL    HW284927  11.824   2.839   2.073
61635SOL     OW84928  12.766   1.976   3.342
61635SOL    HW184929  12.748   2.043   3.270
61635SOL    HW284930  12.763   2.022   3.431
61636SOL     OW84931  11.294   2.505   2.425
61636SOL    HW184932  11.249   2.417   2.442
61636SOL    HW284933  11.293   2.559   2.509
61637SOL     OW84934  11.199   3.458   1.979
61637SOL    HW184935  11.180   3.362   2.000
61637SOL    HW284936  11.166   3.516   2.054
61638SOL     OW84937  12.861   2.784   2.474
61638SOL    HW184938  12.956   2.755   2.482
61638SOL    HW284939  12.853   2.849   2.399
61639SOL     OW84940  11.285   2.599   3.459
61639SOL    HW184941  11.373   2.586   3.504
61639SOL    HW284942  11.272   2.696   3.437
61640SOL     OW84943  11.785   3.227   2.588
61640SOL    HW184944  11.736   3.140   2.597
61640SOL    HW284945  11.762   3.270   2.501
61641SOL     OW84946  12.465   3.090   3.285
61641SOL    HW184947  12.502   3.017   3.227
61641SOL    HW284948  12.517   3.095   3.370
61642SOL     OW84949  11.981   1.866   2.364
61642SOL    HW184950  12.021   1.957   2.355
61642SOL    HW284951  11.881   1.874   2.370
61643SOL     OW84952  11.369   2.838   3.126
61643SOL    HW184953  11.458   2.793   3.112
61643SOL    HW284954  11.296   2.773   3.107
61644SOL     OW84955  12.359   3.654   3.478
61644SOL    HW184956  12.383   3.714   3.402
61644SOL    HW284957  12.366   3.559   3.448
61645SOL     OW84958  11.489   2.113   3.663
61645SOL    HW184959  11.560   2.184   3.669
61645SOL    HW284960  11.401   2.152   3.691
61646SOL     OW84961  12.638   3.279   2.815
61646SOL    HW184962  12.579   3.285   2.895
61646SOL    HW284963  12.623   3.191   2.769
61647SOL     OW84964  12.839   3.576   2.434
61647SOL    HW184965  12.798   3.553   2.346
61647SOL    HW284966  12.821   3.502   2.499
61648SOL     OW84967  11.770   2.591   2.132
61648SOL    HW184968  11.794   2.660   2.064
61648SOL    HW284969  11.692   2.624   2.186
61649SOL     OW84970  12.453   2.207   2.806
61649SOL    HW184971  12.367   2.157   2.793
61649SOL    HW284972  12.515   2.153   2.862
61650SOL     OW84973  11.979   2.467   3.327
61650SOL    HW184974  11.932   2.464   3.416
61650SOL    HW284975  11.928   2.412   3.261
61651SOL     OW84976  12.566   2.331   3.536
61651SOL    HW184977  12.546   2.374   3.624
61651SOL    HW284978  12.644   2.269   3.545
61652SOL     OW84979  12.145   2.752   3.434
61652SOL    HW184980  12.191   2.668   3.405
61652SOL    HW284981  12.089   2.786   3.359
61653SOL     OW84982  12.163   2.272   3.104
61653SOL    HW184983  12.086   2.306   3.158
61653SOL    HW284984  12.129   2.221   3.025
61654SOL     OW84985  12.213   2.563   2.291
61654SOL    HW184986  12.239   2.559   2.387
61654SOL    HW284987  12.128   2.512   2.277
61655SOL     OW84988  11.248   2.673   2.651
61655SOL    HW184989  11.347   2.661   2.660
61655SOL    HW284990  11.224   2.768   2.672
61656SOL     OW84991  11.302   3.683   3.433
61656SOL    HW184992  11.292   3.668   3.532
61656SOL    HW284993  11.216   3.719   3.397
61657SOL     OW84994  12.037   2.210   2.057
61657SOL    HW184995  12.096   2.273   2.008
61657SOL    HW284996  12.056   2.116   2.028
61658SOL     OW84997  12.534   3.006   2.407
61658SOL    HW184998  12.617   2.977   2.359
61658SOL    HW284999  12.485   3.073   2.351
61659SOL     OW85000  11.722   2.058   2.747
61659SOL    HW185001  11.717   2.053   2.847
61659SOL    HW285002  11.724   2.154   2.718
61660SOL     OW85003  12.180   3.318   2.339
61660SOL    HW185004  12.134   3.390   2.287
61660SOL    HW285005  12.176   3.338   2.437
61661SOL     OW85006  11.523   3.663   2.715
61661SOL    HW185007  11.573   3.577   2.721
61661SOL    HW285008  11.588   3.740   2.712
61662SOL     OW85009  12.399   3.412   3.368
61662SOL    HW185010  12.405   3.335   3.432
61662SOL    HW285011  12.347   3.386   3.288
61663SOL     OW85012  11.493   2.805   2.104
61663SOL    HW185013  11.575   2.844   2.062
61663SOL    HW285014  11.466   2.723   2.055
61664SOL     OW85015  12.630   2.597   2.590
61664SOL    HW185016  12.625   2.532   2.665
61664SOL    HW285017  12.710   2.656   2.603
61665SOL     OW85018  11.633   3.128   3.589
61665SOL    HW185019  11.583   3.129   3.503
61665SOL    HW285020  11.570   3.110   3.665
61666SOL     OW85021  12.283   3.638   2.099
61666SOL    HW185022  12.223   3.576   2.149
61666SOL    HW285023  12.314   3.594   2.014
61667SOL     OW85024  11.374   2.147   3.360
61667SOL    HW185025  11.294   2.207   3.347
61667SOL    HW285026  11.364   2.098   3.446
61668SOL     OW85027  11.636   3.605   2.185
61668SOL    HW185028  11.669   3.644   2.271
61668SOL    HW285029  11.712   3.598   2.120
61669SOL     OW85030  12.572   1.969   2.288
61669SOL    HW185031  12.548   1.932   2.198
61669SOL    HW285032  12.671   1.985   2.292
61670SOL     OW85033  11.421   3.647   3.103
61670SOL    HW185034  11.478   3.582   3.153
61670SOL    HW285035  11.405   3.614   3.010
61671SOL     OW85036  12.112   3.560   2.766
61671SOL    HW185037  12.192   3.503   2.787
61671SOL    HW285038  12.063   3.520   2.689
61672SOL     OW85039  11.554   2.562   2.342
61672SOL    HW185040  11.599   2.472   2.339
61672SOL    HW285041  11.460   2.551   2.375
61673SOL     OW85042  11.786   1.984   1.979
61673SOL    HW185043  11.884   1.962   1.986
61673SOL    HW285044  11.755   1.967   1.886
61674SOL     OW85045  11.953   2.126   3.611
61674SOL    HW185046  12.020   2.065   3.654
61674SOL    HW285047  11.880   2.145   3.676
61675SOL     OW85048  12.060   3.376   3.057
61675SOL    HW185049  12.037   3.351   2.963
61675SOL    HW285050  12.121   3.307   3.096
61676SOL     OW85051  12.523   2.452   3.295
61676SOL    HW185052  12.551   2.409   3.380
61676SOL    HW285053  12.548   2.548   3.296
61677SOL     OW85054  11.975   3.264   2.786
61677SOL    HW185055  12.065   3.278   2.744
61677SOL    HW285056  11.904   3.266   2.715
61678SOL     OW85057  12.094   2.365   2.761
61678SOL    HW185058  12.069   2.356   2.665
61678SOL    HW285059  12.142   2.283   2.792
61679SOL     OW85060  11.711   1.926   2.374
61679SOL    HW185061  11.630   1.927   2.432
61679SOL    HW285062  11.714   2.009   2.319
61680SOL     OW85063  12.606   3.050   1.903
61680SOL    HW185064  12.638   2.974   1.960
61680SOL    HW285065  12.514   3.077   1.933
61681SOL     OW85066  11.469   1.897   2.033
61681SOL    HW185067  11.518   1.981   2.012
61681SOL    HW285068  11.531   1.832   2.078
61682SOL     OW85069  12.107   2.098   2.342
61682SOL    HW185070  12.059   2.139   2.264
61682SOL    HW285071  12.206   2.096   2.323
61683SOL     OW85072  12.248   2.545   3.326
61683SOL    HW185073  12.168   2.484   3.329
61683SOL    HW285074  12.329   2.492   3.302
61684SOL     OW85075  12.399   3.432   2.655
61684SOL    HW185076  12.420   3.506   2.590
61684SOL    HW285077  12.467   3.432   2.728
61685SOL     OW85078  11.631   3.014   2.603
61685SOL    HW185079  11.560   2.987   2.668
61685SOL    HW285080  11.605   2.986   2.510
61686SOL     OW85081  12.443   3.659   2.453
61686SOL    HW185082  12.487   3.723   2.389
61686SOL    HW285083  12.393   3.711   2.523
61687SOL     OW85084  12.204   2.411   1.878
61687SOL    HW185085  12.163   2.493   1.839
61687SOL    HW285086  12.268   2.437   1.951
61688SOL     OW85087  11.250   2.418   3.248
61688SOL    HW185088  11.342   2.417   3.207
61688SOL    HW285089  11.244   2.492   3.315
61689SOL     OW85090  11.733   2.084   3.009
61689SOL    HW185091  11.771   2.000   3.046
61689SOL    HW285092  11.645   2.103   3.053
61690SOL     OW85093  12.038   2.316   2.504
61690SOL    HW185094  12.006   2.388   2.442
61690SOL    HW285095  12.062   2.235   2.451
61691SOL     OW85096  12.189   1.901   2.615
61691SOL    HW185097  12.117   1.906   2.546
61691SOL    HW285098  12.165   1.832   2.684
61692SOL     OW85099  12.601   3.035   2.729
61692SOL    HW185100  12.546   2.951   2.722
61692SOL    HW285101  12.627   3.064   2.637
61693SOL     OW85102  12.638   2.452   2.854
61693SOL    HW185103  12.608   2.357   2.861
61693SOL    HW285104  12.711   2.468   2.920
61694SOL     OW85105  11.660   3.247   2.036
61694SOL    HW185106  11.573   3.232   2.083
61694SOL    HW285107  11.643   3.273   1.941
61695SOL     OW85108  12.562   2.437   1.940
61695SOL    HW185109  12.508   2.416   2.021
61695SOL    HW285110  12.653   2.396   1.949
61696SOL     OW85111  11.699   2.118   2.190
61696SOL    HW185112  11.726   2.059   2.115
61696SOL    HW285113  11.699   2.213   2.159
61697SOL     OW85114  12.236   3.209   3.202
61697SOL    HW185115  12.156   3.186   3.257
61697SOL    HW285116  12.319   3.183   3.251
61698SOL     OW85117  12.764   3.491   3.487
61698SOL    HW185118  12.791   3.525   3.397
61698SOL    HW285119  12.843   3.453   3.533
61699SOL     OW85120  12.283   3.057   2.962
61699SOL    HW185121  12.243   3.101   3.043
61699SOL    HW285122  12.242   3.094   2.879
61700SOL     OW85123  12.087   1.951   3.264
61700SOL    HW185124  12.112   1.931   3.169
61700SOL    HW285125  12.159   2.007   3.306
61701SOL     OW85126  12.152   2.978   3.581
61701SOL    HW185127  12.053   2.984   3.591
61701SOL    HW285128  12.175   2.898   3.525
61702SOL     OW85129  11.877   2.912   2.230
61702SOL    HW185130  11.863   2.919   2.329
61702SOL    HW285131  11.961   2.861   2.212
61703SOL     OW85132  11.582   2.675   3.113
61703SOL    HW185133  11.668   2.687   3.163
61703SOL    HW285134  11.540   2.588   3.140
61704SOL     OW85135  12.446   2.248   3.124
61704SOL    HW185136  12.467   2.322   3.188
61704SOL    HW285137  12.357   2.265   3.081
61705SOL     OW85138  11.236   3.426   3.193
61705SOL    HW185139  11.190   3.508   3.159
61705SOL    HW285140  11.334   3.445   3.202
61706SOL     OW85141  11.539   2.962   2.363
61706SOL    HW185142  11.532   3.045   2.307
61706SOL    HW285143  11.543   2.882   2.303
61707SOL     OW85144  11.738   2.399   2.727
61707SOL    HW185145  11.750   2.465   2.653
61707SOL    HW285146  11.784   2.433   2.810
61708SOL     OW85147  12.424   3.210   2.250
61708SOL    HW185148  12.474   3.287   2.290
61708SOL    HW285149  12.329   3.212   2.282
61709SOL     OW85150  12.444   3.307   3.004
61709SOL    HW185151  12.491   3.320   3.091
61709SOL    HW285152  12.378   3.233   3.013
61710SOL     OW85153  12.754   2.501   2.334
61710SOL    HW185154  12.723   2.562   2.407
61710SOL    HW285155  12.804   2.553   2.265
61711SOL     OW85156  11.526   3.372   3.191
61711SOL    HW185157  11.505   3.328   3.104
61711SOL    HW285158  11.623   3.398   3.194
61712SOL     OW85159  11.574   2.613   3.460
61712SOL    HW185160  11.642   2.668   3.413
61712SOL    HW285161  11.614   2.525   3.487
61713SOL     OW85162  12.185   1.967   3.632
61713SOL    HW185163  12.191   2.052   3.580
61713SOL    HW285164  12.217   1.891   3.575
61714SOL     OW85165  11.676   1.912   3.602
61714SOL    HW185166  11.634   1.855   3.532
61714SOL    HW285167  11.610   1.981   3.634
61715SOL     OW85168  11.745   2.732   2.891
61715SOL    HW185169  11.789   2.821   2.882
61715SOL    HW285170  11.682   2.732   2.968
61716SOL     OW85171  12.532   2.724   2.907
61716SOL    HW185172  12.457   2.724   2.841
61716SOL    HW285173  12.569   2.632   2.916
61717SOL     OW85174  12.381   2.387   2.137
61717SOL    HW185175  12.394   2.303   2.191
61717SOL    HW285176  12.352   2.461   2.197
61718SOL     OW85177  11.479   2.075   3.093
61718SOL    HW185178  11.456   2.112   3.183
61718SOL    HW285179  11.449   1.980   3.087
61719SOL     OW85180  11.209   3.172   3.144
61719SOL    HW185181  11.262   3.123   3.212
61719SOL    HW285182  11.231   3.270   3.149
61720SOL     OW85183  11.904   2.496   2.926
61720SOL    HW185184  11.963   2.470   2.850
61720SOL    HW285185  11.876   2.592   2.915
61721SOL     OW85186  11.479   1.925   2.480
61721SOL    HW185187  11.468   2.019   2.513
61721SOL    HW285188  11.474   1.862   2.557
61722SOL     OW85189  12.794   2.229   2.236
61722SOL    HW185190  12.796   2.153   2.300
61722SOL    HW285191  12.746   2.306   2.276
61723SOL     OW85192  12.195   2.628   2.828
61723SOL    HW185193  12.210   2.649   2.924
61723SOL    HW285194  12.165   2.533   2.819
61724SOL     OW85195  12.152   3.435   3.562
61724SOL    HW185196  12.132   3.479   3.474
61724SOL    HW285197  12.191   3.344   3.546
61725SOL     OW85198  11.522   2.760   3.666
61725SOL    HW185199  11.598   2.804   3.714
61725SOL    HW285200  11.557   2.713   3.584
61726SOL     OW85201  12.712   2.136   1.987
61726SOL    HW185202  12.651   2.061   2.010
61726SOL    HW285203  12.734   2.188   2.070
61727SOL     OW85204  12.475   2.700   1.904
61727SOL    HW185205  12.509   2.607   1.919
61727SOL    HW285206  12.493   2.727   1.809
61728SOL     OW85207  12.240   3.195   2.711
61728SOL    HW185208  12.247   3.111   2.656
61728SOL    HW285209  12.302   3.264   2.675
61729SOL     OW85210  11.491   2.672   2.811
61729SOL    HW185211  11.584   2.708   2.816
61729SOL    HW285212  11.485   2.587   2.863
61730SOL     OW85213  11.511   2.371   2.868
61730SOL    HW185214  11.459   2.288   2.851
61730SOL    HW285215  11.588   2.376   2.804
61731SOL     OW85216  12.310   2.242   3.540
61731SOL    HW185217  12.265   2.305   3.604
61731SOL    HW285218  12.403   2.273   3.523
61732SOL     OW85219  12.332   2.069   3.339
61732SOL    HW185220  12.332   2.133   3.416
61732SOL    HW285221  12.360   2.117   3.256
61733SOL     OW85222  11.180   3.188   2.062
61733SOL    HW185223  11.087   3.209   2.031
61733SOL    HW285224  11.190   3.089   2.075
61734SOL     OW85225  11.260   3.663   2.789
61734SOL    HW185226  11.218   3.577   2.762
61734SOL    HW285227  11.354   3.666   2.755
61735SOL     OW85228  11.676   3.430   2.772
61735SOL    HW185229  11.742   3.504   2.781
61735SOL    HW285230  11.720   3.351   2.730
61736SOL     OW85231  12.174   2.658   3.100
61736SOL    HW185232  12.215   2.626   3.186
61736SOL    HW285233  12.078   2.631   3.097
61737SOL     OW85234  11.212   2.406   2.976
61737SOL    HW185235  11.297   2.373   2.935
61737SOL    HW285236  11.225   2.421   3.074
61738SOL     OW85237  11.361   2.382   3.584
61738SOL    HW185238  11.420   2.342   3.514
61738SOL    HW285239  11.303   2.453   3.543
61739SOL     OW85240  12.541   2.812   3.522
61739SOL    HW185241  12.580   2.901   3.542
61739SOL    HW285242  12.551   2.792   3.425
61740SOL     OW85243  11.987   2.434   2.187
61740SOL    HW185244  11.994   2.345   2.141
61740SOL    HW285245  11.893   2.468   2.179
61741SOL     OW85246  11.424   3.426   3.606
61741SOL    HW185247  11.394   3.483   3.682
61741SOL    HW285248  11.417   3.329   3.632
61742SOL     OW85249  11.843   2.326   3.131
61742SOL    HW185250  11.809   2.237   3.101
61742SOL    HW285251  11.869   2.380   3.051
61743SOL     OW85252  12.102   3.540   3.327
61743SOL    HW185253  12.078   3.522   3.232
61743SOL    HW285254  12.132   3.634   3.337
61744SOL     OW85255  11.645   2.362   2.053
61744SOL    HW185256  11.706   2.442   2.057
61744SOL    HW285257  11.550   2.393   2.060
61745SOL     OW85258  11.331   2.999   3.328
61745SOL    HW185259  11.353   2.938   3.404
61745SOL    HW285260  11.341   2.950   3.242
61746SOL     OW85261  12.519   2.921   3.096
61746SOL    HW185262  12.543   2.858   3.022
61746SOL    HW285263  12.429   2.961   3.078
61747SOL     OW85264  12.474   2.717   2.171
61747SOL    HW185265  12.388   2.686   2.213
61747SOL    HW285266  12.470   2.703   2.072
61748SOL     OW85267  12.424   3.593   2.990
61748SOL    HW185268  12.508   3.598   2.936
61748SOL    HW285269  12.401   3.497   3.008
61749SOL     OW85270  11.255   3.120   2.884
61749SOL    HW185271  11.250   3.119   2.984
61749SOL    HW285272  11.172   3.079   2.846
61750SOL     OW85273  11.860   3.524   3.578
61750SOL    HW185274  11.804   3.605   3.587
61750SOL    HW285275  11.912   3.528   3.492
61751SOL     OW85276  12.898   1.997   2.385
61751SOL    HW185277  12.971   1.980   2.318
61751SOL    HW285278  12.867   1.910   2.423
61752SOL     OW85279  12.560   3.435   2.339
61752SOL    HW185280  12.627   3.447   2.265
61752SOL    HW285281  12.520   3.524   2.362
61753SOL     OW85282  11.302   3.656   3.713
61753SOL    HW185283  11.261   3.582   3.766
61753SOL    HW285284  11.366   3.707   3.771
61754SOL     OW85285  12.452   2.789   2.534
61754SOL    HW185286  12.512   2.708   2.536
61754SOL    HW285287  12.492   2.858   2.474
61755SOL     OW85288  12.002   3.135   3.284
61755SOL    HW185289  11.997   3.168   3.379
61755SOL    HW285290  11.916   3.154   3.238
61756SOL     OW85291  11.844   3.478   2.016
61756SOL    HW185292  11.853   3.488   1.917
61756SOL    HW285293  11.804   3.389   2.037
61757SOL     OW85294  11.435   2.188   2.582
61757SOL    HW185295  11.356   2.239   2.548
61757SOL    HW285296  11.426   2.173   2.680
61758SOL     OW85297  12.366   3.474   1.893
61758SOL    HW185298  12.372   3.381   1.930
61758SOL    HW285299  12.307   3.474   1.813
61759SOL     OW85300  11.994   2.864   3.234
61759SOL    HW185301  12.034   2.863   3.142
61759SOL    HW285302  12.004   2.956   3.274
61760SOL     OW85303  12.088   2.772   2.153
61760SOL    HW185304  12.151   2.810   2.085
61760SOL    HW285305  12.128   2.689   2.192
61761SOL     OW85306  12.676   3.469   1.906
61761SOL    HW185307  12.584   3.506   1.913
61761SOL    HW285308  12.714   3.489   1.816
61762SOL     OW85309  11.544   3.150   3.352
61762SOL    HW185310  11.531   3.243   3.318
61762SOL    HW285311  11.460   3.098   3.339
61763SOL     OW85312  12.211   2.960   2.558
61763SOL    HW185313  12.141   2.913   2.612
61763SOL    HW285314  12.270   2.892   2.515
61764SOL     OW85315  12.186   2.098   2.833
61764SOL    HW185316  12.178   2.062   2.740
61764SOL    HW285317  12.184   2.022   2.898
61765SOL     OW85318  11.762   3.349   2.353
61765SOL    HW185319  11.804   3.291   2.283
61765SOL    HW285320  11.718   3.428   2.309
61766SOL     OW85321  11.427   3.210   2.152
61766SOL    HW185322  11.331   3.211   2.125
61766SOL    HW285323  11.439   3.263   2.236
61767SOL     OW85324  11.277   2.875   3.588
61767SOL    HW185325  11.200   2.842   3.642
61767SOL    HW285326  11.362   2.845   3.630
61768SOL     OW85327  11.844   2.065   3.351
61768SOL    HW185328  11.934   2.049   3.311
61768SOL    HW285329  11.852   2.070   3.450
61769SOL     OW85330  11.247   2.207   1.895
61769SOL    HW185331  11.155   2.179   1.866
61769SOL    HW285332  11.278   2.284   1.839
61770SOL     OW85333  12.612   2.718   3.260
61770SOL    HW185334  12.555   2.770   3.197
61770SOL    HW285335  12.708   2.730   3.236
61771SOL     OW85336  11.244   2.028   2.180
61771SOL    HW185337  11.227   2.111   2.126
61771SOL    HW285338  11.334   1.991   2.158
61772SOL     OW85339  12.355   3.197   1.981
61772SOL    HW185340  12.256   3.186   1.983
61772SOL    HW285341  12.389   3.212   2.074
61773SOL     OW85342  11.785   2.704   3.293
61773SOL    HW185343  11.841   2.785   3.276
61773SOL    HW285344  11.844   2.624   3.296
61774SOL     OW85345  12.665   3.629   2.821
61774SOL    HW185346  12.698   3.693   2.752
61774SOL    HW285347  12.731   3.623   2.896
61775SOL     OW85348  11.888   2.427   3.570
61775SOL    HW185349  11.907   2.492   3.644
61775SOL    HW285350  11.948   2.347   3.579
61776SOL     OW85351  12.622   3.082   3.495
61776SOL    HW185352  12.613   3.072   3.594
61776SOL    HW285353  12.718   3.075   3.469
61777SOL     OW85354  11.562   3.603   3.422
61777SOL    HW185355  11.471   3.644   3.420
61777SOL    HW285356  11.555   3.509   3.454
61778SOL     OW85357  12.397   2.187   2.311
61778SOL    HW185358  12.462   2.113   2.300
61778SOL    HW285359  12.417   2.237   2.395
61779SOL     OW85360  11.766   2.607   2.514
61779SOL    HW185361  11.816   2.692   2.495
61779SOL    HW285362  11.678   2.609   2.466
61780SOL     OW85363  12.031   3.236   1.878
61780SOL    HW185364  11.985   3.251   1.966
61780SOL    HW285365  12.075   3.321   1.848
61781SOL     OW85366  11.833   3.652   2.815
61781SOL    HW185367  11.787   3.740   2.802
61781SOL    HW285368  11.932   3.664   2.808
61782SOL     OW85369  12.031   2.818   2.723
61782SOL    HW185370  12.085   2.749   2.771
61782SOL    HW285371  11.999   2.887   2.789
61783SOL     OW85372  12.255   2.846   1.949
61783SOL    HW185373  12.232   2.899   1.867
61783SOL    HW285374  12.336   2.790   1.930
61784SOL     OW85375  13.033   3.431   2.713
61784SOL    HW185376  12.962   3.419   2.643
61784SOL    HW285377  13.034   3.352   2.773
61785SOL     OW85378  11.393   3.176   3.706
61785SOL    HW185379  11.328   3.103   3.685
61785SOL    HW285380  11.397   3.190   3.804
61786SOL     OW85381  11.251   3.102   2.515
61786SOL    HW185382  11.250   3.055   2.603
61786SOL    HW285383  11.333   3.074   2.464
61787SOL     OW85384  11.844   3.253   3.486
61787SOL    HW185385  11.766   3.203   3.524
61787SOL    HW285386  11.841   3.348   3.517
61788SOL     OW85387  11.600   2.286   2.382
61788SOL    HW185388  11.630   2.214   2.320
61788SOL    HW285389  11.561   2.246   2.465
61789SOL     OW85390  11.489   2.409   3.142
61789SOL    HW185391  11.527   2.350   3.214
61789SOL    HW285392  11.529   2.383   3.054
61790SOL     OW85393  11.984   3.448   2.549
61790SOL    HW185394  12.016   3.458   2.455
61790SOL    HW285395  11.905   3.386   2.551
61791SOL     OW85396  12.596   2.076   2.974
61791SOL    HW185397  12.648   2.011   3.029
61791SOL    HW285398  12.547   2.139   3.035
61792SOL     OW85399  12.173   1.896   3.016
61792SOL    HW185400  12.110   1.824   2.985
61792SOL    HW285401  12.266   1.860   3.016
61793SOL     OW85402  11.942   3.192   2.163
61793SOL    HW185403  11.896   3.105   2.180
61793SOL    HW285404  12.033   3.189   2.204
61794SOL     OW85405  11.790   3.429   3.146
61794SOL    HW185406  11.785   3.511   3.203
61794SOL    HW285407  11.879   3.426   3.101
61795SOL     OW85408  12.524   1.914   2.030
61795SOL    HW185409  12.559   1.873   1.946
61795SOL    HW285410  12.434   1.876   2.050
61796SOL     OW85411  12.472   2.315   2.553
61796SOL    HW185412  12.413   2.395   2.557
61796SOL    HW285413  12.487   2.280   2.646
61797SOL     OW85414  12.765   2.083   2.744
61797SOL    HW185415  12.681   2.082   2.798
61797SOL    HW285416  12.767   2.166   2.688
61798SOL     OW85417  11.211   2.939   2.162
61798SOL    HW185418  11.310   2.928   2.153
61798SOL    HW285419  11.171   2.853   2.194
61799SOL     OW85420  12.047   3.508   2.199
61799SOL    HW185421  11.970   3.473   2.145
61799SOL    HW285422  12.015   3.579   2.261
61800SOL     OW85423  11.402   2.490   3.837
61800SOL    HW185424  11.309   2.488   3.874
61800SOL    HW285425  11.403   2.451   3.745
61801SOL     OW85426  11.397   2.137   4.720
61801SOL    HW185427  11.432   2.120   4.812
61801SOL    HW285428  11.309   2.092   4.708
61802SOL     OW85429  11.191   2.230   4.371
61802SOL    HW185430  11.109   2.273   4.410
61802SOL    HW285431  11.163   2.157   4.308
61803SOL     OW85432  11.741   3.137   4.889
61803SOL    HW185433  11.648   3.130   4.852
61803SOL    HW285434  11.752   3.226   4.933
61804SOL     OW85435  12.727   3.373   4.427
61804SOL    HW185436  12.670   3.357   4.508
61804SOL    HW285437  12.668   3.383   4.347
61805SOL     OW85438  12.307   2.565   4.441
61805SOL    HW185439  12.364   2.643   4.416
61805SOL    HW285440  12.247   2.591   4.517
61806SOL     OW85441  11.940   3.006   4.747
61806SOL    HW185442  11.862   3.023   4.807
61806SOL    HW285443  11.974   3.093   4.711
61807SOL     OW85444  12.022   2.660   5.547
61807SOL    HW185445  12.018   2.736   5.612
61807SOL    HW285446  12.044   2.696   5.456
61808SOL     OW85447  11.857   2.874   4.389
61808SOL    HW185448  11.926   2.858   4.459
61808SOL    HW285449  11.784   2.931   4.427
61809SOL     OW85450  11.858   3.023   5.527
61809SOL    HW185451  11.918   3.102   5.541
61809SOL    HW285452  11.772   3.054   5.486
61810SOL     OW85453  11.507   3.297   4.785
61810SOL    HW185454  11.429   3.266   4.732
61810SOL    HW285455  11.565   3.355   4.728
61811SOL     OW85456  12.632   3.367   5.063
61811SOL    HW185457  12.656   3.461   5.089
61811SOL    HW285458  12.616   3.313   5.145
61812SOL     OW85459  11.610   2.254   5.223
61812SOL    HW185460  11.692   2.198   5.232
61812SOL    HW285461  11.529   2.196   5.227
61813SOL     OW85462  11.403   3.575   4.207
61813SOL    HW185463  11.437   3.652   4.261
61813SOL    HW285464  11.447   3.575   4.117
61814SOL     OW85465  12.299   3.203   5.414
61814SOL    HW185466  12.346   3.203   5.502
61814SOL    HW285467  12.251   3.116   5.403
61815SOL     OW85468  11.402   3.296   4.262
61815SOL    HW185469  11.376   3.392   4.262
61815SOL    HW285470  11.331   3.242   4.307
61816SOL     OW85471  11.412   2.953   4.610
61816SOL    HW185472  11.426   2.869   4.662
61816SOL    HW285473  11.357   3.017   4.665
61817SOL     OW85474  11.792   3.648   5.163
61817SOL    HW185475  11.700   3.631   5.198
61817SOL    HW285476  11.820   3.740   5.189
61818SOL     OW85477  11.778   2.826   3.847
61818SOL    HW185478  11.785   2.910   3.793
61818SOL    HW285479  11.824   2.839   3.935
61819SOL     OW85480  12.766   1.976   5.204
61819SOL    HW185481  12.748   2.043   5.132
61819SOL    HW285482  12.763   2.022   5.293
61820SOL     OW85483  11.294   2.505   4.287
61820SOL    HW185484  11.249   2.417   4.304
61820SOL    HW285485  11.293   2.559   4.371
61821SOL     OW85486  11.199   3.458   3.841
61821SOL    HW185487  11.180   3.362   3.862
61821SOL    HW285488  11.166   3.516   3.916
61822SOL     OW85489  12.861   2.784   4.336
61822SOL    HW185490  12.956   2.755   4.344
61822SOL    HW285491  12.853   2.849   4.261
61823SOL     OW85492  11.285   2.599   5.321
61823SOL    HW185493  11.373   2.586   5.366
61823SOL    HW285494  11.272   2.696   5.299
61824SOL     OW85495  11.785   3.227   4.450
61824SOL    HW185496  11.736   3.140   4.459
61824SOL    HW285497  11.762   3.270   4.363
61825SOL     OW85498  12.465   3.090   5.147
61825SOL    HW185499  12.502   3.017   5.089
61825SOL    HW285500  12.517   3.095   5.232
61826SOL     OW85501  11.981   1.866   4.226
61826SOL    HW185502  12.021   1.957   4.217
61826SOL    HW285503  11.881   1.874   4.232
61827SOL     OW85504  11.369   2.838   4.988
61827SOL    HW185505  11.458   2.793   4.974
61827SOL    HW285506  11.296   2.773   4.969
61828SOL     OW85507  12.359   3.654   5.340
61828SOL    HW185508  12.383   3.714   5.264
61828SOL    HW285509  12.366   3.559   5.310
61829SOL     OW85510  11.489   2.113   5.525
61829SOL    HW185511  11.560   2.184   5.531
61829SOL    HW285512  11.401   2.152   5.553
61830SOL     OW85513  12.638   3.279   4.677
61830SOL    HW185514  12.579   3.285   4.757
61830SOL    HW285515  12.623   3.191   4.631
61831SOL     OW85516  12.839   3.576   4.296
61831SOL    HW185517  12.798   3.553   4.208
61831SOL    HW285518  12.821   3.502   4.361
61832SOL     OW85519  11.770   2.591   3.994
61832SOL    HW185520  11.794   2.660   3.926
61832SOL    HW285521  11.692   2.624   4.048
61833SOL     OW85522  12.453   2.207   4.668
61833SOL    HW185523  12.367   2.157   4.655
61833SOL    HW285524  12.515   2.153   4.724
61834SOL     OW85525  11.979   2.467   5.189
61834SOL    HW185526  11.932   2.464   5.278
61834SOL    HW285527  11.928   2.412   5.123
61835SOL     OW85528  12.566   2.331   5.398
61835SOL    HW185529  12.546   2.374   5.486
61835SOL    HW285530  12.644   2.269   5.407
61836SOL     OW85531  12.145   2.752   5.296
61836SOL    HW185532  12.191   2.668   5.267
61836SOL    HW285533  12.089   2.786   5.221
61837SOL     OW85534  12.163   2.272   4.966
61837SOL    HW185535  12.086   2.306   5.020
61837SOL    HW285536  12.129   2.221   4.887
61838SOL     OW85537  12.213   2.563   4.153
61838SOL    HW185538  12.239   2.559   4.249
61838SOL    HW285539  12.128   2.512   4.139
61839SOL     OW85540  11.248   2.673   4.513
61839SOL    HW185541  11.347   2.661   4.522
61839SOL    HW285542  11.224   2.768   4.534
61840SOL     OW85543  11.302   3.683   5.295
61840SOL    HW185544  11.292   3.668   5.394
61840SOL    HW285545  11.216   3.719   5.259
61841SOL     OW85546  12.037   2.210   3.919
61841SOL    HW185547  12.096   2.273   3.870
61841SOL    HW285548  12.056   2.116   3.890
61842SOL     OW85549  12.534   3.006   4.269
61842SOL    HW185550  12.617   2.977   4.221
61842SOL    HW285551  12.485   3.073   4.213
61843SOL     OW85552  11.722   2.058   4.609
61843SOL    HW185553  11.717   2.053   4.709
61843SOL    HW285554  11.724   2.154   4.580
61844SOL     OW85555  12.180   3.318   4.201
61844SOL    HW185556  12.134   3.390   4.149
61844SOL    HW285557  12.176   3.338   4.299
61845SOL     OW85558  11.523   3.663   4.577
61845SOL    HW185559  11.573   3.577   4.583
61845SOL    HW285560  11.588   3.740   4.574
61846SOL     OW85561  12.399   3.412   5.230
61846SOL    HW185562  12.405   3.335   5.294
61846SOL    HW285563  12.347   3.386   5.150
61847SOL     OW85564  11.493   2.805   3.966
61847SOL    HW185565  11.575   2.844   3.924
61847SOL    HW285566  11.466   2.723   3.917
61848SOL     OW85567  12.630   2.597   4.452
61848SOL    HW185568  12.625   2.532   4.527
61848SOL    HW285569  12.710   2.656   4.465
61849SOL     OW85570  11.633   3.128   5.451
61849SOL    HW185571  11.583   3.129   5.365
61849SOL    HW285572  11.570   3.110   5.527
61850SOL     OW85573  12.283   3.638   3.961
61850SOL    HW185574  12.223   3.576   4.011
61850SOL    HW285575  12.314   3.594   3.876
61851SOL     OW85576  11.374   2.147   5.222
61851SOL    HW185577  11.294   2.207   5.209
61851SOL    HW285578  11.364   2.098   5.308
61852SOL     OW85579  11.636   3.605   4.047
61852SOL    HW185580  11.669   3.644   4.133
61852SOL    HW285581  11.712   3.598   3.982
61853SOL     OW85582  12.572   1.969   4.150
61853SOL    HW185583  12.548   1.932   4.060
61853SOL    HW285584  12.671   1.985   4.154
61854SOL     OW85585  11.421   3.647   4.965
61854SOL    HW185586  11.478   3.582   5.015
61854SOL    HW285587  11.405   3.614   4.872
61855SOL     OW85588  12.112   3.560   4.628
61855SOL    HW185589  12.192   3.503   4.649
61855SOL    HW285590  12.063   3.520   4.551
61856SOL     OW85591  11.554   2.562   4.204
61856SOL    HW185592  11.599   2.472   4.201
61856SOL    HW285593  11.460   2.551   4.237
61857SOL     OW85594  11.786   1.984   3.841
61857SOL    HW185595  11.884   1.962   3.848
61857SOL    HW285596  11.755   1.967   3.748
61858SOL     OW85597  11.953   2.126   5.473
61858SOL    HW185598  12.020   2.065   5.516
61858SOL    HW285599  11.880   2.145   5.538
61859SOL     OW85600  12.060   3.376   4.919
61859SOL    HW185601  12.037   3.351   4.825
61859SOL    HW285602  12.121   3.307   4.958
61860SOL     OW85603  12.523   2.452   5.157
61860SOL    HW185604  12.551   2.409   5.242
61860SOL    HW285605  12.548   2.548   5.158
61861SOL     OW85606  11.975   3.264   4.648
61861SOL    HW185607  12.065   3.278   4.606
61861SOL    HW285608  11.904   3.266   4.577
61862SOL     OW85609  12.094   2.365   4.623
61862SOL    HW185610  12.069   2.356   4.527
61862SOL    HW285611  12.142   2.283   4.654
61863SOL     OW85612  11.711   1.926   4.236
61863SOL    HW185613  11.630   1.927   4.294
61863SOL    HW285614  11.714   2.009   4.181
61864SOL     OW85615  12.606   3.050   3.765
61864SOL    HW185616  12.638   2.974   3.822
61864SOL    HW285617  12.514   3.077   3.795
61865SOL     OW85618  11.469   1.897   3.895
61865SOL    HW185619  11.518   1.981   3.874
61865SOL    HW285620  11.531   1.832   3.940
61866SOL     OW85621  12.107   2.098   4.204
61866SOL    HW185622  12.059   2.139   4.126
61866SOL    HW285623  12.206   2.096   4.185
61867SOL     OW85624  12.248   2.545   5.188
61867SOL    HW185625  12.168   2.484   5.191
61867SOL    HW285626  12.329   2.492   5.164
61868SOL     OW85627  12.399   3.432   4.517
61868SOL    HW185628  12.420   3.506   4.452
61868SOL    HW285629  12.467   3.432   4.590
61869SOL     OW85630  11.631   3.014   4.465
61869SOL    HW185631  11.560   2.987   4.530
61869SOL    HW285632  11.605   2.986   4.372
61870SOL     OW85633  12.443   3.659   4.315
61870SOL    HW185634  12.487   3.723   4.251
61870SOL    HW285635  12.393   3.711   4.385
61871SOL     OW85636  12.204   2.411   3.740
61871SOL    HW185637  12.163   2.493   3.701
61871SOL    HW285638  12.268   2.437   3.813
61872SOL     OW85639  11.250   2.418   5.110
61872SOL    HW185640  11.342   2.417   5.069
61872SOL    HW285641  11.244   2.492   5.177
61873SOL     OW85642  11.733   2.084   4.871
61873SOL    HW185643  11.771   2.000   4.908
61873SOL    HW285644  11.645   2.103   4.915
61874SOL     OW85645  12.038   2.316   4.366
61874SOL    HW185646  12.006   2.388   4.304
61874SOL    HW285647  12.062   2.235   4.313
61875SOL     OW85648  12.189   1.901   4.477
61875SOL    HW185649  12.117   1.906   4.408
61875SOL    HW285650  12.165   1.832   4.546
61876SOL     OW85651  12.601   3.035   4.591
61876SOL    HW185652  12.546   2.951   4.584
61876SOL    HW285653  12.627   3.064   4.499
61877SOL     OW85654  12.638   2.452   4.716
61877SOL    HW185655  12.608   2.357   4.723
61877SOL    HW285656  12.711   2.468   4.782
61878SOL     OW85657  11.660   3.247   3.898
61878SOL    HW185658  11.573   3.232   3.945
61878SOL    HW285659  11.643   3.273   3.803
61879SOL     OW85660  12.562   2.437   3.802
61879SOL    HW185661  12.508   2.416   3.883
61879SOL    HW285662  12.653   2.396   3.811
61880SOL     OW85663  11.699   2.118   4.052
61880SOL    HW185664  11.726   2.059   3.977
61880SOL    HW285665  11.699   2.213   4.021
61881SOL     OW85666  12.236   3.209   5.064
61881SOL    HW185667  12.156   3.186   5.119
61881SOL    HW285668  12.319   3.183   5.113
61882SOL     OW85669  12.764   3.491   5.349
61882SOL    HW185670  12.791   3.525   5.259
61882SOL    HW285671  12.843   3.453   5.395
61883SOL     OW85672  12.283   3.057   4.824
61883SOL    HW185673  12.243   3.101   4.905
61883SOL    HW285674  12.242   3.094   4.741
61884SOL     OW85675  12.087   1.951   5.126
61884SOL    HW185676  12.112   1.931   5.031
61884SOL    HW285677  12.159   2.007   5.168
61885SOL     OW85678  12.152   2.978   5.443
61885SOL    HW185679  12.053   2.984   5.453
61885SOL    HW285680  12.175   2.898   5.387
61886SOL     OW85681  11.877   2.912   4.092
61886SOL    HW185682  11.863   2.919   4.191
61886SOL    HW285683  11.961   2.861   4.074
61887SOL     OW85684  11.582   2.675   4.975
61887SOL    HW185685  11.668   2.687   5.025
61887SOL    HW285686  11.540   2.588   5.002
61888SOL     OW85687  12.446   2.248   4.986
61888SOL    HW185688  12.467   2.322   5.050
61888SOL    HW285689  12.357   2.265   4.943
61889SOL     OW85690  11.236   3.426   5.055
61889SOL    HW185691  11.190   3.508   5.021
61889SOL    HW285692  11.334   3.445   5.064
61890SOL     OW85693  11.539   2.962   4.225
61890SOL    HW185694  11.532   3.045   4.169
61890SOL    HW285695  11.543   2.882   4.165
61891SOL     OW85696  11.738   2.399   4.589
61891SOL    HW185697  11.750   2.465   4.515
61891SOL    HW285698  11.784   2.433   4.672
61892SOL     OW85699  12.424   3.210   4.112
61892SOL    HW185700  12.474   3.287   4.152
61892SOL    HW285701  12.329   3.212   4.144
61893SOL     OW85702  12.444   3.307   4.866
61893SOL    HW185703  12.491   3.320   4.953
61893SOL    HW285704  12.378   3.233   4.875
61894SOL     OW85705  12.754   2.501   4.196
61894SOL    HW185706  12.723   2.562   4.269
61894SOL    HW285707  12.804   2.553   4.127
61895SOL     OW85708  11.526   3.372   5.053
61895SOL    HW185709  11.505   3.328   4.966
61895SOL    HW285710  11.623   3.398   5.056
61896SOL     OW85711  11.574   2.613   5.322
61896SOL    HW185712  11.642   2.668   5.275
61896SOL    HW285713  11.614   2.525   5.349
61897SOL     OW85714  12.185   1.967   5.494
61897SOL    HW185715  12.191   2.052   5.442
61897SOL    HW285716  12.217   1.891   5.437
61898SOL     OW85717  11.676   1.912   5.464
61898SOL    HW185718  11.634   1.855   5.394
61898SOL    HW285719  11.610   1.981   5.496
61899SOL     OW85720  11.745   2.732   4.753
61899SOL    HW185721  11.789   2.821   4.744
61899SOL    HW285722  11.682   2.732   4.830
61900SOL     OW85723  12.532   2.724   4.769
61900SOL    HW185724  12.457   2.724   4.703
61900SOL    HW285725  12.569   2.632   4.778
61901SOL     OW85726  12.381   2.387   3.999
61901SOL    HW185727  12.394   2.303   4.053
61901SOL    HW285728  12.352   2.461   4.059
61902SOL     OW85729  11.479   2.075   4.955
61902SOL    HW185730  11.456   2.112   5.045
61902SOL    HW285731  11.449   1.980   4.949
61903SOL     OW85732  11.209   3.172   5.006
61903SOL    HW185733  11.262   3.123   5.074
61903SOL    HW285734  11.231   3.270   5.011
61904SOL     OW85735  11.904   2.496   4.788
61904SOL    HW185736  11.963   2.470   4.712
61904SOL    HW285737  11.876   2.592   4.777
61905SOL     OW85738  11.479   1.925   4.342
61905SOL    HW185739  11.468   2.019   4.375
61905SOL    HW285740  11.474   1.862   4.419
61906SOL     OW85741  12.794   2.229   4.098
61906SOL    HW185742  12.796   2.153   4.162
61906SOL    HW285743  12.746   2.306   4.138
61907SOL     OW85744  12.195   2.628   4.690
61907SOL    HW185745  12.210   2.649   4.786
61907SOL    HW285746  12.165   2.533   4.681
61908SOL     OW85747  12.152   3.435   5.424
61908SOL    HW185748  12.132   3.479   5.336
61908SOL    HW285749  12.191   3.344   5.408
61909SOL     OW85750  11.522   2.760   5.528
61909SOL    HW185751  11.598   2.804   5.576
61909SOL    HW285752  11.557   2.713   5.446
61910SOL     OW85753  12.712   2.136   3.849
61910SOL    HW185754  12.651   2.061   3.872
61910SOL    HW285755  12.734   2.188   3.932
61911SOL     OW85756  12.475   2.700   3.766
61911SOL    HW185757  12.509   2.607   3.781
61911SOL    HW285758  12.493   2.727   3.671
61912SOL     OW85759  12.240   3.195   4.573
61912SOL    HW185760  12.247   3.111   4.518
61912SOL    HW285761  12.302   3.264   4.537
61913SOL     OW85762  11.491   2.672   4.673
61913SOL    HW185763  11.584   2.708   4.678
61913SOL    HW285764  11.485   2.587   4.725
61914SOL     OW85765  11.511   2.371   4.730
61914SOL    HW185766  11.459   2.288   4.713
61914SOL    HW285767  11.588   2.376   4.666
61915SOL     OW85768  12.310   2.242   5.402
61915SOL    HW185769  12.265   2.305   5.466
61915SOL    HW285770  12.403   2.273   5.385
61916SOL     OW85771  12.332   2.069   5.201
61916SOL    HW185772  12.332   2.133   5.278
61916SOL    HW285773  12.360   2.117   5.118
61917SOL     OW85774  11.180   3.188   3.924
61917SOL    HW185775  11.087   3.209   3.893
61917SOL    HW285776  11.190   3.089   3.937
61918SOL     OW85777  11.260   3.663   4.651
61918SOL    HW185778  11.218   3.577   4.624
61918SOL    HW285779  11.354   3.666   4.617
61919SOL     OW85780  11.676   3.430   4.634
61919SOL    HW185781  11.742   3.504   4.643
61919SOL    HW285782  11.720   3.351   4.592
61920SOL     OW85783  12.174   2.658   4.962
61920SOL    HW185784  12.215   2.626   5.048
61920SOL    HW285785  12.078   2.631   4.959
61921SOL     OW85786  11.212   2.406   4.838
61921SOL    HW185787  11.297   2.373   4.797
61921SOL    HW285788  11.225   2.421   4.936
61922SOL     OW85789  11.361   2.382   5.446
61922SOL    HW185790  11.420   2.342   5.376
61922SOL    HW285791  11.303   2.453   5.405
61923SOL     OW85792  12.541   2.812   5.384
61923SOL    HW185793  12.580   2.901   5.404
61923SOL    HW285794  12.551   2.792   5.287
61924SOL     OW85795  11.987   2.434   4.049
61924SOL    HW185796  11.994   2.345   4.003
61924SOL    HW285797  11.893   2.468   4.041
61925SOL     OW85798  11.424   3.426   5.468
61925SOL    HW185799  11.394   3.483   5.544
61925SOL    HW285800  11.417   3.329   5.494
61926SOL     OW85801  11.843   2.326   4.993
61926SOL    HW185802  11.809   2.237   4.963
61926SOL    HW285803  11.869   2.380   4.913
61927SOL     OW85804  12.102   3.540   5.189
61927SOL    HW185805  12.078   3.522   5.094
61927SOL    HW285806  12.132   3.634   5.199
61928SOL     OW85807  11.645   2.362   3.915
61928SOL    HW185808  11.706   2.442   3.919
61928SOL    HW285809  11.550   2.393   3.922
61929SOL     OW85810  11.331   2.999   5.190
61929SOL    HW185811  11.353   2.938   5.266
61929SOL    HW285812  11.341   2.950   5.104
61930SOL     OW85813  12.519   2.921   4.958
61930SOL    HW185814  12.543   2.858   4.884
61930SOL    HW285815  12.429   2.961   4.940
61931SOL     OW85816  12.474   2.717   4.033
61931SOL    HW185817  12.388   2.686   4.075
61931SOL    HW285818  12.470   2.703   3.934
61932SOL     OW85819  12.424   3.593   4.852
61932SOL    HW185820  12.508   3.598   4.798
61932SOL    HW285821  12.401   3.497   4.870
61933SOL     OW85822  11.255   3.120   4.746
61933SOL    HW185823  11.250   3.119   4.846
61933SOL    HW285824  11.172   3.079   4.708
61934SOL     OW85825  11.860   3.524   5.440
61934SOL    HW185826  11.804   3.605   5.449
61934SOL    HW285827  11.912   3.528   5.354
61935SOL     OW85828  12.898   1.997   4.247
61935SOL    HW185829  12.971   1.980   4.180
61935SOL    HW285830  12.867   1.910   4.285
61936SOL     OW85831  12.560   3.435   4.201
61936SOL    HW185832  12.627   3.447   4.127
61936SOL    HW285833  12.520   3.524   4.224
61937SOL     OW85834  11.302   3.656   5.575
61937SOL    HW185835  11.261   3.582   5.628
61937SOL    HW285836  11.366   3.707   5.633
61938SOL     OW85837  12.452   2.789   4.396
61938SOL    HW185838  12.512   2.708   4.398
61938SOL    HW285839  12.492   2.858   4.336
61939SOL     OW85840  12.002   3.135   5.146
61939SOL    HW185841  11.997   3.168   5.241
61939SOL    HW285842  11.916   3.154   5.100
61940SOL     OW85843  11.844   3.478   3.878
61940SOL    HW185844  11.853   3.488   3.779
61940SOL    HW285845  11.804   3.389   3.899
61941SOL     OW85846  11.435   2.188   4.444
61941SOL    HW185847  11.356   2.239   4.410
61941SOL    HW285848  11.426   2.173   4.542
61942SOL     OW85849  12.366   3.474   3.755
61942SOL    HW185850  12.372   3.381   3.792
61942SOL    HW285851  12.307   3.474   3.675
61943SOL     OW85852  11.994   2.864   5.096
61943SOL    HW185853  12.034   2.863   5.004
61943SOL    HW285854  12.004   2.956   5.136
61944SOL     OW85855  12.088   2.772   4.015
61944SOL    HW185856  12.151   2.810   3.947
61944SOL    HW285857  12.128   2.689   4.054
61945SOL     OW85858  12.676   3.469   3.768
61945SOL    HW185859  12.584   3.506   3.775
61945SOL    HW285860  12.714   3.489   3.678
61946SOL     OW85861  11.544   3.150   5.214
61946SOL    HW185862  11.531   3.243   5.180
61946SOL    HW285863  11.460   3.098   5.201
61947SOL     OW85864  12.211   2.960   4.420
61947SOL    HW185865  12.141   2.913   4.474
61947SOL    HW285866  12.270   2.892   4.377
61948SOL     OW85867  12.186   2.098   4.695
61948SOL    HW185868  12.178   2.062   4.602
61948SOL    HW285869  12.184   2.022   4.760
61949SOL     OW85870  11.762   3.349   4.215
61949SOL    HW185871  11.804   3.291   4.145
61949SOL    HW285872  11.718   3.428   4.171
61950SOL     OW85873  11.427   3.210   4.014
61950SOL    HW185874  11.331   3.211   3.987
61950SOL    HW285875  11.439   3.263   4.098
61951SOL     OW85876  11.277   2.875   5.450
61951SOL    HW185877  11.200   2.842   5.504
61951SOL    HW285878  11.362   2.845   5.492
61952SOL     OW85879  11.844   2.065   5.213
61952SOL    HW185880  11.934   2.049   5.173
61952SOL    HW285881  11.852   2.070   5.312
61953SOL     OW85882  11.247   2.207   3.757
61953SOL    HW185883  11.155   2.179   3.728
61953SOL    HW285884  11.278   2.284   3.701
61954SOL     OW85885  12.612   2.718   5.122
61954SOL    HW185886  12.555   2.770   5.059
61954SOL    HW285887  12.708   2.730   5.098
61955SOL     OW85888  11.244   2.028   4.042
61955SOL    HW185889  11.227   2.111   3.988
61955SOL    HW285890  11.334   1.991   4.020
61956SOL     OW85891  12.355   3.197   3.843
61956SOL    HW185892  12.256   3.186   3.845
61956SOL    HW285893  12.389   3.212   3.936
61957SOL     OW85894  11.785   2.704   5.155
61957SOL    HW185895  11.841   2.785   5.138
61957SOL    HW285896  11.844   2.624   5.158
61958SOL     OW85897  12.665   3.629   4.683
61958SOL    HW185898  12.698   3.693   4.614
61958SOL    HW285899  12.731   3.623   4.758
61959SOL     OW85900  11.888   2.427   5.432
61959SOL    HW185901  11.907   2.492   5.506
61959SOL    HW285902  11.948   2.347   5.441
61960SOL     OW85903  12.622   3.082   5.357
61960SOL    HW185904  12.613   3.072   5.456
61960SOL    HW285905  12.718   3.075   5.331
61961SOL     OW85906  11.562   3.603   5.284
61961SOL    HW185907  11.471   3.644   5.282
61961SOL    HW285908  11.555   3.509   5.316
61962SOL     OW85909  12.397   2.187   4.173
61962SOL    HW185910  12.462   2.113   4.162
61962SOL    HW285911  12.417   2.237   4.257
61963SOL     OW85912  11.766   2.607   4.376
61963SOL    HW185913  11.816   2.692   4.357
61963SOL    HW285914  11.678   2.609   4.328
61964SOL     OW85915  12.031   3.236   3.740
61964SOL    HW185916  11.985   3.251   3.828
61964SOL    HW285917  12.075   3.321   3.710
61965SOL     OW85918  11.833   3.652   4.677
61965SOL    HW185919  11.787   3.740   4.664
61965SOL    HW285920  11.932   3.664   4.670
61966SOL     OW85921  12.031   2.818   4.585
61966SOL    HW185922  12.085   2.749   4.633
61966SOL    HW285923  11.999   2.887   4.651
61967SOL     OW85924  12.255   2.846   3.811
61967SOL    HW185925  12.232   2.899   3.729
61967SOL    HW285926  12.336   2.790   3.792
61968SOL     OW85927  13.033   3.431   4.575
61968SOL    HW185928  12.962   3.419   4.505
61968SOL    HW285929  13.034   3.352   4.635
61969SOL     OW85930  11.393   3.176   5.568
61969SOL    HW185931  11.328   3.103   5.547
61969SOL    HW285932  11.397   3.190   5.666
61970SOL     OW85933  11.251   3.102   4.377
61970SOL    HW185934  11.250   3.055   4.465
61970SOL    HW285935  11.333   3.074   4.326
61971SOL     OW85936  11.844   3.253   5.348
61971SOL    HW185937  11.766   3.203   5.386
61971SOL    HW285938  11.841   3.348   5.379
61972SOL     OW85939  11.600   2.286   4.244
61972SOL    HW185940  11.630   2.214   4.182
61972SOL    HW285941  11.561   2.246   4.327
61973SOL     OW85942  11.489   2.409   5.004
61973SOL    HW185943  11.527   2.350   5.076
61973SOL    HW285944  11.529   2.383   4.916
61974SOL     OW85945  11.984   3.448   4.411
61974SOL    HW185946  12.016   3.458   4.317
61974SOL    HW285947  11.905   3.386   4.413
61975SOL     OW85948  12.596   2.076   4.836
61975SOL    HW185949  12.648   2.011   4.891
61975SOL    HW285950  12.547   2.139   4.897
61976SOL     OW85951  12.173   1.896   4.878
61976SOL    HW185952  12.110   1.824   4.847
61976SOL    HW285953  12.266   1.860   4.878
61977SOL     OW85954  11.942   3.192   4.025
61977SOL    HW185955  11.896   3.105   4.042
61977SOL    HW285956  12.033   3.189   4.066
61978SOL     OW85957  11.790   3.429   5.008
61978SOL    HW185958  11.785   3.511   5.065
61978SOL    HW285959  11.879   3.426   4.963
61979SOL     OW85960  12.524   1.914   3.892
61979SOL    HW185961  12.559   1.873   3.808
61979SOL    HW285962  12.434   1.876   3.912
61980SOL     OW85963  12.472   2.315   4.415
61980SOL    HW185964  12.413   2.395   4.419
61980SOL    HW285965  12.487   2.280   4.508
61981SOL     OW85966  12.765   2.083   4.606
61981SOL    HW185967  12.681   2.082   4.660
61981SOL    HW285968  12.767   2.166   4.550
61982SOL     OW85969  11.211   2.939   4.024
61982SOL    HW185970  11.310   2.928   4.015
61982SOL    HW285971  11.171   2.853   4.056
61983SOL     OW85972  12.047   3.508   4.061
61983SOL    HW185973  11.970   3.473   4.007
61983SOL    HW285974  12.015   3.579   4.123
61984SOL     OW85975  11.402   2.490   5.699
61984SOL    HW185976  11.309   2.488   5.736
61984SOL    HW285977  11.403   2.451   5.607
61985SOL     OW85978  11.397   2.137   6.582
61985SOL    HW185979  11.432   2.120   6.674
61985SOL    HW285980  11.309   2.092   6.570
61986SOL     OW85981  11.191   2.230   6.233
61986SOL    HW185982  11.109   2.273   6.272
61986SOL    HW285983  11.163   2.157   6.170
61987SOL     OW85984  11.741   3.137   6.751
61987SOL    HW185985  11.648   3.130   6.714
61987SOL    HW285986  11.752   3.226   6.795
61988SOL     OW85987  12.727   3.373   6.289
61988SOL    HW185988  12.670   3.357   6.370
61988SOL    HW285989  12.668   3.383   6.209
61989SOL     OW85990  12.307   2.565   6.303
61989SOL    HW185991  12.364   2.643   6.278
61989SOL    HW285992  12.247   2.591   6.379
61990SOL     OW85993  11.940   3.006   6.609
61990SOL    HW185994  11.862   3.023   6.669
61990SOL    HW285995  11.974   3.093   6.573
61991SOL     OW85996  12.022   2.660   7.409
61991SOL    HW185997  12.018   2.736   7.474
61991SOL    HW285998  12.044   2.696   7.318
61992SOL     OW85999  11.857   2.874   6.251
61992SOL    HW186000  11.926   2.858   6.321
61992SOL    HW286001  11.784   2.931   6.289
61993SOL     OW86002  11.858   3.023   7.389
61993SOL    HW186003  11.918   3.102   7.403
61993SOL    HW286004  11.772   3.054   7.348
61994SOL     OW86005  11.507   3.297   6.647
61994SOL    HW186006  11.429   3.266   6.594
61994SOL    HW286007  11.565   3.355   6.590
61995SOL     OW86008  12.632   3.367   6.925
61995SOL    HW186009  12.656   3.461   6.951
61995SOL    HW286010  12.616   3.313   7.007
61996SOL     OW86011  11.610   2.254   7.085
61996SOL    HW186012  11.692   2.198   7.094
61996SOL    HW286013  11.529   2.196   7.089
61997SOL     OW86014  11.403   3.575   6.069
61997SOL    HW186015  11.437   3.652   6.123
61997SOL    HW286016  11.447   3.575   5.979
61998SOL     OW86017  12.299   3.203   7.276
61998SOL    HW186018  12.346   3.203   7.364
61998SOL    HW286019  12.251   3.116   7.265
61999SOL     OW86020  11.402   3.296   6.124
61999SOL    HW186021  11.376   3.392   6.124
61999SOL    HW286022  11.331   3.242   6.169
62000SOL     OW86023  11.412   2.953   6.472
62000SOL    HW186024  11.426   2.869   6.524
62000SOL    HW286025  11.357   3.017   6.527
62001SOL     OW86026  11.792   3.648   7.025
62001SOL    HW186027  11.700   3.631   7.060
62001SOL    HW286028  11.820   3.740   7.051
62002SOL     OW86029  11.778   2.826   5.709
62002SOL    HW186030  11.785   2.910   5.655
62002SOL    HW286031  11.824   2.839   5.797
62003SOL     OW86032  12.766   1.976   7.066
62003SOL    HW186033  12.748   2.043   6.994
62003SOL    HW286034  12.763   2.022   7.155
62004SOL     OW86035  11.294   2.505   6.149
62004SOL    HW186036  11.249   2.417   6.166
62004SOL    HW286037  11.293   2.559   6.233
62005SOL     OW86038  11.199   3.458   5.703
62005SOL    HW186039  11.180   3.362   5.724
62005SOL    HW286040  11.166   3.516   5.778
62006SOL     OW86041  12.861   2.784   6.198
62006SOL    HW186042  12.956   2.755   6.206
62006SOL    HW286043  12.853   2.849   6.123
62007SOL     OW86044  11.285   2.599   7.183
62007SOL    HW186045  11.373   2.586   7.228
62007SOL    HW286046  11.272   2.696   7.161
62008SOL     OW86047  11.785   3.227   6.312
62008SOL    HW186048  11.736   3.140   6.321
62008SOL    HW286049  11.762   3.270   6.225
62009SOL     OW86050  12.465   3.090   7.009
62009SOL    HW186051  12.502   3.017   6.951
62009SOL    HW286052  12.517   3.095   7.094
62010SOL     OW86053  11.981   1.866   6.088
62010SOL    HW186054  12.021   1.957   6.079
62010SOL    HW286055  11.881   1.874   6.094
62011SOL     OW86056  11.369   2.838   6.850
62011SOL    HW186057  11.458   2.793   6.836
62011SOL    HW286058  11.296   2.773   6.831
62012SOL     OW86059  12.359   3.654   7.202
62012SOL    HW186060  12.383   3.714   7.126
62012SOL    HW286061  12.366   3.559   7.172
62013SOL     OW86062  11.489   2.113   7.387
62013SOL    HW186063  11.560   2.184   7.393
62013SOL    HW286064  11.401   2.152   7.415
62014SOL     OW86065  12.638   3.279   6.539
62014SOL    HW186066  12.579   3.285   6.619
62014SOL    HW286067  12.623   3.191   6.493
62015SOL     OW86068  12.839   3.576   6.158
62015SOL    HW186069  12.798   3.553   6.070
62015SOL    HW286070  12.821   3.502   6.223
62016SOL     OW86071  11.770   2.591   5.856
62016SOL    HW186072  11.794   2.660   5.788
62016SOL    HW286073  11.692   2.624   5.910
62017SOL     OW86074  12.453   2.207   6.530
62017SOL    HW186075  12.367   2.157   6.517
62017SOL    HW286076  12.515   2.153   6.586
62018SOL     OW86077  11.979   2.467   7.051
62018SOL    HW186078  11.932   2.464   7.140
62018SOL    HW286079  11.928   2.412   6.985
62019SOL     OW86080  12.566   2.331   7.260
62019SOL    HW186081  12.546   2.374   7.348
62019SOL    HW286082  12.644   2.269   7.269
62020SOL     OW86083  12.145   2.752   7.158
62020SOL    HW186084  12.191   2.668   7.129
62020SOL    HW286085  12.089   2.786   7.083
62021SOL     OW86086  12.163   2.272   6.828
62021SOL    HW186087  12.086   2.306   6.882
62021SOL    HW286088  12.129   2.221   6.749
62022SOL     OW86089  12.213   2.563   6.015
62022SOL    HW186090  12.239   2.559   6.111
62022SOL    HW286091  12.128   2.512   6.001
62023SOL     OW86092  11.248   2.673   6.375
62023SOL    HW186093  11.347   2.661   6.384
62023SOL    HW286094  11.224   2.768   6.396
62024SOL     OW86095  11.302   3.683   7.157
62024SOL    HW186096  11.292   3.668   7.256
62024SOL    HW286097  11.216   3.719   7.121
62025SOL     OW86098  12.037   2.210   5.781
62025SOL    HW186099  12.096   2.273   5.732
62025SOL    HW286100  12.056   2.116   5.752
62026SOL     OW86101  12.534   3.006   6.131
62026SOL    HW186102  12.617   2.977   6.083
62026SOL    HW286103  12.485   3.073   6.075
62027SOL     OW86104  11.722   2.058   6.471
62027SOL    HW186105  11.717   2.053   6.571
62027SOL    HW286106  11.724   2.154   6.442
62028SOL     OW86107  12.180   3.318   6.063
62028SOL    HW186108  12.134   3.390   6.011
62028SOL    HW286109  12.176   3.338   6.161
62029SOL     OW86110  11.523   3.663   6.439
62029SOL    HW186111  11.573   3.577   6.445
62029SOL    HW286112  11.588   3.740   6.436
62030SOL     OW86113  12.399   3.412   7.092
62030SOL    HW186114  12.405   3.335   7.156
62030SOL    HW286115  12.347   3.386   7.012
62031SOL     OW86116  11.493   2.805   5.828
62031SOL    HW186117  11.575   2.844   5.786
62031SOL    HW286118  11.466   2.723   5.779
62032SOL     OW86119  12.630   2.597   6.314
62032SOL    HW186120  12.625   2.532   6.389
62032SOL    HW286121  12.710   2.656   6.327
62033SOL     OW86122  11.633   3.128   7.313
62033SOL    HW186123  11.583   3.129   7.227
62033SOL    HW286124  11.570   3.110   7.389
62034SOL     OW86125  12.283   3.638   5.823
62034SOL    HW186126  12.223   3.576   5.873
62034SOL    HW286127  12.314   3.594   5.738
62035SOL     OW86128  11.374   2.147   7.084
62035SOL    HW186129  11.294   2.207   7.071
62035SOL    HW286130  11.364   2.098   7.170
62036SOL     OW86131  11.636   3.605   5.909
62036SOL    HW186132  11.669   3.644   5.995
62036SOL    HW286133  11.712   3.598   5.844
62037SOL     OW86134  12.572   1.969   6.012
62037SOL    HW186135  12.548   1.932   5.922
62037SOL    HW286136  12.671   1.985   6.016
62038SOL     OW86137  11.421   3.647   6.827
62038SOL    HW186138  11.478   3.582   6.877
62038SOL    HW286139  11.405   3.614   6.734
62039SOL     OW86140  12.112   3.560   6.490
62039SOL    HW186141  12.192   3.503   6.511
62039SOL    HW286142  12.063   3.520   6.413
62040SOL     OW86143  11.554   2.562   6.066
62040SOL    HW186144  11.599   2.472   6.063
62040SOL    HW286145  11.460   2.551   6.099
62041SOL     OW86146  11.786   1.984   5.703
62041SOL    HW186147  11.884   1.962   5.710
62041SOL    HW286148  11.755   1.967   5.610
62042SOL     OW86149  11.953   2.126   7.335
62042SOL    HW186150  12.020   2.065   7.378
62042SOL    HW286151  11.880   2.145   7.400
62043SOL     OW86152  12.060   3.376   6.781
62043SOL    HW186153  12.037   3.351   6.687
62043SOL    HW286154  12.121   3.307   6.820
62044SOL     OW86155  12.523   2.452   7.019
62044SOL    HW186156  12.551   2.409   7.104
62044SOL    HW286157  12.548   2.548   7.020
62045SOL     OW86158  11.975   3.264   6.510
62045SOL    HW186159  12.065   3.278   6.468
62045SOL    HW286160  11.904   3.266   6.439
62046SOL     OW86161  12.094   2.365   6.485
62046SOL    HW186162  12.069   2.356   6.389
62046SOL    HW286163  12.142   2.283   6.516
62047SOL     OW86164  11.711   1.926   6.098
62047SOL    HW186165  11.630   1.927   6.156
62047SOL    HW286166  11.714   2.009   6.043
62048SOL     OW86167  12.606   3.050   5.627
62048SOL    HW186168  12.638   2.974   5.684
62048SOL    HW286169  12.514   3.077   5.657
62049SOL     OW86170  11.469   1.897   5.757
62049SOL    HW186171  11.518   1.981   5.736
62049SOL    HW286172  11.531   1.832   5.802
62050SOL     OW86173  12.107   2.098   6.066
62050SOL    HW186174  12.059   2.139   5.988
62050SOL    HW286175  12.206   2.096   6.047
62051SOL     OW86176  12.248   2.545   7.050
62051SOL    HW186177  12.168   2.484   7.053
62051SOL    HW286178  12.329   2.492   7.026
62052SOL     OW86179  12.399   3.432   6.379
62052SOL    HW186180  12.420   3.506   6.314
62052SOL    HW286181  12.467   3.432   6.452
62053SOL     OW86182  11.631   3.014   6.327
62053SOL    HW186183  11.560   2.987   6.392
62053SOL    HW286184  11.605   2.986   6.234
62054SOL     OW86185  12.443   3.659   6.177
62054SOL    HW186186  12.487   3.723   6.113
62054SOL    HW286187  12.393   3.711   6.247
62055SOL     OW86188  12.204   2.411   5.602
62055SOL    HW186189  12.163   2.493   5.563
62055SOL    HW286190  12.268   2.437   5.675
62056SOL     OW86191  11.250   2.418   6.972
62056SOL    HW186192  11.342   2.417   6.931
62056SOL    HW286193  11.244   2.492   7.039
62057SOL     OW86194  11.733   2.084   6.733
62057SOL    HW186195  11.771   2.000   6.770
62057SOL    HW286196  11.645   2.103   6.777
62058SOL     OW86197  12.038   2.316   6.228
62058SOL    HW186198  12.006   2.388   6.166
62058SOL    HW286199  12.062   2.235   6.175
62059SOL     OW86200  12.189   1.901   6.339
62059SOL    HW186201  12.117   1.906   6.270
62059SOL    HW286202  12.165   1.832   6.408
62060SOL     OW86203  12.601   3.035   6.453
62060SOL    HW186204  12.546   2.951   6.446
62060SOL    HW286205  12.627   3.064   6.361
62061SOL     OW86206  12.638   2.452   6.578
62061SOL    HW186207  12.608   2.357   6.585
62061SOL    HW286208  12.711   2.468   6.644
62062SOL     OW86209  11.660   3.247   5.760
62062SOL    HW186210  11.573   3.232   5.807
62062SOL    HW286211  11.643   3.273   5.665
62063SOL     OW86212  12.562   2.437   5.664
62063SOL    HW186213  12.508   2.416   5.745
62063SOL    HW286214  12.653   2.396   5.673
62064SOL     OW86215  11.699   2.118   5.914
62064SOL    HW186216  11.726   2.059   5.839
62064SOL    HW286217  11.699   2.213   5.883
62065SOL     OW86218  12.236   3.209   6.926
62065SOL    HW186219  12.156   3.186   6.981
62065SOL    HW286220  12.319   3.183   6.975
62066SOL     OW86221  12.764   3.491   7.211
62066SOL    HW186222  12.791   3.525   7.121
62066SOL    HW286223  12.843   3.453   7.257
62067SOL     OW86224  12.283   3.057   6.686
62067SOL    HW186225  12.243   3.101   6.767
62067SOL    HW286226  12.242   3.094   6.603
62068SOL     OW86227  12.087   1.951   6.988
62068SOL    HW186228  12.112   1.931   6.893
62068SOL    HW286229  12.159   2.007   7.030
62069SOL     OW86230  12.152   2.978   7.305
62069SOL    HW186231  12.053   2.984   7.315
62069SOL    HW286232  12.175   2.898   7.249
62070SOL     OW86233  11.877   2.912   5.954
62070SOL    HW186234  11.863   2.919   6.053
62070SOL    HW286235  11.961   2.861   5.936
62071SOL     OW86236  11.582   2.675   6.837
62071SOL    HW186237  11.668   2.687   6.887
62071SOL    HW286238  11.540   2.588   6.864
62072SOL     OW86239  12.446   2.248   6.848
62072SOL    HW186240  12.467   2.322   6.912
62072SOL    HW286241  12.357   2.265   6.805
62073SOL     OW86242  11.236   3.426   6.917
62073SOL    HW186243  11.190   3.508   6.883
62073SOL    HW286244  11.334   3.445   6.926
62074SOL     OW86245  11.539   2.962   6.087
62074SOL    HW186246  11.532   3.045   6.031
62074SOL    HW286247  11.543   2.882   6.027
62075SOL     OW86248  11.738   2.399   6.451
62075SOL    HW186249  11.750   2.465   6.377
62075SOL    HW286250  11.784   2.433   6.534
62076SOL     OW86251  12.424   3.210   5.974
62076SOL    HW186252  12.474   3.287   6.014
62076SOL    HW286253  12.329   3.212   6.006
62077SOL     OW86254  12.444   3.307   6.728
62077SOL    HW186255  12.491   3.320   6.815
62077SOL    HW286256  12.378   3.233   6.737
62078SOL     OW86257  12.754   2.501   6.058
62078SOL    HW186258  12.723   2.562   6.131
62078SOL    HW286259  12.804   2.553   5.989
62079SOL     OW86260  11.526   3.372   6.915
62079SOL    HW186261  11.505   3.328   6.828
62079SOL    HW286262  11.623   3.398   6.918
62080SOL     OW86263  11.574   2.613   7.184
62080SOL    HW186264  11.642   2.668   7.137
62080SOL    HW286265  11.614   2.525   7.211
62081SOL     OW86266  12.185   1.967   7.356
62081SOL    HW186267  12.191   2.052   7.304
62081SOL    HW286268  12.217   1.891   7.299
62082SOL     OW86269  11.676   1.912   7.326
62082SOL    HW186270  11.634   1.855   7.256
62082SOL    HW286271  11.610   1.981   7.358
62083SOL     OW86272  11.745   2.732   6.615
62083SOL    HW186273  11.789   2.821   6.606
62083SOL    HW286274  11.682   2.732   6.692
62084SOL     OW86275  12.532   2.724   6.631
62084SOL    HW186276  12.457   2.724   6.565
62084SOL    HW286277  12.569   2.632   6.640
62085SOL     OW86278  12.381   2.387   5.861
62085SOL    HW186279  12.394   2.303   5.915
62085SOL    HW286280  12.352   2.461   5.921
62086SOL     OW86281  11.479   2.075   6.817
62086SOL    HW186282  11.456   2.112   6.907
62086SOL    HW286283  11.449   1.980   6.811
62087SOL     OW86284  11.209   3.172   6.868
62087SOL    HW186285  11.262   3.123   6.936
62087SOL    HW286286  11.231   3.270   6.873
62088SOL     OW86287  11.904   2.496   6.650
62088SOL    HW186288  11.963   2.470   6.574
62088SOL    HW286289  11.876   2.592   6.639
62089SOL     OW86290  11.479   1.925   6.204
62089SOL    HW186291  11.468   2.019   6.237
62089SOL    HW286292  11.474   1.862   6.281
62090SOL     OW86293  12.794   2.229   5.960
62090SOL    HW186294  12.796   2.153   6.024
62090SOL    HW286295  12.746   2.306   6.000
62091SOL     OW86296  12.195   2.628   6.552
62091SOL    HW186297  12.210   2.649   6.648
62091SOL    HW286298  12.165   2.533   6.543
62092SOL     OW86299  12.152   3.435   7.286
62092SOL    HW186300  12.132   3.479   7.198
62092SOL    HW286301  12.191   3.344   7.270
62093SOL     OW86302  11.522   2.760   7.390
62093SOL    HW186303  11.598   2.804   7.438
62093SOL    HW286304  11.557   2.713   7.308
62094SOL     OW86305  12.712   2.136   5.711
62094SOL    HW186306  12.651   2.061   5.734
62094SOL    HW286307  12.734   2.188   5.794
62095SOL     OW86308  12.475   2.700   5.628
62095SOL    HW186309  12.509   2.607   5.643
62095SOL    HW286310  12.493   2.727   5.533
62096SOL     OW86311  12.240   3.195   6.435
62096SOL    HW186312  12.247   3.111   6.380
62096SOL    HW286313  12.302   3.264   6.399
62097SOL     OW86314  11.491   2.672   6.535
62097SOL    HW186315  11.584   2.708   6.540
62097SOL    HW286316  11.485   2.587   6.587
62098SOL     OW86317  11.511   2.371   6.592
62098SOL    HW186318  11.459   2.288   6.575
62098SOL    HW286319  11.588   2.376   6.528
62099SOL     OW86320  12.310   2.242   7.264
62099SOL    HW186321  12.265   2.305   7.328
62099SOL    HW286322  12.403   2.273   7.247
62100SOL     OW86323  12.332   2.069   7.063
62100SOL    HW186324  12.332   2.133   7.140
62100SOL    HW286325  12.360   2.117   6.980
62101SOL     OW86326  11.180   3.188   5.786
62101SOL    HW186327  11.087   3.209   5.755
62101SOL    HW286328  11.190   3.089   5.799
62102SOL     OW86329  11.260   3.663   6.513
62102SOL    HW186330  11.218   3.577   6.486
62102SOL    HW286331  11.354   3.666   6.479
62103SOL     OW86332  11.676   3.430   6.496
62103SOL    HW186333  11.742   3.504   6.505
62103SOL    HW286334  11.720   3.351   6.454
62104SOL     OW86335  12.174   2.658   6.824
62104SOL    HW186336  12.215   2.626   6.910
62104SOL    HW286337  12.078   2.631   6.821
62105SOL     OW86338  11.212   2.406   6.700
62105SOL    HW186339  11.297   2.373   6.659
62105SOL    HW286340  11.225   2.421   6.798
62106SOL     OW86341  11.361   2.382   7.308
62106SOL    HW186342  11.420   2.342   7.238
62106SOL    HW286343  11.303   2.453   7.267
62107SOL     OW86344  12.541   2.812   7.246
62107SOL    HW186345  12.580   2.901   7.266
62107SOL    HW286346  12.551   2.792   7.149
62108SOL     OW86347  11.987   2.434   5.911
62108SOL    HW186348  11.994   2.345   5.865
62108SOL    HW286349  11.893   2.468   5.903
62109SOL     OW86350  11.424   3.426   7.330
62109SOL    HW186351  11.394   3.483   7.406
62109SOL    HW286352  11.417   3.329   7.356
62110SOL     OW86353  11.843   2.326   6.855
62110SOL    HW186354  11.809   2.237   6.825
62110SOL    HW286355  11.869   2.380   6.775
62111SOL     OW86356  12.102   3.540   7.051
62111SOL    HW186357  12.078   3.522   6.956
62111SOL    HW286358  12.132   3.634   7.061
62112SOL     OW86359  11.645   2.362   5.777
62112SOL    HW186360  11.706   2.442   5.781
62112SOL    HW286361  11.550   2.393   5.784
62113SOL     OW86362  11.331   2.999   7.052
62113SOL    HW186363  11.353   2.938   7.128
62113SOL    HW286364  11.341   2.950   6.966
62114SOL     OW86365  12.519   2.921   6.820
62114SOL    HW186366  12.543   2.858   6.746
62114SOL    HW286367  12.429   2.961   6.802
62115SOL     OW86368  12.474   2.717   5.895
62115SOL    HW186369  12.388   2.686   5.937
62115SOL    HW286370  12.470   2.703   5.796
62116SOL     OW86371  12.424   3.593   6.714
62116SOL    HW186372  12.508   3.598   6.660
62116SOL    HW286373  12.401   3.497   6.732
62117SOL     OW86374  11.255   3.120   6.608
62117SOL    HW186375  11.250   3.119   6.708
62117SOL    HW286376  11.172   3.079   6.570
62118SOL     OW86377  11.860   3.524   7.302
62118SOL    HW186378  11.804   3.605   7.311
62118SOL    HW286379  11.912   3.528   7.216
62119SOL     OW86380  12.898   1.997   6.109
62119SOL    HW186381  12.971   1.980   6.042
62119SOL    HW286382  12.867   1.910   6.147
62120SOL     OW86383  12.560   3.435   6.063
62120SOL    HW186384  12.627   3.447   5.989
62120SOL    HW286385  12.520   3.524   6.086
62121SOL     OW86386  11.302   3.656   7.437
62121SOL    HW186387  11.261   3.582   7.490
62121SOL    HW286388  11.366   3.707   7.495
62122SOL     OW86389  12.452   2.789   6.258
62122SOL    HW186390  12.512   2.708   6.260
62122SOL    HW286391  12.492   2.858   6.198
62123SOL     OW86392  12.002   3.135   7.008
62123SOL    HW186393  11.997   3.168   7.103
62123SOL    HW286394  11.916   3.154   6.962
62124SOL     OW86395  11.844   3.478   5.740
62124SOL    HW186396  11.853   3.488   5.641
62124SOL    HW286397  11.804   3.389   5.761
62125SOL     OW86398  11.435   2.188   6.306
62125SOL    HW186399  11.356   2.239   6.272
62125SOL    HW286400  11.426   2.173   6.404
62126SOL     OW86401  12.366   3.474   5.617
62126SOL    HW186402  12.372   3.381   5.654
62126SOL    HW286403  12.307   3.474   5.537
62127SOL     OW86404  11.994   2.864   6.958
62127SOL    HW186405  12.034   2.863   6.866
62127SOL    HW286406  12.004   2.956   6.998
62128SOL     OW86407  12.088   2.772   5.877
62128SOL    HW186408  12.151   2.810   5.809
62128SOL    HW286409  12.128   2.689   5.916
62129SOL     OW86410  12.676   3.469   5.630
62129SOL    HW186411  12.584   3.506   5.637
62129SOL    HW286412  12.714   3.489   5.540
62130SOL     OW86413  11.544   3.150   7.076
62130SOL    HW186414  11.531   3.243   7.042
62130SOL    HW286415  11.460   3.098   7.063
62131SOL     OW86416  12.211   2.960   6.282
62131SOL    HW186417  12.141   2.913   6.336
62131SOL    HW286418  12.270   2.892   6.239
62132SOL     OW86419  12.186   2.098   6.557
62132SOL    HW186420  12.178   2.062   6.464
62132SOL    HW286421  12.184   2.022   6.622
62133SOL     OW86422  11.762   3.349   6.077
62133SOL    HW186423  11.804   3.291   6.007
62133SOL    HW286424  11.718   3.428   6.033
62134SOL     OW86425  11.427   3.210   5.876
62134SOL    HW186426  11.331   3.211   5.849
62134SOL    HW286427  11.439   3.263   5.960
62135SOL     OW86428  11.277   2.875   7.312
62135SOL    HW186429  11.200   2.842   7.366
62135SOL    HW286430  11.362   2.845   7.354
62136SOL     OW86431  11.844   2.065   7.075
62136SOL    HW186432  11.934   2.049   7.035
62136SOL    HW286433  11.852   2.070   7.174
62137SOL     OW86434  11.247   2.207   5.619
62137SOL    HW186435  11.155   2.179   5.590
62137SOL    HW286436  11.278   2.284   5.563
62138SOL     OW86437  12.612   2.718   6.984
62138SOL    HW186438  12.555   2.770   6.921
62138SOL    HW286439  12.708   2.730   6.960
62139SOL     OW86440  11.244   2.028   5.904
62139SOL    HW186441  11.227   2.111   5.850
62139SOL    HW286442  11.334   1.991   5.882
62140SOL     OW86443  12.355   3.197   5.705
62140SOL    HW186444  12.256   3.186   5.707
62140SOL    HW286445  12.389   3.212   5.798
62141SOL     OW86446  11.785   2.704   7.017
62141SOL    HW186447  11.841   2.785   7.000
62141SOL    HW286448  11.844   2.624   7.020
62142SOL     OW86449  12.665   3.629   6.545
62142SOL    HW186450  12.698   3.693   6.476
62142SOL    HW286451  12.731   3.623   6.620
62143SOL     OW86452  11.888   2.427   7.294
62143SOL    HW186453  11.907   2.492   7.368
62143SOL    HW286454  11.948   2.347   7.303
62144SOL     OW86455  12.622   3.082   7.219
62144SOL    HW186456  12.613   3.072   7.318
62144SOL    HW286457  12.718   3.075   7.193
62145SOL     OW86458  11.562   3.603   7.146
62145SOL    HW186459  11.471   3.644   7.144
62145SOL    HW286460  11.555   3.509   7.178
62146SOL     OW86461  12.397   2.187   6.035
62146SOL    HW186462  12.462   2.113   6.024
62146SOL    HW286463  12.417   2.237   6.119
62147SOL     OW86464  11.766   2.607   6.238
62147SOL    HW186465  11.816   2.692   6.219
62147SOL    HW286466  11.678   2.609   6.190
62148SOL     OW86467  12.031   3.236   5.602
62148SOL    HW186468  11.985   3.251   5.690
62148SOL    HW286469  12.075   3.321   5.572
62149SOL     OW86470  11.833   3.652   6.539
62149SOL    HW186471  11.787   3.740   6.526
62149SOL    HW286472  11.932   3.664   6.532
62150SOL     OW86473  12.031   2.818   6.447
62150SOL    HW186474  12.085   2.749   6.495
62150SOL    HW286475  11.999   2.887   6.513
62151SOL     OW86476  12.255   2.846   5.673
62151SOL    HW186477  12.232   2.899   5.591
62151SOL    HW286478  12.336   2.790   5.654
62152SOL     OW86479  13.033   3.431   6.437
62152SOL    HW186480  12.962   3.419   6.367
62152SOL    HW286481  13.034   3.352   6.497
62153SOL     OW86482  11.393   3.176   7.430
62153SOL    HW186483  11.328   3.103   7.409
62153SOL    HW286484  11.397   3.190   7.528
62154SOL     OW86485  11.251   3.102   6.239
62154SOL    HW186486  11.250   3.055   6.327
62154SOL    HW286487  11.333   3.074   6.188
62155SOL     OW86488  11.844   3.253   7.210
62155SOL    HW186489  11.766   3.203   7.248
62155SOL    HW286490  11.841   3.348   7.241
62156SOL     OW86491  11.600   2.286   6.106
62156SOL    HW186492  11.630   2.214   6.044
62156SOL    HW286493  11.561   2.246   6.189
62157SOL     OW86494  11.489   2.409   6.866
62157SOL    HW186495  11.527   2.350   6.938
62157SOL    HW286496  11.529   2.383   6.778
62158SOL     OW86497  11.984   3.448   6.273
62158SOL    HW186498  12.016   3.458   6.179
62158SOL    HW286499  11.905   3.386   6.275
62159SOL     OW86500  12.596   2.076   6.698
62159SOL    HW186501  12.648   2.011   6.753
62159SOL    HW286502  12.547   2.139   6.759
62160SOL     OW86503  12.173   1.896   6.740
62160SOL    HW186504  12.110   1.824   6.709
62160SOL    HW286505  12.266   1.860   6.740
62161SOL     OW86506  11.942   3.192   5.887
62161SOL    HW186507  11.896   3.105   5.904
62161SOL    HW286508  12.033   3.189   5.928
62162SOL     OW86509  11.790   3.429   6.870
62162SOL    HW186510  11.785   3.511   6.927
62162SOL    HW286511  11.879   3.426   6.825
62163SOL     OW86512  12.524   1.914   5.754
62163SOL    HW186513  12.559   1.873   5.670
62163SOL    HW286514  12.434   1.876   5.774
62164SOL     OW86515  12.472   2.315   6.277
62164SOL    HW186516  12.413   2.395   6.281
62164SOL    HW286517  12.487   2.280   6.370
62165SOL     OW86518  12.765   2.083   6.468
62165SOL    HW186519  12.681   2.082   6.522
62165SOL    HW286520  12.767   2.166   6.412
62166SOL     OW86521  11.211   2.939   5.886
62166SOL    HW186522  11.310   2.928   5.877
62166SOL    HW286523  11.171   2.853   5.918
62167SOL     OW86524  12.047   3.508   5.923
62167SOL    HW186525  11.970   3.473   5.869
62167SOL    HW286526  12.015   3.579   5.985
62168SOL     OW86527  11.402   2.490   7.561
62168SOL    HW186528  11.309   2.488   7.598
62168SOL    HW286529  11.403   2.451   7.469
62169SOL     OW86530  11.397   2.137   8.444
62169SOL    HW186531  11.432   2.120   8.536
62169SOL    HW286532  11.309   2.092   8.432
62170SOL     OW86533  11.191   2.230   8.095
62170SOL    HW186534  11.109   2.273   8.134
62170SOL    HW286535  11.163   2.157   8.032
62171SOL     OW86536  11.741   3.137   8.613
62171SOL    HW186537  11.648   3.130   8.576
62171SOL    HW286538  11.752   3.226   8.657
62172SOL     OW86539  12.727   3.373   8.151
62172SOL    HW186540  12.670   3.357   8.232
62172SOL    HW286541  12.668   3.383   8.071
62173SOL     OW86542  12.307   2.565   8.165
62173SOL    HW186543  12.364   2.643   8.140
62173SOL    HW286544  12.247   2.591   8.241
62174SOL     OW86545  11.940   3.006   8.471
62174SOL    HW186546  11.862   3.023   8.531
62174SOL    HW286547  11.974   3.093   8.435
62175SOL     OW86548  12.022   2.660   9.271
62175SOL    HW186549  12.018   2.736   9.336
62175SOL    HW286550  12.044   2.696   9.180
62176SOL     OW86551  11.857   2.874   8.113
62176SOL    HW186552  11.926   2.858   8.183
62176SOL    HW286553  11.784   2.931   8.151
62177SOL     OW86554  11.858   3.023   9.251
62177SOL    HW186555  11.918   3.102   9.265
62177SOL    HW286556  11.772   3.054   9.210
62178SOL     OW86557  11.507   3.297   8.509
62178SOL    HW186558  11.429   3.266   8.456
62178SOL    HW286559  11.565   3.355   8.452
62179SOL     OW86560  12.632   3.367   8.787
62179SOL    HW186561  12.656   3.461   8.813
62179SOL    HW286562  12.616   3.313   8.869
62180SOL     OW86563  11.610   2.254   8.947
62180SOL    HW186564  11.692   2.198   8.956
62180SOL    HW286565  11.529   2.196   8.951
62181SOL     OW86566  11.403   3.575   7.931
62181SOL    HW186567  11.437   3.652   7.985
62181SOL    HW286568  11.447   3.575   7.841
62182SOL     OW86569  12.299   3.203   9.138
62182SOL    HW186570  12.346   3.203   9.226
62182SOL    HW286571  12.251   3.116   9.127
62183SOL     OW86572  11.402   3.296   7.986
62183SOL    HW186573  11.376   3.392   7.986
62183SOL    HW286574  11.331   3.242   8.031
62184SOL     OW86575  11.412   2.953   8.334
62184SOL    HW186576  11.426   2.869   8.386
62184SOL    HW286577  11.357   3.017   8.389
62185SOL     OW86578  11.792   3.648   8.887
62185SOL    HW186579  11.700   3.631   8.922
62185SOL    HW286580  11.820   3.740   8.913
62186SOL     OW86581  11.778   2.826   7.571
62186SOL    HW186582  11.785   2.910   7.517
62186SOL    HW286583  11.824   2.839   7.659
62187SOL     OW86584  12.766   1.976   8.928
62187SOL    HW186585  12.748   2.043   8.856
62187SOL    HW286586  12.763   2.022   9.017
62188SOL     OW86587  11.294   2.505   8.011
62188SOL    HW186588  11.249   2.417   8.028
62188SOL    HW286589  11.293   2.559   8.095
62189SOL     OW86590  11.199   3.458   7.565
62189SOL    HW186591  11.180   3.362   7.586
62189SOL    HW286592  11.166   3.516   7.640
62190SOL     OW86593  12.861   2.784   8.060
62190SOL    HW186594  12.956   2.755   8.068
62190SOL    HW286595  12.853   2.849   7.985
62191SOL     OW86596  11.285   2.599   9.045
62191SOL    HW186597  11.373   2.586   9.090
62191SOL    HW286598  11.272   2.696   9.023
62192SOL     OW86599  11.785   3.227   8.174
62192SOL    HW186600  11.736   3.140   8.183
62192SOL    HW286601  11.762   3.270   8.087
62193SOL     OW86602  12.465   3.090   8.871
62193SOL    HW186603  12.502   3.017   8.813
62193SOL    HW286604  12.517   3.095   8.956
62194SOL     OW86605  11.981   1.866   7.950
62194SOL    HW186606  12.021   1.957   7.941
62194SOL    HW286607  11.881   1.874   7.956
62195SOL     OW86608  11.369   2.838   8.712
62195SOL    HW186609  11.458   2.793   8.698
62195SOL    HW286610  11.296   2.773   8.693
62196SOL     OW86611  12.359   3.654   9.064
62196SOL    HW186612  12.383   3.714   8.988
62196SOL    HW286613  12.366   3.559   9.034
62197SOL     OW86614  11.489   2.113   9.249
62197SOL    HW186615  11.560   2.184   9.255
62197SOL    HW286616  11.401   2.152   9.277
62198SOL     OW86617  12.638   3.279   8.401
62198SOL    HW186618  12.579   3.285   8.481
62198SOL    HW286619  12.623   3.191   8.355
62199SOL     OW86620  12.839   3.576   8.020
62199SOL    HW186621  12.798   3.553   7.932
62199SOL    HW286622  12.821   3.502   8.085
62200SOL     OW86623  11.770   2.591   7.718
62200SOL    HW186624  11.794   2.660   7.650
62200SOL    HW286625  11.692   2.624   7.772
62201SOL     OW86626  12.453   2.207   8.392
62201SOL    HW186627  12.367   2.157   8.379
62201SOL    HW286628  12.515   2.153   8.448
62202SOL     OW86629  11.979   2.467   8.913
62202SOL    HW186630  11.932   2.464   9.002
62202SOL    HW286631  11.928   2.412   8.847
62203SOL     OW86632  12.566   2.331   9.122
62203SOL    HW186633  12.546   2.374   9.210
62203SOL    HW286634  12.644   2.269   9.131
62204SOL     OW86635  12.145   2.752   9.020
62204SOL    HW186636  12.191   2.668   8.991
62204SOL    HW286637  12.089   2.786   8.945
62205SOL     OW86638  12.163   2.272   8.690
62205SOL    HW186639  12.086   2.306   8.744
62205SOL    HW286640  12.129   2.221   8.611
62206SOL     OW86641  12.213   2.563   7.877
62206SOL    HW186642  12.239   2.559   7.973
62206SOL    HW286643  12.128   2.512   7.863
62207SOL     OW86644  11.248   2.673   8.237
62207SOL    HW186645  11.347   2.661   8.246
62207SOL    HW286646  11.224   2.768   8.258
62208SOL     OW86647  11.302   3.683   9.019
62208SOL    HW186648  11.292   3.668   9.118
62208SOL    HW286649  11.216   3.719   8.983
62209SOL     OW86650  12.037   2.210   7.643
62209SOL    HW186651  12.096   2.273   7.594
62209SOL    HW286652  12.056   2.116   7.614
62210SOL     OW86653  12.534   3.006   7.993
62210SOL    HW186654  12.617   2.977   7.945
62210SOL    HW286655  12.485   3.073   7.937
62211SOL     OW86656  11.722   2.058   8.333
62211SOL    HW186657  11.717   2.053   8.433
62211SOL    HW286658  11.724   2.154   8.304
62212SOL     OW86659  12.180   3.318   7.925
62212SOL    HW186660  12.134   3.390   7.873
62212SOL    HW286661  12.176   3.338   8.023
62213SOL     OW86662  11.523   3.663   8.301
62213SOL    HW186663  11.573   3.577   8.307
62213SOL    HW286664  11.588   3.740   8.298
62214SOL     OW86665  12.399   3.412   8.954
62214SOL    HW186666  12.405   3.335   9.018
62214SOL    HW286667  12.347   3.386   8.874
62215SOL     OW86668  11.493   2.805   7.690
62215SOL    HW186669  11.575   2.844   7.648
62215SOL    HW286670  11.466   2.723   7.641
62216SOL     OW86671  12.630   2.597   8.176
62216SOL    HW186672  12.625   2.532   8.251
62216SOL    HW286673  12.710   2.656   8.189
62217SOL     OW86674  11.633   3.128   9.175
62217SOL    HW186675  11.583   3.129   9.089
62217SOL    HW286676  11.570   3.110   9.251
62218SOL     OW86677  12.283   3.638   7.685
62218SOL    HW186678  12.223   3.576   7.735
62218SOL    HW286679  12.314   3.594   7.600
62219SOL     OW86680  11.374   2.147   8.946
62219SOL    HW186681  11.294   2.207   8.933
62219SOL    HW286682  11.364   2.098   9.032
62220SOL     OW86683  11.636   3.605   7.771
62220SOL    HW186684  11.669   3.644   7.857
62220SOL    HW286685  11.712   3.598   7.706
62221SOL     OW86686  12.572   1.969   7.874
62221SOL    HW186687  12.548   1.932   7.784
62221SOL    HW286688  12.671   1.985   7.878
62222SOL     OW86689  11.421   3.647   8.689
62222SOL    HW186690  11.478   3.582   8.739
62222SOL    HW286691  11.405   3.614   8.596
62223SOL     OW86692  12.112   3.560   8.352
62223SOL    HW186693  12.192   3.503   8.373
62223SOL    HW286694  12.063   3.520   8.275
62224SOL     OW86695  11.554   2.562   7.928
62224SOL    HW186696  11.599   2.472   7.925
62224SOL    HW286697  11.460   2.551   7.961
62225SOL     OW86698  11.786   1.984   7.565
62225SOL    HW186699  11.884   1.962   7.572
62225SOL    HW286700  11.755   1.967   7.472
62226SOL     OW86701  11.953   2.126   9.197
62226SOL    HW186702  12.020   2.065   9.240
62226SOL    HW286703  11.880   2.145   9.262
62227SOL     OW86704  12.060   3.376   8.643
62227SOL    HW186705  12.037   3.351   8.549
62227SOL    HW286706  12.121   3.307   8.682
62228SOL     OW86707  12.523   2.452   8.881
62228SOL    HW186708  12.551   2.409   8.966
62228SOL    HW286709  12.548   2.548   8.882
62229SOL     OW86710  11.975   3.264   8.372
62229SOL    HW186711  12.065   3.278   8.330
62229SOL    HW286712  11.904   3.266   8.301
62230SOL     OW86713  12.094   2.365   8.347
62230SOL    HW186714  12.069   2.356   8.251
62230SOL    HW286715  12.142   2.283   8.378
62231SOL     OW86716  11.711   1.926   7.960
62231SOL    HW186717  11.630   1.927   8.018
62231SOL    HW286718  11.714   2.009   7.905
62232SOL     OW86719  12.606   3.050   7.489
62232SOL    HW186720  12.638   2.974   7.546
62232SOL    HW286721  12.514   3.077   7.519
62233SOL     OW86722  11.469   1.897   7.619
62233SOL    HW186723  11.518   1.981   7.598
62233SOL    HW286724  11.531   1.832   7.664
62234SOL     OW86725  12.107   2.098   7.928
62234SOL    HW186726  12.059   2.139   7.850
62234SOL    HW286727  12.206   2.096   7.909
62235SOL     OW86728  12.248   2.545   8.912
62235SOL    HW186729  12.168   2.484   8.915
62235SOL    HW286730  12.329   2.492   8.888
62236SOL     OW86731  12.399   3.432   8.241
62236SOL    HW186732  12.420   3.506   8.176
62236SOL    HW286733  12.467   3.432   8.314
62237SOL     OW86734  11.631   3.014   8.189
62237SOL    HW186735  11.560   2.987   8.254
62237SOL    HW286736  11.605   2.986   8.096
62238SOL     OW86737  12.443   3.659   8.039
62238SOL    HW186738  12.487   3.723   7.975
62238SOL    HW286739  12.393   3.711   8.109
62239SOL     OW86740  12.204   2.411   7.464
62239SOL    HW186741  12.163   2.493   7.425
62239SOL    HW286742  12.268   2.437   7.537
62240SOL     OW86743  11.250   2.418   8.834
62240SOL    HW186744  11.342   2.417   8.793
62240SOL    HW286745  11.244   2.492   8.901
62241SOL     OW86746  11.733   2.084   8.595
62241SOL    HW186747  11.771   2.000   8.632
62241SOL    HW286748  11.645   2.103   8.639
62242SOL     OW86749  12.038   2.316   8.090
62242SOL    HW186750  12.006   2.388   8.028
62242SOL    HW286751  12.062   2.235   8.037
62243SOL     OW86752  12.189   1.901   8.201
62243SOL    HW186753  12.117   1.906   8.132
62243SOL    HW286754  12.165   1.832   8.270
62244SOL     OW86755  12.601   3.035   8.315
62244SOL    HW186756  12.546   2.951   8.308
62244SOL    HW286757  12.627   3.064   8.223
62245SOL     OW86758  12.638   2.452   8.440
62245SOL    HW186759  12.608   2.357   8.447
62245SOL    HW286760  12.711   2.468   8.506
62246SOL     OW86761  11.660   3.247   7.622
62246SOL    HW186762  11.573   3.232   7.669
62246SOL    HW286763  11.643   3.273   7.527
62247SOL     OW86764  12.562   2.437   7.526
62247SOL    HW186765  12.508   2.416   7.607
62247SOL    HW286766  12.653   2.396   7.535
62248SOL     OW86767  11.699   2.118   7.776
62248SOL    HW186768  11.726   2.059   7.701
62248SOL    HW286769  11.699   2.213   7.745
62249SOL     OW86770  12.236   3.209   8.788
62249SOL    HW186771  12.156   3.186   8.843
62249SOL    HW286772  12.319   3.183   8.837
62250SOL     OW86773  12.764   3.491   9.073
62250SOL    HW186774  12.791   3.525   8.983
62250SOL    HW286775  12.843   3.453   9.119
62251SOL     OW86776  12.283   3.057   8.548
62251SOL    HW186777  12.243   3.101   8.629
62251SOL    HW286778  12.242   3.094   8.465
62252SOL     OW86779  12.087   1.951   8.850
62252SOL    HW186780  12.112   1.931   8.755
62252SOL    HW286781  12.159   2.007   8.892
62253SOL     OW86782  12.152   2.978   9.167
62253SOL    HW186783  12.053   2.984   9.177
62253SOL    HW286784  12.175   2.898   9.111
62254SOL     OW86785  11.877   2.912   7.816
62254SOL    HW186786  11.863   2.919   7.915
62254SOL    HW286787  11.961   2.861   7.798
62255SOL     OW86788  11.582   2.675   8.699
62255SOL    HW186789  11.668   2.687   8.749
62255SOL    HW286790  11.540   2.588   8.726
62256SOL     OW86791  12.446   2.248   8.710
62256SOL    HW186792  12.467   2.322   8.774
62256SOL    HW286793  12.357   2.265   8.667
62257SOL     OW86794  11.236   3.426   8.779
62257SOL    HW186795  11.190   3.508   8.745
62257SOL    HW286796  11.334   3.445   8.788
62258SOL     OW86797  11.539   2.962   7.949
62258SOL    HW186798  11.532   3.045   7.893
62258SOL    HW286799  11.543   2.882   7.889
62259SOL     OW86800  11.738   2.399   8.313
62259SOL    HW186801  11.750   2.465   8.239
62259SOL    HW286802  11.784   2.433   8.396
62260SOL     OW86803  12.424   3.210   7.836
62260SOL    HW186804  12.474   3.287   7.876
62260SOL    HW286805  12.329   3.212   7.868
62261SOL     OW86806  12.444   3.307   8.590
62261SOL    HW186807  12.491   3.320   8.677
62261SOL    HW286808  12.378   3.233   8.599
62262SOL     OW86809  12.754   2.501   7.920
62262SOL    HW186810  12.723   2.562   7.993
62262SOL    HW286811  12.804   2.553   7.851
62263SOL     OW86812  11.526   3.372   8.777
62263SOL    HW186813  11.505   3.328   8.690
62263SOL    HW286814  11.623   3.398   8.780
62264SOL     OW86815  11.574   2.613   9.046
62264SOL    HW186816  11.642   2.668   8.999
62264SOL    HW286817  11.614   2.525   9.073
62265SOL     OW86818  12.185   1.967   9.218
62265SOL    HW186819  12.191   2.052   9.166
62265SOL    HW286820  12.217   1.891   9.161
62266SOL     OW86821  11.676   1.912   9.188
62266SOL    HW186822  11.634   1.855   9.118
62266SOL    HW286823  11.610   1.981   9.220
62267SOL     OW86824  11.745   2.732   8.477
62267SOL    HW186825  11.789   2.821   8.468
62267SOL    HW286826  11.682   2.732   8.554
62268SOL     OW86827  12.532   2.724   8.493
62268SOL    HW186828  12.457   2.724   8.427
62268SOL    HW286829  12.569   2.632   8.502
62269SOL     OW86830  12.381   2.387   7.723
62269SOL    HW186831  12.394   2.303   7.777
62269SOL    HW286832  12.352   2.461   7.783
62270SOL     OW86833  11.479   2.075   8.679
62270SOL    HW186834  11.456   2.112   8.769
62270SOL    HW286835  11.449   1.980   8.673
62271SOL     OW86836  11.209   3.172   8.730
62271SOL    HW186837  11.262   3.123   8.798
62271SOL    HW286838  11.231   3.270   8.735
62272SOL     OW86839  11.904   2.496   8.512
62272SOL    HW186840  11.963   2.470   8.436
62272SOL    HW286841  11.876   2.592   8.501
62273SOL     OW86842  11.479   1.925   8.066
62273SOL    HW186843  11.468   2.019   8.099
62273SOL    HW286844  11.474   1.862   8.143
62274SOL     OW86845  12.794   2.229   7.822
62274SOL    HW186846  12.796   2.153   7.886
62274SOL    HW286847  12.746   2.306   7.862
62275SOL     OW86848  12.195   2.628   8.414
62275SOL    HW186849  12.210   2.649   8.510
62275SOL    HW286850  12.165   2.533   8.405
62276SOL     OW86851  12.152   3.435   9.148
62276SOL    HW186852  12.132   3.479   9.060
62276SOL    HW286853  12.191   3.344   9.132
62277SOL     OW86854  11.522   2.760   9.252
62277SOL    HW186855  11.598   2.804   9.300
62277SOL    HW286856  11.557   2.713   9.170
62278SOL     OW86857  12.712   2.136   7.573
62278SOL    HW186858  12.651   2.061   7.596
62278SOL    HW286859  12.734   2.188   7.656
62279SOL     OW86860  12.475   2.700   7.490
62279SOL    HW186861  12.509   2.607   7.505
62279SOL    HW286862  12.493   2.727   7.395
62280SOL     OW86863  12.240   3.195   8.297
62280SOL    HW186864  12.247   3.111   8.242
62280SOL    HW286865  12.302   3.264   8.261
62281SOL     OW86866  11.491   2.672   8.397
62281SOL    HW186867  11.584   2.708   8.402
62281SOL    HW286868  11.485   2.587   8.449
62282SOL     OW86869  11.511   2.371   8.454
62282SOL    HW186870  11.459   2.288   8.437
62282SOL    HW286871  11.588   2.376   8.390
62283SOL     OW86872  12.310   2.242   9.126
62283SOL    HW186873  12.265   2.305   9.190
62283SOL    HW286874  12.403   2.273   9.109
62284SOL     OW86875  12.332   2.069   8.925
62284SOL    HW186876  12.332   2.133   9.002
62284SOL    HW286877  12.360   2.117   8.842
62285SOL     OW86878  11.180   3.188   7.648
62285SOL    HW186879  11.087   3.209   7.617
62285SOL    HW286880  11.190   3.089   7.661
62286SOL     OW86881  11.260   3.663   8.375
62286SOL    HW186882  11.218   3.577   8.348
62286SOL    HW286883  11.354   3.666   8.341
62287SOL     OW86884  11.676   3.430   8.358
62287SOL    HW186885  11.742   3.504   8.367
62287SOL    HW286886  11.720   3.351   8.316
62288SOL     OW86887  12.174   2.658   8.686
62288SOL    HW186888  12.215   2.626   8.772
62288SOL    HW286889  12.078   2.631   8.683
62289SOL     OW86890  11.212   2.406   8.562
62289SOL    HW186891  11.297   2.373   8.521
62289SOL    HW286892  11.225   2.421   8.660
62290SOL     OW86893  11.361   2.382   9.170
62290SOL    HW186894  11.420   2.342   9.100
62290SOL    HW286895  11.303   2.453   9.129
62291SOL     OW86896  12.541   2.812   9.108
62291SOL    HW186897  12.580   2.901   9.128
62291SOL    HW286898  12.551   2.792   9.011
62292SOL     OW86899  11.987   2.434   7.773
62292SOL    HW186900  11.994   2.345   7.727
62292SOL    HW286901  11.893   2.468   7.765
62293SOL     OW86902  11.424   3.426   9.192
62293SOL    HW186903  11.394   3.483   9.268
62293SOL    HW286904  11.417   3.329   9.218
62294SOL     OW86905  11.843   2.326   8.717
62294SOL    HW186906  11.809   2.237   8.687
62294SOL    HW286907  11.869   2.380   8.637
62295SOL     OW86908  12.102   3.540   8.913
62295SOL    HW186909  12.078   3.522   8.818
62295SOL    HW286910  12.132   3.634   8.923
62296SOL     OW86911  11.645   2.362   7.639
62296SOL    HW186912  11.706   2.442   7.643
62296SOL    HW286913  11.550   2.393   7.646
62297SOL     OW86914  11.331   2.999   8.914
62297SOL    HW186915  11.353   2.938   8.990
62297SOL    HW286916  11.341   2.950   8.828
62298SOL     OW86917  12.519   2.921   8.682
62298SOL    HW186918  12.543   2.858   8.608
62298SOL    HW286919  12.429   2.961   8.664
62299SOL     OW86920  12.474   2.717   7.757
62299SOL    HW186921  12.388   2.686   7.799
62299SOL    HW286922  12.470   2.703   7.658
62300SOL     OW86923  12.424   3.593   8.576
62300SOL    HW186924  12.508   3.598   8.522
62300SOL    HW286925  12.401   3.497   8.594
62301SOL     OW86926  11.255   3.120   8.470
62301SOL    HW186927  11.250   3.119   8.570
62301SOL    HW286928  11.172   3.079   8.432
62302SOL     OW86929  11.860   3.524   9.164
62302SOL    HW186930  11.804   3.605   9.173
62302SOL    HW286931  11.912   3.528   9.078
62303SOL     OW86932  12.898   1.997   7.971
62303SOL    HW186933  12.971   1.980   7.904
62303SOL    HW286934  12.867   1.910   8.009
62304SOL     OW86935  12.560   3.435   7.925
62304SOL    HW186936  12.627   3.447   7.851
62304SOL    HW286937  12.520   3.524   7.948
62305SOL     OW86938  11.302   3.656   9.299
62305SOL    HW186939  11.261   3.582   9.352
62305SOL    HW286940  11.366   3.707   9.357
62306SOL     OW86941  12.452   2.789   8.120
62306SOL    HW186942  12.512   2.708   8.122
62306SOL    HW286943  12.492   2.858   8.060
62307SOL     OW86944  12.002   3.135   8.870
62307SOL    HW186945  11.997   3.168   8.965
62307SOL    HW286946  11.916   3.154   8.824
62308SOL     OW86947  11.844   3.478   7.602
62308SOL    HW186948  11.853   3.488   7.503
62308SOL    HW286949  11.804   3.389   7.623
62309SOL     OW86950  11.435   2.188   8.168
62309SOL    HW186951  11.356   2.239   8.134
62309SOL    HW286952  11.426   2.173   8.266
62310SOL     OW86953  12.366   3.474   7.479
62310SOL    HW186954  12.372   3.381   7.516
62310SOL    HW286955  12.307   3.474   7.399
62311SOL     OW86956  11.994   2.864   8.820
62311SOL    HW186957  12.034   2.863   8.728
62311SOL    HW286958  12.004   2.956   8.860
62312SOL     OW86959  12.088   2.772   7.739
62312SOL    HW186960  12.151   2.810   7.671
62312SOL    HW286961  12.128   2.689   7.778
62313SOL     OW86962  12.676   3.469   7.492
62313SOL    HW186963  12.584   3.506   7.499
62313SOL    HW286964  12.714   3.489   7.402
62314SOL     OW86965  11.544   3.150   8.938
62314SOL    HW186966  11.531   3.243   8.904
62314SOL    HW286967  11.460   3.098   8.925
62315SOL     OW86968  12.211   2.960   8.144
62315SOL    HW186969  12.141   2.913   8.198
62315SOL    HW286970  12.270   2.892   8.101
62316SOL     OW86971  12.186   2.098   8.419
62316SOL    HW186972  12.178   2.062   8.326
62316SOL    HW286973  12.184   2.022   8.484
62317SOL     OW86974  11.762   3.349   7.939
62317SOL    HW186975  11.804   3.291   7.869
62317SOL    HW286976  11.718   3.428   7.895
62318SOL     OW86977  11.427   3.210   7.738
62318SOL    HW186978  11.331   3.211   7.711
62318SOL    HW286979  11.439   3.263   7.822
62319SOL     OW86980  11.277   2.875   9.174
62319SOL    HW186981  11.200   2.842   9.228
62319SOL    HW286982  11.362   2.845   9.216
62320SOL     OW86983  11.844   2.065   8.937
62320SOL    HW186984  11.934   2.049   8.897
62320SOL    HW286985  11.852   2.070   9.036
62321SOL     OW86986  11.247   2.207   7.481
62321SOL    HW186987  11.155   2.179   7.452
62321SOL    HW286988  11.278   2.284   7.425
62322SOL     OW86989  12.612   2.718   8.846
62322SOL    HW186990  12.555   2.770   8.783
62322SOL    HW286991  12.708   2.730   8.822
62323SOL     OW86992  11.244   2.028   7.766
62323SOL    HW186993  11.227   2.111   7.712
62323SOL    HW286994  11.334   1.991   7.744
62324SOL     OW86995  12.355   3.197   7.567
62324SOL    HW186996  12.256   3.186   7.569
62324SOL    HW286997  12.389   3.212   7.660
62325SOL     OW86998  11.785   2.704   8.879
62325SOL    HW186999  11.841   2.785   8.862
62325SOL    HW287000  11.844   2.624   8.882
62326SOL     OW87001  12.665   3.629   8.407
62326SOL    HW187002  12.698   3.693   8.338
62326SOL    HW287003  12.731   3.623   8.482
62327SOL     OW87004  11.888   2.427   9.156
62327SOL    HW187005  11.907   2.492   9.230
62327SOL    HW287006  11.948   2.347   9.165
62328SOL     OW87007  12.622   3.082   9.081
62328SOL    HW187008  12.613   3.072   9.180
62328SOL    HW287009  12.718   3.075   9.055
62329SOL     OW87010  11.562   3.603   9.008
62329SOL    HW187011  11.471   3.644   9.006
62329SOL    HW287012  11.555   3.509   9.040
62330SOL     OW87013  12.397   2.187   7.897
62330SOL    HW187014  12.462   2.113   7.886
62330SOL    HW287015  12.417   2.237   7.981
62331SOL     OW87016  11.766   2.607   8.100
62331SOL    HW187017  11.816   2.692   8.081
62331SOL    HW287018  11.678   2.609   8.052
62332SOL     OW87019  12.031   3.236   7.464
62332SOL    HW187020  11.985   3.251   7.552
62332SOL    HW287021  12.075   3.321   7.434
62333SOL     OW87022  11.833   3.652   8.401
62333SOL    HW187023  11.787   3.740   8.388
62333SOL    HW287024  11.932   3.664   8.394
62334SOL     OW87025  12.031   2.818   8.309
62334SOL    HW187026  12.085   2.749   8.357
62334SOL    HW287027  11.999   2.887   8.375
62335SOL     OW87028  12.255   2.846   7.535
62335SOL    HW187029  12.232   2.899   7.453
62335SOL    HW287030  12.336   2.790   7.516
62336SOL     OW87031  13.033   3.431   8.299
62336SOL    HW187032  12.962   3.419   8.229
62336SOL    HW287033  13.034   3.352   8.359
62337SOL     OW87034  11.393   3.176   9.292
62337SOL    HW187035  11.328   3.103   9.271
62337SOL    HW287036  11.397   3.190   9.390
62338SOL     OW87037  11.251   3.102   8.101
62338SOL    HW187038  11.250   3.055   8.189
62338SOL    HW287039  11.333   3.074   8.050
62339SOL     OW87040  11.844   3.253   9.072
62339SOL    HW187041  11.766   3.203   9.110
62339SOL    HW287042  11.841   3.348   9.103
62340SOL     OW87043  11.600   2.286   7.968
62340SOL    HW187044  11.630   2.214   7.906
62340SOL    HW287045  11.561   2.246   8.051
62341SOL     OW87046  11.489   2.409   8.728
62341SOL    HW187047  11.527   2.350   8.800
62341SOL    HW287048  11.529   2.383   8.640
62342SOL     OW87049  11.984   3.448   8.135
62342SOL    HW187050  12.016   3.458   8.041
62342SOL    HW287051  11.905   3.386   8.137
62343SOL     OW87052  12.596   2.076   8.560
62343SOL    HW187053  12.648   2.011   8.615
62343SOL    HW287054  12.547   2.139   8.621
62344SOL     OW87055  12.173   1.896   8.602
62344SOL    HW187056  12.110   1.824   8.571
62344SOL    HW287057  12.266   1.860   8.602
62345SOL     OW87058  11.942   3.192   7.749
62345SOL    HW187059  11.896   3.105   7.766
62345SOL    HW287060  12.033   3.189   7.790
62346SOL     OW87061  11.790   3.429   8.732
62346SOL    HW187062  11.785   3.511   8.789
62346SOL    HW287063  11.879   3.426   8.687
62347SOL     OW87064  12.524   1.914   7.616
62347SOL    HW187065  12.559   1.873   7.532
62347SOL    HW287066  12.434   1.876   7.636
62348SOL     OW87067  12.472   2.315   8.139
62348SOL    HW187068  12.413   2.395   8.143
62348SOL    HW287069  12.487   2.280   8.232
62349SOL     OW87070  12.765   2.083   8.330
62349SOL    HW187071  12.681   2.082   8.384
62349SOL    HW287072  12.767   2.166   8.274
62350SOL     OW87073  11.211   2.939   7.748
62350SOL    HW187074  11.310   2.928   7.739
62350SOL    HW287075  11.171   2.853   7.780
62351SOL     OW87076  12.047   3.508   7.785
62351SOL    HW187077  11.970   3.473   7.731
62351SOL    HW287078  12.015   3.579   7.847
62352SOL     OW87079  11.402   2.490   9.423
62352SOL    HW187080  11.309   2.488   9.460
62352SOL    HW287081  11.403   2.451   9.331
62353SOL     OW87082  11.397   2.137  10.306
62353SOL    HW187083  11.432   2.120  10.398
62353SOL    HW287084  11.309   2.092  10.294
62354SOL     OW87085  11.191   2.230   9.957
62354SOL    HW187086  11.109   2.273   9.996
62354SOL    HW287087  11.163   2.157   9.894
62355SOL     OW87088  11.741   3.137  10.475
62355SOL    HW187089  11.648   3.130  10.438
62355SOL    HW287090  11.752   3.226  10.519
62356SOL     OW87091  12.727   3.373  10.013
62356SOL    HW187092  12.670   3.357  10.094
62356SOL    HW287093  12.668   3.383   9.933
62357SOL     OW87094  12.307   2.565  10.027
62357SOL    HW187095  12.364   2.643  10.002
62357SOL    HW287096  12.247   2.591  10.103
62358SOL     OW87097  11.940   3.006  10.333
62358SOL    HW187098  11.862   3.023  10.393
62358SOL    HW287099  11.974   3.093  10.297
62359SOL     OW87100  12.022   2.660  11.133
62359SOL    HW187101  12.018   2.736  11.198
62359SOL    HW287102  12.044   2.696  11.042
62360SOL     OW87103  11.857   2.874   9.975
62360SOL    HW187104  11.926   2.858  10.045
62360SOL    HW287105  11.784   2.931  10.013
62361SOL     OW87106  11.858   3.023  11.113
62361SOL    HW187107  11.918   3.102  11.127
62361SOL    HW287108  11.772   3.054  11.072
62362SOL     OW87109  11.507   3.297  10.371
62362SOL    HW187110  11.429   3.266  10.318
62362SOL    HW287111  11.565   3.355  10.314
62363SOL     OW87112  12.632   3.367  10.649
62363SOL    HW187113  12.656   3.461  10.675
62363SOL    HW287114  12.616   3.313  10.731
62364SOL     OW87115  11.610   2.254  10.809
62364SOL    HW187116  11.692   2.198  10.818
62364SOL    HW287117  11.529   2.196  10.813
62365SOL     OW87118  11.403   3.575   9.793
62365SOL    HW187119  11.437   3.652   9.847
62365SOL    HW287120  11.447   3.575   9.703
62366SOL     OW87121  12.299   3.203  11.000
62366SOL    HW187122  12.346   3.203  11.088
62366SOL    HW287123  12.251   3.116  10.989
62367SOL     OW87124  11.402   3.296   9.848
62367SOL    HW187125  11.376   3.392   9.848
62367SOL    HW287126  11.331   3.242   9.893
62368SOL     OW87127  11.412   2.953  10.196
62368SOL    HW187128  11.426   2.869  10.248
62368SOL    HW287129  11.357   3.017  10.251
62369SOL     OW87130  11.792   3.648  10.749
62369SOL    HW187131  11.700   3.631  10.784
62369SOL    HW287132  11.820   3.740  10.775
62370SOL     OW87133  11.778   2.826   9.433
62370SOL    HW187134  11.785   2.910   9.379
62370SOL    HW287135  11.824   2.839   9.521
62371SOL     OW87136  12.766   1.976  10.790
62371SOL    HW187137  12.748   2.043  10.718
62371SOL    HW287138  12.763   2.022  10.879
62372SOL     OW87139  11.294   2.505   9.873
62372SOL    HW187140  11.249   2.417   9.890
62372SOL    HW287141  11.293   2.559   9.957
62373SOL     OW87142  11.199   3.458   9.427
62373SOL    HW187143  11.180   3.362   9.448
62373SOL    HW287144  11.166   3.516   9.502
62374SOL     OW87145  12.861   2.784   9.922
62374SOL    HW187146  12.956   2.755   9.930
62374SOL    HW287147  12.853   2.849   9.847
62375SOL     OW87148  11.285   2.599  10.907
62375SOL    HW187149  11.373   2.586  10.952
62375SOL    HW287150  11.272   2.696  10.885
62376SOL     OW87151  11.785   3.227  10.036
62376SOL    HW187152  11.736   3.140  10.045
62376SOL    HW287153  11.762   3.270   9.949
62377SOL     OW87154  12.465   3.090  10.733
62377SOL    HW187155  12.502   3.017  10.675
62377SOL    HW287156  12.517   3.095  10.818
62378SOL     OW87157  11.981   1.866   9.812
62378SOL    HW187158  12.021   1.957   9.803
62378SOL    HW287159  11.881   1.874   9.818
62379SOL     OW87160  11.369   2.838  10.574
62379SOL    HW187161  11.458   2.793  10.560
62379SOL    HW287162  11.296   2.773  10.555
62380SOL     OW87163  12.359   3.654  10.926
62380SOL    HW187164  12.383   3.714  10.850
62380SOL    HW287165  12.366   3.559  10.896
62381SOL     OW87166  11.489   2.113  11.111
62381SOL    HW187167  11.560   2.184  11.117
62381SOL    HW287168  11.401   2.152  11.139
62382SOL     OW87169  12.638   3.279  10.263
62382SOL    HW187170  12.579   3.285  10.343
62382SOL    HW287171  12.623   3.191  10.217
62383SOL     OW87172  12.839   3.576   9.882
62383SOL    HW187173  12.798   3.553   9.794
62383SOL    HW287174  12.821   3.502   9.947
62384SOL     OW87175  11.770   2.591   9.580
62384SOL    HW187176  11.794   2.660   9.512
62384SOL    HW287177  11.692   2.624   9.634
62385SOL     OW87178  12.453   2.207  10.254
62385SOL    HW187179  12.367   2.157  10.241
62385SOL    HW287180  12.515   2.153  10.310
62386SOL     OW87181  11.979   2.467  10.775
62386SOL    HW187182  11.932   2.464  10.864
62386SOL    HW287183  11.928   2.412  10.709
62387SOL     OW87184  12.566   2.331  10.984
62387SOL    HW187185  12.546   2.374  11.072
62387SOL    HW287186  12.644   2.269  10.993
62388SOL     OW87187  12.145   2.752  10.882
62388SOL    HW187188  12.191   2.668  10.853
62388SOL    HW287189  12.089   2.786  10.807
62389SOL     OW87190  12.163   2.272  10.552
62389SOL    HW187191  12.086   2.306  10.606
62389SOL    HW287192  12.129   2.221  10.473
62390SOL     OW87193  12.213   2.563   9.739
62390SOL    HW187194  12.239   2.559   9.835
62390SOL    HW287195  12.128   2.512   9.725
62391SOL     OW87196  11.248   2.673  10.099
62391SOL    HW187197  11.347   2.661  10.108
62391SOL    HW287198  11.224   2.768  10.120
62392SOL     OW87199  11.302   3.683  10.881
62392SOL    HW187200  11.292   3.668  10.980
62392SOL    HW287201  11.216   3.719  10.845
62393SOL     OW87202  12.037   2.210   9.505
62393SOL    HW187203  12.096   2.273   9.456
62393SOL    HW287204  12.056   2.116   9.476
62394SOL     OW87205  12.534   3.006   9.855
62394SOL    HW187206  12.617   2.977   9.807
62394SOL    HW287207  12.485   3.073   9.799
62395SOL     OW87208  11.722   2.058  10.195
62395SOL    HW187209  11.717   2.053  10.295
62395SOL    HW287210  11.724   2.154  10.166
62396SOL     OW87211  12.180   3.318   9.787
62396SOL    HW187212  12.134   3.390   9.735
62396SOL    HW287213  12.176   3.338   9.885
62397SOL     OW87214  11.523   3.663  10.163
62397SOL    HW187215  11.573   3.577  10.169
62397SOL    HW287216  11.588   3.740  10.160
62398SOL     OW87217  12.399   3.412  10.816
62398SOL    HW187218  12.405   3.335  10.880
62398SOL    HW287219  12.347   3.386  10.736
62399SOL     OW87220  11.493   2.805   9.552
62399SOL    HW187221  11.575   2.844   9.510
62399SOL    HW287222  11.466   2.723   9.503
62400SOL     OW87223  12.630   2.597  10.038
62400SOL    HW187224  12.625   2.532  10.113
62400SOL    HW287225  12.710   2.656  10.051
62401SOL     OW87226  11.633   3.128  11.037
62401SOL    HW187227  11.583   3.129  10.951
62401SOL    HW287228  11.570   3.110  11.113
62402SOL     OW87229  12.283   3.638   9.547
62402SOL    HW187230  12.223   3.576   9.597
62402SOL    HW287231  12.314   3.594   9.462
62403SOL     OW87232  11.374   2.147  10.808
62403SOL    HW187233  11.294   2.207  10.795
62403SOL    HW287234  11.364   2.098  10.894
62404SOL     OW87235  11.636   3.605   9.633
62404SOL    HW187236  11.669   3.644   9.719
62404SOL    HW287237  11.712   3.598   9.568
62405SOL     OW87238  12.572   1.969   9.736
62405SOL    HW187239  12.548   1.932   9.646
62405SOL    HW287240  12.671   1.985   9.740
62406SOL     OW87241  11.421   3.647  10.551
62406SOL    HW187242  11.478   3.582  10.601
62406SOL    HW287243  11.405   3.614  10.458
62407SOL     OW87244  12.112   3.560  10.214
62407SOL    HW187245  12.192   3.503  10.235
62407SOL    HW287246  12.063   3.520  10.137
62408SOL     OW87247  11.554   2.562   9.790
62408SOL    HW187248  11.599   2.472   9.787
62408SOL    HW287249  11.460   2.551   9.823
62409SOL     OW87250  11.786   1.984   9.427
62409SOL    HW187251  11.884   1.962   9.434
62409SOL    HW287252  11.755   1.967   9.334
62410SOL     OW87253  11.953   2.126  11.059
62410SOL    HW187254  12.020   2.065  11.102
62410SOL    HW287255  11.880   2.145  11.124
62411SOL     OW87256  12.060   3.376  10.505
62411SOL    HW187257  12.037   3.351  10.411
62411SOL    HW287258  12.121   3.307  10.544
62412SOL     OW87259  12.523   2.452  10.743
62412SOL    HW187260  12.551   2.409  10.828
62412SOL    HW287261  12.548   2.548  10.744
62413SOL     OW87262  11.975   3.264  10.234
62413SOL    HW187263  12.065   3.278  10.192
62413SOL    HW287264  11.904   3.266  10.163
62414SOL     OW87265  12.094   2.365  10.209
62414SOL    HW187266  12.069   2.356  10.113
62414SOL    HW287267  12.142   2.283  10.240
62415SOL     OW87268  11.711   1.926   9.822
62415SOL    HW187269  11.630   1.927   9.880
62415SOL    HW287270  11.714   2.009   9.767
62416SOL     OW87271  12.606   3.050   9.351
62416SOL    HW187272  12.638   2.974   9.408
62416SOL    HW287273  12.514   3.077   9.381
62417SOL     OW87274  11.469   1.897   9.481
62417SOL    HW187275  11.518   1.981   9.460
62417SOL    HW287276  11.531   1.832   9.526
62418SOL     OW87277  12.107   2.098   9.790
62418SOL    HW187278  12.059   2.139   9.712
62418SOL    HW287279  12.206   2.096   9.771
62419SOL     OW87280  12.248   2.545  10.774
62419SOL    HW187281  12.168   2.484  10.777
62419SOL    HW287282  12.329   2.492  10.750
62420SOL     OW87283  12.399   3.432  10.103
62420SOL    HW187284  12.420   3.506  10.038
62420SOL    HW287285  12.467   3.432  10.176
62421SOL     OW87286  11.631   3.014  10.051
62421SOL    HW187287  11.560   2.987  10.116
62421SOL    HW287288  11.605   2.986   9.958
62422SOL     OW87289  12.443   3.659   9.901
62422SOL    HW187290  12.487   3.723   9.837
62422SOL    HW287291  12.393   3.711   9.971
62423SOL     OW87292  12.204   2.411   9.326
62423SOL    HW187293  12.163   2.493   9.287
62423SOL    HW287294  12.268   2.437   9.399
62424SOL     OW87295  11.250   2.418  10.696
62424SOL    HW187296  11.342   2.417  10.655
62424SOL    HW287297  11.244   2.492  10.763
62425SOL     OW87298  11.733   2.084  10.457
62425SOL    HW187299  11.771   2.000  10.494
62425SOL    HW287300  11.645   2.103  10.501
62426SOL     OW87301  12.038   2.316   9.952
62426SOL    HW187302  12.006   2.388   9.890
62426SOL    HW287303  12.062   2.235   9.899
62427SOL     OW87304  12.189   1.901  10.063
62427SOL    HW187305  12.117   1.906   9.994
62427SOL    HW287306  12.165   1.832  10.132
62428SOL     OW87307  12.601   3.035  10.177
62428SOL    HW187308  12.546   2.951  10.170
62428SOL    HW287309  12.627   3.064  10.085
62429SOL     OW87310  12.638   2.452  10.302
62429SOL    HW187311  12.608   2.357  10.309
62429SOL    HW287312  12.711   2.468  10.368
62430SOL     OW87313  11.660   3.247   9.484
62430SOL    HW187314  11.573   3.232   9.531
62430SOL    HW287315  11.643   3.273   9.389
62431SOL     OW87316  12.562   2.437   9.388
62431SOL    HW187317  12.508   2.416   9.469
62431SOL    HW287318  12.653   2.396   9.397
62432SOL     OW87319  11.699   2.118   9.638
62432SOL    HW187320  11.726   2.059   9.563
62432SOL    HW287321  11.699   2.213   9.607
62433SOL     OW87322  12.236   3.209  10.650
62433SOL    HW187323  12.156   3.186  10.705
62433SOL    HW287324  12.319   3.183  10.699
62434SOL     OW87325  12.764   3.491  10.935
62434SOL    HW187326  12.791   3.525  10.845
62434SOL    HW287327  12.843   3.453  10.981
62435SOL     OW87328  12.283   3.057  10.410
62435SOL    HW187329  12.243   3.101  10.491
62435SOL    HW287330  12.242   3.094  10.327
62436SOL     OW87331  12.087   1.951  10.712
62436SOL    HW187332  12.112   1.931  10.617
62436SOL    HW287333  12.159   2.007  10.754
62437SOL     OW87334  12.152   2.978  11.029
62437SOL    HW187335  12.053   2.984  11.039
62437SOL    HW287336  12.175   2.898  10.973
62438SOL     OW87337  11.877   2.912   9.678
62438SOL    HW187338  11.863   2.919   9.777
62438SOL    HW287339  11.961   2.861   9.660
62439SOL     OW87340  11.582   2.675  10.561
62439SOL    HW187341  11.668   2.687  10.611
62439SOL    HW287342  11.540   2.588  10.588
62440SOL     OW87343  12.446   2.248  10.572
62440SOL    HW187344  12.467   2.322  10.636
62440SOL    HW287345  12.357   2.265  10.529
62441SOL     OW87346  11.236   3.426  10.641
62441SOL    HW187347  11.190   3.508  10.607
62441SOL    HW287348  11.334   3.445  10.650
62442SOL     OW87349  11.539   2.962   9.811
62442SOL    HW187350  11.532   3.045   9.755
62442SOL    HW287351  11.543   2.882   9.751
62443SOL     OW87352  11.738   2.399  10.175
62443SOL    HW187353  11.750   2.465  10.101
62443SOL    HW287354  11.784   2.433  10.258
62444SOL     OW87355  12.424   3.210   9.698
62444SOL    HW187356  12.474   3.287   9.738
62444SOL    HW287357  12.329   3.212   9.730
62445SOL     OW87358  12.444   3.307  10.452
62445SOL    HW187359  12.491   3.320  10.539
62445SOL    HW287360  12.378   3.233  10.461
62446SOL     OW87361  12.754   2.501   9.782
62446SOL    HW187362  12.723   2.562   9.855
62446SOL    HW287363  12.804   2.553   9.713
62447SOL     OW87364  11.526   3.372  10.639
62447SOL    HW187365  11.505   3.328  10.552
62447SOL    HW287366  11.623   3.398  10.642
62448SOL     OW87367  11.574   2.613  10.908
62448SOL    HW187368  11.642   2.668  10.861
62448SOL    HW287369  11.614   2.525  10.935
62449SOL     OW87370  12.185   1.967  11.080
62449SOL    HW187371  12.191   2.052  11.028
62449SOL    HW287372  12.217   1.891  11.023
62450SOL     OW87373  11.676   1.912  11.050
62450SOL    HW187374  11.634   1.855  10.980
62450SOL    HW287375  11.610   1.981  11.082
62451SOL     OW87376  11.745   2.732  10.339
62451SOL    HW187377  11.789   2.821  10.330
62451SOL    HW287378  11.682   2.732  10.416
62452SOL     OW87379  12.532   2.724  10.355
62452SOL    HW187380  12.457   2.724  10.289
62452SOL    HW287381  12.569   2.632  10.364
62453SOL     OW87382  12.381   2.387   9.585
62453SOL    HW187383  12.394   2.303   9.639
62453SOL    HW287384  12.352   2.461   9.645
62454SOL     OW87385  11.479   2.075  10.541
62454SOL    HW187386  11.456   2.112  10.631
62454SOL    HW287387  11.449   1.980  10.535
62455SOL     OW87388  11.209   3.172  10.592
62455SOL    HW187389  11.262   3.123  10.660
62455SOL    HW287390  11.231   3.270  10.597
62456SOL     OW87391  11.904   2.496  10.374
62456SOL    HW187392  11.963   2.470  10.298
62456SOL    HW287393  11.876   2.592  10.363
62457SOL     OW87394  11.479   1.925   9.928
62457SOL    HW187395  11.468   2.019   9.961
62457SOL    HW287396  11.474   1.862  10.005
62458SOL     OW87397  12.794   2.229   9.684
62458SOL    HW187398  12.796   2.153   9.748
62458SOL    HW287399  12.746   2.306   9.724
62459SOL     OW87400  12.195   2.628  10.276
62459SOL    HW187401  12.210   2.649  10.372
62459SOL    HW287402  12.165   2.533  10.267
62460SOL     OW87403  12.152   3.435  11.010
62460SOL    HW187404  12.132   3.479  10.922
62460SOL    HW287405  12.191   3.344  10.994
62461SOL     OW87406  11.522   2.760  11.114
62461SOL    HW187407  11.598   2.804  11.162
62461SOL    HW287408  11.557   2.713  11.032
62462SOL     OW87409  12.712   2.136   9.435
62462SOL    HW187410  12.651   2.061   9.458
62462SOL    HW287411  12.734   2.188   9.518
62463SOL     OW87412  12.475   2.700   9.352
62463SOL    HW187413  12.509   2.607   9.367
62463SOL    HW287414  12.493   2.727   9.257
62464SOL     OW87415  12.240   3.195  10.159
62464SOL    HW187416  12.247   3.111  10.104
62464SOL    HW287417  12.302   3.264  10.123
62465SOL     OW87418  11.491   2.672  10.259
62465SOL    HW187419  11.584   2.708  10.264
62465SOL    HW287420  11.485   2.587  10.311
62466SOL     OW87421  11.511   2.371  10.316
62466SOL    HW187422  11.459   2.288  10.299
62466SOL    HW287423  11.588   2.376  10.252
62467SOL     OW87424  12.310   2.242  10.988
62467SOL    HW187425  12.265   2.305  11.052
62467SOL    HW287426  12.403   2.273  10.971
62468SOL     OW87427  12.332   2.069  10.787
62468SOL    HW187428  12.332   2.133  10.864
62468SOL    HW287429  12.360   2.117  10.704
62469SOL     OW87430  11.180   3.188   9.510
62469SOL    HW187431  11.087   3.209   9.479
62469SOL    HW287432  11.190   3.089   9.523
62470SOL     OW87433  11.260   3.663  10.237
62470SOL    HW187434  11.218   3.577  10.210
62470SOL    HW287435  11.354   3.666  10.203
62471SOL     OW87436  11.676   3.430  10.220
62471SOL    HW187437  11.742   3.504  10.229
62471SOL    HW287438  11.720   3.351  10.178
62472SOL     OW87439  12.174   2.658  10.548
62472SOL    HW187440  12.215   2.626  10.634
62472SOL    HW287441  12.078   2.631  10.545
62473SOL     OW87442  11.212   2.406  10.424
62473SOL    HW187443  11.297   2.373  10.383
62473SOL    HW287444  11.225   2.421  10.522
62474SOL     OW87445  11.361   2.382  11.032
62474SOL    HW187446  11.420   2.342  10.962
62474SOL    HW287447  11.303   2.453  10.991
62475SOL     OW87448  12.541   2.812  10.970
62475SOL    HW187449  12.580   2.901  10.990
62475SOL    HW287450  12.551   2.792  10.873
62476SOL     OW87451  11.987   2.434   9.635
62476SOL    HW187452  11.994   2.345   9.589
62476SOL    HW287453  11.893   2.468   9.627
62477SOL     OW87454  11.424   3.426  11.054
62477SOL    HW187455  11.394   3.483  11.130
62477SOL    HW287456  11.417   3.329  11.080
62478SOL     OW87457  11.843   2.326  10.579
62478SOL    HW187458  11.809   2.237  10.549
62478SOL    HW287459  11.869   2.380  10.499
62479SOL     OW87460  12.102   3.540  10.775
62479SOL    HW187461  12.078   3.522  10.680
62479SOL    HW287462  12.132   3.634  10.785
62480SOL     OW87463  11.645   2.362   9.501
62480SOL    HW187464  11.706   2.442   9.505
62480SOL    HW287465  11.550   2.393   9.508
62481SOL     OW87466  11.331   2.999  10.776
62481SOL    HW187467  11.353   2.938  10.852
62481SOL    HW287468  11.341   2.950  10.690
62482SOL     OW87469  12.519   2.921  10.544
62482SOL    HW187470  12.543   2.858  10.470
62482SOL    HW287471  12.429   2.961  10.526
62483SOL     OW87472  12.474   2.717   9.619
62483SOL    HW187473  12.388   2.686   9.661
62483SOL    HW287474  12.470   2.703   9.520
62484SOL     OW87475  12.424   3.593  10.438
62484SOL    HW187476  12.508   3.598  10.384
62484SOL    HW287477  12.401   3.497  10.456
62485SOL     OW87478  11.255   3.120  10.332
62485SOL    HW187479  11.250   3.119  10.432
62485SOL    HW287480  11.172   3.079  10.294
62486SOL     OW87481  11.860   3.524  11.026
62486SOL    HW187482  11.804   3.605  11.035
62486SOL    HW287483  11.912   3.528  10.940
62487SOL     OW87484  12.898   1.997   9.833
62487SOL    HW187485  12.971   1.980   9.766
62487SOL    HW287486  12.867   1.910   9.871
62488SOL     OW87487  12.560   3.435   9.787
62488SOL    HW187488  12.627   3.447   9.713
62488SOL    HW287489  12.520   3.524   9.810
62489SOL     OW87490  11.302   3.656  11.161
62489SOL    HW187491  11.261   3.582  11.214
62489SOL    HW287492  11.366   3.707  11.219
62490SOL     OW87493  12.452   2.789   9.982
62490SOL    HW187494  12.512   2.708   9.984
62490SOL    HW287495  12.492   2.858   9.922
62491SOL     OW87496  12.002   3.135  10.732
62491SOL    HW187497  11.997   3.168  10.827
62491SOL    HW287498  11.916   3.154  10.686
62492SOL     OW87499  11.844   3.478   9.464
62492SOL    HW187500  11.853   3.488   9.365
62492SOL    HW287501  11.804   3.389   9.485
62493SOL     OW87502  11.435   2.188  10.030
62493SOL    HW187503  11.356   2.239   9.996
62493SOL    HW287504  11.426   2.173  10.128
62494SOL     OW87505  12.366   3.474   9.341
62494SOL    HW187506  12.372   3.381   9.378
62494SOL    HW287507  12.307   3.474   9.261
62495SOL     OW87508  11.994   2.864  10.682
62495SOL    HW187509  12.034   2.863  10.590
62495SOL    HW287510  12.004   2.956  10.722
62496SOL     OW87511  12.088   2.772   9.601
62496SOL    HW187512  12.151   2.810   9.533
62496SOL    HW287513  12.128   2.689   9.640
62497SOL     OW87514  12.676   3.469   9.354
62497SOL    HW187515  12.584   3.506   9.361
62497SOL    HW287516  12.714   3.489   9.264
62498SOL     OW87517  11.544   3.150  10.800
62498SOL    HW187518  11.531   3.243  10.766
62498SOL    HW287519  11.460   3.098  10.787
62499SOL     OW87520  12.211   2.960  10.006
62499SOL    HW187521  12.141   2.913  10.060
62499SOL    HW287522  12.270   2.892   9.963
62500SOL     OW87523  12.186   2.098  10.281
62500SOL    HW187524  12.178   2.062  10.188
62500SOL    HW287525  12.184   2.022  10.346
62501SOL     OW87526  11.762   3.349   9.801
62501SOL    HW187527  11.804   3.291   9.731
62501SOL    HW287528  11.718   3.428   9.757
62502SOL     OW87529  11.427   3.210   9.600
62502SOL    HW187530  11.331   3.211   9.573
62502SOL    HW287531  11.439   3.263   9.684
62503SOL     OW87532  11.277   2.875  11.036
62503SOL    HW187533  11.200   2.842  11.090
62503SOL    HW287534  11.362   2.845  11.078
62504SOL     OW87535  11.844   2.065  10.799
62504SOL    HW187536  11.934   2.049  10.759
62504SOL    HW287537  11.852   2.070  10.898
62505SOL     OW87538  11.247   2.207   9.343
62505SOL    HW187539  11.155   2.179   9.314
62505SOL    HW287540  11.278   2.284   9.287
62506SOL     OW87541  12.612   2.718  10.708
62506SOL    HW187542  12.555   2.770  10.645
62506SOL    HW287543  12.708   2.730  10.684
62507SOL     OW87544  11.244   2.028   9.628
62507SOL    HW187545  11.227   2.111   9.574
62507SOL    HW287546  11.334   1.991   9.606
62508SOL     OW87547  12.355   3.197   9.429
62508SOL    HW187548  12.256   3.186   9.431
62508SOL    HW287549  12.389   3.212   9.522
62509SOL     OW87550  11.785   2.704  10.741
62509SOL    HW187551  11.841   2.785  10.724
62509SOL    HW287552  11.844   2.624  10.744
62510SOL     OW87553  12.665   3.629  10.269
62510SOL    HW187554  12.698   3.693  10.200
62510SOL    HW287555  12.731   3.623  10.344
62511SOL     OW87556  11.888   2.427  11.018
62511SOL    HW187557  11.907   2.492  11.092
62511SOL    HW287558  11.948   2.347  11.027
62512SOL     OW87559  12.622   3.082  10.943
62512SOL    HW187560  12.613   3.072  11.042
62512SOL    HW287561  12.718   3.075  10.917
62513SOL     OW87562  11.562   3.603  10.870
62513SOL    HW187563  11.471   3.644  10.868
62513SOL    HW287564  11.555   3.509  10.902
62514SOL     OW87565  12.397   2.187   9.759
62514SOL    HW187566  12.462   2.113   9.748
62514SOL    HW287567  12.417   2.237   9.843
62515SOL     OW87568  11.766   2.607   9.962
62515SOL    HW187569  11.816   2.692   9.943
62515SOL    HW287570  11.678   2.609   9.914
62516SOL     OW87571  12.031   3.236   9.326
62516SOL    HW187572  11.985   3.251   9.414
62516SOL    HW287573  12.075   3.321   9.296
62517SOL     OW87574  11.833   3.652  10.263
62517SOL    HW187575  11.787   3.740  10.250
62517SOL    HW287576  11.932   3.664  10.256
62518SOL     OW87577  12.031   2.818  10.171
62518SOL    HW187578  12.085   2.749  10.219
62518SOL    HW287579  11.999   2.887  10.237
62519SOL     OW87580  12.255   2.846   9.397
62519SOL    HW187581  12.232   2.899   9.315
62519SOL    HW287582  12.336   2.790   9.378
62520SOL     OW87583  13.033   3.431  10.161
62520SOL    HW187584  12.962   3.419  10.091
62520SOL    HW287585  13.034   3.352  10.221
62521SOL     OW87586  11.393   3.176  11.154
62521SOL    HW187587  11.328   3.103  11.133
62521SOL    HW287588  11.397   3.190  11.252
62522SOL     OW87589  11.251   3.102   9.963
62522SOL    HW187590  11.250   3.055  10.051
62522SOL    HW287591  11.333   3.074   9.912
62523SOL     OW87592  11.844   3.253  10.934
62523SOL    HW187593  11.766   3.203  10.972
62523SOL    HW287594  11.841   3.348  10.965
62524SOL     OW87595  11.600   2.286   9.830
62524SOL    HW187596  11.630   2.214   9.768
62524SOL    HW287597  11.561   2.246   9.913
62525SOL     OW87598  11.489   2.409  10.590
62525SOL    HW187599  11.527   2.350  10.662
62525SOL    HW287600  11.529   2.383  10.502
62526SOL     OW87601  11.984   3.448   9.997
62526SOL    HW187602  12.016   3.458   9.903
62526SOL    HW287603  11.905   3.386   9.999
62527SOL     OW87604  12.596   2.076  10.422
62527SOL    HW187605  12.648   2.011  10.477
62527SOL    HW287606  12.547   2.139  10.483
62528SOL     OW87607  12.173   1.896  10.464
62528SOL    HW187608  12.110   1.824  10.433
62528SOL    HW287609  12.266   1.860  10.464
62529SOL     OW87610  11.942   3.192   9.611
62529SOL    HW187611  11.896   3.105   9.628
62529SOL    HW287612  12.033   3.189   9.652
62530SOL     OW87613  11.790   3.429  10.594
62530SOL    HW187614  11.785   3.511  10.651
62530SOL    HW287615  11.879   3.426  10.549
62531SOL     OW87616  12.524   1.914   9.478
62531SOL    HW187617  12.559   1.873   9.394
62531SOL    HW287618  12.434   1.876   9.498
62532SOL     OW87619  12.472   2.315  10.001
62532SOL    HW187620  12.413   2.395  10.005
62532SOL    HW287621  12.487   2.280  10.094
62533SOL     OW87622  12.765   2.083  10.192
62533SOL    HW187623  12.681   2.082  10.246
62533SOL    HW287624  12.767   2.166  10.136
62534SOL     OW87625  11.211   2.939   9.610
62534SOL    HW187626  11.310   2.928   9.601
62534SOL    HW287627  11.171   2.853   9.642
62535SOL     OW87628  12.047   3.508   9.647
62535SOL    HW187629  11.970   3.473   9.593
62535SOL    HW287630  12.015   3.579   9.709
62536SOL     OW87631  11.402   2.490  11.285
62536SOL    HW187632  11.309   2.488  11.322
62536SOL    HW287633  11.403   2.451  11.193
62537SOL     OW87634  11.397   2.137  12.168
62537SOL    HW187635  11.432   2.120  12.260
62537SOL    HW287636  11.309   2.092  12.156
62538SOL     OW87637  11.191   2.230  11.819
62538SOL    HW187638  11.109   2.273  11.858
62538SOL    HW287639  11.163   2.157  11.756
62539SOL     OW87640  11.741   3.137  12.337
62539SOL    HW187641  11.648   3.130  12.300
62539SOL    HW287642  11.752   3.226  12.381
62540SOL     OW87643  12.727   3.373  11.875
62540SOL    HW187644  12.670   3.357  11.956
62540SOL    HW287645  12.668   3.383  11.795
62541SOL     OW87646  12.307   2.565  11.889
62541SOL    HW187647  12.364   2.643  11.864
62541SOL    HW287648  12.247   2.591  11.965
62542SOL     OW87649  11.940   3.006  12.195
62542SOL    HW187650  11.862   3.023  12.255
62542SOL    HW287651  11.974   3.093  12.159
62543SOL     OW87652  11.857   2.874  11.837
62543SOL    HW187653  11.926   2.858  11.907
62543SOL    HW287654  11.784   2.931  11.875
62544SOL     OW87655  11.507   3.297  12.233
62544SOL    HW187656  11.429   3.266  12.180
62544SOL    HW287657  11.565   3.355  12.176
62545SOL     OW87658  12.632   3.367  12.511
62545SOL    HW187659  12.656   3.461  12.537
62545SOL    HW287660  12.616   3.313  12.593
62546SOL     OW87661  11.610   2.254  12.671
62546SOL    HW187662  11.692   2.198  12.680
62546SOL    HW287663  11.529   2.196  12.675
62547SOL     OW87664  11.403   3.575  11.655
62547SOL    HW187665  11.437   3.652  11.709
62547SOL    HW287666  11.447   3.575  11.565
62548SOL     OW87667  11.402   3.296  11.710
62548SOL    HW187668  11.376   3.392  11.710
62548SOL    HW287669  11.331   3.242  11.755
62549SOL     OW87670  11.412   2.953  12.058
62549SOL    HW187671  11.426   2.869  12.110
62549SOL    HW287672  11.357   3.017  12.113
62550SOL     OW87673  11.792   3.648  12.611
62550SOL    HW187674  11.700   3.631  12.646
62550SOL    HW287675  11.820   3.740  12.637
62551SOL     OW87676  11.778   2.826  11.295
62551SOL    HW187677  11.785   2.910  11.241
62551SOL    HW287678  11.824   2.839  11.383
62552SOL     OW87679  12.766   1.976  12.652
62552SOL    HW187680  12.748   2.043  12.580
62552SOL    HW287681  12.763   2.022  12.741
62553SOL     OW87682  11.294   2.505  11.735
62553SOL    HW187683  11.249   2.417  11.752
62553SOL    HW287684  11.293   2.559  11.819
62554SOL     OW87685  11.199   3.458  11.289
62554SOL    HW187686  11.180   3.362  11.310
62554SOL    HW287687  11.166   3.516  11.364
62555SOL     OW87688  12.861   2.784  11.784
62555SOL    HW187689  12.956   2.755  11.792
62555SOL    HW287690  12.853   2.849  11.709
62556SOL     OW87691  11.285   2.599  12.769
62556SOL    HW187692  11.373   2.586  12.814
62556SOL    HW287693  11.272   2.696  12.747
62557SOL     OW87694  11.785   3.227  11.898
62557SOL    HW187695  11.736   3.140  11.907
62557SOL    HW287696  11.762   3.270  11.811
62558SOL     OW87697  12.465   3.090  12.595
62558SOL    HW187698  12.502   3.017  12.537
62558SOL    HW287699  12.517   3.095  12.680
62559SOL     OW87700  11.981   1.866  11.674
62559SOL    HW187701  12.021   1.957  11.665
62559SOL    HW287702  11.881   1.874  11.680
62560SOL     OW87703  11.369   2.838  12.436
62560SOL    HW187704  11.458   2.793  12.422
62560SOL    HW287705  11.296   2.773  12.417
62561SOL     OW87706  12.638   3.279  12.125
62561SOL    HW187707  12.579   3.285  12.205
62561SOL    HW287708  12.623   3.191  12.079
62562SOL     OW87709  12.839   3.576  11.744
62562SOL    HW187710  12.798   3.553  11.656
62562SOL    HW287711  12.821   3.502  11.809
62563SOL     OW87712  11.770   2.591  11.442
62563SOL    HW187713  11.794   2.660  11.374
62563SOL    HW287714  11.692   2.624  11.496
62564SOL     OW87715  12.453   2.207  12.116
62564SOL    HW187716  12.367   2.157  12.103
62564SOL    HW287717  12.515   2.153  12.172
62565SOL     OW87718  11.979   2.467  12.637
62565SOL    HW187719  11.932   2.464  12.726
62565SOL    HW287720  11.928   2.412  12.571
62566SOL     OW87721  12.145   2.752  12.744
62566SOL    HW187722  12.191   2.668  12.715
62566SOL    HW287723  12.089   2.786  12.669
62567SOL     OW87724  12.163   2.272  12.414
62567SOL    HW187725  12.086   2.306  12.468
62567SOL    HW287726  12.129   2.221  12.335
62568SOL     OW87727  12.213   2.563  11.601
62568SOL    HW187728  12.239   2.559  11.697
62568SOL    HW287729  12.128   2.512  11.587
62569SOL     OW87730  11.248   2.673  11.961
62569SOL    HW187731  11.347   2.661  11.970
62569SOL    HW287732  11.224   2.768  11.982
62570SOL     OW87733  11.302   3.683  12.743
62570SOL    HW187734  11.292   3.668  12.842
62570SOL    HW287735  11.216   3.719  12.707
62571SOL     OW87736  12.037   2.210  11.367
62571SOL    HW187737  12.096   2.273  11.318
62571SOL    HW287738  12.056   2.116  11.338
62572SOL     OW87739  12.534   3.006  11.717
62572SOL    HW187740  12.617   2.977  11.669
62572SOL    HW287741  12.485   3.073  11.661
62573SOL     OW87742  11.722   2.058  12.057
62573SOL    HW187743  11.717   2.053  12.157
62573SOL    HW287744  11.724   2.154  12.028
62574SOL     OW87745  12.180   3.318  11.649
62574SOL    HW187746  12.134   3.390  11.597
62574SOL    HW287747  12.176   3.338  11.747
62575SOL     OW87748  11.523   3.663  12.025
62575SOL    HW187749  11.573   3.577  12.031
62575SOL    HW287750  11.588   3.740  12.022
62576SOL     OW87751  12.399   3.412  12.678
62576SOL    HW187752  12.405   3.335  12.742
62576SOL    HW287753  12.347   3.386  12.598
62577SOL     OW87754  11.493   2.805  11.414
62577SOL    HW187755  11.575   2.844  11.372
62577SOL    HW287756  11.466   2.723  11.365
62578SOL     OW87757  12.630   2.597  11.900
62578SOL    HW187758  12.625   2.532  11.975
62578SOL    HW287759  12.710   2.656  11.913
62579SOL     OW87760  12.283   3.638  11.409
62579SOL    HW187761  12.223   3.576  11.459
62579SOL    HW287762  12.314   3.594  11.324
62580SOL     OW87763  11.374   2.147  12.670
62580SOL    HW187764  11.294   2.207  12.657
62580SOL    HW287765  11.364   2.098  12.756
62581SOL     OW87766  11.636   3.605  11.495
62581SOL    HW187767  11.669   3.644  11.581
62581SOL    HW287768  11.712   3.598  11.430
62582SOL     OW87769  12.572   1.969  11.598
62582SOL    HW187770  12.548   1.932  11.508
62582SOL    HW287771  12.671   1.985  11.602
62583SOL     OW87772  11.421   3.647  12.413
62583SOL    HW187773  11.478   3.582  12.463
62583SOL    HW287774  11.405   3.614  12.320
62584SOL     OW87775  12.112   3.560  12.076
62584SOL    HW187776  12.192   3.503  12.097
62584SOL    HW287777  12.063   3.520  11.999
62585SOL     OW87778  11.554   2.562  11.652
62585SOL    HW187779  11.599   2.472  11.649
62585SOL    HW287780  11.460   2.551  11.685
62586SOL     OW87781  11.786   1.984  11.289
62586SOL    HW187782  11.884   1.962  11.296
62586SOL    HW287783  11.755   1.967  11.196
62587SOL     OW87784  12.060   3.376  12.367
62587SOL    HW187785  12.037   3.351  12.273
62587SOL    HW287786  12.121   3.307  12.406
62588SOL     OW87787  12.523   2.452  12.605
62588SOL    HW187788  12.551   2.409  12.690
62588SOL    HW287789  12.548   2.548  12.606
62589SOL     OW87790  11.975   3.264  12.096
62589SOL    HW187791  12.065   3.278  12.054
62589SOL    HW287792  11.904   3.266  12.025
62590SOL     OW87793  12.094   2.365  12.071
62590SOL    HW187794  12.069   2.356  11.975
62590SOL    HW287795  12.142   2.283  12.102
62591SOL     OW87796  11.711   1.926  11.684
62591SOL    HW187797  11.630   1.927  11.742
62591SOL    HW287798  11.714   2.009  11.629
62592SOL     OW87799  12.606   3.050  11.213
62592SOL    HW187800  12.638   2.974  11.270
62592SOL    HW287801  12.514   3.077  11.243
62593SOL     OW87802  11.469   1.897  11.343
62593SOL    HW187803  11.518   1.981  11.322
62593SOL    HW287804  11.531   1.832  11.388
62594SOL     OW87805  12.107   2.098  11.652
62594SOL    HW187806  12.059   2.139  11.574
62594SOL    HW287807  12.206   2.096  11.633
62595SOL     OW87808  12.248   2.545  12.636
62595SOL    HW187809  12.168   2.484  12.639
62595SOL    HW287810  12.329   2.492  12.612
62596SOL     OW87811  12.399   3.432  11.965
62596SOL    HW187812  12.420   3.506  11.900
62596SOL    HW287813  12.467   3.432  12.038
62597SOL     OW87814  11.631   3.014  11.913
62597SOL    HW187815  11.560   2.987  11.978
62597SOL    HW287816  11.605   2.986  11.820
62598SOL     OW87817  12.443   3.659  11.763
62598SOL    HW187818  12.487   3.723  11.699
62598SOL    HW287819  12.393   3.711  11.833
62599SOL     OW87820  12.204   2.411  11.188
62599SOL    HW187821  12.163   2.493  11.149
62599SOL    HW287822  12.268   2.437  11.261
62600SOL     OW87823  11.250   2.418  12.558
62600SOL    HW187824  11.342   2.417  12.517
62600SOL    HW287825  11.244   2.492  12.625
62601SOL     OW87826  11.733   2.084  12.319
62601SOL    HW187827  11.771   2.000  12.356
62601SOL    HW287828  11.645   2.103  12.363
62602SOL     OW87829  12.038   2.316  11.814
62602SOL    HW187830  12.006   2.388  11.752
62602SOL    HW287831  12.062   2.235  11.761
62603SOL     OW87832  12.189   1.901  11.925
62603SOL    HW187833  12.117   1.906  11.856
62603SOL    HW287834  12.165   1.832  11.994
62604SOL     OW87835  12.601   3.035  12.039
62604SOL    HW187836  12.546   2.951  12.032
62604SOL    HW287837  12.627   3.064  11.947
62605SOL     OW87838  12.638   2.452  12.164
62605SOL    HW187839  12.608   2.357  12.171
62605SOL    HW287840  12.711   2.468  12.230
62606SOL     OW87841  11.660   3.247  11.346
62606SOL    HW187842  11.573   3.232  11.393
62606SOL    HW287843  11.643   3.273  11.251
62607SOL     OW87844  12.562   2.437  11.250
62607SOL    HW187845  12.508   2.416  11.331
62607SOL    HW287846  12.653   2.396  11.259
62608SOL     OW87847  11.699   2.118  11.500
62608SOL    HW187848  11.726   2.059  11.425
62608SOL    HW287849  11.699   2.213  11.469
62609SOL     OW87850  12.236   3.209  12.512
62609SOL    HW187851  12.156   3.186  12.567
62609SOL    HW287852  12.319   3.183  12.561
62610SOL     OW87853  12.283   3.057  12.272
62610SOL    HW187854  12.243   3.101  12.353
62610SOL    HW287855  12.242   3.094  12.189
62611SOL     OW87856  12.087   1.951  12.574
62611SOL    HW187857  12.112   1.931  12.479
62611SOL    HW287858  12.159   2.007  12.616
62612SOL     OW87859  11.877   2.912  11.540
62612SOL    HW187860  11.863   2.919  11.639
62612SOL    HW287861  11.961   2.861  11.522
62613SOL     OW87862  11.582   2.675  12.423
62613SOL    HW187863  11.668   2.687  12.473
62613SOL    HW287864  11.540   2.588  12.450
62614SOL     OW87865  12.446   2.248  12.434
62614SOL    HW187866  12.467   2.322  12.498
62614SOL    HW287867  12.357   2.265  12.391
62615SOL     OW87868  11.236   3.426  12.503
62615SOL    HW187869  11.190   3.508  12.469
62615SOL    HW287870  11.334   3.445  12.512
62616SOL     OW87871  11.539   2.962  11.673
62616SOL    HW187872  11.532   3.045  11.617
62616SOL    HW287873  11.543   2.882  11.613
62617SOL     OW87874  11.738   2.399  12.037
62617SOL    HW187875  11.750   2.465  11.963
62617SOL    HW287876  11.784   2.433  12.120
62618SOL     OW87877  12.424   3.210  11.560
62618SOL    HW187878  12.474   3.287  11.600
62618SOL    HW287879  12.329   3.212  11.592
62619SOL     OW87880  12.444   3.307  12.314
62619SOL    HW187881  12.491   3.320  12.401
62619SOL    HW287882  12.378   3.233  12.323
62620SOL     OW87883  12.754   2.501  11.644
62620SOL    HW187884  12.723   2.562  11.717
62620SOL    HW287885  12.804   2.553  11.575
62621SOL     OW87886  11.526   3.372  12.501
62621SOL    HW187887  11.505   3.328  12.414
62621SOL    HW287888  11.623   3.398  12.504
62622SOL     OW87889  11.574   2.613  12.770
62622SOL    HW187890  11.642   2.668  12.723
62622SOL    HW287891  11.614   2.525  12.797
62623SOL     OW87892  11.745   2.732  12.201
62623SOL    HW187893  11.789   2.821  12.192
62623SOL    HW287894  11.682   2.732  12.278
62624SOL     OW87895  12.532   2.724  12.217
62624SOL    HW187896  12.457   2.724  12.151
62624SOL    HW287897  12.569   2.632  12.226
62625SOL     OW87898  12.381   2.387  11.447
62625SOL    HW187899  12.394   2.303  11.501
62625SOL    HW287900  12.352   2.461  11.507
62626SOL     OW87901  11.479   2.075  12.403
62626SOL    HW187902  11.456   2.112  12.493
62626SOL    HW287903  11.449   1.980  12.397
62627SOL     OW87904  11.209   3.172  12.454
62627SOL    HW187905  11.262   3.123  12.522
62627SOL    HW287906  11.231   3.270  12.459
62628SOL     OW87907  11.904   2.496  12.236
62628SOL    HW187908  11.963   2.470  12.160
62628SOL    HW287909  11.876   2.592  12.225
62629SOL     OW87910  11.479   1.925  11.790
62629SOL    HW187911  11.468   2.019  11.823
62629SOL    HW287912  11.474   1.862  11.867
62630SOL     OW87913  12.794   2.229  11.546
62630SOL    HW187914  12.796   2.153  11.610
62630SOL    HW287915  12.746   2.306  11.586
62631SOL     OW87916  12.195   2.628  12.138
62631SOL    HW187917  12.210   2.649  12.234
62631SOL    HW287918  12.165   2.533  12.129
62632SOL     OW87919  12.712   2.136  11.297
62632SOL    HW187920  12.651   2.061  11.320
62632SOL    HW287921  12.734   2.188  11.380
62633SOL     OW87922  12.475   2.700  11.214
62633SOL    HW187923  12.509   2.607  11.229
62633SOL    HW287924  12.493   2.727  11.119
62634SOL     OW87925  12.240   3.195  12.021
62634SOL    HW187926  12.247   3.111  11.966
62634SOL    HW287927  12.302   3.264  11.985
62635SOL     OW87928  11.491   2.672  12.121
62635SOL    HW187929  11.584   2.708  12.126
62635SOL    HW287930  11.485   2.587  12.173
62636SOL     OW87931  11.511   2.371  12.178
62636SOL    HW187932  11.459   2.288  12.161
62636SOL    HW287933  11.588   2.376  12.114
62637SOL     OW87934  12.332   2.069  12.649
62637SOL    HW187935  12.332   2.133  12.726
62637SOL    HW287936  12.360   2.117  12.566
62638SOL     OW87937  11.180   3.188  11.372
62638SOL    HW187938  11.087   3.209  11.341
62638SOL    HW287939  11.190   3.089  11.385
62639SOL     OW87940  11.260   3.663  12.099
62639SOL    HW187941  11.218   3.577  12.072
62639SOL    HW287942  11.354   3.666  12.065
62640SOL     OW87943  11.676   3.430  12.082
62640SOL    HW187944  11.742   3.504  12.091
62640SOL    HW287945  11.720   3.351  12.040
62641SOL     OW87946  12.174   2.658  12.410
62641SOL    HW187947  12.215   2.626  12.496
62641SOL    HW287948  12.078   2.631  12.407
62642SOL     OW87949  11.212   2.406  12.286
62642SOL    HW187950  11.297   2.373  12.245
62642SOL    HW287951  11.225   2.421  12.384
62643SOL     OW87952  11.987   2.434  11.497
62643SOL    HW187953  11.994   2.345  11.451
62643SOL    HW287954  11.893   2.468  11.489
62644SOL     OW87955  11.424   3.426  12.916
62644SOL    HW187956  11.394   3.483  12.992
62644SOL    HW287957  11.417   3.329  12.942
62645SOL     OW87958  11.843   2.326  12.441
62645SOL    HW187959  11.809   2.237  12.411
62645SOL    HW287960  11.869   2.380  12.361
62646SOL     OW87961  12.102   3.540  12.637
62646SOL    HW187962  12.078   3.522  12.542
62646SOL    HW287963  12.132   3.634  12.647
62647SOL     OW87964  11.645   2.362  11.363
62647SOL    HW187965  11.706   2.442  11.367
62647SOL    HW287966  11.550   2.393  11.370
62648SOL     OW87967  11.331   2.999  12.638
62648SOL    HW187968  11.353   2.938  12.714
62648SOL    HW287969  11.341   2.950  12.552
62649SOL     OW87970  12.519   2.921  12.406
62649SOL    HW187971  12.543   2.858  12.332
62649SOL    HW287972  12.429   2.961  12.388
62650SOL     OW87973  12.474   2.717  11.481
62650SOL    HW187974  12.388   2.686  11.523
62650SOL    HW287975  12.470   2.703  11.382
62651SOL     OW87976  12.424   3.593  12.300
62651SOL    HW187977  12.508   3.598  12.246
62651SOL    HW287978  12.401   3.497  12.318
62652SOL     OW87979  11.255   3.120  12.194
62652SOL    HW187980  11.250   3.119  12.294
62652SOL    HW287981  11.172   3.079  12.156
62653SOL     OW87982  12.898   1.997  11.695
62653SOL    HW187983  12.971   1.980  11.628
62653SOL    HW287984  12.867   1.910  11.733
62654SOL     OW87985  12.560   3.435  11.649
62654SOL    HW187986  12.627   3.447  11.575
62654SOL    HW287987  12.520   3.524  11.672
62655SOL     OW87988  12.452   2.789  11.844
62655SOL    HW187989  12.512   2.708  11.846
62655SOL    HW287990  12.492   2.858  11.784
62656SOL     OW87991  12.002   3.135  12.594
62656SOL    HW187992  11.997   3.168  12.689
62656SOL    HW287993  11.916   3.154  12.548
62657SOL     OW87994  11.844   3.478  11.326
62657SOL    HW187995  11.853   3.488  11.227
62657SOL    HW287996  11.804   3.389  11.347
62658SOL     OW87997  11.435   2.188  11.892
62658SOL    HW187998  11.356   2.239  11.858
62658SOL    HW287999  11.426   2.173  11.990
62659SOL     OW88000  12.366   3.474  11.203
62659SOL    HW188001  12.372   3.381  11.240
62659SOL    HW288002  12.307   3.474  11.123
62660SOL     OW88003  11.994   2.864  12.544
62660SOL    HW188004  12.034   2.863  12.452
62660SOL    HW288005  12.004   2.956  12.584
62661SOL     OW88006  12.088   2.772  11.463
62661SOL    HW188007  12.151   2.810  11.395
62661SOL    HW288008  12.128   2.689  11.502
62662SOL     OW88009  12.676   3.469  11.216
62662SOL    HW188010  12.584   3.506  11.223
62662SOL    HW288011  12.714   3.489  11.126
62663SOL     OW88012  11.544   3.150  12.662
62663SOL    HW188013  11.531   3.243  12.628
62663SOL    HW288014  11.460   3.098  12.649
62664SOL     OW88015  12.211   2.960  11.868
62664SOL    HW188016  12.141   2.913  11.922
62664SOL    HW288017  12.270   2.892  11.825
62665SOL     OW88018  12.186   2.098  12.143
62665SOL    HW188019  12.178   2.062  12.050
62665SOL    HW288020  12.184   2.022  12.208
62666SOL     OW88021  11.762   3.349  11.663
62666SOL    HW188022  11.804   3.291  11.593
62666SOL    HW288023  11.718   3.428  11.619
62667SOL     OW88024  11.427   3.210  11.462
62667SOL    HW188025  11.331   3.211  11.435
62667SOL    HW288026  11.439   3.263  11.546
62668SOL     OW88027  11.277   2.875  12.898
62668SOL    HW188028  11.200   2.842  12.952
62668SOL    HW288029  11.362   2.845  12.940
62669SOL     OW88030  11.844   2.065  12.661
62669SOL    HW188031  11.934   2.049  12.621
62669SOL    HW288032  11.852   2.070  12.760
62670SOL     OW88033  11.247   2.207  11.205
62670SOL    HW188034  11.155   2.179  11.176
62670SOL    HW288035  11.278   2.284  11.149
62671SOL     OW88036  12.612   2.718  12.570
62671SOL    HW188037  12.555   2.770  12.507
62671SOL    HW288038  12.708   2.730  12.546
62672SOL     OW88039  11.244   2.028  11.490
62672SOL    HW188040  11.227   2.111  11.436
62672SOL    HW288041  11.334   1.991  11.468
62673SOL     OW88042  12.355   3.197  11.291
62673SOL    HW188043  12.256   3.186  11.293
62673SOL    HW288044  12.389   3.212  11.384
62674SOL     OW88045  11.785   2.704  12.603
62674SOL    HW188046  11.841   2.785  12.586
62674SOL    HW288047  11.844   2.624  12.606
62675SOL     OW88048  12.665   3.629  12.131
62675SOL    HW188049  12.698   3.693  12.062
62675SOL    HW288050  12.731   3.623  12.206
62676SOL     OW88051  11.888   2.427  12.880
62676SOL    HW188052  11.907   2.492  12.954
62676SOL    HW288053  11.948   2.347  12.889
62677SOL     OW88054  11.562   3.603  12.732
62677SOL    HW188055  11.471   3.644  12.730
62677SOL    HW288056  11.555   3.509  12.764
62678SOL     OW88057  12.397   2.187  11.621
62678SOL    HW188058  12.462   2.113  11.610
62678SOL    HW288059  12.417   2.237  11.705
62679SOL     OW88060  11.766   2.607  11.824
62679SOL    HW188061  11.816   2.692  11.805
62679SOL    HW288062  11.678   2.609  11.776
62680SOL     OW88063  12.031   3.236  11.188
62680SOL    HW188064  11.985   3.251  11.276
62680SOL    HW288065  12.075   3.321  11.158
62681SOL     OW88066  11.833   3.652  12.125
62681SOL    HW188067  11.787   3.740  12.112
62681SOL    HW288068  11.932   3.664  12.118
62682SOL     OW88069  12.031   2.818  12.033
62682SOL    HW188070  12.085   2.749  12.081
62682SOL    HW288071  11.999   2.887  12.099
62683SOL     OW88072  12.255   2.846  11.259
62683SOL    HW188073  12.232   2.899  11.177
62683SOL    HW288074  12.336   2.790  11.240
62684SOL     OW88075  13.033   3.431  12.023
62684SOL    HW188076  12.962   3.419  11.953
62684SOL    HW288077  13.034   3.352  12.083
62685SOL     OW88078  11.251   3.102  11.825
62685SOL    HW188079  11.250   3.055  11.913
62685SOL    HW288080  11.333   3.074  11.774
62686SOL     OW88081  11.844   3.253  12.796
62686SOL    HW188082  11.766   3.203  12.834
62686SOL    HW288083  11.841   3.348  12.827
62687SOL     OW88084  11.600   2.286  11.692
62687SOL    HW188085  11.630   2.214  11.630
62687SOL    HW288086  11.561   2.246  11.775
62688SOL     OW88087  11.489   2.409  12.452
62688SOL    HW188088  11.527   2.350  12.524
62688SOL    HW288089  11.529   2.383  12.364
62689SOL     OW88090  11.984   3.448  11.859
62689SOL    HW188091  12.016   3.458  11.765
62689SOL    HW288092  11.905   3.386  11.861
62690SOL     OW88093  12.596   2.076  12.284
62690SOL    HW188094  12.648   2.011  12.339
62690SOL    HW288095  12.547   2.139  12.345
62691SOL     OW88096  12.173   1.896  12.326
62691SOL    HW188097  12.110   1.824  12.295
62691SOL    HW288098  12.266   1.860  12.326
62692SOL     OW88099  11.942   3.192  11.473
62692SOL    HW188100  11.896   3.105  11.490
62692SOL    HW288101  12.033   3.189  11.514
62693SOL     OW88102  11.790   3.429  12.456
62693SOL    HW188103  11.785   3.511  12.513
62693SOL    HW288104  11.879   3.426  12.411
62694SOL     OW88105  12.524   1.914  11.340
62694SOL    HW188106  12.559   1.873  11.256
62694SOL    HW288107  12.434   1.876  11.360
62695SOL     OW88108  12.472   2.315  11.863
62695SOL    HW188109  12.413   2.395  11.867
62695SOL    HW288110  12.487   2.280  11.956
62696SOL     OW88111  12.765   2.083  12.054
62696SOL    HW188112  12.681   2.082  12.108
62696SOL    HW288113  12.767   2.166  11.998
62697SOL     OW88114  11.211   2.939  11.472
62697SOL    HW188115  11.310   2.928  11.463
62697SOL    HW288116  11.171   2.853  11.504
62698SOL     OW88117  12.047   3.508  11.509
62698SOL    HW188118  11.970   3.473  11.455
62698SOL    HW288119  12.015   3.579  11.571
62699SOL     OW88120  11.402   4.352   0.113
62699SOL    HW188121  11.309   4.350   0.150
62699SOL    HW288122  11.403   4.313   0.021
62700SOL     OW88123  11.397   3.999   0.996
62700SOL    HW188124  11.432   3.982   1.088
62700SOL    HW288125  11.309   3.954   0.984
62701SOL     OW88126  11.191   4.092   0.647
62701SOL    HW188127  11.109   4.135   0.686
62701SOL    HW288128  11.163   4.019   0.584
62702SOL     OW88129  11.741   4.999   1.165
62702SOL    HW188130  11.648   4.992   1.128
62702SOL    HW288131  11.752   5.088   1.209
62703SOL     OW88132  12.727   5.235   0.703
62703SOL    HW188133  12.670   5.219   0.784
62703SOL    HW288134  12.668   5.245   0.623
62704SOL     OW88135  12.307   4.427   0.717
62704SOL    HW188136  12.364   4.505   0.692
62704SOL    HW288137  12.247   4.453   0.793
62705SOL     OW88138  11.940   4.868   1.023
62705SOL    HW188139  11.862   4.885   1.083
62705SOL    HW288140  11.974   4.955   0.987
62706SOL     OW88141  12.022   4.522   1.823
62706SOL    HW188142  12.018   4.598   1.888
62706SOL    HW288143  12.044   4.558   1.732
62707SOL     OW88144  11.857   4.736   0.665
62707SOL    HW188145  11.926   4.720   0.735
62707SOL    HW288146  11.784   4.793   0.703
62708SOL     OW88147  11.858   4.885   1.803
62708SOL    HW188148  11.918   4.964   1.817
62708SOL    HW288149  11.772   4.916   1.762
62709SOL     OW88150  11.507   5.159   1.061
62709SOL    HW188151  11.429   5.128   1.008
62709SOL    HW288152  11.565   5.217   1.004
62710SOL     OW88153  12.632   5.229   1.339
62710SOL    HW188154  12.656   5.323   1.365
62710SOL    HW288155  12.616   5.175   1.421
62711SOL     OW88156  11.610   4.116   1.499
62711SOL    HW188157  11.692   4.060   1.508
62711SOL    HW288158  11.529   4.058   1.503
62712SOL     OW88159  11.403   5.437   0.483
62712SOL    HW188160  11.437   5.514   0.537
62712SOL    HW288161  11.447   5.437   0.393
62713SOL     OW88162  12.299   5.065   1.690
62713SOL    HW188163  12.346   5.065   1.778
62713SOL    HW288164  12.251   4.978   1.679
62714SOL     OW88165  11.402   5.158   0.538
62714SOL    HW188166  11.376   5.254   0.538
62714SOL    HW288167  11.331   5.104   0.583
62715SOL     OW88168  11.412   4.815   0.886
62715SOL    HW188169  11.426   4.731   0.938
62715SOL    HW288170  11.357   4.879   0.941
62716SOL     OW88171  11.792   5.510   1.439
62716SOL    HW188172  11.700   5.493   1.474
62716SOL    HW288173  11.820   5.602   1.465
62717SOL     OW88174  11.778   4.688   0.123
62717SOL    HW188175  11.785   4.772   0.069
62717SOL    HW288176  11.824   4.701   0.211
62718SOL     OW88177  12.766   3.838   1.480
62718SOL    HW188178  12.748   3.905   1.408
62718SOL    HW288179  12.763   3.884   1.569
62719SOL     OW88180  11.294   4.367   0.563
62719SOL    HW188181  11.249   4.279   0.580
62719SOL    HW288182  11.293   4.421   0.647
62720SOL     OW88183  11.199   5.320   0.117
62720SOL    HW188184  11.180   5.224   0.138
62720SOL    HW288185  11.166   5.378   0.192
62721SOL     OW88186  12.861   4.646   0.612
62721SOL    HW188187  12.956   4.617   0.620
62721SOL    HW288188  12.853   4.711   0.537
62722SOL     OW88189  11.285   4.461   1.597
62722SOL    HW188190  11.373   4.448   1.642
62722SOL    HW288191  11.272   4.558   1.575
62723SOL     OW88192  11.785   5.089   0.726
62723SOL    HW188193  11.736   5.002   0.735
62723SOL    HW288194  11.762   5.132   0.639
62724SOL     OW88195  12.465   4.952   1.423
62724SOL    HW188196  12.502   4.879   1.365
62724SOL    HW288197  12.517   4.957   1.508
62725SOL     OW88198  11.981   3.728   0.502
62725SOL    HW188199  12.021   3.819   0.493
62725SOL    HW288200  11.881   3.736   0.508
62726SOL     OW88201  11.369   4.700   1.264
62726SOL    HW188202  11.458   4.655   1.250
62726SOL    HW288203  11.296   4.635   1.245
62727SOL     OW88204  12.359   5.516   1.616
62727SOL    HW188205  12.383   5.576   1.540
62727SOL    HW288206  12.366   5.421   1.586
62728SOL     OW88207  11.489   3.975   1.801
62728SOL    HW188208  11.560   4.046   1.807
62728SOL    HW288209  11.401   4.014   1.829
62729SOL     OW88210  12.638   5.141   0.953
62729SOL    HW188211  12.579   5.147   1.033
62729SOL    HW288212  12.623   5.053   0.907
62730SOL     OW88213  12.839   5.438   0.572
62730SOL    HW188214  12.798   5.415   0.484
62730SOL    HW288215  12.821   5.364   0.637
62731SOL     OW88216  11.770   4.453   0.270
62731SOL    HW188217  11.794   4.522   0.202
62731SOL    HW288218  11.692   4.486   0.324
62732SOL     OW88219  12.453   4.069   0.944
62732SOL    HW188220  12.367   4.019   0.931
62732SOL    HW288221  12.515   4.015   1.000
62733SOL     OW88222  11.979   4.329   1.465
62733SOL    HW188223  11.932   4.326   1.554
62733SOL    HW288224  11.928   4.274   1.399
62734SOL     OW88225  12.566   4.193   1.674
62734SOL    HW188226  12.546   4.236   1.762
62734SOL    HW288227  12.644   4.131   1.683
62735SOL     OW88228  12.145   4.614   1.572
62735SOL    HW188229  12.191   4.530   1.543
62735SOL    HW288230  12.089   4.648   1.497
62736SOL     OW88231  12.163   4.134   1.242
62736SOL    HW188232  12.086   4.168   1.296
62736SOL    HW288233  12.129   4.083   1.163
62737SOL     OW88234  12.213   4.425   0.429
62737SOL    HW188235  12.239   4.421   0.525
62737SOL    HW288236  12.128   4.374   0.415
62738SOL     OW88237  11.248   4.535   0.789
62738SOL    HW188238  11.347   4.523   0.798
62738SOL    HW288239  11.224   4.630   0.810
62739SOL     OW88240  11.302   5.545   1.571
62739SOL    HW188241  11.292   5.530   1.670
62739SOL    HW288242  11.216   5.581   1.535
62740SOL     OW88243  12.037   4.072   0.195
62740SOL    HW188244  12.096   4.135   0.146
62740SOL    HW288245  12.056   3.978   0.166
62741SOL     OW88246  12.534   4.868   0.545
62741SOL    HW188247  12.617   4.839   0.497
62741SOL    HW288248  12.485   4.935   0.489
62742SOL     OW88249  11.722   3.920   0.885
62742SOL    HW188250  11.717   3.915   0.985
62742SOL    HW288251  11.724   4.016   0.856
62743SOL     OW88252  12.180   5.180   0.477
62743SOL    HW188253  12.134   5.252   0.425
62743SOL    HW288254  12.176   5.200   0.575
62744SOL     OW88255  11.523   5.525   0.853
62744SOL    HW188256  11.573   5.439   0.859
62744SOL    HW288257  11.588   5.602   0.850
62745SOL     OW88258  12.399   5.274   1.506
62745SOL    HW188259  12.405   5.197   1.570
62745SOL    HW288260  12.347   5.248   1.426
62746SOL     OW88261  11.493   4.667   0.242
62746SOL    HW188262  11.575   4.706   0.200
62746SOL    HW288263  11.466   4.585   0.193
62747SOL     OW88264  12.630   4.459   0.728
62747SOL    HW188265  12.625   4.394   0.803
62747SOL    HW288266  12.710   4.518   0.741
62748SOL     OW88267  11.633   4.990   1.727
62748SOL    HW188268  11.583   4.991   1.641
62748SOL    HW288269  11.570   4.972   1.803
62749SOL     OW88270  12.283   5.500   0.237
62749SOL    HW188271  12.223   5.438   0.287
62749SOL    HW288272  12.314   5.456   0.152
62750SOL     OW88273  11.374   4.009   1.498
62750SOL    HW188274  11.294   4.069   1.485
62750SOL    HW288275  11.364   3.960   1.584
62751SOL     OW88276  11.636   5.467   0.323
62751SOL    HW188277  11.669   5.506   0.409
62751SOL    HW288278  11.712   5.460   0.258
62752SOL     OW88279  12.572   3.831   0.426
62752SOL    HW188280  12.548   3.794   0.336
62752SOL    HW288281  12.671   3.847   0.430
62753SOL     OW88282  11.421   5.509   1.241
62753SOL    HW188283  11.478   5.444   1.291
62753SOL    HW288284  11.405   5.476   1.148
62754SOL     OW88285  12.112   5.422   0.904
62754SOL    HW188286  12.192   5.365   0.925
62754SOL    HW288287  12.063   5.382   0.827
62755SOL     OW88288  11.554   4.424   0.480
62755SOL    HW188289  11.599   4.334   0.477
62755SOL    HW288290  11.460   4.413   0.513
62756SOL     OW88291  11.786   3.846   0.117
62756SOL    HW188292  11.884   3.824   0.124
62756SOL    HW288293  11.755   3.829   0.024
62757SOL     OW88294  11.953   3.988   1.749
62757SOL    HW188295  12.020   3.927   1.792
62757SOL    HW288296  11.880   4.007   1.814
62758SOL     OW88297  12.060   5.238   1.195
62758SOL    HW188298  12.037   5.213   1.101
62758SOL    HW288299  12.121   5.169   1.234
62759SOL     OW88300  12.523   4.314   1.433
62759SOL    HW188301  12.551   4.271   1.518
62759SOL    HW288302  12.548   4.410   1.434
62760SOL     OW88303  11.975   5.126   0.924
62760SOL    HW188304  12.065   5.140   0.882
62760SOL    HW288305  11.904   5.128   0.853
62761SOL     OW88306  12.094   4.227   0.899
62761SOL    HW188307  12.069   4.218   0.803
62761SOL    HW288308  12.142   4.145   0.930
62762SOL     OW88309  11.711   3.788   0.512
62762SOL    HW188310  11.630   3.789   0.570
62762SOL    HW288311  11.714   3.871   0.457
62763SOL     OW88312  12.606   4.912   0.041
62763SOL    HW188313  12.638   4.836   0.098
62763SOL    HW288314  12.514   4.939   0.071
62764SOL     OW88315  11.469   3.759   0.171
62764SOL    HW188316  11.518   3.843   0.150
62764SOL    HW288317  11.531   3.694   0.216
62765SOL     OW88318  12.107   3.960   0.480
62765SOL    HW188319  12.059   4.001   0.402
62765SOL    HW288320  12.206   3.958   0.461
62766SOL     OW88321  12.248   4.407   1.464
62766SOL    HW188322  12.168   4.346   1.467
62766SOL    HW288323  12.329   4.354   1.440
62767SOL     OW88324  12.399   5.294   0.793
62767SOL    HW188325  12.420   5.368   0.728
62767SOL    HW288326  12.467   5.294   0.866
62768SOL     OW88327  11.631   4.876   0.741
62768SOL    HW188328  11.560   4.849   0.806
62768SOL    HW288329  11.605   4.848   0.648
62769SOL     OW88330  12.443   5.521   0.591
62769SOL    HW188331  12.487   5.585   0.527
62769SOL    HW288332  12.393   5.573   0.661
62770SOL     OW88333  12.204   4.273   0.016
62770SOL    HW188334  12.163   4.355  -0.023
62770SOL    HW288335  12.268   4.299   0.089
62771SOL     OW88336  11.250   4.280   1.386
62771SOL    HW188337  11.342   4.279   1.345
62771SOL    HW288338  11.244   4.354   1.453
62772SOL     OW88339  11.733   3.946   1.147
62772SOL    HW188340  11.771   3.862   1.184
62772SOL    HW288341  11.645   3.965   1.191
62773SOL     OW88342  12.038   4.178   0.642
62773SOL    HW188343  12.006   4.250   0.580
62773SOL    HW288344  12.062   4.097   0.589
62774SOL     OW88345  12.189   3.763   0.753
62774SOL    HW188346  12.117   3.768   0.684
62774SOL    HW288347  12.165   3.694   0.822
62775SOL     OW88348  12.601   4.897   0.867
62775SOL    HW188349  12.546   4.813   0.860
62775SOL    HW288350  12.627   4.926   0.775
62776SOL     OW88351  12.638   4.314   0.992
62776SOL    HW188352  12.608   4.219   0.999
62776SOL    HW288353  12.711   4.330   1.058
62777SOL     OW88354  11.660   5.109   0.174
62777SOL    HW188355  11.573   5.094   0.221
62777SOL    HW288356  11.643   5.135   0.079
62778SOL     OW88357  12.562   4.299   0.078
62778SOL    HW188358  12.508   4.278   0.159
62778SOL    HW288359  12.653   4.258   0.087
62779SOL     OW88360  11.699   3.980   0.328
62779SOL    HW188361  11.726   3.921   0.253
62779SOL    HW288362  11.699   4.075   0.297
62780SOL     OW88363  12.236   5.071   1.340
62780SOL    HW188364  12.156   5.048   1.395
62780SOL    HW288365  12.319   5.045   1.389
62781SOL     OW88366  12.764   5.353   1.625
62781SOL    HW188367  12.791   5.387   1.535
62781SOL    HW288368  12.843   5.315   1.671
62782SOL     OW88369  12.283   4.919   1.100
62782SOL    HW188370  12.243   4.963   1.181
62782SOL    HW288371  12.242   4.956   1.017
62783SOL     OW88372  12.087   3.813   1.402
62783SOL    HW188373  12.112   3.793   1.307
62783SOL    HW288374  12.159   3.869   1.444
62784SOL     OW88375  12.152   4.840   1.719
62784SOL    HW188376  12.053   4.846   1.729
62784SOL    HW288377  12.175   4.760   1.663
62785SOL     OW88378  11.877   4.774   0.368
62785SOL    HW188379  11.863   4.781   0.467
62785SOL    HW288380  11.961   4.723   0.350
62786SOL     OW88381  11.582   4.537   1.251
62786SOL    HW188382  11.668   4.549   1.301
62786SOL    HW288383  11.540   4.450   1.278
62787SOL     OW88384  12.446   4.110   1.262
62787SOL    HW188385  12.467   4.184   1.326
62787SOL    HW288386  12.357   4.127   1.219
62788SOL     OW88387  11.236   5.288   1.331
62788SOL    HW188388  11.190   5.370   1.297
62788SOL    HW288389  11.334   5.307   1.340
62789SOL     OW88390  11.539   4.824   0.501
62789SOL    HW188391  11.532   4.907   0.445
62789SOL    HW288392  11.543   4.744   0.441
62790SOL     OW88393  11.738   4.261   0.865
62790SOL    HW188394  11.750   4.327   0.791
62790SOL    HW288395  11.784   4.295   0.948
62791SOL     OW88396  12.424   5.072   0.388
62791SOL    HW188397  12.474   5.149   0.428
62791SOL    HW288398  12.329   5.074   0.420
62792SOL     OW88399  12.444   5.169   1.142
62792SOL    HW188400  12.491   5.182   1.229
62792SOL    HW288401  12.378   5.095   1.151
62793SOL     OW88402  12.754   4.363   0.472
62793SOL    HW188403  12.723   4.424   0.545
62793SOL    HW288404  12.804   4.415   0.403
62794SOL     OW88405  11.526   5.234   1.329
62794SOL    HW188406  11.505   5.190   1.242
62794SOL    HW288407  11.623   5.260   1.332
62795SOL     OW88408  11.574   4.475   1.598
62795SOL    HW188409  11.642   4.530   1.551
62795SOL    HW288410  11.614   4.387   1.625
62796SOL     OW88411  12.185   3.829   1.770
62796SOL    HW188412  12.191   3.914   1.718
62796SOL    HW288413  12.217   3.753   1.713
62797SOL     OW88414  11.676   3.774   1.740
62797SOL    HW188415  11.634   3.717   1.670
62797SOL    HW288416  11.610   3.843   1.772
62798SOL     OW88417  11.745   4.594   1.029
62798SOL    HW188418  11.789   4.683   1.020
62798SOL    HW288419  11.682   4.594   1.106
62799SOL     OW88420  12.532   4.586   1.045
62799SOL    HW188421  12.457   4.586   0.979
62799SOL    HW288422  12.569   4.494   1.054
62800SOL     OW88423  12.381   4.249   0.275
62800SOL    HW188424  12.394   4.165   0.329
62800SOL    HW288425  12.352   4.323   0.335
62801SOL     OW88426  11.479   3.937   1.231
62801SOL    HW188427  11.456   3.974   1.321
62801SOL    HW288428  11.449   3.842   1.225
62802SOL     OW88429  11.209   5.034   1.282
62802SOL    HW188430  11.262   4.985   1.350
62802SOL    HW288431  11.231   5.132   1.287
62803SOL     OW88432  11.904   4.358   1.064
62803SOL    HW188433  11.963   4.332   0.988
62803SOL    HW288434  11.876   4.454   1.053
62804SOL     OW88435  11.479   3.787   0.618
62804SOL    HW188436  11.468   3.881   0.651
62804SOL    HW288437  11.474   3.724   0.695
62805SOL     OW88438  12.794   4.091   0.374
62805SOL    HW188439  12.796   4.015   0.438
62805SOL    HW288440  12.746   4.168   0.414
62806SOL     OW88441  12.195   4.490   0.966
62806SOL    HW188442  12.210   4.511   1.062
62806SOL    HW288443  12.165   4.395   0.957
62807SOL     OW88444  12.152   5.297   1.700
62807SOL    HW188445  12.132   5.341   1.612
62807SOL    HW288446  12.191   5.206   1.684
62808SOL     OW88447  11.522   4.622   1.804
62808SOL    HW188448  11.598   4.666   1.852
62808SOL    HW288449  11.557   4.575   1.722
62809SOL     OW88450  12.712   3.998   0.125
62809SOL    HW188451  12.651   3.923   0.148
62809SOL    HW288452  12.734   4.050   0.208
62810SOL     OW88453  12.475   4.562   0.042
62810SOL    HW188454  12.509   4.469   0.057
62810SOL    HW288455  12.493   4.589  -0.053
62811SOL     OW88456  12.240   5.057   0.849
62811SOL    HW188457  12.247   4.973   0.794
62811SOL    HW288458  12.302   5.126   0.813
62812SOL     OW88459  11.491   4.534   0.949
62812SOL    HW188460  11.584   4.570   0.954
62812SOL    HW288461  11.485   4.449   1.001
62813SOL     OW88462  11.511   4.233   1.006
62813SOL    HW188463  11.459   4.150   0.989
62813SOL    HW288464  11.588   4.238   0.942
62814SOL     OW88465  12.310   4.104   1.678
62814SOL    HW188466  12.265   4.167   1.742
62814SOL    HW288467  12.403   4.135   1.661
62815SOL     OW88468  12.332   3.931   1.477
62815SOL    HW188469  12.332   3.995   1.554
62815SOL    HW288470  12.360   3.979   1.394
62816SOL     OW88471  11.180   5.050   0.200
62816SOL    HW188472  11.087   5.071   0.169
62816SOL    HW288473  11.190   4.951   0.213
62817SOL     OW88474  11.260   5.525   0.927
62817SOL    HW188475  11.218   5.439   0.900
62817SOL    HW288476  11.354   5.528   0.893
62818SOL     OW88477  11.676   5.292   0.910
62818SOL    HW188478  11.742   5.366   0.919
62818SOL    HW288479  11.720   5.213   0.868
62819SOL     OW88480  12.174   4.520   1.238
62819SOL    HW188481  12.215   4.488   1.324
62819SOL    HW288482  12.078   4.493   1.235
62820SOL     OW88483  11.212   4.268   1.114
62820SOL    HW188484  11.297   4.235   1.073
62820SOL    HW288485  11.225   4.283   1.212
62821SOL     OW88486  11.361   4.244   1.722
62821SOL    HW188487  11.420   4.204   1.652
62821SOL    HW288488  11.303   4.315   1.681
62822SOL     OW88489  12.541   4.674   1.660
62822SOL    HW188490  12.580   4.763   1.680
62822SOL    HW288491  12.551   4.654   1.563
62823SOL     OW88492  11.987   4.296   0.325
62823SOL    HW188493  11.994   4.207   0.279
62823SOL    HW288494  11.893   4.330   0.317
62824SOL     OW88495  11.424   5.288   1.744
62824SOL    HW188496  11.394   5.345   1.820
62824SOL    HW288497  11.417   5.191   1.770
62825SOL     OW88498  11.843   4.188   1.269
62825SOL    HW188499  11.809   4.099   1.239
62825SOL    HW288500  11.869   4.242   1.189
62826SOL     OW88501  12.102   5.402   1.465
62826SOL    HW188502  12.078   5.384   1.370
62826SOL    HW288503  12.132   5.496   1.475
62827SOL     OW88504  11.645   4.224   0.191
62827SOL    HW188505  11.706   4.304   0.195
62827SOL    HW288506  11.550   4.255   0.198
62828SOL     OW88507  11.331   4.861   1.466
62828SOL    HW188508  11.353   4.800   1.542
62828SOL    HW288509  11.341   4.812   1.380
62829SOL     OW88510  12.519   4.783   1.234
62829SOL    HW188511  12.543   4.720   1.160
62829SOL    HW288512  12.429   4.823   1.216
62830SOL     OW88513  12.474   4.579   0.309
62830SOL    HW188514  12.388   4.548   0.351
62830SOL    HW288515  12.470   4.565   0.210
62831SOL     OW88516  12.424   5.455   1.128
62831SOL    HW188517  12.508   5.460   1.074
62831SOL    HW288518  12.401   5.359   1.146
62832SOL     OW88519  11.255   4.982   1.022
62832SOL    HW188520  11.250   4.981   1.122
62832SOL    HW288521  11.172   4.941   0.984
62833SOL     OW88522  11.860   5.386   1.716
62833SOL    HW188523  11.804   5.467   1.725
62833SOL    HW288524  11.912   5.390   1.630
62834SOL     OW88525  12.075   3.810   0.133
62834SOL    HW188526  12.126   3.811   0.047
62834SOL    HW288527  12.131   3.768   0.204
62835SOL     OW88528  12.898   3.859   0.523
62835SOL    HW188529  12.971   3.842   0.456
62835SOL    HW288530  12.867   3.772   0.561
62836SOL     OW88531  12.560   5.297   0.477
62836SOL    HW188532  12.627   5.309   0.403
62836SOL    HW288533  12.520   5.386   0.500
62837SOL     OW88534  11.302   5.518   1.851
62837SOL    HW188535  11.261   5.444   1.904
62837SOL    HW288536  11.366   5.569   1.909
62838SOL     OW88537  12.452   4.651   0.672
62838SOL    HW188538  12.512   4.570   0.674
62838SOL    HW288539  12.492   4.720   0.612
62839SOL     OW88540  12.002   4.997   1.422
62839SOL    HW188541  11.997   5.030   1.517
62839SOL    HW288542  11.916   5.016   1.376
62840SOL     OW88543  11.844   5.340   0.154
62840SOL    HW188544  11.853   5.350   0.055
62840SOL    HW288545  11.804   5.251   0.175
62841SOL     OW88546  11.435   4.050   0.720
62841SOL    HW188547  11.356   4.101   0.686
62841SOL    HW288548  11.426   4.035   0.818
62842SOL     OW88549  12.366   5.336   0.031
62842SOL    HW188550  12.372   5.243   0.068
62842SOL    HW288551  12.307   5.336  -0.049
62843SOL     OW88552  11.994   4.726   1.372
62843SOL    HW188553  12.034   4.725   1.280
62843SOL    HW288554  12.004   4.818   1.412
62844SOL     OW88555  12.088   4.634   0.291
62844SOL    HW188556  12.151   4.672   0.223
62844SOL    HW288557  12.128   4.551   0.330
62845SOL     OW88558  12.676   5.331   0.044
62845SOL    HW188559  12.584   5.368   0.051
62845SOL    HW288560  12.714   5.351  -0.046
62846SOL     OW88561  11.544   5.012   1.490
62846SOL    HW188562  11.531   5.105   1.456
62846SOL    HW288563  11.460   4.960   1.477
62847SOL     OW88564  12.211   4.822   0.696
62847SOL    HW188565  12.141   4.775   0.750
62847SOL    HW288566  12.270   4.754   0.653
62848SOL     OW88567  12.186   3.960   0.971
62848SOL    HW188568  12.178   3.924   0.878
62848SOL    HW288569  12.184   3.884   1.036
62849SOL     OW88570  11.762   5.211   0.491
62849SOL    HW188571  11.804   5.153   0.421
62849SOL    HW288572  11.718   5.290   0.447
62850SOL     OW88573  11.427   5.072   0.290
62850SOL    HW188574  11.331   5.073   0.263
62850SOL    HW288575  11.439   5.125   0.374
62851SOL     OW88576  11.277   4.737   1.726
62851SOL    HW188577  11.200   4.704   1.780
62851SOL    HW288578  11.362   4.707   1.768
62852SOL     OW88579  11.844   3.927   1.489
62852SOL    HW188580  11.934   3.911   1.449
62852SOL    HW288581  11.852   3.932   1.588
62853SOL     OW88582  12.612   4.580   1.398
62853SOL    HW188583  12.555   4.632   1.335
62853SOL    HW288584  12.708   4.592   1.374
62854SOL     OW88585  11.244   3.890   0.318
62854SOL    HW188586  11.227   3.973   0.264
62854SOL    HW288587  11.334   3.853   0.296
62855SOL     OW88588  12.355   5.059   0.119
62855SOL    HW188589  12.256   5.048   0.121
62855SOL    HW288590  12.389   5.074   0.212
62856SOL     OW88591  11.785   4.566   1.431
62856SOL    HW188592  11.841   4.647   1.414
62856SOL    HW288593  11.844   4.486   1.434
62857SOL     OW88594  12.665   5.491   0.959
62857SOL    HW188595  12.698   5.555   0.890
62857SOL    HW288596  12.731   5.485   1.034
62858SOL     OW88597  11.888   4.289   1.708
62858SOL    HW188598  11.907   4.354   1.782
62858SOL    HW288599  11.948   4.209   1.717
62859SOL     OW88600  12.622   4.944   1.633
62859SOL    HW188601  12.613   4.934   1.732
62859SOL    HW288602  12.718   4.937   1.607
62860SOL     OW88603  11.562   5.465   1.560
62860SOL    HW188604  11.471   5.506   1.558
62860SOL    HW288605  11.555   5.371   1.592
62861SOL     OW88606  12.397   4.049   0.449
62861SOL    HW188607  12.462   3.975   0.438
62861SOL    HW288608  12.417   4.099   0.533
62862SOL     OW88609  11.766   4.469   0.652
62862SOL    HW188610  11.816   4.554   0.633
62862SOL    HW288611  11.678   4.471   0.604
62863SOL     OW88612  12.031   5.098   0.016
62863SOL    HW188613  11.985   5.113   0.104
62863SOL    HW288614  12.075   5.183  -0.014
62864SOL     OW88615  11.833   5.514   0.953
62864SOL    HW188616  11.787   5.602   0.940
62864SOL    HW288617  11.932   5.526   0.946
62865SOL     OW88618  12.031   4.680   0.861
62865SOL    HW188619  12.085   4.611   0.909
62865SOL    HW288620  11.999   4.749   0.927
62866SOL     OW88621  12.255   4.708   0.087
62866SOL    HW188622  12.232   4.761   0.005
62866SOL    HW288623  12.336   4.652   0.068
62867SOL     OW88624  13.033   5.293   0.851
62867SOL    HW188625  12.962   5.281   0.781
62867SOL    HW288626  13.034   5.214   0.911
62868SOL     OW88627  11.393   5.038   1.844
62868SOL    HW188628  11.328   4.965   1.823
62868SOL    HW288629  11.397   5.052   1.942
62869SOL     OW88630  11.251   4.964   0.653
62869SOL    HW188631  11.250   4.917   0.741
62869SOL    HW288632  11.333   4.936   0.602
62870SOL     OW88633  11.844   5.115   1.624
62870SOL    HW188634  11.766   5.065   1.662
62870SOL    HW288635  11.841   5.210   1.655
62871SOL     OW88636  11.600   4.148   0.520
62871SOL    HW188637  11.630   4.076   0.458
62871SOL    HW288638  11.561   4.108   0.603
62872SOL     OW88639  11.489   4.271   1.280
62872SOL    HW188640  11.527   4.212   1.352
62872SOL    HW288641  11.529   4.245   1.192
62873SOL     OW88642  11.984   5.310   0.687
62873SOL    HW188643  12.016   5.320   0.593
62873SOL    HW288644  11.905   5.248   0.689
62874SOL     OW88645  12.596   3.938   1.112
62874SOL    HW188646  12.648   3.873   1.167
62874SOL    HW288647  12.547   4.001   1.173
62875SOL     OW88648  12.173   3.758   1.154
62875SOL    HW188649  12.110   3.686   1.123
62875SOL    HW288650  12.266   3.722   1.154
62876SOL     OW88651  11.942   5.054   0.301
62876SOL    HW188652  11.896   4.967   0.318
62876SOL    HW288653  12.033   5.051   0.342
62877SOL     OW88654  11.790   5.291   1.284
62877SOL    HW188655  11.785   5.373   1.341
62877SOL    HW288656  11.879   5.288   1.239
62878SOL     OW88657  12.524   3.776   0.168
62878SOL    HW188658  12.559   3.735   0.084
62878SOL    HW288659  12.434   3.738   0.188
62879SOL     OW88660  12.472   4.177   0.691
62879SOL    HW188661  12.413   4.257   0.695
62879SOL    HW288662  12.487   4.142   0.784
62880SOL     OW88663  12.765   3.945   0.882
62880SOL    HW188664  12.681   3.944   0.936
62880SOL    HW288665  12.767   4.028   0.826
62881SOL     OW88666  11.211   4.801   0.300
62881SOL    HW188667  11.310   4.790   0.291
62881SOL    HW288668  11.171   4.715   0.332
62882SOL     OW88669  12.047   5.370   0.337
62882SOL    HW188670  11.970   5.335   0.283
62882SOL    HW288671  12.015   5.441   0.399
62883SOL     OW88672  11.402   4.352   1.975
62883SOL    HW188673  11.309   4.350   2.012
62883SOL    HW288674  11.403   4.313   1.883
62884SOL     OW88675  11.397   3.999   2.858
62884SOL    HW188676  11.432   3.982   2.950
62884SOL    HW288677  11.309   3.954   2.846
62885SOL     OW88678  11.191   4.092   2.509
62885SOL    HW188679  11.109   4.135   2.548
62885SOL    HW288680  11.163   4.019   2.446
62886SOL     OW88681  11.741   4.999   3.027
62886SOL    HW188682  11.648   4.992   2.990
62886SOL    HW288683  11.752   5.088   3.071
62887SOL     OW88684  12.727   5.235   2.565
62887SOL    HW188685  12.670   5.219   2.646
62887SOL    HW288686  12.668   5.245   2.485
62888SOL     OW88687  12.307   4.427   2.579
62888SOL    HW188688  12.364   4.505   2.554
62888SOL    HW288689  12.247   4.453   2.655
62889SOL     OW88690  11.940   4.868   2.885
62889SOL    HW188691  11.862   4.885   2.945
62889SOL    HW288692  11.974   4.955   2.849
62890SOL     OW88693  12.022   4.522   3.685
62890SOL    HW188694  12.018   4.598   3.750
62890SOL    HW288695  12.044   4.558   3.594
62891SOL     OW88696  11.857   4.736   2.527
62891SOL    HW188697  11.926   4.720   2.597
62891SOL    HW288698  11.784   4.793   2.565
62892SOL     OW88699  11.858   4.885   3.665
62892SOL    HW188700  11.918   4.964   3.679
62892SOL    HW288701  11.772   4.916   3.624
62893SOL     OW88702  11.507   5.159   2.923
62893SOL    HW188703  11.429   5.128   2.870
62893SOL    HW288704  11.565   5.217   2.866
62894SOL     OW88705  12.632   5.229   3.201
62894SOL    HW188706  12.656   5.323   3.227
62894SOL    HW288707  12.616   5.175   3.283
62895SOL     OW88708  11.610   4.116   3.361
62895SOL    HW188709  11.692   4.060   3.370
62895SOL    HW288710  11.529   4.058   3.365
62896SOL     OW88711  11.403   5.437   2.345
62896SOL    HW188712  11.437   5.514   2.399
62896SOL    HW288713  11.447   5.437   2.255
62897SOL     OW88714  12.299   5.065   3.552
62897SOL    HW188715  12.346   5.065   3.640
62897SOL    HW288716  12.251   4.978   3.541
62898SOL     OW88717  11.402   5.158   2.400
62898SOL    HW188718  11.376   5.254   2.400
62898SOL    HW288719  11.331   5.104   2.445
62899SOL     OW88720  11.412   4.815   2.748
62899SOL    HW188721  11.426   4.731   2.800
62899SOL    HW288722  11.357   4.879   2.803
62900SOL     OW88723  11.792   5.510   3.301
62900SOL    HW188724  11.700   5.493   3.336
62900SOL    HW288725  11.820   5.602   3.327
62901SOL     OW88726  11.778   4.688   1.985
62901SOL    HW188727  11.785   4.772   1.931
62901SOL    HW288728  11.824   4.701   2.073
62902SOL     OW88729  12.766   3.838   3.342
62902SOL    HW188730  12.748   3.905   3.270
62902SOL    HW288731  12.763   3.884   3.431
62903SOL     OW88732  11.294   4.367   2.425
62903SOL    HW188733  11.249   4.279   2.442
62903SOL    HW288734  11.293   4.421   2.509
62904SOL     OW88735  11.199   5.320   1.979
62904SOL    HW188736  11.180   5.224   2.000
62904SOL    HW288737  11.166   5.378   2.054
62905SOL     OW88738  12.861   4.646   2.474
62905SOL    HW188739  12.956   4.617   2.482
62905SOL    HW288740  12.853   4.711   2.399
62906SOL     OW88741  11.285   4.461   3.459
62906SOL    HW188742  11.373   4.448   3.504
62906SOL    HW288743  11.272   4.558   3.437
62907SOL     OW88744  11.785   5.089   2.588
62907SOL    HW188745  11.736   5.002   2.597
62907SOL    HW288746  11.762   5.132   2.501
62908SOL     OW88747  12.465   4.952   3.285
62908SOL    HW188748  12.502   4.879   3.227
62908SOL    HW288749  12.517   4.957   3.370
62909SOL     OW88750  11.981   3.728   2.364
62909SOL    HW188751  12.021   3.819   2.355
62909SOL    HW288752  11.881   3.736   2.370
62910SOL     OW88753  11.369   4.700   3.126
62910SOL    HW188754  11.458   4.655   3.112
62910SOL    HW288755  11.296   4.635   3.107
62911SOL     OW88756  12.359   5.516   3.478
62911SOL    HW188757  12.383   5.576   3.402
62911SOL    HW288758  12.366   5.421   3.448
62912SOL     OW88759  11.489   3.975   3.663
62912SOL    HW188760  11.560   4.046   3.669
62912SOL    HW288761  11.401   4.014   3.691
62913SOL     OW88762  12.638   5.141   2.815
62913SOL    HW188763  12.579   5.147   2.895
62913SOL    HW288764  12.623   5.053   2.769
62914SOL     OW88765  12.839   5.438   2.434
62914SOL    HW188766  12.798   5.415   2.346
62914SOL    HW288767  12.821   5.364   2.499
62915SOL     OW88768  11.770   4.453   2.132
62915SOL    HW188769  11.794   4.522   2.064
62915SOL    HW288770  11.692   4.486   2.186
62916SOL     OW88771  12.453   4.069   2.806
62916SOL    HW188772  12.367   4.019   2.793
62916SOL    HW288773  12.515   4.015   2.862
62917SOL     OW88774  11.979   4.329   3.327
62917SOL    HW188775  11.932   4.326   3.416
62917SOL    HW288776  11.928   4.274   3.261
62918SOL     OW88777  12.566   4.193   3.536
62918SOL    HW188778  12.546   4.236   3.624
62918SOL    HW288779  12.644   4.131   3.545
62919SOL     OW88780  12.145   4.614   3.434
62919SOL    HW188781  12.191   4.530   3.405
62919SOL    HW288782  12.089   4.648   3.359
62920SOL     OW88783  12.163   4.134   3.104
62920SOL    HW188784  12.086   4.168   3.158
62920SOL    HW288785  12.129   4.083   3.025
62921SOL     OW88786  12.213   4.425   2.291
62921SOL    HW188787  12.239   4.421   2.387
62921SOL    HW288788  12.128   4.374   2.277
62922SOL     OW88789  11.248   4.535   2.651
62922SOL    HW188790  11.347   4.523   2.660
62922SOL    HW288791  11.224   4.630   2.672
62923SOL     OW88792  11.302   5.545   3.433
62923SOL    HW188793  11.292   5.530   3.532
62923SOL    HW288794  11.216   5.581   3.397
62924SOL     OW88795  12.037   4.072   2.057
62924SOL    HW188796  12.096   4.135   2.008
62924SOL    HW288797  12.056   3.978   2.028
62925SOL     OW88798  12.534   4.868   2.407
62925SOL    HW188799  12.617   4.839   2.359
62925SOL    HW288800  12.485   4.935   2.351
62926SOL     OW88801  11.722   3.920   2.747
62926SOL    HW188802  11.717   3.915   2.847
62926SOL    HW288803  11.724   4.016   2.718
62927SOL     OW88804  12.180   5.180   2.339
62927SOL    HW188805  12.134   5.252   2.287
62927SOL    HW288806  12.176   5.200   2.437
62928SOL     OW88807  11.523   5.525   2.715
62928SOL    HW188808  11.573   5.439   2.721
62928SOL    HW288809  11.588   5.602   2.712
62929SOL     OW88810  12.399   5.274   3.368
62929SOL    HW188811  12.405   5.197   3.432
62929SOL    HW288812  12.347   5.248   3.288
62930SOL     OW88813  11.493   4.667   2.104
62930SOL    HW188814  11.575   4.706   2.062
62930SOL    HW288815  11.466   4.585   2.055
62931SOL     OW88816  12.630   4.459   2.590
62931SOL    HW188817  12.625   4.394   2.665
62931SOL    HW288818  12.710   4.518   2.603
62932SOL     OW88819  11.633   4.990   3.589
62932SOL    HW188820  11.583   4.991   3.503
62932SOL    HW288821  11.570   4.972   3.665
62933SOL     OW88822  12.283   5.500   2.099
62933SOL    HW188823  12.223   5.438   2.149
62933SOL    HW288824  12.314   5.456   2.014
62934SOL     OW88825  11.374   4.009   3.360
62934SOL    HW188826  11.294   4.069   3.347
62934SOL    HW288827  11.364   3.960   3.446
62935SOL     OW88828  11.636   5.467   2.185
62935SOL    HW188829  11.669   5.506   2.271
62935SOL    HW288830  11.712   5.460   2.120
62936SOL     OW88831  12.572   3.831   2.288
62936SOL    HW188832  12.548   3.794   2.198
62936SOL    HW288833  12.671   3.847   2.292
62937SOL     OW88834  11.421   5.509   3.103
62937SOL    HW188835  11.478   5.444   3.153
62937SOL    HW288836  11.405   5.476   3.010
62938SOL     OW88837  12.112   5.422   2.766
62938SOL    HW188838  12.192   5.365   2.787
62938SOL    HW288839  12.063   5.382   2.689
62939SOL     OW88840  11.554   4.424   2.342
62939SOL    HW188841  11.599   4.334   2.339
62939SOL    HW288842  11.460   4.413   2.375
62940SOL     OW88843  11.786   3.846   1.979
62940SOL    HW188844  11.884   3.824   1.986
62940SOL    HW288845  11.755   3.829   1.886
62941SOL     OW88846  11.953   3.988   3.611
62941SOL    HW188847  12.020   3.927   3.654
62941SOL    HW288848  11.880   4.007   3.676
62942SOL     OW88849  12.060   5.238   3.057
62942SOL    HW188850  12.037   5.213   2.963
62942SOL    HW288851  12.121   5.169   3.096
62943SOL     OW88852  12.523   4.314   3.295
62943SOL    HW188853  12.551   4.271   3.380
62943SOL    HW288854  12.548   4.410   3.296
62944SOL     OW88855  11.975   5.126   2.786
62944SOL    HW188856  12.065   5.140   2.744
62944SOL    HW288857  11.904   5.128   2.715
62945SOL     OW88858  12.094   4.227   2.761
62945SOL    HW188859  12.069   4.218   2.665
62945SOL    HW288860  12.142   4.145   2.792
62946SOL     OW88861  11.711   3.788   2.374
62946SOL    HW188862  11.630   3.789   2.432
62946SOL    HW288863  11.714   3.871   2.319
62947SOL     OW88864  12.606   4.912   1.903
62947SOL    HW188865  12.638   4.836   1.960
62947SOL    HW288866  12.514   4.939   1.933
62948SOL     OW88867  11.469   3.759   2.033
62948SOL    HW188868  11.518   3.843   2.012
62948SOL    HW288869  11.531   3.694   2.078
62949SOL     OW88870  12.107   3.960   2.342
62949SOL    HW188871  12.059   4.001   2.264
62949SOL    HW288872  12.206   3.958   2.323
62950SOL     OW88873  12.248   4.407   3.326
62950SOL    HW188874  12.168   4.346   3.329
62950SOL    HW288875  12.329   4.354   3.302
62951SOL     OW88876  12.399   5.294   2.655
62951SOL    HW188877  12.420   5.368   2.590
62951SOL    HW288878  12.467   5.294   2.728
62952SOL     OW88879  11.631   4.876   2.603
62952SOL    HW188880  11.560   4.849   2.668
62952SOL    HW288881  11.605   4.848   2.510
62953SOL     OW88882  12.443   5.521   2.453
62953SOL    HW188883  12.487   5.585   2.389
62953SOL    HW288884  12.393   5.573   2.523
62954SOL     OW88885  12.204   4.273   1.878
62954SOL    HW188886  12.163   4.355   1.839
62954SOL    HW288887  12.268   4.299   1.951
62955SOL     OW88888  11.250   4.280   3.248
62955SOL    HW188889  11.342   4.279   3.207
62955SOL    HW288890  11.244   4.354   3.315
62956SOL     OW88891  11.733   3.946   3.009
62956SOL    HW188892  11.771   3.862   3.046
62956SOL    HW288893  11.645   3.965   3.053
62957SOL     OW88894  12.038   4.178   2.504
62957SOL    HW188895  12.006   4.250   2.442
62957SOL    HW288896  12.062   4.097   2.451
62958SOL     OW88897  12.189   3.763   2.615
62958SOL    HW188898  12.117   3.768   2.546
62958SOL    HW288899  12.165   3.694   2.684
62959SOL     OW88900  12.601   4.897   2.729
62959SOL    HW188901  12.546   4.813   2.722
62959SOL    HW288902  12.627   4.926   2.637
62960SOL     OW88903  12.638   4.314   2.854
62960SOL    HW188904  12.608   4.219   2.861
62960SOL    HW288905  12.711   4.330   2.920
62961SOL     OW88906  11.660   5.109   2.036
62961SOL    HW188907  11.573   5.094   2.083
62961SOL    HW288908  11.643   5.135   1.941
62962SOL     OW88909  12.562   4.299   1.940
62962SOL    HW188910  12.508   4.278   2.021
62962SOL    HW288911  12.653   4.258   1.949
62963SOL     OW88912  11.699   3.980   2.190
62963SOL    HW188913  11.726   3.921   2.115
62963SOL    HW288914  11.699   4.075   2.159
62964SOL     OW88915  12.236   5.071   3.202
62964SOL    HW188916  12.156   5.048   3.257
62964SOL    HW288917  12.319   5.045   3.251
62965SOL     OW88918  12.764   5.353   3.487
62965SOL    HW188919  12.791   5.387   3.397
62965SOL    HW288920  12.843   5.315   3.533
62966SOL     OW88921  12.283   4.919   2.962
62966SOL    HW188922  12.243   4.963   3.043
62966SOL    HW288923  12.242   4.956   2.879
62967SOL     OW88924  12.087   3.813   3.264
62967SOL    HW188925  12.112   3.793   3.169
62967SOL    HW288926  12.159   3.869   3.306
62968SOL     OW88927  12.152   4.840   3.581
62968SOL    HW188928  12.053   4.846   3.591
62968SOL    HW288929  12.175   4.760   3.525
62969SOL     OW88930  11.877   4.774   2.230
62969SOL    HW188931  11.863   4.781   2.329
62969SOL    HW288932  11.961   4.723   2.212
62970SOL     OW88933  11.582   4.537   3.113
62970SOL    HW188934  11.668   4.549   3.163
62970SOL    HW288935  11.540   4.450   3.140
62971SOL     OW88936  12.446   4.110   3.124
62971SOL    HW188937  12.467   4.184   3.188
62971SOL    HW288938  12.357   4.127   3.081
62972SOL     OW88939  11.236   5.288   3.193
62972SOL    HW188940  11.190   5.370   3.159
62972SOL    HW288941  11.334   5.307   3.202
62973SOL     OW88942  11.539   4.824   2.363
62973SOL    HW188943  11.532   4.907   2.307
62973SOL    HW288944  11.543   4.744   2.303
62974SOL     OW88945  11.738   4.261   2.727
62974SOL    HW188946  11.750   4.327   2.653
62974SOL    HW288947  11.784   4.295   2.810
62975SOL     OW88948  12.424   5.072   2.250
62975SOL    HW188949  12.474   5.149   2.290
62975SOL    HW288950  12.329   5.074   2.282
62976SOL     OW88951  12.444   5.169   3.004
62976SOL    HW188952  12.491   5.182   3.091
62976SOL    HW288953  12.378   5.095   3.013
62977SOL     OW88954  12.754   4.363   2.334
62977SOL    HW188955  12.723   4.424   2.407
62977SOL    HW288956  12.804   4.415   2.265
62978SOL     OW88957  11.526   5.234   3.191
62978SOL    HW188958  11.505   5.190   3.104
62978SOL    HW288959  11.623   5.260   3.194
62979SOL     OW88960  11.574   4.475   3.460
62979SOL    HW188961  11.642   4.530   3.413
62979SOL    HW288962  11.614   4.387   3.487
62980SOL     OW88963  12.185   3.829   3.632
62980SOL    HW188964  12.191   3.914   3.580
62980SOL    HW288965  12.217   3.753   3.575
62981SOL     OW88966  11.676   3.774   3.602
62981SOL    HW188967  11.634   3.717   3.532
62981SOL    HW288968  11.610   3.843   3.634
62982SOL     OW88969  11.745   4.594   2.891
62982SOL    HW188970  11.789   4.683   2.882
62982SOL    HW288971  11.682   4.594   2.968
62983SOL     OW88972  12.532   4.586   2.907
62983SOL    HW188973  12.457   4.586   2.841
62983SOL    HW288974  12.569   4.494   2.916
62984SOL     OW88975  12.381   4.249   2.137
62984SOL    HW188976  12.394   4.165   2.191
62984SOL    HW288977  12.352   4.323   2.197
62985SOL     OW88978  11.479   3.937   3.093
62985SOL    HW188979  11.456   3.974   3.183
62985SOL    HW288980  11.449   3.842   3.087
62986SOL     OW88981  11.209   5.034   3.144
62986SOL    HW188982  11.262   4.985   3.212
62986SOL    HW288983  11.231   5.132   3.149
62987SOL     OW88984  11.904   4.358   2.926
62987SOL    HW188985  11.963   4.332   2.850
62987SOL    HW288986  11.876   4.454   2.915
62988SOL     OW88987  11.479   3.787   2.480
62988SOL    HW188988  11.468   3.881   2.513
62988SOL    HW288989  11.474   3.724   2.557
62989SOL     OW88990  12.794   4.091   2.236
62989SOL    HW188991  12.796   4.015   2.300
62989SOL    HW288992  12.746   4.168   2.276
62990SOL     OW88993  12.195   4.490   2.828
62990SOL    HW188994  12.210   4.511   2.924
62990SOL    HW288995  12.165   4.395   2.819
62991SOL     OW88996  12.152   5.297   3.562
62991SOL    HW188997  12.132   5.341   3.474
62991SOL    HW288998  12.191   5.206   3.546
62992SOL     OW88999  11.522   4.622   3.666
62992SOL    HW189000  11.598   4.666   3.714
62992SOL    HW289001  11.557   4.575   3.584
62993SOL     OW89002  12.712   3.998   1.987
62993SOL    HW189003  12.651   3.923   2.010
62993SOL    HW289004  12.734   4.050   2.070
62994SOL     OW89005  12.475   4.562   1.904
62994SOL    HW189006  12.509   4.469   1.919
62994SOL    HW289007  12.493   4.589   1.809
62995SOL     OW89008  12.240   5.057   2.711
62995SOL    HW189009  12.247   4.973   2.656
62995SOL    HW289010  12.302   5.126   2.675
62996SOL     OW89011  11.491   4.534   2.811
62996SOL    HW189012  11.584   4.570   2.816
62996SOL    HW289013  11.485   4.449   2.863
62997SOL     OW89014  11.511   4.233   2.868
62997SOL    HW189015  11.459   4.150   2.851
62997SOL    HW289016  11.588   4.238   2.804
62998SOL     OW89017  12.310   4.104   3.540
62998SOL    HW189018  12.265   4.167   3.604
62998SOL    HW289019  12.403   4.135   3.523
62999SOL     OW89020  12.332   3.931   3.339
62999SOL    HW189021  12.332   3.995   3.416
62999SOL    HW289022  12.360   3.979   3.256
63000SOL     OW89023  11.180   5.050   2.062
63000SOL    HW189024  11.087   5.071   2.031
63000SOL    HW289025  11.190   4.951   2.075
63001SOL     OW89026  11.260   5.525   2.789
63001SOL    HW189027  11.218   5.439   2.762
63001SOL    HW289028  11.354   5.528   2.755
63002SOL     OW89029  11.676   5.292   2.772
63002SOL    HW189030  11.742   5.366   2.781
63002SOL    HW289031  11.720   5.213   2.730
63003SOL     OW89032  12.174   4.520   3.100
63003SOL    HW189033  12.215   4.488   3.186
63003SOL    HW289034  12.078   4.493   3.097
63004SOL     OW89035  11.212   4.268   2.976
63004SOL    HW189036  11.297   4.235   2.935
63004SOL    HW289037  11.225   4.283   3.074
63005SOL     OW89038  11.361   4.244   3.584
63005SOL    HW189039  11.420   4.204   3.514
63005SOL    HW289040  11.303   4.315   3.543
63006SOL     OW89041  12.541   4.674   3.522
63006SOL    HW189042  12.580   4.763   3.542
63006SOL    HW289043  12.551   4.654   3.425
63007SOL     OW89044  11.987   4.296   2.187
63007SOL    HW189045  11.994   4.207   2.141
63007SOL    HW289046  11.893   4.330   2.179
63008SOL     OW89047  11.424   5.288   3.606
63008SOL    HW189048  11.394   5.345   3.682
63008SOL    HW289049  11.417   5.191   3.632
63009SOL     OW89050  11.843   4.188   3.131
63009SOL    HW189051  11.809   4.099   3.101
63009SOL    HW289052  11.869   4.242   3.051
63010SOL     OW89053  12.102   5.402   3.327
63010SOL    HW189054  12.078   5.384   3.232
63010SOL    HW289055  12.132   5.496   3.337
63011SOL     OW89056  11.645   4.224   2.053
63011SOL    HW189057  11.706   4.304   2.057
63011SOL    HW289058  11.550   4.255   2.060
63012SOL     OW89059  11.331   4.861   3.328
63012SOL    HW189060  11.353   4.800   3.404
63012SOL    HW289061  11.341   4.812   3.242
63013SOL     OW89062  12.519   4.783   3.096
63013SOL    HW189063  12.543   4.720   3.022
63013SOL    HW289064  12.429   4.823   3.078
63014SOL     OW89065  12.474   4.579   2.171
63014SOL    HW189066  12.388   4.548   2.213
63014SOL    HW289067  12.470   4.565   2.072
63015SOL     OW89068  12.424   5.455   2.990
63015SOL    HW189069  12.508   5.460   2.936
63015SOL    HW289070  12.401   5.359   3.008
63016SOL     OW89071  11.255   4.982   2.884
63016SOL    HW189072  11.250   4.981   2.984
63016SOL    HW289073  11.172   4.941   2.846
63017SOL     OW89074  11.860   5.386   3.578
63017SOL    HW189075  11.804   5.467   3.587
63017SOL    HW289076  11.912   5.390   3.492
63018SOL     OW89077  12.898   3.859   2.385
63018SOL    HW189078  12.971   3.842   2.318
63018SOL    HW289079  12.867   3.772   2.423
63019SOL     OW89080  12.560   5.297   2.339
63019SOL    HW189081  12.627   5.309   2.265
63019SOL    HW289082  12.520   5.386   2.362
63020SOL     OW89083  11.302   5.518   3.713
63020SOL    HW189084  11.261   5.444   3.766
63020SOL    HW289085  11.366   5.569   3.771
63021SOL     OW89086  12.452   4.651   2.534
63021SOL    HW189087  12.512   4.570   2.536
63021SOL    HW289088  12.492   4.720   2.474
63022SOL     OW89089  12.002   4.997   3.284
63022SOL    HW189090  11.997   5.030   3.379
63022SOL    HW289091  11.916   5.016   3.238
63023SOL     OW89092  11.844   5.340   2.016
63023SOL    HW189093  11.853   5.350   1.917
63023SOL    HW289094  11.804   5.251   2.037
63024SOL     OW89095  11.435   4.050   2.582
63024SOL    HW189096  11.356   4.101   2.548
63024SOL    HW289097  11.426   4.035   2.680
63025SOL     OW89098  12.366   5.336   1.893
63025SOL    HW189099  12.372   5.243   1.930
63025SOL    HW289100  12.307   5.336   1.813
63026SOL     OW89101  11.994   4.726   3.234
63026SOL    HW189102  12.034   4.725   3.142
63026SOL    HW289103  12.004   4.818   3.274
63027SOL     OW89104  12.088   4.634   2.153
63027SOL    HW189105  12.151   4.672   2.085
63027SOL    HW289106  12.128   4.551   2.192
63028SOL     OW89107  12.676   5.331   1.906
63028SOL    HW189108  12.584   5.368   1.913
63028SOL    HW289109  12.714   5.351   1.816
63029SOL     OW89110  11.544   5.012   3.352
63029SOL    HW189111  11.531   5.105   3.318
63029SOL    HW289112  11.460   4.960   3.339
63030SOL     OW89113  12.211   4.822   2.558
63030SOL    HW189114  12.141   4.775   2.612
63030SOL    HW289115  12.270   4.754   2.515
63031SOL     OW89116  12.186   3.960   2.833
63031SOL    HW189117  12.178   3.924   2.740
63031SOL    HW289118  12.184   3.884   2.898
63032SOL     OW89119  11.762   5.211   2.353
63032SOL    HW189120  11.804   5.153   2.283
63032SOL    HW289121  11.718   5.290   2.309
63033SOL     OW89122  11.427   5.072   2.152
63033SOL    HW189123  11.331   5.073   2.125
63033SOL    HW289124  11.439   5.125   2.236
63034SOL     OW89125  11.277   4.737   3.588
63034SOL    HW189126  11.200   4.704   3.642
63034SOL    HW289127  11.362   4.707   3.630
63035SOL     OW89128  11.844   3.927   3.351
63035SOL    HW189129  11.934   3.911   3.311
63035SOL    HW289130  11.852   3.932   3.450
63036SOL     OW89131  11.247   4.069   1.895
63036SOL    HW189132  11.155   4.041   1.866
63036SOL    HW289133  11.278   4.146   1.839
63037SOL     OW89134  12.612   4.580   3.260
63037SOL    HW189135  12.555   4.632   3.197
63037SOL    HW289136  12.708   4.592   3.236
63038SOL     OW89137  11.244   3.890   2.180
63038SOL    HW189138  11.227   3.973   2.126
63038SOL    HW289139  11.334   3.853   2.158
63039SOL     OW89140  12.355   5.059   1.981
63039SOL    HW189141  12.256   5.048   1.983
63039SOL    HW289142  12.389   5.074   2.074
63040SOL     OW89143  11.785   4.566   3.293
63040SOL    HW189144  11.841   4.647   3.276
63040SOL    HW289145  11.844   4.486   3.296
63041SOL     OW89146  12.665   5.491   2.821
63041SOL    HW189147  12.698   5.555   2.752
63041SOL    HW289148  12.731   5.485   2.896
63042SOL     OW89149  11.888   4.289   3.570
63042SOL    HW189150  11.907   4.354   3.644
63042SOL    HW289151  11.948   4.209   3.579
63043SOL     OW89152  12.622   4.944   3.495
63043SOL    HW189153  12.613   4.934   3.594
63043SOL    HW289154  12.718   4.937   3.469
63044SOL     OW89155  11.562   5.465   3.422
63044SOL    HW189156  11.471   5.506   3.420
63044SOL    HW289157  11.555   5.371   3.454
63045SOL     OW89158  12.397   4.049   2.311
63045SOL    HW189159  12.462   3.975   2.300
63045SOL    HW289160  12.417   4.099   2.395
63046SOL     OW89161  11.766   4.469   2.514
63046SOL    HW189162  11.816   4.554   2.495
63046SOL    HW289163  11.678   4.471   2.466
63047SOL     OW89164  12.031   5.098   1.878
63047SOL    HW189165  11.985   5.113   1.966
63047SOL    HW289166  12.075   5.183   1.848
63048SOL     OW89167  11.833   5.514   2.815
63048SOL    HW189168  11.787   5.602   2.802
63048SOL    HW289169  11.932   5.526   2.808
63049SOL     OW89170  12.031   4.680   2.723
63049SOL    HW189171  12.085   4.611   2.771
63049SOL    HW289172  11.999   4.749   2.789
63050SOL     OW89173  12.255   4.708   1.949
63050SOL    HW189174  12.232   4.761   1.867
63050SOL    HW289175  12.336   4.652   1.930
63051SOL     OW89176  13.033   5.293   2.713
63051SOL    HW189177  12.962   5.281   2.643
63051SOL    HW289178  13.034   5.214   2.773
63052SOL     OW89179  11.393   5.038   3.706
63052SOL    HW189180  11.328   4.965   3.685
63052SOL    HW289181  11.397   5.052   3.804
63053SOL     OW89182  11.251   4.964   2.515
63053SOL    HW189183  11.250   4.917   2.603
63053SOL    HW289184  11.333   4.936   2.464
63054SOL     OW89185  11.844   5.115   3.486
63054SOL    HW189186  11.766   5.065   3.524
63054SOL    HW289187  11.841   5.210   3.517
63055SOL     OW89188  11.600   4.148   2.382
63055SOL    HW189189  11.630   4.076   2.320
63055SOL    HW289190  11.561   4.108   2.465
63056SOL     OW89191  11.489   4.271   3.142
63056SOL    HW189192  11.527   4.212   3.214
63056SOL    HW289193  11.529   4.245   3.054
63057SOL     OW89194  11.984   5.310   2.549
63057SOL    HW189195  12.016   5.320   2.455
63057SOL    HW289196  11.905   5.248   2.551
63058SOL     OW89197  12.596   3.938   2.974
63058SOL    HW189198  12.648   3.873   3.029
63058SOL    HW289199  12.547   4.001   3.035
63059SOL     OW89200  12.173   3.758   3.016
63059SOL    HW189201  12.110   3.686   2.985
63059SOL    HW289202  12.266   3.722   3.016
63060SOL     OW89203  11.942   5.054   2.163
63060SOL    HW189204  11.896   4.967   2.180
63060SOL    HW289205  12.033   5.051   2.204
63061SOL     OW89206  11.790   5.291   3.146
63061SOL    HW189207  11.785   5.373   3.203
63061SOL    HW289208  11.879   5.288   3.101
63062SOL     OW89209  12.524   3.776   2.030
63062SOL    HW189210  12.559   3.735   1.946
63062SOL    HW289211  12.434   3.738   2.050
63063SOL     OW89212  12.472   4.177   2.553
63063SOL    HW189213  12.413   4.257   2.557
63063SOL    HW289214  12.487   4.142   2.646
63064SOL     OW89215  12.765   3.945   2.744
63064SOL    HW189216  12.681   3.944   2.798
63064SOL    HW289217  12.767   4.028   2.688
63065SOL     OW89218  11.211   4.801   2.162
63065SOL    HW189219  11.310   4.790   2.153
63065SOL    HW289220  11.171   4.715   2.194
63066SOL     OW89221  12.047   5.370   2.199
63066SOL    HW189222  11.970   5.335   2.145
63066SOL    HW289223  12.015   5.441   2.261
63067SOL     OW89224  11.402   4.352   3.837
63067SOL    HW189225  11.309   4.350   3.874
63067SOL    HW289226  11.403   4.313   3.745
63068SOL     OW89227  11.397   3.999   4.720
63068SOL    HW189228  11.432   3.982   4.812
63068SOL    HW289229  11.309   3.954   4.708
63069SOL     OW89230  11.191   4.092   4.371
63069SOL    HW189231  11.109   4.135   4.410
63069SOL    HW289232  11.163   4.019   4.308
63070SOL     OW89233  11.741   4.999   4.889
63070SOL    HW189234  11.648   4.992   4.852
63070SOL    HW289235  11.752   5.088   4.933
63071SOL     OW89236  12.727   5.235   4.427
63071SOL    HW189237  12.670   5.219   4.508
63071SOL    HW289238  12.668   5.245   4.347
63072SOL     OW89239  12.307   4.427   4.441
63072SOL    HW189240  12.364   4.505   4.416
63072SOL    HW289241  12.247   4.453   4.517
63073SOL     OW89242  11.940   4.868   4.747
63073SOL    HW189243  11.862   4.885   4.807
63073SOL    HW289244  11.974   4.955   4.711
63074SOL     OW89245  12.022   4.522   5.547
63074SOL    HW189246  12.018   4.598   5.612
63074SOL    HW289247  12.044   4.558   5.456
63075SOL     OW89248  11.857   4.736   4.389
63075SOL    HW189249  11.926   4.720   4.459
63075SOL    HW289250  11.784   4.793   4.427
63076SOL     OW89251  11.858   4.885   5.527
63076SOL    HW189252  11.918   4.964   5.541
63076SOL    HW289253  11.772   4.916   5.486
63077SOL     OW89254  11.507   5.159   4.785
63077SOL    HW189255  11.429   5.128   4.732
63077SOL    HW289256  11.565   5.217   4.728
63078SOL     OW89257  12.632   5.229   5.063
63078SOL    HW189258  12.656   5.323   5.089
63078SOL    HW289259  12.616   5.175   5.145
63079SOL     OW89260  11.610   4.116   5.223
63079SOL    HW189261  11.692   4.060   5.232
63079SOL    HW289262  11.529   4.058   5.227
63080SOL     OW89263  11.403   5.437   4.207
63080SOL    HW189264  11.437   5.514   4.261
63080SOL    HW289265  11.447   5.437   4.117
63081SOL     OW89266  12.299   5.065   5.414
63081SOL    HW189267  12.346   5.065   5.502
63081SOL    HW289268  12.251   4.978   5.403
63082SOL     OW89269  11.402   5.158   4.262
63082SOL    HW189270  11.376   5.254   4.262
63082SOL    HW289271  11.331   5.104   4.307
63083SOL     OW89272  11.412   4.815   4.610
63083SOL    HW189273  11.426   4.731   4.662
63083SOL    HW289274  11.357   4.879   4.665
63084SOL     OW89275  11.792   5.510   5.163
63084SOL    HW189276  11.700   5.493   5.198
63084SOL    HW289277  11.820   5.602   5.189
63085SOL     OW89278  11.778   4.688   3.847
63085SOL    HW189279  11.785   4.772   3.793
63085SOL    HW289280  11.824   4.701   3.935
63086SOL     OW89281  12.766   3.838   5.204
63086SOL    HW189282  12.748   3.905   5.132
63086SOL    HW289283  12.763   3.884   5.293
63087SOL     OW89284  11.294   4.367   4.287
63087SOL    HW189285  11.249   4.279   4.304
63087SOL    HW289286  11.293   4.421   4.371
63088SOL     OW89287  11.199   5.320   3.841
63088SOL    HW189288  11.180   5.224   3.862
63088SOL    HW289289  11.166   5.378   3.916
63089SOL     OW89290  12.861   4.646   4.336
63089SOL    HW189291  12.956   4.617   4.344
63089SOL    HW289292  12.853   4.711   4.261
63090SOL     OW89293  11.285   4.461   5.321
63090SOL    HW189294  11.373   4.448   5.366
63090SOL    HW289295  11.272   4.558   5.299
63091SOL     OW89296  11.785   5.089   4.450
63091SOL    HW189297  11.736   5.002   4.459
63091SOL    HW289298  11.762   5.132   4.363
63092SOL     OW89299  12.465   4.952   5.147
63092SOL    HW189300  12.502   4.879   5.089
63092SOL    HW289301  12.517   4.957   5.232
63093SOL     OW89302  11.981   3.728   4.226
63093SOL    HW189303  12.021   3.819   4.217
63093SOL    HW289304  11.881   3.736   4.232
63094SOL     OW89305  11.369   4.700   4.988
63094SOL    HW189306  11.458   4.655   4.974
63094SOL    HW289307  11.296   4.635   4.969
63095SOL     OW89308  12.359   5.516   5.340
63095SOL    HW189309  12.383   5.576   5.264
63095SOL    HW289310  12.366   5.421   5.310
63096SOL     OW89311  11.489   3.975   5.525
63096SOL    HW189312  11.560   4.046   5.531
63096SOL    HW289313  11.401   4.014   5.553
63097SOL     OW89314  12.638   5.141   4.677
63097SOL    HW189315  12.579   5.147   4.757
63097SOL    HW289316  12.623   5.053   4.631
63098SOL     OW89317  12.839   5.438   4.296
63098SOL    HW189318  12.798   5.415   4.208
63098SOL    HW289319  12.821   5.364   4.361
63099SOL     OW89320  11.770   4.453   3.994
63099SOL    HW189321  11.794   4.522   3.926
63099SOL    HW289322  11.692   4.486   4.048
63100SOL     OW89323  12.453   4.069   4.668
63100SOL    HW189324  12.367   4.019   4.655
63100SOL    HW289325  12.515   4.015   4.724
63101SOL     OW89326  11.979   4.329   5.189
63101SOL    HW189327  11.932   4.326   5.278
63101SOL    HW289328  11.928   4.274   5.123
63102SOL     OW89329  12.566   4.193   5.398
63102SOL    HW189330  12.546   4.236   5.486
63102SOL    HW289331  12.644   4.131   5.407
63103SOL     OW89332  12.145   4.614   5.296
63103SOL    HW189333  12.191   4.530   5.267
63103SOL    HW289334  12.089   4.648   5.221
63104SOL     OW89335  12.163   4.134   4.966
63104SOL    HW189336  12.086   4.168   5.020
63104SOL    HW289337  12.129   4.083   4.887
63105SOL     OW89338  12.213   4.425   4.153
63105SOL    HW189339  12.239   4.421   4.249
63105SOL    HW289340  12.128   4.374   4.139
63106SOL     OW89341  11.248   4.535   4.513
63106SOL    HW189342  11.347   4.523   4.522
63106SOL    HW289343  11.224   4.630   4.534
63107SOL     OW89344  11.302   5.545   5.295
63107SOL    HW189345  11.292   5.530   5.394
63107SOL    HW289346  11.216   5.581   5.259
63108SOL     OW89347  12.037   4.072   3.919
63108SOL    HW189348  12.096   4.135   3.870
63108SOL    HW289349  12.056   3.978   3.890
63109SOL     OW89350  12.534   4.868   4.269
63109SOL    HW189351  12.617   4.839   4.221
63109SOL    HW289352  12.485   4.935   4.213
63110SOL     OW89353  11.722   3.920   4.609
63110SOL    HW189354  11.717   3.915   4.709
63110SOL    HW289355  11.724   4.016   4.580
63111SOL     OW89356  12.180   5.180   4.201
63111SOL    HW189357  12.134   5.252   4.149
63111SOL    HW289358  12.176   5.200   4.299
63112SOL     OW89359  11.523   5.525   4.577
63112SOL    HW189360  11.573   5.439   4.583
63112SOL    HW289361  11.588   5.602   4.574
63113SOL     OW89362  12.399   5.274   5.230
63113SOL    HW189363  12.405   5.197   5.294
63113SOL    HW289364  12.347   5.248   5.150
63114SOL     OW89365  11.493   4.667   3.966
63114SOL    HW189366  11.575   4.706   3.924
63114SOL    HW289367  11.466   4.585   3.917
63115SOL     OW89368  12.630   4.459   4.452
63115SOL    HW189369  12.625   4.394   4.527
63115SOL    HW289370  12.710   4.518   4.465
63116SOL     OW89371  11.633   4.990   5.451
63116SOL    HW189372  11.583   4.991   5.365
63116SOL    HW289373  11.570   4.972   5.527
63117SOL     OW89374  12.283   5.500   3.961
63117SOL    HW189375  12.223   5.438   4.011
63117SOL    HW289376  12.314   5.456   3.876
63118SOL     OW89377  11.374   4.009   5.222
63118SOL    HW189378  11.294   4.069   5.209
63118SOL    HW289379  11.364   3.960   5.308
63119SOL     OW89380  11.636   5.467   4.047
63119SOL    HW189381  11.669   5.506   4.133
63119SOL    HW289382  11.712   5.460   3.982
63120SOL     OW89383  12.572   3.831   4.150
63120SOL    HW189384  12.548   3.794   4.060
63120SOL    HW289385  12.671   3.847   4.154
63121SOL     OW89386  11.421   5.509   4.965
63121SOL    HW189387  11.478   5.444   5.015
63121SOL    HW289388  11.405   5.476   4.872
63122SOL     OW89389  12.112   5.422   4.628
63122SOL    HW189390  12.192   5.365   4.649
63122SOL    HW289391  12.063   5.382   4.551
63123SOL     OW89392  11.554   4.424   4.204
63123SOL    HW189393  11.599   4.334   4.201
63123SOL    HW289394  11.460   4.413   4.237
63124SOL     OW89395  11.786   3.846   3.841
63124SOL    HW189396  11.884   3.824   3.848
63124SOL    HW289397  11.755   3.829   3.748
63125SOL     OW89398  11.953   3.988   5.473
63125SOL    HW189399  12.020   3.927   5.516
63125SOL    HW289400  11.880   4.007   5.538
63126SOL     OW89401  12.060   5.238   4.919
63126SOL    HW189402  12.037   5.213   4.825
63126SOL    HW289403  12.121   5.169   4.958
63127SOL     OW89404  12.523   4.314   5.157
63127SOL    HW189405  12.551   4.271   5.242
63127SOL    HW289406  12.548   4.410   5.158
63128SOL     OW89407  11.975   5.126   4.648
63128SOL    HW189408  12.065   5.140   4.606
63128SOL    HW289409  11.904   5.128   4.577
63129SOL     OW89410  12.094   4.227   4.623
63129SOL    HW189411  12.069   4.218   4.527
63129SOL    HW289412  12.142   4.145   4.654
63130SOL     OW89413  11.711   3.788   4.236
63130SOL    HW189414  11.630   3.789   4.294
63130SOL    HW289415  11.714   3.871   4.181
63131SOL     OW89416  12.606   4.912   3.765
63131SOL    HW189417  12.638   4.836   3.822
63131SOL    HW289418  12.514   4.939   3.795
63132SOL     OW89419  11.469   3.759   3.895
63132SOL    HW189420  11.518   3.843   3.874
63132SOL    HW289421  11.531   3.694   3.940
63133SOL     OW89422  12.107   3.960   4.204
63133SOL    HW189423  12.059   4.001   4.126
63133SOL    HW289424  12.206   3.958   4.185
63134SOL     OW89425  12.248   4.407   5.188
63134SOL    HW189426  12.168   4.346   5.191
63134SOL    HW289427  12.329   4.354   5.164
63135SOL     OW89428  12.399   5.294   4.517
63135SOL    HW189429  12.420   5.368   4.452
63135SOL    HW289430  12.467   5.294   4.590
63136SOL     OW89431  11.631   4.876   4.465
63136SOL    HW189432  11.560   4.849   4.530
63136SOL    HW289433  11.605   4.848   4.372
63137SOL     OW89434  12.443   5.521   4.315
63137SOL    HW189435  12.487   5.585   4.251
63137SOL    HW289436  12.393   5.573   4.385
63138SOL     OW89437  12.204   4.273   3.740
63138SOL    HW189438  12.163   4.355   3.701
63138SOL    HW289439  12.268   4.299   3.813
63139SOL     OW89440  11.250   4.280   5.110
63139SOL    HW189441  11.342   4.279   5.069
63139SOL    HW289442  11.244   4.354   5.177
63140SOL     OW89443  11.733   3.946   4.871
63140SOL    HW189444  11.771   3.862   4.908
63140SOL    HW289445  11.645   3.965   4.915
63141SOL     OW89446  12.038   4.178   4.366
63141SOL    HW189447  12.006   4.250   4.304
63141SOL    HW289448  12.062   4.097   4.313
63142SOL     OW89449  12.189   3.763   4.477
63142SOL    HW189450  12.117   3.768   4.408
63142SOL    HW289451  12.165   3.694   4.546
63143SOL     OW89452  12.601   4.897   4.591
63143SOL    HW189453  12.546   4.813   4.584
63143SOL    HW289454  12.627   4.926   4.499
63144SOL     OW89455  12.638   4.314   4.716
63144SOL    HW189456  12.608   4.219   4.723
63144SOL    HW289457  12.711   4.330   4.782
63145SOL     OW89458  11.660   5.109   3.898
63145SOL    HW189459  11.573   5.094   3.945
63145SOL    HW289460  11.643   5.135   3.803
63146SOL     OW89461  12.562   4.299   3.802
63146SOL    HW189462  12.508   4.278   3.883
63146SOL    HW289463  12.653   4.258   3.811
63147SOL     OW89464  11.699   3.980   4.052
63147SOL    HW189465  11.726   3.921   3.977
63147SOL    HW289466  11.699   4.075   4.021
63148SOL     OW89467  12.236   5.071   5.064
63148SOL    HW189468  12.156   5.048   5.119
63148SOL    HW289469  12.319   5.045   5.113
63149SOL     OW89470  12.764   5.353   5.349
63149SOL    HW189471  12.791   5.387   5.259
63149SOL    HW289472  12.843   5.315   5.395
63150SOL     OW89473  12.283   4.919   4.824
63150SOL    HW189474  12.243   4.963   4.905
63150SOL    HW289475  12.242   4.956   4.741
63151SOL     OW89476  12.087   3.813   5.126
63151SOL    HW189477  12.112   3.793   5.031
63151SOL    HW289478  12.159   3.869   5.168
63152SOL     OW89479  12.152   4.840   5.443
63152SOL    HW189480  12.053   4.846   5.453
63152SOL    HW289481  12.175   4.760   5.387
63153SOL     OW89482  11.877   4.774   4.092
63153SOL    HW189483  11.863   4.781   4.191
63153SOL    HW289484  11.961   4.723   4.074
63154SOL     OW89485  11.582   4.537   4.975
63154SOL    HW189486  11.668   4.549   5.025
63154SOL    HW289487  11.540   4.450   5.002
63155SOL     OW89488  12.446   4.110   4.986
63155SOL    HW189489  12.467   4.184   5.050
63155SOL    HW289490  12.357   4.127   4.943
63156SOL     OW89491  11.236   5.288   5.055
63156SOL    HW189492  11.190   5.370   5.021
63156SOL    HW289493  11.334   5.307   5.064
63157SOL     OW89494  11.539   4.824   4.225
63157SOL    HW189495  11.532   4.907   4.169
63157SOL    HW289496  11.543   4.744   4.165
63158SOL     OW89497  11.738   4.261   4.589
63158SOL    HW189498  11.750   4.327   4.515
63158SOL    HW289499  11.784   4.295   4.672
63159SOL     OW89500  12.424   5.072   4.112
63159SOL    HW189501  12.474   5.149   4.152
63159SOL    HW289502  12.329   5.074   4.144
63160SOL     OW89503  12.444   5.169   4.866
63160SOL    HW189504  12.491   5.182   4.953
63160SOL    HW289505  12.378   5.095   4.875
63161SOL     OW89506  12.754   4.363   4.196
63161SOL    HW189507  12.723   4.424   4.269
63161SOL    HW289508  12.804   4.415   4.127
63162SOL     OW89509  11.526   5.234   5.053
63162SOL    HW189510  11.505   5.190   4.966
63162SOL    HW289511  11.623   5.260   5.056
63163SOL     OW89512  11.574   4.475   5.322
63163SOL    HW189513  11.642   4.530   5.275
63163SOL    HW289514  11.614   4.387   5.349
63164SOL     OW89515  12.185   3.829   5.494
63164SOL    HW189516  12.191   3.914   5.442
63164SOL    HW289517  12.217   3.753   5.437
63165SOL     OW89518  11.676   3.774   5.464
63165SOL    HW189519  11.634   3.717   5.394
63165SOL    HW289520  11.610   3.843   5.496
63166SOL     OW89521  11.745   4.594   4.753
63166SOL    HW189522  11.789   4.683   4.744
63166SOL    HW289523  11.682   4.594   4.830
63167SOL     OW89524  12.532   4.586   4.769
63167SOL    HW189525  12.457   4.586   4.703
63167SOL    HW289526  12.569   4.494   4.778
63168SOL     OW89527  12.381   4.249   3.999
63168SOL    HW189528  12.394   4.165   4.053
63168SOL    HW289529  12.352   4.323   4.059
63169SOL     OW89530  11.479   3.937   4.955
63169SOL    HW189531  11.456   3.974   5.045
63169SOL    HW289532  11.449   3.842   4.949
63170SOL     OW89533  11.209   5.034   5.006
63170SOL    HW189534  11.262   4.985   5.074
63170SOL    HW289535  11.231   5.132   5.011
63171SOL     OW89536  11.904   4.358   4.788
63171SOL    HW189537  11.963   4.332   4.712
63171SOL    HW289538  11.876   4.454   4.777
63172SOL     OW89539  11.479   3.787   4.342
63172SOL    HW189540  11.468   3.881   4.375
63172SOL    HW289541  11.474   3.724   4.419
63173SOL     OW89542  12.794   4.091   4.098
63173SOL    HW189543  12.796   4.015   4.162
63173SOL    HW289544  12.746   4.168   4.138
63174SOL     OW89545  12.195   4.490   4.690
63174SOL    HW189546  12.210   4.511   4.786
63174SOL    HW289547  12.165   4.395   4.681
63175SOL     OW89548  12.152   5.297   5.424
63175SOL    HW189549  12.132   5.341   5.336
63175SOL    HW289550  12.191   5.206   5.408
63176SOL     OW89551  11.522   4.622   5.528
63176SOL    HW189552  11.598   4.666   5.576
63176SOL    HW289553  11.557   4.575   5.446
63177SOL     OW89554  12.712   3.998   3.849
63177SOL    HW189555  12.651   3.923   3.872
63177SOL    HW289556  12.734   4.050   3.932
63178SOL     OW89557  12.475   4.562   3.766
63178SOL    HW189558  12.509   4.469   3.781
63178SOL    HW289559  12.493   4.589   3.671
63179SOL     OW89560  12.240   5.057   4.573
63179SOL    HW189561  12.247   4.973   4.518
63179SOL    HW289562  12.302   5.126   4.537
63180SOL     OW89563  11.491   4.534   4.673
63180SOL    HW189564  11.584   4.570   4.678
63180SOL    HW289565  11.485   4.449   4.725
63181SOL     OW89566  11.511   4.233   4.730
63181SOL    HW189567  11.459   4.150   4.713
63181SOL    HW289568  11.588   4.238   4.666
63182SOL     OW89569  12.310   4.104   5.402
63182SOL    HW189570  12.265   4.167   5.466
63182SOL    HW289571  12.403   4.135   5.385
63183SOL     OW89572  12.332   3.931   5.201
63183SOL    HW189573  12.332   3.995   5.278
63183SOL    HW289574  12.360   3.979   5.118
63184SOL     OW89575  11.180   5.050   3.924
63184SOL    HW189576  11.087   5.071   3.893
63184SOL    HW289577  11.190   4.951   3.937
63185SOL     OW89578  11.260   5.525   4.651
63185SOL    HW189579  11.218   5.439   4.624
63185SOL    HW289580  11.354   5.528   4.617
63186SOL     OW89581  11.676   5.292   4.634
63186SOL    HW189582  11.742   5.366   4.643
63186SOL    HW289583  11.720   5.213   4.592
63187SOL     OW89584  12.174   4.520   4.962
63187SOL    HW189585  12.215   4.488   5.048
63187SOL    HW289586  12.078   4.493   4.959
63188SOL     OW89587  11.212   4.268   4.838
63188SOL    HW189588  11.297   4.235   4.797
63188SOL    HW289589  11.225   4.283   4.936
63189SOL     OW89590  11.361   4.244   5.446
63189SOL    HW189591  11.420   4.204   5.376
63189SOL    HW289592  11.303   4.315   5.405
63190SOL     OW89593  12.541   4.674   5.384
63190SOL    HW189594  12.580   4.763   5.404
63190SOL    HW289595  12.551   4.654   5.287
63191SOL     OW89596  11.987   4.296   4.049
63191SOL    HW189597  11.994   4.207   4.003
63191SOL    HW289598  11.893   4.330   4.041
63192SOL     OW89599  11.424   5.288   5.468
63192SOL    HW189600  11.394   5.345   5.544
63192SOL    HW289601  11.417   5.191   5.494
63193SOL     OW89602  11.843   4.188   4.993
63193SOL    HW189603  11.809   4.099   4.963
63193SOL    HW289604  11.869   4.242   4.913
63194SOL     OW89605  12.102   5.402   5.189
63194SOL    HW189606  12.078   5.384   5.094
63194SOL    HW289607  12.132   5.496   5.199
63195SOL     OW89608  11.645   4.224   3.915
63195SOL    HW189609  11.706   4.304   3.919
63195SOL    HW289610  11.550   4.255   3.922
63196SOL     OW89611  11.331   4.861   5.190
63196SOL    HW189612  11.353   4.800   5.266
63196SOL    HW289613  11.341   4.812   5.104
63197SOL     OW89614  12.519   4.783   4.958
63197SOL    HW189615  12.543   4.720   4.884
63197SOL    HW289616  12.429   4.823   4.940
63198SOL     OW89617  12.474   4.579   4.033
63198SOL    HW189618  12.388   4.548   4.075
63198SOL    HW289619  12.470   4.565   3.934
63199SOL     OW89620  12.424   5.455   4.852
63199SOL    HW189621  12.508   5.460   4.798
63199SOL    HW289622  12.401   5.359   4.870
63200SOL     OW89623  11.255   4.982   4.746
63200SOL    HW189624  11.250   4.981   4.846
63200SOL    HW289625  11.172   4.941   4.708
63201SOL     OW89626  11.860   5.386   5.440
63201SOL    HW189627  11.804   5.467   5.449
63201SOL    HW289628  11.912   5.390   5.354
63202SOL     OW89629  12.898   3.859   4.247
63202SOL    HW189630  12.971   3.842   4.180
63202SOL    HW289631  12.867   3.772   4.285
63203SOL     OW89632  12.560   5.297   4.201
63203SOL    HW189633  12.627   5.309   4.127
63203SOL    HW289634  12.520   5.386   4.224
63204SOL     OW89635  11.302   5.518   5.575
63204SOL    HW189636  11.261   5.444   5.628
63204SOL    HW289637  11.366   5.569   5.633
63205SOL     OW89638  12.452   4.651   4.396
63205SOL    HW189639  12.512   4.570   4.398
63205SOL    HW289640  12.492   4.720   4.336
63206SOL     OW89641  12.002   4.997   5.146
63206SOL    HW189642  11.997   5.030   5.241
63206SOL    HW289643  11.916   5.016   5.100
63207SOL     OW89644  11.844   5.340   3.878
63207SOL    HW189645  11.853   5.350   3.779
63207SOL    HW289646  11.804   5.251   3.899
63208SOL     OW89647  11.435   4.050   4.444
63208SOL    HW189648  11.356   4.101   4.410
63208SOL    HW289649  11.426   4.035   4.542
63209SOL     OW89650  12.366   5.336   3.755
63209SOL    HW189651  12.372   5.243   3.792
63209SOL    HW289652  12.307   5.336   3.675
63210SOL     OW89653  11.994   4.726   5.096
63210SOL    HW189654  12.034   4.725   5.004
63210SOL    HW289655  12.004   4.818   5.136
63211SOL     OW89656  12.088   4.634   4.015
63211SOL    HW189657  12.151   4.672   3.947
63211SOL    HW289658  12.128   4.551   4.054
63212SOL     OW89659  12.676   5.331   3.768
63212SOL    HW189660  12.584   5.368   3.775
63212SOL    HW289661  12.714   5.351   3.678
63213SOL     OW89662  11.544   5.012   5.214
63213SOL    HW189663  11.531   5.105   5.180
63213SOL    HW289664  11.460   4.960   5.201
63214SOL     OW89665  12.211   4.822   4.420
63214SOL    HW189666  12.141   4.775   4.474
63214SOL    HW289667  12.270   4.754   4.377
63215SOL     OW89668  12.186   3.960   4.695
63215SOL    HW189669  12.178   3.924   4.602
63215SOL    HW289670  12.184   3.884   4.760
63216SOL     OW89671  11.762   5.211   4.215
63216SOL    HW189672  11.804   5.153   4.145
63216SOL    HW289673  11.718   5.290   4.171
63217SOL     OW89674  11.427   5.072   4.014
63217SOL    HW189675  11.331   5.073   3.987
63217SOL    HW289676  11.439   5.125   4.098
63218SOL     OW89677  11.277   4.737   5.450
63218SOL    HW189678  11.200   4.704   5.504
63218SOL    HW289679  11.362   4.707   5.492
63219SOL     OW89680  11.844   3.927   5.213
63219SOL    HW189681  11.934   3.911   5.173
63219SOL    HW289682  11.852   3.932   5.312
63220SOL     OW89683  11.247   4.069   3.757
63220SOL    HW189684  11.155   4.041   3.728
63220SOL    HW289685  11.278   4.146   3.701
63221SOL     OW89686  12.612   4.580   5.122
63221SOL    HW189687  12.555   4.632   5.059
63221SOL    HW289688  12.708   4.592   5.098
63222SOL     OW89689  11.244   3.890   4.042
63222SOL    HW189690  11.227   3.973   3.988
63222SOL    HW289691  11.334   3.853   4.020
63223SOL     OW89692  12.355   5.059   3.843
63223SOL    HW189693  12.256   5.048   3.845
63223SOL    HW289694  12.389   5.074   3.936
63224SOL     OW89695  11.785   4.566   5.155
63224SOL    HW189696  11.841   4.647   5.138
63224SOL    HW289697  11.844   4.486   5.158
63225SOL     OW89698  12.665   5.491   4.683
63225SOL    HW189699  12.698   5.555   4.614
63225SOL    HW289700  12.731   5.485   4.758
63226SOL     OW89701  11.888   4.289   5.432
63226SOL    HW189702  11.907   4.354   5.506
63226SOL    HW289703  11.948   4.209   5.441
63227SOL     OW89704  12.622   4.944   5.357
63227SOL    HW189705  12.613   4.934   5.456
63227SOL    HW289706  12.718   4.937   5.331
63228SOL     OW89707  11.562   5.465   5.284
63228SOL    HW189708  11.471   5.506   5.282
63228SOL    HW289709  11.555   5.371   5.316
63229SOL     OW89710  12.397   4.049   4.173
63229SOL    HW189711  12.462   3.975   4.162
63229SOL    HW289712  12.417   4.099   4.257
63230SOL     OW89713  11.766   4.469   4.376
63230SOL    HW189714  11.816   4.554   4.357
63230SOL    HW289715  11.678   4.471   4.328
63231SOL     OW89716  12.031   5.098   3.740
63231SOL    HW189717  11.985   5.113   3.828
63231SOL    HW289718  12.075   5.183   3.710
63232SOL     OW89719  11.833   5.514   4.677
63232SOL    HW189720  11.787   5.602   4.664
63232SOL    HW289721  11.932   5.526   4.670
63233SOL     OW89722  12.031   4.680   4.585
63233SOL    HW189723  12.085   4.611   4.633
63233SOL    HW289724  11.999   4.749   4.651
63234SOL     OW89725  12.255   4.708   3.811
63234SOL    HW189726  12.232   4.761   3.729
63234SOL    HW289727  12.336   4.652   3.792
63235SOL     OW89728  13.033   5.293   4.575
63235SOL    HW189729  12.962   5.281   4.505
63235SOL    HW289730  13.034   5.214   4.635
63236SOL     OW89731  11.393   5.038   5.568
63236SOL    HW189732  11.328   4.965   5.547
63236SOL    HW289733  11.397   5.052   5.666
63237SOL     OW89734  11.251   4.964   4.377
63237SOL    HW189735  11.250   4.917   4.465
63237SOL    HW289736  11.333   4.936   4.326
63238SOL     OW89737  11.844   5.115   5.348
63238SOL    HW189738  11.766   5.065   5.386
63238SOL    HW289739  11.841   5.210   5.379
63239SOL     OW89740  11.600   4.148   4.244
63239SOL    HW189741  11.630   4.076   4.182
63239SOL    HW289742  11.561   4.108   4.327
63240SOL     OW89743  11.489   4.271   5.004
63240SOL    HW189744  11.527   4.212   5.076
63240SOL    HW289745  11.529   4.245   4.916
63241SOL     OW89746  11.984   5.310   4.411
63241SOL    HW189747  12.016   5.320   4.317
63241SOL    HW289748  11.905   5.248   4.413
63242SOL     OW89749  12.596   3.938   4.836
63242SOL    HW189750  12.648   3.873   4.891
63242SOL    HW289751  12.547   4.001   4.897
63243SOL     OW89752  12.173   3.758   4.878
63243SOL    HW189753  12.110   3.686   4.847
63243SOL    HW289754  12.266   3.722   4.878
63244SOL     OW89755  11.942   5.054   4.025
63244SOL    HW189756  11.896   4.967   4.042
63244SOL    HW289757  12.033   5.051   4.066
63245SOL     OW89758  11.790   5.291   5.008
63245SOL    HW189759  11.785   5.373   5.065
63245SOL    HW289760  11.879   5.288   4.963
63246SOL     OW89761  12.524   3.776   3.892
63246SOL    HW189762  12.559   3.735   3.808
63246SOL    HW289763  12.434   3.738   3.912
63247SOL     OW89764  12.472   4.177   4.415
63247SOL    HW189765  12.413   4.257   4.419
63247SOL    HW289766  12.487   4.142   4.508
63248SOL     OW89767  12.765   3.945   4.606
63248SOL    HW189768  12.681   3.944   4.660
63248SOL    HW289769  12.767   4.028   4.550
63249SOL     OW89770  11.211   4.801   4.024
63249SOL    HW189771  11.310   4.790   4.015
63249SOL    HW289772  11.171   4.715   4.056
63250SOL     OW89773  12.047   5.370   4.061
63250SOL    HW189774  11.970   5.335   4.007
63250SOL    HW289775  12.015   5.441   4.123
63251SOL     OW89776  11.402   4.352   5.699
63251SOL    HW189777  11.309   4.350   5.736
63251SOL    HW289778  11.403   4.313   5.607
63252SOL     OW89779  11.397   3.999   6.582
63252SOL    HW189780  11.432   3.982   6.674
63252SOL    HW289781  11.309   3.954   6.570
63253SOL     OW89782  11.191   4.092   6.233
63253SOL    HW189783  11.109   4.135   6.272
63253SOL    HW289784  11.163   4.019   6.170
63254SOL     OW89785  11.741   4.999   6.751
63254SOL    HW189786  11.648   4.992   6.714
63254SOL    HW289787  11.752   5.088   6.795
63255SOL     OW89788  12.727   5.235   6.289
63255SOL    HW189789  12.670   5.219   6.370
63255SOL    HW289790  12.668   5.245   6.209
63256SOL     OW89791  12.307   4.427   6.303
63256SOL    HW189792  12.364   4.505   6.278
63256SOL    HW289793  12.247   4.453   6.379
63257SOL     OW89794  11.940   4.868   6.609
63257SOL    HW189795  11.862   4.885   6.669
63257SOL    HW289796  11.974   4.955   6.573
63258SOL     OW89797  12.022   4.522   7.409
63258SOL    HW189798  12.018   4.598   7.474
63258SOL    HW289799  12.044   4.558   7.318
63259SOL     OW89800  11.857   4.736   6.251
63259SOL    HW189801  11.926   4.720   6.321
63259SOL    HW289802  11.784   4.793   6.289
63260SOL     OW89803  11.858   4.885   7.389
63260SOL    HW189804  11.918   4.964   7.403
63260SOL    HW289805  11.772   4.916   7.348
63261SOL     OW89806  11.507   5.159   6.647
63261SOL    HW189807  11.429   5.128   6.594
63261SOL    HW289808  11.565   5.217   6.590
63262SOL     OW89809  12.632   5.229   6.925
63262SOL    HW189810  12.656   5.323   6.951
63262SOL    HW289811  12.616   5.175   7.007
63263SOL     OW89812  11.610   4.116   7.085
63263SOL    HW189813  11.692   4.060   7.094
63263SOL    HW289814  11.529   4.058   7.089
63264SOL     OW89815  11.403   5.437   6.069
63264SOL    HW189816  11.437   5.514   6.123
63264SOL    HW289817  11.447   5.437   5.979
63265SOL     OW89818  12.299   5.065   7.276
63265SOL    HW189819  12.346   5.065   7.364
63265SOL    HW289820  12.251   4.978   7.265
63266SOL     OW89821  11.402   5.158   6.124
63266SOL    HW189822  11.376   5.254   6.124
63266SOL    HW289823  11.331   5.104   6.169
63267SOL     OW89824  11.412   4.815   6.472
63267SOL    HW189825  11.426   4.731   6.524
63267SOL    HW289826  11.357   4.879   6.527
63268SOL     OW89827  11.792   5.510   7.025
63268SOL    HW189828  11.700   5.493   7.060
63268SOL    HW289829  11.820   5.602   7.051
63269SOL     OW89830  11.778   4.688   5.709
63269SOL    HW189831  11.785   4.772   5.655
63269SOL    HW289832  11.824   4.701   5.797
63270SOL     OW89833  12.766   3.838   7.066
63270SOL    HW189834  12.748   3.905   6.994
63270SOL    HW289835  12.763   3.884   7.155
63271SOL     OW89836  11.294   4.367   6.149
63271SOL    HW189837  11.249   4.279   6.166
63271SOL    HW289838  11.293   4.421   6.233
63272SOL     OW89839  11.199   5.320   5.703
63272SOL    HW189840  11.180   5.224   5.724
63272SOL    HW289841  11.166   5.378   5.778
63273SOL     OW89842  12.861   4.646   6.198
63273SOL    HW189843  12.956   4.617   6.206
63273SOL    HW289844  12.853   4.711   6.123
63274SOL     OW89845  11.285   4.461   7.183
63274SOL    HW189846  11.373   4.448   7.228
63274SOL    HW289847  11.272   4.558   7.161
63275SOL     OW89848  11.785   5.089   6.312
63275SOL    HW189849  11.736   5.002   6.321
63275SOL    HW289850  11.762   5.132   6.225
63276SOL     OW89851  12.465   4.952   7.009
63276SOL    HW189852  12.502   4.879   6.951
63276SOL    HW289853  12.517   4.957   7.094
63277SOL     OW89854  11.981   3.728   6.088
63277SOL    HW189855  12.021   3.819   6.079
63277SOL    HW289856  11.881   3.736   6.094
63278SOL     OW89857  11.369   4.700   6.850
63278SOL    HW189858  11.458   4.655   6.836
63278SOL    HW289859  11.296   4.635   6.831
63279SOL     OW89860  12.359   5.516   7.202
63279SOL    HW189861  12.383   5.576   7.126
63279SOL    HW289862  12.366   5.421   7.172
63280SOL     OW89863  11.489   3.975   7.387
63280SOL    HW189864  11.560   4.046   7.393
63280SOL    HW289865  11.401   4.014   7.415
63281SOL     OW89866  12.638   5.141   6.539
63281SOL    HW189867  12.579   5.147   6.619
63281SOL    HW289868  12.623   5.053   6.493
63282SOL     OW89869  12.839   5.438   6.158
63282SOL    HW189870  12.798   5.415   6.070
63282SOL    HW289871  12.821   5.364   6.223
63283SOL     OW89872  11.770   4.453   5.856
63283SOL    HW189873  11.794   4.522   5.788
63283SOL    HW289874  11.692   4.486   5.910
63284SOL     OW89875  12.453   4.069   6.530
63284SOL    HW189876  12.367   4.019   6.517
63284SOL    HW289877  12.515   4.015   6.586
63285SOL     OW89878  11.979   4.329   7.051
63285SOL    HW189879  11.932   4.326   7.140
63285SOL    HW289880  11.928   4.274   6.985
63286SOL     OW89881  12.566   4.193   7.260
63286SOL    HW189882  12.546   4.236   7.348
63286SOL    HW289883  12.644   4.131   7.269
63287SOL     OW89884  12.145   4.614   7.158
63287SOL    HW189885  12.191   4.530   7.129
63287SOL    HW289886  12.089   4.648   7.083
63288SOL     OW89887  12.163   4.134   6.828
63288SOL    HW189888  12.086   4.168   6.882
63288SOL    HW289889  12.129   4.083   6.749
63289SOL     OW89890  12.213   4.425   6.015
63289SOL    HW189891  12.239   4.421   6.111
63289SOL    HW289892  12.128   4.374   6.001
63290SOL     OW89893  11.248   4.535   6.375
63290SOL    HW189894  11.347   4.523   6.384
63290SOL    HW289895  11.224   4.630   6.396
63291SOL     OW89896  11.302   5.545   7.157
63291SOL    HW189897  11.292   5.530   7.256
63291SOL    HW289898  11.216   5.581   7.121
63292SOL     OW89899  12.037   4.072   5.781
63292SOL    HW189900  12.096   4.135   5.732
63292SOL    HW289901  12.056   3.978   5.752
63293SOL     OW89902  12.534   4.868   6.131
63293SOL    HW189903  12.617   4.839   6.083
63293SOL    HW289904  12.485   4.935   6.075
63294SOL     OW89905  11.722   3.920   6.471
63294SOL    HW189906  11.717   3.915   6.571
63294SOL    HW289907  11.724   4.016   6.442
63295SOL     OW89908  12.180   5.180   6.063
63295SOL    HW189909  12.134   5.252   6.011
63295SOL    HW289910  12.176   5.200   6.161
63296SOL     OW89911  11.523   5.525   6.439
63296SOL    HW189912  11.573   5.439   6.445
63296SOL    HW289913  11.588   5.602   6.436
63297SOL     OW89914  12.399   5.274   7.092
63297SOL    HW189915  12.405   5.197   7.156
63297SOL    HW289916  12.347   5.248   7.012
63298SOL     OW89917  11.493   4.667   5.828
63298SOL    HW189918  11.575   4.706   5.786
63298SOL    HW289919  11.466   4.585   5.779
63299SOL     OW89920  12.630   4.459   6.314
63299SOL    HW189921  12.625   4.394   6.389
63299SOL    HW289922  12.710   4.518   6.327
63300SOL     OW89923  11.633   4.990   7.313
63300SOL    HW189924  11.583   4.991   7.227
63300SOL    HW289925  11.570   4.972   7.389
63301SOL     OW89926  12.283   5.500   5.823
63301SOL    HW189927  12.223   5.438   5.873
63301SOL    HW289928  12.314   5.456   5.738
63302SOL     OW89929  11.374   4.009   7.084
63302SOL    HW189930  11.294   4.069   7.071
63302SOL    HW289931  11.364   3.960   7.170
63303SOL     OW89932  11.636   5.467   5.909
63303SOL    HW189933  11.669   5.506   5.995
63303SOL    HW289934  11.712   5.460   5.844
63304SOL     OW89935  12.572   3.831   6.012
63304SOL    HW189936  12.548   3.794   5.922
63304SOL    HW289937  12.671   3.847   6.016
63305SOL     OW89938  11.421   5.509   6.827
63305SOL    HW189939  11.478   5.444   6.877
63305SOL    HW289940  11.405   5.476   6.734
63306SOL     OW89941  12.112   5.422   6.490
63306SOL    HW189942  12.192   5.365   6.511
63306SOL    HW289943  12.063   5.382   6.413
63307SOL     OW89944  11.554   4.424   6.066
63307SOL    HW189945  11.599   4.334   6.063
63307SOL    HW289946  11.460   4.413   6.099
63308SOL     OW89947  11.786   3.846   5.703
63308SOL    HW189948  11.884   3.824   5.710
63308SOL    HW289949  11.755   3.829   5.610
63309SOL     OW89950  11.953   3.988   7.335
63309SOL    HW189951  12.020   3.927   7.378
63309SOL    HW289952  11.880   4.007   7.400
63310SOL     OW89953  12.060   5.238   6.781
63310SOL    HW189954  12.037   5.213   6.687
63310SOL    HW289955  12.121   5.169   6.820
63311SOL     OW89956  12.523   4.314   7.019
63311SOL    HW189957  12.551   4.271   7.104
63311SOL    HW289958  12.548   4.410   7.020
63312SOL     OW89959  11.975   5.126   6.510
63312SOL    HW189960  12.065   5.140   6.468
63312SOL    HW289961  11.904   5.128   6.439
63313SOL     OW89962  12.094   4.227   6.485
63313SOL    HW189963  12.069   4.218   6.389
63313SOL    HW289964  12.142   4.145   6.516
63314SOL     OW89965  11.711   3.788   6.098
63314SOL    HW189966  11.630   3.789   6.156
63314SOL    HW289967  11.714   3.871   6.043
63315SOL     OW89968  12.606   4.912   5.627
63315SOL    HW189969  12.638   4.836   5.684
63315SOL    HW289970  12.514   4.939   5.657
63316SOL     OW89971  11.469   3.759   5.757
63316SOL    HW189972  11.518   3.843   5.736
63316SOL    HW289973  11.531   3.694   5.802
63317SOL     OW89974  12.107   3.960   6.066
63317SOL    HW189975  12.059   4.001   5.988
63317SOL    HW289976  12.206   3.958   6.047
63318SOL     OW89977  12.248   4.407   7.050
63318SOL    HW189978  12.168   4.346   7.053
63318SOL    HW289979  12.329   4.354   7.026
63319SOL     OW89980  12.399   5.294   6.379
63319SOL    HW189981  12.420   5.368   6.314
63319SOL    HW289982  12.467   5.294   6.452
63320SOL     OW89983  11.631   4.876   6.327
63320SOL    HW189984  11.560   4.849   6.392
63320SOL    HW289985  11.605   4.848   6.234
63321SOL     OW89986  12.443   5.521   6.177
63321SOL    HW189987  12.487   5.585   6.113
63321SOL    HW289988  12.393   5.573   6.247
63322SOL     OW89989  12.204   4.273   5.602
63322SOL    HW189990  12.163   4.355   5.563
63322SOL    HW289991  12.268   4.299   5.675
63323SOL     OW89992  11.250   4.280   6.972
63323SOL    HW189993  11.342   4.279   6.931
63323SOL    HW289994  11.244   4.354   7.039
63324SOL     OW89995  11.733   3.946   6.733
63324SOL    HW189996  11.771   3.862   6.770
63324SOL    HW289997  11.645   3.965   6.777
63325SOL     OW89998  12.038   4.178   6.228
63325SOL    HW189999  12.006   4.250   6.166
63325SOL    HW290000  12.062   4.097   6.175
63326SOL     OW90001  12.189   3.763   6.339
63326SOL    HW190002  12.117   3.768   6.270
63326SOL    HW290003  12.165   3.694   6.408
63327SOL     OW90004  12.601   4.897   6.453
63327SOL    HW190005  12.546   4.813   6.446
63327SOL    HW290006  12.627   4.926   6.361
63328SOL     OW90007  12.638   4.314   6.578
63328SOL    HW190008  12.608   4.219   6.585
63328SOL    HW290009  12.711   4.330   6.644
63329SOL     OW90010  11.660   5.109   5.760
63329SOL    HW190011  11.573   5.094   5.807
63329SOL    HW290012  11.643   5.135   5.665
63330SOL     OW90013  12.562   4.299   5.664
63330SOL    HW190014  12.508   4.278   5.745
63330SOL    HW290015  12.653   4.258   5.673
63331SOL     OW90016  11.699   3.980   5.914
63331SOL    HW190017  11.726   3.921   5.839
63331SOL    HW290018  11.699   4.075   5.883
63332SOL     OW90019  12.236   5.071   6.926
63332SOL    HW190020  12.156   5.048   6.981
63332SOL    HW290021  12.319   5.045   6.975
63333SOL     OW90022  12.764   5.353   7.211
63333SOL    HW190023  12.791   5.387   7.121
63333SOL    HW290024  12.843   5.315   7.257
63334SOL     OW90025  12.283   4.919   6.686
63334SOL    HW190026  12.243   4.963   6.767
63334SOL    HW290027  12.242   4.956   6.603
63335SOL     OW90028  12.087   3.813   6.988
63335SOL    HW190029  12.112   3.793   6.893
63335SOL    HW290030  12.159   3.869   7.030
63336SOL     OW90031  12.152   4.840   7.305
63336SOL    HW190032  12.053   4.846   7.315
63336SOL    HW290033  12.175   4.760   7.249
63337SOL     OW90034  11.877   4.774   5.954
63337SOL    HW190035  11.863   4.781   6.053
63337SOL    HW290036  11.961   4.723   5.936
63338SOL     OW90037  11.582   4.537   6.837
63338SOL    HW190038  11.668   4.549   6.887
63338SOL    HW290039  11.540   4.450   6.864
63339SOL     OW90040  12.446   4.110   6.848
63339SOL    HW190041  12.467   4.184   6.912
63339SOL    HW290042  12.357   4.127   6.805
63340SOL     OW90043  11.236   5.288   6.917
63340SOL    HW190044  11.190   5.370   6.883
63340SOL    HW290045  11.334   5.307   6.926
63341SOL     OW90046  11.539   4.824   6.087
63341SOL    HW190047  11.532   4.907   6.031
63341SOL    HW290048  11.543   4.744   6.027
63342SOL     OW90049  11.738   4.261   6.451
63342SOL    HW190050  11.750   4.327   6.377
63342SOL    HW290051  11.784   4.295   6.534
63343SOL     OW90052  12.424   5.072   5.974
63343SOL    HW190053  12.474   5.149   6.014
63343SOL    HW290054  12.329   5.074   6.006
63344SOL     OW90055  12.444   5.169   6.728
63344SOL    HW190056  12.491   5.182   6.815
63344SOL    HW290057  12.378   5.095   6.737
63345SOL     OW90058  12.754   4.363   6.058
63345SOL    HW190059  12.723   4.424   6.131
63345SOL    HW290060  12.804   4.415   5.989
63346SOL     OW90061  11.526   5.234   6.915
63346SOL    HW190062  11.505   5.190   6.828
63346SOL    HW290063  11.623   5.260   6.918
63347SOL     OW90064  11.574   4.475   7.184
63347SOL    HW190065  11.642   4.530   7.137
63347SOL    HW290066  11.614   4.387   7.211
63348SOL     OW90067  12.185   3.829   7.356
63348SOL    HW190068  12.191   3.914   7.304
63348SOL    HW290069  12.217   3.753   7.299
63349SOL     OW90070  11.676   3.774   7.326
63349SOL    HW190071  11.634   3.717   7.256
63349SOL    HW290072  11.610   3.843   7.358
63350SOL     OW90073  11.745   4.594   6.615
63350SOL    HW190074  11.789   4.683   6.606
63350SOL    HW290075  11.682   4.594   6.692
63351SOL     OW90076  12.532   4.586   6.631
63351SOL    HW190077  12.457   4.586   6.565
63351SOL    HW290078  12.569   4.494   6.640
63352SOL     OW90079  12.381   4.249   5.861
63352SOL    HW190080  12.394   4.165   5.915
63352SOL    HW290081  12.352   4.323   5.921
63353SOL     OW90082  11.479   3.937   6.817
63353SOL    HW190083  11.456   3.974   6.907
63353SOL    HW290084  11.449   3.842   6.811
63354SOL     OW90085  11.209   5.034   6.868
63354SOL    HW190086  11.262   4.985   6.936
63354SOL    HW290087  11.231   5.132   6.873
63355SOL     OW90088  11.904   4.358   6.650
63355SOL    HW190089  11.963   4.332   6.574
63355SOL    HW290090  11.876   4.454   6.639
63356SOL     OW90091  11.479   3.787   6.204
63356SOL    HW190092  11.468   3.881   6.237
63356SOL    HW290093  11.474   3.724   6.281
63357SOL     OW90094  12.794   4.091   5.960
63357SOL    HW190095  12.796   4.015   6.024
63357SOL    HW290096  12.746   4.168   6.000
63358SOL     OW90097  12.195   4.490   6.552
63358SOL    HW190098  12.210   4.511   6.648
63358SOL    HW290099  12.165   4.395   6.543
63359SOL     OW90100  12.152   5.297   7.286
63359SOL    HW190101  12.132   5.341   7.198
63359SOL    HW290102  12.191   5.206   7.270
63360SOL     OW90103  11.522   4.622   7.390
63360SOL    HW190104  11.598   4.666   7.438
63360SOL    HW290105  11.557   4.575   7.308
63361SOL     OW90106  12.712   3.998   5.711
63361SOL    HW190107  12.651   3.923   5.734
63361SOL    HW290108  12.734   4.050   5.794
63362SOL     OW90109  12.475   4.562   5.628
63362SOL    HW190110  12.509   4.469   5.643
63362SOL    HW290111  12.493   4.589   5.533
63363SOL     OW90112  12.240   5.057   6.435
63363SOL    HW190113  12.247   4.973   6.380
63363SOL    HW290114  12.302   5.126   6.399
63364SOL     OW90115  11.491   4.534   6.535
63364SOL    HW190116  11.584   4.570   6.540
63364SOL    HW290117  11.485   4.449   6.587
63365SOL     OW90118  11.511   4.233   6.592
63365SOL    HW190119  11.459   4.150   6.575
63365SOL    HW290120  11.588   4.238   6.528
63366SOL     OW90121  12.310   4.104   7.264
63366SOL    HW190122  12.265   4.167   7.328
63366SOL    HW290123  12.403   4.135   7.247
63367SOL     OW90124  12.332   3.931   7.063
63367SOL    HW190125  12.332   3.995   7.140
63367SOL    HW290126  12.360   3.979   6.980
63368SOL     OW90127  11.180   5.050   5.786
63368SOL    HW190128  11.087   5.071   5.755
63368SOL    HW290129  11.190   4.951   5.799
63369SOL     OW90130  11.260   5.525   6.513
63369SOL    HW190131  11.218   5.439   6.486
63369SOL    HW290132  11.354   5.528   6.479
63370SOL     OW90133  11.676   5.292   6.496
63370SOL    HW190134  11.742   5.366   6.505
63370SOL    HW290135  11.720   5.213   6.454
63371SOL     OW90136  12.174   4.520   6.824
63371SOL    HW190137  12.215   4.488   6.910
63371SOL    HW290138  12.078   4.493   6.821
63372SOL     OW90139  11.212   4.268   6.700
63372SOL    HW190140  11.297   4.235   6.659
63372SOL    HW290141  11.225   4.283   6.798
63373SOL     OW90142  11.361   4.244   7.308
63373SOL    HW190143  11.420   4.204   7.238
63373SOL    HW290144  11.303   4.315   7.267
63374SOL     OW90145  12.541   4.674   7.246
63374SOL    HW190146  12.580   4.763   7.266
63374SOL    HW290147  12.551   4.654   7.149
63375SOL     OW90148  11.987   4.296   5.911
63375SOL    HW190149  11.994   4.207   5.865
63375SOL    HW290150  11.893   4.330   5.903
63376SOL     OW90151  11.424   5.288   7.330
63376SOL    HW190152  11.394   5.345   7.406
63376SOL    HW290153  11.417   5.191   7.356
63377SOL     OW90154  11.843   4.188   6.855
63377SOL    HW190155  11.809   4.099   6.825
63377SOL    HW290156  11.869   4.242   6.775
63378SOL     OW90157  12.102   5.402   7.051
63378SOL    HW190158  12.078   5.384   6.956
63378SOL    HW290159  12.132   5.496   7.061
63379SOL     OW90160  11.645   4.224   5.777
63379SOL    HW190161  11.706   4.304   5.781
63379SOL    HW290162  11.550   4.255   5.784
63380SOL     OW90163  11.331   4.861   7.052
63380SOL    HW190164  11.353   4.800   7.128
63380SOL    HW290165  11.341   4.812   6.966
63381SOL     OW90166  12.519   4.783   6.820
63381SOL    HW190167  12.543   4.720   6.746
63381SOL    HW290168  12.429   4.823   6.802
63382SOL     OW90169  12.474   4.579   5.895
63382SOL    HW190170  12.388   4.548   5.937
63382SOL    HW290171  12.470   4.565   5.796
63383SOL     OW90172  12.424   5.455   6.714
63383SOL    HW190173  12.508   5.460   6.660
63383SOL    HW290174  12.401   5.359   6.732
63384SOL     OW90175  11.255   4.982   6.608
63384SOL    HW190176  11.250   4.981   6.708
63384SOL    HW290177  11.172   4.941   6.570
63385SOL     OW90178  11.860   5.386   7.302
63385SOL    HW190179  11.804   5.467   7.311
63385SOL    HW290180  11.912   5.390   7.216
63386SOL     OW90181  12.898   3.859   6.109
63386SOL    HW190182  12.971   3.842   6.042
63386SOL    HW290183  12.867   3.772   6.147
63387SOL     OW90184  12.560   5.297   6.063
63387SOL    HW190185  12.627   5.309   5.989
63387SOL    HW290186  12.520   5.386   6.086
63388SOL     OW90187  11.302   5.518   7.437
63388SOL    HW190188  11.261   5.444   7.490
63388SOL    HW290189  11.366   5.569   7.495
63389SOL     OW90190  12.452   4.651   6.258
63389SOL    HW190191  12.512   4.570   6.260
63389SOL    HW290192  12.492   4.720   6.198
63390SOL     OW90193  12.002   4.997   7.008
63390SOL    HW190194  11.997   5.030   7.103
63390SOL    HW290195  11.916   5.016   6.962
63391SOL     OW90196  11.844   5.340   5.740
63391SOL    HW190197  11.853   5.350   5.641
63391SOL    HW290198  11.804   5.251   5.761
63392SOL     OW90199  11.435   4.050   6.306
63392SOL    HW190200  11.356   4.101   6.272
63392SOL    HW290201  11.426   4.035   6.404
63393SOL     OW90202  12.366   5.336   5.617
63393SOL    HW190203  12.372   5.243   5.654
63393SOL    HW290204  12.307   5.336   5.537
63394SOL     OW90205  11.994   4.726   6.958
63394SOL    HW190206  12.034   4.725   6.866
63394SOL    HW290207  12.004   4.818   6.998
63395SOL     OW90208  12.088   4.634   5.877
63395SOL    HW190209  12.151   4.672   5.809
63395SOL    HW290210  12.128   4.551   5.916
63396SOL     OW90211  12.676   5.331   5.630
63396SOL    HW190212  12.584   5.368   5.637
63396SOL    HW290213  12.714   5.351   5.540
63397SOL     OW90214  11.544   5.012   7.076
63397SOL    HW190215  11.531   5.105   7.042
63397SOL    HW290216  11.460   4.960   7.063
63398SOL     OW90217  12.211   4.822   6.282
63398SOL    HW190218  12.141   4.775   6.336
63398SOL    HW290219  12.270   4.754   6.239
63399SOL     OW90220  12.186   3.960   6.557
63399SOL    HW190221  12.178   3.924   6.464
63399SOL    HW290222  12.184   3.884   6.622
63400SOL     OW90223  11.762   5.211   6.077
63400SOL    HW190224  11.804   5.153   6.007
63400SOL    HW290225  11.718   5.290   6.033
63401SOL     OW90226  11.427   5.072   5.876
63401SOL    HW190227  11.331   5.073   5.849
63401SOL    HW290228  11.439   5.125   5.960
63402SOL     OW90229  11.277   4.737   7.312
63402SOL    HW190230  11.200   4.704   7.366
63402SOL    HW290231  11.362   4.707   7.354
63403SOL     OW90232  11.844   3.927   7.075
63403SOL    HW190233  11.934   3.911   7.035
63403SOL    HW290234  11.852   3.932   7.174
63404SOL     OW90235  11.247   4.069   5.619
63404SOL    HW190236  11.155   4.041   5.590
63404SOL    HW290237  11.278   4.146   5.563
63405SOL     OW90238  12.612   4.580   6.984
63405SOL    HW190239  12.555   4.632   6.921
63405SOL    HW290240  12.708   4.592   6.960
63406SOL     OW90241  11.244   3.890   5.904
63406SOL    HW190242  11.227   3.973   5.850
63406SOL    HW290243  11.334   3.853   5.882
63407SOL     OW90244  12.355   5.059   5.705
63407SOL    HW190245  12.256   5.048   5.707
63407SOL    HW290246  12.389   5.074   5.798
63408SOL     OW90247  11.785   4.566   7.017
63408SOL    HW190248  11.841   4.647   7.000
63408SOL    HW290249  11.844   4.486   7.020
63409SOL     OW90250  12.665   5.491   6.545
63409SOL    HW190251  12.698   5.555   6.476
63409SOL    HW290252  12.731   5.485   6.620
63410SOL     OW90253  11.888   4.289   7.294
63410SOL    HW190254  11.907   4.354   7.368
63410SOL    HW290255  11.948   4.209   7.303
63411SOL     OW90256  12.622   4.944   7.219
63411SOL    HW190257  12.613   4.934   7.318
63411SOL    HW290258  12.718   4.937   7.193
63412SOL     OW90259  11.562   5.465   7.146
63412SOL    HW190260  11.471   5.506   7.144
63412SOL    HW290261  11.555   5.371   7.178
63413SOL     OW90262  12.397   4.049   6.035
63413SOL    HW190263  12.462   3.975   6.024
63413SOL    HW290264  12.417   4.099   6.119
63414SOL     OW90265  11.766   4.469   6.238
63414SOL    HW190266  11.816   4.554   6.219
63414SOL    HW290267  11.678   4.471   6.190
63415SOL     OW90268  12.031   5.098   5.602
63415SOL    HW190269  11.985   5.113   5.690
63415SOL    HW290270  12.075   5.183   5.572
63416SOL     OW90271  11.833   5.514   6.539
63416SOL    HW190272  11.787   5.602   6.526
63416SOL    HW290273  11.932   5.526   6.532
63417SOL     OW90274  12.031   4.680   6.447
63417SOL    HW190275  12.085   4.611   6.495
63417SOL    HW290276  11.999   4.749   6.513
63418SOL     OW90277  12.255   4.708   5.673
63418SOL    HW190278  12.232   4.761   5.591
63418SOL    HW290279  12.336   4.652   5.654
63419SOL     OW90280  13.033   5.293   6.437
63419SOL    HW190281  12.962   5.281   6.367
63419SOL    HW290282  13.034   5.214   6.497
63420SOL     OW90283  11.393   5.038   7.430
63420SOL    HW190284  11.328   4.965   7.409
63420SOL    HW290285  11.397   5.052   7.528
63421SOL     OW90286  11.251   4.964   6.239
63421SOL    HW190287  11.250   4.917   6.327
63421SOL    HW290288  11.333   4.936   6.188
63422SOL     OW90289  11.844   5.115   7.210
63422SOL    HW190290  11.766   5.065   7.248
63422SOL    HW290291  11.841   5.210   7.241
63423SOL     OW90292  11.600   4.148   6.106
63423SOL    HW190293  11.630   4.076   6.044
63423SOL    HW290294  11.561   4.108   6.189
63424SOL     OW90295  11.489   4.271   6.866
63424SOL    HW190296  11.527   4.212   6.938
63424SOL    HW290297  11.529   4.245   6.778
63425SOL     OW90298  11.984   5.310   6.273
63425SOL    HW190299  12.016   5.320   6.179
63425SOL    HW290300  11.905   5.248   6.275
63426SOL     OW90301  12.596   3.938   6.698
63426SOL    HW190302  12.648   3.873   6.753
63426SOL    HW290303  12.547   4.001   6.759
63427SOL     OW90304  12.173   3.758   6.740
63427SOL    HW190305  12.110   3.686   6.709
63427SOL    HW290306  12.266   3.722   6.740
63428SOL     OW90307  11.942   5.054   5.887
63428SOL    HW190308  11.896   4.967   5.904
63428SOL    HW290309  12.033   5.051   5.928
63429SOL     OW90310  11.790   5.291   6.870
63429SOL    HW190311  11.785   5.373   6.927
63429SOL    HW290312  11.879   5.288   6.825
63430SOL     OW90313  12.524   3.776   5.754
63430SOL    HW190314  12.559   3.735   5.670
63430SOL    HW290315  12.434   3.738   5.774
63431SOL     OW90316  12.472   4.177   6.277
63431SOL    HW190317  12.413   4.257   6.281
63431SOL    HW290318  12.487   4.142   6.370
63432SOL     OW90319  12.765   3.945   6.468
63432SOL    HW190320  12.681   3.944   6.522
63432SOL    HW290321  12.767   4.028   6.412
63433SOL     OW90322  11.211   4.801   5.886
63433SOL    HW190323  11.310   4.790   5.877
63433SOL    HW290324  11.171   4.715   5.918
63434SOL     OW90325  12.047   5.370   5.923
63434SOL    HW190326  11.970   5.335   5.869
63434SOL    HW290327  12.015   5.441   5.985
63435SOL     OW90328  11.402   4.352   7.561
63435SOL    HW190329  11.309   4.350   7.598
63435SOL    HW290330  11.403   4.313   7.469
63436SOL     OW90331  11.397   3.999   8.444
63436SOL    HW190332  11.432   3.982   8.536
63436SOL    HW290333  11.309   3.954   8.432
63437SOL     OW90334  11.191   4.092   8.095
63437SOL    HW190335  11.109   4.135   8.134
63437SOL    HW290336  11.163   4.019   8.032
63438SOL     OW90337  11.741   4.999   8.613
63438SOL    HW190338  11.648   4.992   8.576
63438SOL    HW290339  11.752   5.088   8.657
63439SOL     OW90340  12.727   5.235   8.151
63439SOL    HW190341  12.670   5.219   8.232
63439SOL    HW290342  12.668   5.245   8.071
63440SOL     OW90343  12.307   4.427   8.165
63440SOL    HW190344  12.364   4.505   8.140
63440SOL    HW290345  12.247   4.453   8.241
63441SOL     OW90346  11.940   4.868   8.471
63441SOL    HW190347  11.862   4.885   8.531
63441SOL    HW290348  11.974   4.955   8.435
63442SOL     OW90349  12.022   4.522   9.271
63442SOL    HW190350  12.018   4.598   9.336
63442SOL    HW290351  12.044   4.558   9.180
63443SOL     OW90352  11.857   4.736   8.113
63443SOL    HW190353  11.926   4.720   8.183
63443SOL    HW290354  11.784   4.793   8.151
63444SOL     OW90355  11.858   4.885   9.251
63444SOL    HW190356  11.918   4.964   9.265
63444SOL    HW290357  11.772   4.916   9.210
63445SOL     OW90358  11.507   5.159   8.509
63445SOL    HW190359  11.429   5.128   8.456
63445SOL    HW290360  11.565   5.217   8.452
63446SOL     OW90361  12.632   5.229   8.787
63446SOL    HW190362  12.656   5.323   8.813
63446SOL    HW290363  12.616   5.175   8.869
63447SOL     OW90364  11.610   4.116   8.947
63447SOL    HW190365  11.692   4.060   8.956
63447SOL    HW290366  11.529   4.058   8.951
63448SOL     OW90367  11.403   5.437   7.931
63448SOL    HW190368  11.437   5.514   7.985
63448SOL    HW290369  11.447   5.437   7.841
63449SOL     OW90370  12.299   5.065   9.138
63449SOL    HW190371  12.346   5.065   9.226
63449SOL    HW290372  12.251   4.978   9.127
63450SOL     OW90373  11.402   5.158   7.986
63450SOL    HW190374  11.376   5.254   7.986
63450SOL    HW290375  11.331   5.104   8.031
63451SOL     OW90376  11.412   4.815   8.334
63451SOL    HW190377  11.426   4.731   8.386
63451SOL    HW290378  11.357   4.879   8.389
63452SOL     OW90379  11.792   5.510   8.887
63452SOL    HW190380  11.700   5.493   8.922
63452SOL    HW290381  11.820   5.602   8.913
63453SOL     OW90382  11.778   4.688   7.571
63453SOL    HW190383  11.785   4.772   7.517
63453SOL    HW290384  11.824   4.701   7.659
63454SOL     OW90385  12.766   3.838   8.928
63454SOL    HW190386  12.748   3.905   8.856
63454SOL    HW290387  12.763   3.884   9.017
63455SOL     OW90388  11.294   4.367   8.011
63455SOL    HW190389  11.249   4.279   8.028
63455SOL    HW290390  11.293   4.421   8.095
63456SOL     OW90391  11.199   5.320   7.565
63456SOL    HW190392  11.180   5.224   7.586
63456SOL    HW290393  11.166   5.378   7.640
63457SOL     OW90394  12.861   4.646   8.060
63457SOL    HW190395  12.956   4.617   8.068
63457SOL    HW290396  12.853   4.711   7.985
63458SOL     OW90397  11.285   4.461   9.045
63458SOL    HW190398  11.373   4.448   9.090
63458SOL    HW290399  11.272   4.558   9.023
63459SOL     OW90400  11.785   5.089   8.174
63459SOL    HW190401  11.736   5.002   8.183
63459SOL    HW290402  11.762   5.132   8.087
63460SOL     OW90403  12.465   4.952   8.871
63460SOL    HW190404  12.502   4.879   8.813
63460SOL    HW290405  12.517   4.957   8.956
63461SOL     OW90406  11.981   3.728   7.950
63461SOL    HW190407  12.021   3.819   7.941
63461SOL    HW290408  11.881   3.736   7.956
63462SOL     OW90409  11.369   4.700   8.712
63462SOL    HW190410  11.458   4.655   8.698
63462SOL    HW290411  11.296   4.635   8.693
63463SOL     OW90412  12.359   5.516   9.064
63463SOL    HW190413  12.383   5.576   8.988
63463SOL    HW290414  12.366   5.421   9.034
63464SOL     OW90415  11.489   3.975   9.249
63464SOL    HW190416  11.560   4.046   9.255
63464SOL    HW290417  11.401   4.014   9.277
63465SOL     OW90418  12.638   5.141   8.401
63465SOL    HW190419  12.579   5.147   8.481
63465SOL    HW290420  12.623   5.053   8.355
63466SOL     OW90421  12.839   5.438   8.020
63466SOL    HW190422  12.798   5.415   7.932
63466SOL    HW290423  12.821   5.364   8.085
63467SOL     OW90424  11.770   4.453   7.718
63467SOL    HW190425  11.794   4.522   7.650
63467SOL    HW290426  11.692   4.486   7.772
63468SOL     OW90427  12.453   4.069   8.392
63468SOL    HW190428  12.367   4.019   8.379
63468SOL    HW290429  12.515   4.015   8.448
63469SOL     OW90430  11.979   4.329   8.913
63469SOL    HW190431  11.932   4.326   9.002
63469SOL    HW290432  11.928   4.274   8.847
63470SOL     OW90433  12.566   4.193   9.122
63470SOL    HW190434  12.546   4.236   9.210
63470SOL    HW290435  12.644   4.131   9.131
63471SOL     OW90436  12.145   4.614   9.020
63471SOL    HW190437  12.191   4.530   8.991
63471SOL    HW290438  12.089   4.648   8.945
63472SOL     OW90439  12.163   4.134   8.690
63472SOL    HW190440  12.086   4.168   8.744
63472SOL    HW290441  12.129   4.083   8.611
63473SOL     OW90442  12.213   4.425   7.877
63473SOL    HW190443  12.239   4.421   7.973
63473SOL    HW290444  12.128   4.374   7.863
63474SOL     OW90445  11.248   4.535   8.237
63474SOL    HW190446  11.347   4.523   8.246
63474SOL    HW290447  11.224   4.630   8.258
63475SOL     OW90448  11.302   5.545   9.019
63475SOL    HW190449  11.292   5.530   9.118
63475SOL    HW290450  11.216   5.581   8.983
63476SOL     OW90451  12.037   4.072   7.643
63476SOL    HW190452  12.096   4.135   7.594
63476SOL    HW290453  12.056   3.978   7.614
63477SOL     OW90454  12.534   4.868   7.993
63477SOL    HW190455  12.617   4.839   7.945
63477SOL    HW290456  12.485   4.935   7.937
63478SOL     OW90457  11.722   3.920   8.333
63478SOL    HW190458  11.717   3.915   8.433
63478SOL    HW290459  11.724   4.016   8.304
63479SOL     OW90460  12.180   5.180   7.925
63479SOL    HW190461  12.134   5.252   7.873
63479SOL    HW290462  12.176   5.200   8.023
63480SOL     OW90463  11.523   5.525   8.301
63480SOL    HW190464  11.573   5.439   8.307
63480SOL    HW290465  11.588   5.602   8.298
63481SOL     OW90466  12.399   5.274   8.954
63481SOL    HW190467  12.405   5.197   9.018
63481SOL    HW290468  12.347   5.248   8.874
63482SOL     OW90469  11.493   4.667   7.690
63482SOL    HW190470  11.575   4.706   7.648
63482SOL    HW290471  11.466   4.585   7.641
63483SOL     OW90472  12.630   4.459   8.176
63483SOL    HW190473  12.625   4.394   8.251
63483SOL    HW290474  12.710   4.518   8.189
63484SOL     OW90475  11.633   4.990   9.175
63484SOL    HW190476  11.583   4.991   9.089
63484SOL    HW290477  11.570   4.972   9.251
63485SOL     OW90478  12.283   5.500   7.685
63485SOL    HW190479  12.223   5.438   7.735
63485SOL    HW290480  12.314   5.456   7.600
63486SOL     OW90481  11.374   4.009   8.946
63486SOL    HW190482  11.294   4.069   8.933
63486SOL    HW290483  11.364   3.960   9.032
63487SOL     OW90484  11.636   5.467   7.771
63487SOL    HW190485  11.669   5.506   7.857
63487SOL    HW290486  11.712   5.460   7.706
63488SOL     OW90487  12.572   3.831   7.874
63488SOL    HW190488  12.548   3.794   7.784
63488SOL    HW290489  12.671   3.847   7.878
63489SOL     OW90490  11.421   5.509   8.689
63489SOL    HW190491  11.478   5.444   8.739
63489SOL    HW290492  11.405   5.476   8.596
63490SOL     OW90493  12.112   5.422   8.352
63490SOL    HW190494  12.192   5.365   8.373
63490SOL    HW290495  12.063   5.382   8.275
63491SOL     OW90496  11.554   4.424   7.928
63491SOL    HW190497  11.599   4.334   7.925
63491SOL    HW290498  11.460   4.413   7.961
63492SOL     OW90499  11.786   3.846   7.565
63492SOL    HW190500  11.884   3.824   7.572
63492SOL    HW290501  11.755   3.829   7.472
63493SOL     OW90502  11.953   3.988   9.197
63493SOL    HW190503  12.020   3.927   9.240
63493SOL    HW290504  11.880   4.007   9.262
63494SOL     OW90505  12.060   5.238   8.643
63494SOL    HW190506  12.037   5.213   8.549
63494SOL    HW290507  12.121   5.169   8.682
63495SOL     OW90508  12.523   4.314   8.881
63495SOL    HW190509  12.551   4.271   8.966
63495SOL    HW290510  12.548   4.410   8.882
63496SOL     OW90511  11.975   5.126   8.372
63496SOL    HW190512  12.065   5.140   8.330
63496SOL    HW290513  11.904   5.128   8.301
63497SOL     OW90514  12.094   4.227   8.347
63497SOL    HW190515  12.069   4.218   8.251
63497SOL    HW290516  12.142   4.145   8.378
63498SOL     OW90517  11.711   3.788   7.960
63498SOL    HW190518  11.630   3.789   8.018
63498SOL    HW290519  11.714   3.871   7.905
63499SOL     OW90520  12.606   4.912   7.489
63499SOL    HW190521  12.638   4.836   7.546
63499SOL    HW290522  12.514   4.939   7.519
63500SOL     OW90523  11.469   3.759   7.619
63500SOL    HW190524  11.518   3.843   7.598
63500SOL    HW290525  11.531   3.694   7.664
63501SOL     OW90526  12.107   3.960   7.928
63501SOL    HW190527  12.059   4.001   7.850
63501SOL    HW290528  12.206   3.958   7.909
63502SOL     OW90529  12.248   4.407   8.912
63502SOL    HW190530  12.168   4.346   8.915
63502SOL    HW290531  12.329   4.354   8.888
63503SOL     OW90532  12.399   5.294   8.241
63503SOL    HW190533  12.420   5.368   8.176
63503SOL    HW290534  12.467   5.294   8.314
63504SOL     OW90535  11.631   4.876   8.189
63504SOL    HW190536  11.560   4.849   8.254
63504SOL    HW290537  11.605   4.848   8.096
63505SOL     OW90538  12.443   5.521   8.039
63505SOL    HW190539  12.487   5.585   7.975
63505SOL    HW290540  12.393   5.573   8.109
63506SOL     OW90541  12.204   4.273   7.464
63506SOL    HW190542  12.163   4.355   7.425
63506SOL    HW290543  12.268   4.299   7.537
63507SOL     OW90544  11.250   4.280   8.834
63507SOL    HW190545  11.342   4.279   8.793
63507SOL    HW290546  11.244   4.354   8.901
63508SOL     OW90547  11.733   3.946   8.595
63508SOL    HW190548  11.771   3.862   8.632
63508SOL    HW290549  11.645   3.965   8.639
63509SOL     OW90550  12.038   4.178   8.090
63509SOL    HW190551  12.006   4.250   8.028
63509SOL    HW290552  12.062   4.097   8.037
63510SOL     OW90553  12.189   3.763   8.201
63510SOL    HW190554  12.117   3.768   8.132
63510SOL    HW290555  12.165   3.694   8.270
63511SOL     OW90556  12.601   4.897   8.315
63511SOL    HW190557  12.546   4.813   8.308
63511SOL    HW290558  12.627   4.926   8.223
63512SOL     OW90559  12.638   4.314   8.440
63512SOL    HW190560  12.608   4.219   8.447
63512SOL    HW290561  12.711   4.330   8.506
63513SOL     OW90562  11.660   5.109   7.622
63513SOL    HW190563  11.573   5.094   7.669
63513SOL    HW290564  11.643   5.135   7.527
63514SOL     OW90565  12.562   4.299   7.526
63514SOL    HW190566  12.508   4.278   7.607
63514SOL    HW290567  12.653   4.258   7.535
63515SOL     OW90568  11.699   3.980   7.776
63515SOL    HW190569  11.726   3.921   7.701
63515SOL    HW290570  11.699   4.075   7.745
63516SOL     OW90571  12.236   5.071   8.788
63516SOL    HW190572  12.156   5.048   8.843
63516SOL    HW290573  12.319   5.045   8.837
63517SOL     OW90574  12.764   5.353   9.073
63517SOL    HW190575  12.791   5.387   8.983
63517SOL    HW290576  12.843   5.315   9.119
63518SOL     OW90577  12.283   4.919   8.548
63518SOL    HW190578  12.243   4.963   8.629
63518SOL    HW290579  12.242   4.956   8.465
63519SOL     OW90580  12.087   3.813   8.850
63519SOL    HW190581  12.112   3.793   8.755
63519SOL    HW290582  12.159   3.869   8.892
63520SOL     OW90583  12.152   4.840   9.167
63520SOL    HW190584  12.053   4.846   9.177
63520SOL    HW290585  12.175   4.760   9.111
63521SOL     OW90586  11.877   4.774   7.816
63521SOL    HW190587  11.863   4.781   7.915
63521SOL    HW290588  11.961   4.723   7.798
63522SOL     OW90589  11.582   4.537   8.699
63522SOL    HW190590  11.668   4.549   8.749
63522SOL    HW290591  11.540   4.450   8.726
63523SOL     OW90592  12.446   4.110   8.710
63523SOL    HW190593  12.467   4.184   8.774
63523SOL    HW290594  12.357   4.127   8.667
63524SOL     OW90595  11.236   5.288   8.779
63524SOL    HW190596  11.190   5.370   8.745
63524SOL    HW290597  11.334   5.307   8.788
63525SOL     OW90598  11.539   4.824   7.949
63525SOL    HW190599  11.532   4.907   7.893
63525SOL    HW290600  11.543   4.744   7.889
63526SOL     OW90601  11.738   4.261   8.313
63526SOL    HW190602  11.750   4.327   8.239
63526SOL    HW290603  11.784   4.295   8.396
63527SOL     OW90604  12.424   5.072   7.836
63527SOL    HW190605  12.474   5.149   7.876
63527SOL    HW290606  12.329   5.074   7.868
63528SOL     OW90607  12.444   5.169   8.590
63528SOL    HW190608  12.491   5.182   8.677
63528SOL    HW290609  12.378   5.095   8.599
63529SOL     OW90610  12.754   4.363   7.920
63529SOL    HW190611  12.723   4.424   7.993
63529SOL    HW290612  12.804   4.415   7.851
63530SOL     OW90613  11.526   5.234   8.777
63530SOL    HW190614  11.505   5.190   8.690
63530SOL    HW290615  11.623   5.260   8.780
63531SOL     OW90616  11.574   4.475   9.046
63531SOL    HW190617  11.642   4.530   8.999
63531SOL    HW290618  11.614   4.387   9.073
63532SOL     OW90619  12.185   3.829   9.218
63532SOL    HW190620  12.191   3.914   9.166
63532SOL    HW290621  12.217   3.753   9.161
63533SOL     OW90622  11.676   3.774   9.188
63533SOL    HW190623  11.634   3.717   9.118
63533SOL    HW290624  11.610   3.843   9.220
63534SOL     OW90625  11.745   4.594   8.477
63534SOL    HW190626  11.789   4.683   8.468
63534SOL    HW290627  11.682   4.594   8.554
63535SOL     OW90628  12.532   4.586   8.493
63535SOL    HW190629  12.457   4.586   8.427
63535SOL    HW290630  12.569   4.494   8.502
63536SOL     OW90631  12.381   4.249   7.723
63536SOL    HW190632  12.394   4.165   7.777
63536SOL    HW290633  12.352   4.323   7.783
63537SOL     OW90634  11.479   3.937   8.679
63537SOL    HW190635  11.456   3.974   8.769
63537SOL    HW290636  11.449   3.842   8.673
63538SOL     OW90637  11.209   5.034   8.730
63538SOL    HW190638  11.262   4.985   8.798
63538SOL    HW290639  11.231   5.132   8.735
63539SOL     OW90640  11.904   4.358   8.512
63539SOL    HW190641  11.963   4.332   8.436
63539SOL    HW290642  11.876   4.454   8.501
63540SOL     OW90643  11.479   3.787   8.066
63540SOL    HW190644  11.468   3.881   8.099
63540SOL    HW290645  11.474   3.724   8.143
63541SOL     OW90646  12.794   4.091   7.822
63541SOL    HW190647  12.796   4.015   7.886
63541SOL    HW290648  12.746   4.168   7.862
63542SOL     OW90649  12.195   4.490   8.414
63542SOL    HW190650  12.210   4.511   8.510
63542SOL    HW290651  12.165   4.395   8.405
63543SOL     OW90652  12.152   5.297   9.148
63543SOL    HW190653  12.132   5.341   9.060
63543SOL    HW290654  12.191   5.206   9.132
63544SOL     OW90655  11.522   4.622   9.252
63544SOL    HW190656  11.598   4.666   9.300
63544SOL    HW290657  11.557   4.575   9.170
63545SOL     OW90658  12.712   3.998   7.573
63545SOL    HW190659  12.651   3.923   7.596
63545SOL    HW290660  12.734   4.050   7.656
63546SOL     OW90661  12.475   4.562   7.490
63546SOL    HW190662  12.509   4.469   7.505
63546SOL    HW290663  12.493   4.589   7.395
63547SOL     OW90664  12.240   5.057   8.297
63547SOL    HW190665  12.247   4.973   8.242
63547SOL    HW290666  12.302   5.126   8.261
63548SOL     OW90667  11.491   4.534   8.397
63548SOL    HW190668  11.584   4.570   8.402
63548SOL    HW290669  11.485   4.449   8.449
63549SOL     OW90670  11.511   4.233   8.454
63549SOL    HW190671  11.459   4.150   8.437
63549SOL    HW290672  11.588   4.238   8.390
63550SOL     OW90673  12.310   4.104   9.126
63550SOL    HW190674  12.265   4.167   9.190
63550SOL    HW290675  12.403   4.135   9.109
63551SOL     OW90676  12.332   3.931   8.925
63551SOL    HW190677  12.332   3.995   9.002
63551SOL    HW290678  12.360   3.979   8.842
63552SOL     OW90679  11.180   5.050   7.648
63552SOL    HW190680  11.087   5.071   7.617
63552SOL    HW290681  11.190   4.951   7.661
63553SOL     OW90682  11.260   5.525   8.375
63553SOL    HW190683  11.218   5.439   8.348
63553SOL    HW290684  11.354   5.528   8.341
63554SOL     OW90685  11.676   5.292   8.358
63554SOL    HW190686  11.742   5.366   8.367
63554SOL    HW290687  11.720   5.213   8.316
63555SOL     OW90688  12.174   4.520   8.686
63555SOL    HW190689  12.215   4.488   8.772
63555SOL    HW290690  12.078   4.493   8.683
63556SOL     OW90691  11.212   4.268   8.562
63556SOL    HW190692  11.297   4.235   8.521
63556SOL    HW290693  11.225   4.283   8.660
63557SOL     OW90694  11.361   4.244   9.170
63557SOL    HW190695  11.420   4.204   9.100
63557SOL    HW290696  11.303   4.315   9.129
63558SOL     OW90697  12.541   4.674   9.108
63558SOL    HW190698  12.580   4.763   9.128
63558SOL    HW290699  12.551   4.654   9.011
63559SOL     OW90700  11.987   4.296   7.773
63559SOL    HW190701  11.994   4.207   7.727
63559SOL    HW290702  11.893   4.330   7.765
63560SOL     OW90703  11.424   5.288   9.192
63560SOL    HW190704  11.394   5.345   9.268
63560SOL    HW290705  11.417   5.191   9.218
63561SOL     OW90706  11.843   4.188   8.717
63561SOL    HW190707  11.809   4.099   8.687
63561SOL    HW290708  11.869   4.242   8.637
63562SOL     OW90709  12.102   5.402   8.913
63562SOL    HW190710  12.078   5.384   8.818
63562SOL    HW290711  12.132   5.496   8.923
63563SOL     OW90712  11.645   4.224   7.639
63563SOL    HW190713  11.706   4.304   7.643
63563SOL    HW290714  11.550   4.255   7.646
63564SOL     OW90715  11.331   4.861   8.914
63564SOL    HW190716  11.353   4.800   8.990
63564SOL    HW290717  11.341   4.812   8.828
63565SOL     OW90718  12.519   4.783   8.682
63565SOL    HW190719  12.543   4.720   8.608
63565SOL    HW290720  12.429   4.823   8.664
63566SOL     OW90721  12.474   4.579   7.757
63566SOL    HW190722  12.388   4.548   7.799
63566SOL    HW290723  12.470   4.565   7.658
63567SOL     OW90724  12.424   5.455   8.576
63567SOL    HW190725  12.508   5.460   8.522
63567SOL    HW290726  12.401   5.359   8.594
63568SOL     OW90727  11.255   4.982   8.470
63568SOL    HW190728  11.250   4.981   8.570
63568SOL    HW290729  11.172   4.941   8.432
63569SOL     OW90730  11.860   5.386   9.164
63569SOL    HW190731  11.804   5.467   9.173
63569SOL    HW290732  11.912   5.390   9.078
63570SOL     OW90733  12.898   3.859   7.971
63570SOL    HW190734  12.971   3.842   7.904
63570SOL    HW290735  12.867   3.772   8.009
63571SOL     OW90736  12.560   5.297   7.925
63571SOL    HW190737  12.627   5.309   7.851
63571SOL    HW290738  12.520   5.386   7.948
63572SOL     OW90739  11.302   5.518   9.299
63572SOL    HW190740  11.261   5.444   9.352
63572SOL    HW290741  11.366   5.569   9.357
63573SOL     OW90742  12.452   4.651   8.120
63573SOL    HW190743  12.512   4.570   8.122
63573SOL    HW290744  12.492   4.720   8.060
63574SOL     OW90745  12.002   4.997   8.870
63574SOL    HW190746  11.997   5.030   8.965
63574SOL    HW290747  11.916   5.016   8.824
63575SOL     OW90748  11.844   5.340   7.602
63575SOL    HW190749  11.853   5.350   7.503
63575SOL    HW290750  11.804   5.251   7.623
63576SOL     OW90751  11.435   4.050   8.168
63576SOL    HW190752  11.356   4.101   8.134
63576SOL    HW290753  11.426   4.035   8.266
63577SOL     OW90754  12.366   5.336   7.479
63577SOL    HW190755  12.372   5.243   7.516
63577SOL    HW290756  12.307   5.336   7.399
63578SOL     OW90757  11.994   4.726   8.820
63578SOL    HW190758  12.034   4.725   8.728
63578SOL    HW290759  12.004   4.818   8.860
63579SOL     OW90760  12.088   4.634   7.739
63579SOL    HW190761  12.151   4.672   7.671
63579SOL    HW290762  12.128   4.551   7.778
63580SOL     OW90763  12.676   5.331   7.492
63580SOL    HW190764  12.584   5.368   7.499
63580SOL    HW290765  12.714   5.351   7.402
63581SOL     OW90766  11.544   5.012   8.938
63581SOL    HW190767  11.531   5.105   8.904
63581SOL    HW290768  11.460   4.960   8.925
63582SOL     OW90769  12.211   4.822   8.144
63582SOL    HW190770  12.141   4.775   8.198
63582SOL    HW290771  12.270   4.754   8.101
63583SOL     OW90772  12.186   3.960   8.419
63583SOL    HW190773  12.178   3.924   8.326
63583SOL    HW290774  12.184   3.884   8.484
63584SOL     OW90775  11.762   5.211   7.939
63584SOL    HW190776  11.804   5.153   7.869
63584SOL    HW290777  11.718   5.290   7.895
63585SOL     OW90778  11.427   5.072   7.738
63585SOL    HW190779  11.331   5.073   7.711
63585SOL    HW290780  11.439   5.125   7.822
63586SOL     OW90781  11.277   4.737   9.174
63586SOL    HW190782  11.200   4.704   9.228
63586SOL    HW290783  11.362   4.707   9.216
63587SOL     OW90784  11.844   3.927   8.937
63587SOL    HW190785  11.934   3.911   8.897
63587SOL    HW290786  11.852   3.932   9.036
63588SOL     OW90787  11.247   4.069   7.481
63588SOL    HW190788  11.155   4.041   7.452
63588SOL    HW290789  11.278   4.146   7.425
63589SOL     OW90790  12.612   4.580   8.846
63589SOL    HW190791  12.555   4.632   8.783
63589SOL    HW290792  12.708   4.592   8.822
63590SOL     OW90793  11.244   3.890   7.766
63590SOL    HW190794  11.227   3.973   7.712
63590SOL    HW290795  11.334   3.853   7.744
63591SOL     OW90796  12.355   5.059   7.567
63591SOL    HW190797  12.256   5.048   7.569
63591SOL    HW290798  12.389   5.074   7.660
63592SOL     OW90799  11.785   4.566   8.879
63592SOL    HW190800  11.841   4.647   8.862
63592SOL    HW290801  11.844   4.486   8.882
63593SOL     OW90802  12.665   5.491   8.407
63593SOL    HW190803  12.698   5.555   8.338
63593SOL    HW290804  12.731   5.485   8.482
63594SOL     OW90805  11.888   4.289   9.156
63594SOL    HW190806  11.907   4.354   9.230
63594SOL    HW290807  11.948   4.209   9.165
63595SOL     OW90808  12.622   4.944   9.081
63595SOL    HW190809  12.613   4.934   9.180
63595SOL    HW290810  12.718   4.937   9.055
63596SOL     OW90811  11.562   5.465   9.008
63596SOL    HW190812  11.471   5.506   9.006
63596SOL    HW290813  11.555   5.371   9.040
63597SOL     OW90814  12.397   4.049   7.897
63597SOL    HW190815  12.462   3.975   7.886
63597SOL    HW290816  12.417   4.099   7.981
63598SOL     OW90817  11.766   4.469   8.100
63598SOL    HW190818  11.816   4.554   8.081
63598SOL    HW290819  11.678   4.471   8.052
63599SOL     OW90820  12.031   5.098   7.464
63599SOL    HW190821  11.985   5.113   7.552
63599SOL    HW290822  12.075   5.183   7.434
63600SOL     OW90823  11.833   5.514   8.401
63600SOL    HW190824  11.787   5.602   8.388
63600SOL    HW290825  11.932   5.526   8.394
63601SOL     OW90826  12.031   4.680   8.309
63601SOL    HW190827  12.085   4.611   8.357
63601SOL    HW290828  11.999   4.749   8.375
63602SOL     OW90829  12.255   4.708   7.535
63602SOL    HW190830  12.232   4.761   7.453
63602SOL    HW290831  12.336   4.652   7.516
63603SOL     OW90832  13.033   5.293   8.299
63603SOL    HW190833  12.962   5.281   8.229
63603SOL    HW290834  13.034   5.214   8.359
63604SOL     OW90835  11.393   5.038   9.292
63604SOL    HW190836  11.328   4.965   9.271
63604SOL    HW290837  11.397   5.052   9.390
63605SOL     OW90838  11.251   4.964   8.101
63605SOL    HW190839  11.250   4.917   8.189
63605SOL    HW290840  11.333   4.936   8.050
63606SOL     OW90841  11.844   5.115   9.072
63606SOL    HW190842  11.766   5.065   9.110
63606SOL    HW290843  11.841   5.210   9.103
63607SOL     OW90844  11.600   4.148   7.968
63607SOL    HW190845  11.630   4.076   7.906
63607SOL    HW290846  11.561   4.108   8.051
63608SOL     OW90847  11.489   4.271   8.728
63608SOL    HW190848  11.527   4.212   8.800
63608SOL    HW290849  11.529   4.245   8.640
63609SOL     OW90850  11.984   5.310   8.135
63609SOL    HW190851  12.016   5.320   8.041
63609SOL    HW290852  11.905   5.248   8.137
63610SOL     OW90853  12.596   3.938   8.560
63610SOL    HW190854  12.648   3.873   8.615
63610SOL    HW290855  12.547   4.001   8.621
63611SOL     OW90856  12.173   3.758   8.602
63611SOL    HW190857  12.110   3.686   8.571
63611SOL    HW290858  12.266   3.722   8.602
63612SOL     OW90859  11.942   5.054   7.749
63612SOL    HW190860  11.896   4.967   7.766
63612SOL    HW290861  12.033   5.051   7.790
63613SOL     OW90862  11.790   5.291   8.732
63613SOL    HW190863  11.785   5.373   8.789
63613SOL    HW290864  11.879   5.288   8.687
63614SOL     OW90865  12.524   3.776   7.616
63614SOL    HW190866  12.559   3.735   7.532
63614SOL    HW290867  12.434   3.738   7.636
63615SOL     OW90868  12.472   4.177   8.139
63615SOL    HW190869  12.413   4.257   8.143
63615SOL    HW290870  12.487   4.142   8.232
63616SOL     OW90871  12.765   3.945   8.330
63616SOL    HW190872  12.681   3.944   8.384
63616SOL    HW290873  12.767   4.028   8.274
63617SOL     OW90874  11.211   4.801   7.748
63617SOL    HW190875  11.310   4.790   7.739
63617SOL    HW290876  11.171   4.715   7.780
63618SOL     OW90877  12.047   5.370   7.785
63618SOL    HW190878  11.970   5.335   7.731
63618SOL    HW290879  12.015   5.441   7.847
63619SOL     OW90880  11.402   4.352   9.423
63619SOL    HW190881  11.309   4.350   9.460
63619SOL    HW290882  11.403   4.313   9.331
63620SOL     OW90883  11.397   3.999  10.306
63620SOL    HW190884  11.432   3.982  10.398
63620SOL    HW290885  11.309   3.954  10.294
63621SOL     OW90886  11.191   4.092   9.957
63621SOL    HW190887  11.109   4.135   9.996
63621SOL    HW290888  11.163   4.019   9.894
63622SOL     OW90889  11.741   4.999  10.475
63622SOL    HW190890  11.648   4.992  10.438
63622SOL    HW290891  11.752   5.088  10.519
63623SOL     OW90892  12.727   5.235  10.013
63623SOL    HW190893  12.670   5.219  10.094
63623SOL    HW290894  12.668   5.245   9.933
63624SOL     OW90895  12.307   4.427  10.027
63624SOL    HW190896  12.364   4.505  10.002
63624SOL    HW290897  12.247   4.453  10.103
63625SOL     OW90898  11.940   4.868  10.333
63625SOL    HW190899  11.862   4.885  10.393
63625SOL    HW290900  11.974   4.955  10.297
63626SOL     OW90901  12.022   4.522  11.133
63626SOL    HW190902  12.018   4.598  11.198
63626SOL    HW290903  12.044   4.558  11.042
63627SOL     OW90904  11.857   4.736   9.975
63627SOL    HW190905  11.926   4.720  10.045
63627SOL    HW290906  11.784   4.793  10.013
63628SOL     OW90907  11.858   4.885  11.113
63628SOL    HW190908  11.918   4.964  11.127
63628SOL    HW290909  11.772   4.916  11.072
63629SOL     OW90910  11.507   5.159  10.371
63629SOL    HW190911  11.429   5.128  10.318
63629SOL    HW290912  11.565   5.217  10.314
63630SOL     OW90913  12.632   5.229  10.649
63630SOL    HW190914  12.656   5.323  10.675
63630SOL    HW290915  12.616   5.175  10.731
63631SOL     OW90916  11.610   4.116  10.809
63631SOL    HW190917  11.692   4.060  10.818
63631SOL    HW290918  11.529   4.058  10.813
63632SOL     OW90919  11.403   5.437   9.793
63632SOL    HW190920  11.437   5.514   9.847
63632SOL    HW290921  11.447   5.437   9.703
63633SOL     OW90922  12.299   5.065  11.000
63633SOL    HW190923  12.346   5.065  11.088
63633SOL    HW290924  12.251   4.978  10.989
63634SOL     OW90925  11.402   5.158   9.848
63634SOL    HW190926  11.376   5.254   9.848
63634SOL    HW290927  11.331   5.104   9.893
63635SOL     OW90928  11.412   4.815  10.196
63635SOL    HW190929  11.426   4.731  10.248
63635SOL    HW290930  11.357   4.879  10.251
63636SOL     OW90931  11.792   5.510  10.749
63636SOL    HW190932  11.700   5.493  10.784
63636SOL    HW290933  11.820   5.602  10.775
63637SOL     OW90934  11.778   4.688   9.433
63637SOL    HW190935  11.785   4.772   9.379
63637SOL    HW290936  11.824   4.701   9.521
63638SOL     OW90937  12.766   3.838  10.790
63638SOL    HW190938  12.748   3.905  10.718
63638SOL    HW290939  12.763   3.884  10.879
63639SOL     OW90940  11.294   4.367   9.873
63639SOL    HW190941  11.249   4.279   9.890
63639SOL    HW290942  11.293   4.421   9.957
63640SOL     OW90943  11.199   5.320   9.427
63640SOL    HW190944  11.180   5.224   9.448
63640SOL    HW290945  11.166   5.378   9.502
63641SOL     OW90946  12.861   4.646   9.922
63641SOL    HW190947  12.956   4.617   9.930
63641SOL    HW290948  12.853   4.711   9.847
63642SOL     OW90949  11.285   4.461  10.907
63642SOL    HW190950  11.373   4.448  10.952
63642SOL    HW290951  11.272   4.558  10.885
63643SOL     OW90952  11.785   5.089  10.036
63643SOL    HW190953  11.736   5.002  10.045
63643SOL    HW290954  11.762   5.132   9.949
63644SOL     OW90955  12.465   4.952  10.733
63644SOL    HW190956  12.502   4.879  10.675
63644SOL    HW290957  12.517   4.957  10.818
63645SOL     OW90958  11.981   3.728   9.812
63645SOL    HW190959  12.021   3.819   9.803
63645SOL    HW290960  11.881   3.736   9.818
63646SOL     OW90961  11.369   4.700  10.574
63646SOL    HW190962  11.458   4.655  10.560
63646SOL    HW290963  11.296   4.635  10.555
63647SOL     OW90964  12.359   5.516  10.926
63647SOL    HW190965  12.383   5.576  10.850
63647SOL    HW290966  12.366   5.421  10.896
63648SOL     OW90967  11.489   3.975  11.111
63648SOL    HW190968  11.560   4.046  11.117
63648SOL    HW290969  11.401   4.014  11.139
63649SOL     OW90970  12.638   5.141  10.263
63649SOL    HW190971  12.579   5.147  10.343
63649SOL    HW290972  12.623   5.053  10.217
63650SOL     OW90973  12.839   5.438   9.882
63650SOL    HW190974  12.798   5.415   9.794
63650SOL    HW290975  12.821   5.364   9.947
63651SOL     OW90976  11.770   4.453   9.580
63651SOL    HW190977  11.794   4.522   9.512
63651SOL    HW290978  11.692   4.486   9.634
63652SOL     OW90979  12.453   4.069  10.254
63652SOL    HW190980  12.367   4.019  10.241
63652SOL    HW290981  12.515   4.015  10.310
63653SOL     OW90982  11.979   4.329  10.775
63653SOL    HW190983  11.932   4.326  10.864
63653SOL    HW290984  11.928   4.274  10.709
63654SOL     OW90985  12.566   4.193  10.984
63654SOL    HW190986  12.546   4.236  11.072
63654SOL    HW290987  12.644   4.131  10.993
63655SOL     OW90988  12.145   4.614  10.882
63655SOL    HW190989  12.191   4.530  10.853
63655SOL    HW290990  12.089   4.648  10.807
63656SOL     OW90991  12.163   4.134  10.552
63656SOL    HW190992  12.086   4.168  10.606
63656SOL    HW290993  12.129   4.083  10.473
63657SOL     OW90994  12.213   4.425   9.739
63657SOL    HW190995  12.239   4.421   9.835
63657SOL    HW290996  12.128   4.374   9.725
63658SOL     OW90997  11.248   4.535  10.099
63658SOL    HW190998  11.347   4.523  10.108
63658SOL    HW290999  11.224   4.630  10.120
63659SOL     OW91000  11.302   5.545  10.881
63659SOL    HW191001  11.292   5.530  10.980
63659SOL    HW291002  11.216   5.581  10.845
63660SOL     OW91003  12.037   4.072   9.505
63660SOL    HW191004  12.096   4.135   9.456
63660SOL    HW291005  12.056   3.978   9.476
63661SOL     OW91006  12.534   4.868   9.855
63661SOL    HW191007  12.617   4.839   9.807
63661SOL    HW291008  12.485   4.935   9.799
63662SOL     OW91009  11.722   3.920  10.195
63662SOL    HW191010  11.717   3.915  10.295
63662SOL    HW291011  11.724   4.016  10.166
63663SOL     OW91012  12.180   5.180   9.787
63663SOL    HW191013  12.134   5.252   9.735
63663SOL    HW291014  12.176   5.200   9.885
63664SOL     OW91015  11.523   5.525  10.163
63664SOL    HW191016  11.573   5.439  10.169
63664SOL    HW291017  11.588   5.602  10.160
63665SOL     OW91018  12.399   5.274  10.816
63665SOL    HW191019  12.405   5.197  10.880
63665SOL    HW291020  12.347   5.248  10.736
63666SOL     OW91021  11.493   4.667   9.552
63666SOL    HW191022  11.575   4.706   9.510
63666SOL    HW291023  11.466   4.585   9.503
63667SOL     OW91024  12.630   4.459  10.038
63667SOL    HW191025  12.625   4.394  10.113
63667SOL    HW291026  12.710   4.518  10.051
63668SOL     OW91027  11.633   4.990  11.037
63668SOL    HW191028  11.583   4.991  10.951
63668SOL    HW291029  11.570   4.972  11.113
63669SOL     OW91030  12.283   5.500   9.547
63669SOL    HW191031  12.223   5.438   9.597
63669SOL    HW291032  12.314   5.456   9.462
63670SOL     OW91033  11.374   4.009  10.808
63670SOL    HW191034  11.294   4.069  10.795
63670SOL    HW291035  11.364   3.960  10.894
63671SOL     OW91036  11.636   5.467   9.633
63671SOL    HW191037  11.669   5.506   9.719
63671SOL    HW291038  11.712   5.460   9.568
63672SOL     OW91039  12.572   3.831   9.736
63672SOL    HW191040  12.548   3.794   9.646
63672SOL    HW291041  12.671   3.847   9.740
63673SOL     OW91042  11.421   5.509  10.551
63673SOL    HW191043  11.478   5.444  10.601
63673SOL    HW291044  11.405   5.476  10.458
63674SOL     OW91045  12.112   5.422  10.214
63674SOL    HW191046  12.192   5.365  10.235
63674SOL    HW291047  12.063   5.382  10.137
63675SOL     OW91048  11.554   4.424   9.790
63675SOL    HW191049  11.599   4.334   9.787
63675SOL    HW291050  11.460   4.413   9.823
63676SOL     OW91051  11.786   3.846   9.427
63676SOL    HW191052  11.884   3.824   9.434
63676SOL    HW291053  11.755   3.829   9.334
63677SOL     OW91054  11.953   3.988  11.059
63677SOL    HW191055  12.020   3.927  11.102
63677SOL    HW291056  11.880   4.007  11.124
63678SOL     OW91057  12.060   5.238  10.505
63678SOL    HW191058  12.037   5.213  10.411
63678SOL    HW291059  12.121   5.169  10.544
63679SOL     OW91060  12.523   4.314  10.743
63679SOL    HW191061  12.551   4.271  10.828
63679SOL    HW291062  12.548   4.410  10.744
63680SOL     OW91063  11.975   5.126  10.234
63680SOL    HW191064  12.065   5.140  10.192
63680SOL    HW291065  11.904   5.128  10.163
63681SOL     OW91066  12.094   4.227  10.209
63681SOL    HW191067  12.069   4.218  10.113
63681SOL    HW291068  12.142   4.145  10.240
63682SOL     OW91069  11.711   3.788   9.822
63682SOL    HW191070  11.630   3.789   9.880
63682SOL    HW291071  11.714   3.871   9.767
63683SOL     OW91072  12.606   4.912   9.351
63683SOL    HW191073  12.638   4.836   9.408
63683SOL    HW291074  12.514   4.939   9.381
63684SOL     OW91075  11.469   3.759   9.481
63684SOL    HW191076  11.518   3.843   9.460
63684SOL    HW291077  11.531   3.694   9.526
63685SOL     OW91078  12.107   3.960   9.790
63685SOL    HW191079  12.059   4.001   9.712
63685SOL    HW291080  12.206   3.958   9.771
63686SOL     OW91081  12.248   4.407  10.774
63686SOL    HW191082  12.168   4.346  10.777
63686SOL    HW291083  12.329   4.354  10.750
63687SOL     OW91084  12.399   5.294  10.103
63687SOL    HW191085  12.420   5.368  10.038
63687SOL    HW291086  12.467   5.294  10.176
63688SOL     OW91087  11.631   4.876  10.051
63688SOL    HW191088  11.560   4.849  10.116
63688SOL    HW291089  11.605   4.848   9.958
63689SOL     OW91090  12.443   5.521   9.901
63689SOL    HW191091  12.487   5.585   9.837
63689SOL    HW291092  12.393   5.573   9.971
63690SOL     OW91093  12.204   4.273   9.326
63690SOL    HW191094  12.163   4.355   9.287
63690SOL    HW291095  12.268   4.299   9.399
63691SOL     OW91096  11.250   4.280  10.696
63691SOL    HW191097  11.342   4.279  10.655
63691SOL    HW291098  11.244   4.354  10.763
63692SOL     OW91099  11.733   3.946  10.457
63692SOL    HW191100  11.771   3.862  10.494
63692SOL    HW291101  11.645   3.965  10.501
63693SOL     OW91102  12.038   4.178   9.952
63693SOL    HW191103  12.006   4.250   9.890
63693SOL    HW291104  12.062   4.097   9.899
63694SOL     OW91105  12.189   3.763  10.063
63694SOL    HW191106  12.117   3.768   9.994
63694SOL    HW291107  12.165   3.694  10.132
63695SOL     OW91108  12.601   4.897  10.177
63695SOL    HW191109  12.546   4.813  10.170
63695SOL    HW291110  12.627   4.926  10.085
63696SOL     OW91111  12.638   4.314  10.302
63696SOL    HW191112  12.608   4.219  10.309
63696SOL    HW291113  12.711   4.330  10.368
63697SOL     OW91114  11.660   5.109   9.484
63697SOL    HW191115  11.573   5.094   9.531
63697SOL    HW291116  11.643   5.135   9.389
63698SOL     OW91117  12.562   4.299   9.388
63698SOL    HW191118  12.508   4.278   9.469
63698SOL    HW291119  12.653   4.258   9.397
63699SOL     OW91120  11.699   3.980   9.638
63699SOL    HW191121  11.726   3.921   9.563
63699SOL    HW291122  11.699   4.075   9.607
63700SOL     OW91123  12.236   5.071  10.650
63700SOL    HW191124  12.156   5.048  10.705
63700SOL    HW291125  12.319   5.045  10.699
63701SOL     OW91126  12.764   5.353  10.935
63701SOL    HW191127  12.791   5.387  10.845
63701SOL    HW291128  12.843   5.315  10.981
63702SOL     OW91129  12.283   4.919  10.410
63702SOL    HW191130  12.243   4.963  10.491
63702SOL    HW291131  12.242   4.956  10.327
63703SOL     OW91132  12.087   3.813  10.712
63703SOL    HW191133  12.112   3.793  10.617
63703SOL    HW291134  12.159   3.869  10.754
63704SOL     OW91135  12.152   4.840  11.029
63704SOL    HW191136  12.053   4.846  11.039
63704SOL    HW291137  12.175   4.760  10.973
63705SOL     OW91138  11.877   4.774   9.678
63705SOL    HW191139  11.863   4.781   9.777
63705SOL    HW291140  11.961   4.723   9.660
63706SOL     OW91141  11.582   4.537  10.561
63706SOL    HW191142  11.668   4.549  10.611
63706SOL    HW291143  11.540   4.450  10.588
63707SOL     OW91144  12.446   4.110  10.572
63707SOL    HW191145  12.467   4.184  10.636
63707SOL    HW291146  12.357   4.127  10.529
63708SOL     OW91147  11.236   5.288  10.641
63708SOL    HW191148  11.190   5.370  10.607
63708SOL    HW291149  11.334   5.307  10.650
63709SOL     OW91150  11.539   4.824   9.811
63709SOL    HW191151  11.532   4.907   9.755
63709SOL    HW291152  11.543   4.744   9.751
63710SOL     OW91153  11.738   4.261  10.175
63710SOL    HW191154  11.750   4.327  10.101
63710SOL    HW291155  11.784   4.295  10.258
63711SOL     OW91156  12.424   5.072   9.698
63711SOL    HW191157  12.474   5.149   9.738
63711SOL    HW291158  12.329   5.074   9.730
63712SOL     OW91159  12.444   5.169  10.452
63712SOL    HW191160  12.491   5.182  10.539
63712SOL    HW291161  12.378   5.095  10.461
63713SOL     OW91162  12.754   4.363   9.782
63713SOL    HW191163  12.723   4.424   9.855
63713SOL    HW291164  12.804   4.415   9.713
63714SOL     OW91165  11.526   5.234  10.639
63714SOL    HW191166  11.505   5.190  10.552
63714SOL    HW291167  11.623   5.260  10.642
63715SOL     OW91168  11.574   4.475  10.908
63715SOL    HW191169  11.642   4.530  10.861
63715SOL    HW291170  11.614   4.387  10.935
63716SOL     OW91171  12.185   3.829  11.080
63716SOL    HW191172  12.191   3.914  11.028
63716SOL    HW291173  12.217   3.753  11.023
63717SOL     OW91174  11.676   3.774  11.050
63717SOL    HW191175  11.634   3.717  10.980
63717SOL    HW291176  11.610   3.843  11.082
63718SOL     OW91177  11.745   4.594  10.339
63718SOL    HW191178  11.789   4.683  10.330
63718SOL    HW291179  11.682   4.594  10.416
63719SOL     OW91180  12.532   4.586  10.355
63719SOL    HW191181  12.457   4.586  10.289
63719SOL    HW291182  12.569   4.494  10.364
63720SOL     OW91183  12.381   4.249   9.585
63720SOL    HW191184  12.394   4.165   9.639
63720SOL    HW291185  12.352   4.323   9.645
63721SOL     OW91186  11.479   3.937  10.541
63721SOL    HW191187  11.456   3.974  10.631
63721SOL    HW291188  11.449   3.842  10.535
63722SOL     OW91189  11.209   5.034  10.592
63722SOL    HW191190  11.262   4.985  10.660
63722SOL    HW291191  11.231   5.132  10.597
63723SOL     OW91192  11.904   4.358  10.374
63723SOL    HW191193  11.963   4.332  10.298
63723SOL    HW291194  11.876   4.454  10.363
63724SOL     OW91195  11.479   3.787   9.928
63724SOL    HW191196  11.468   3.881   9.961
63724SOL    HW291197  11.474   3.724  10.005
63725SOL     OW91198  12.794   4.091   9.684
63725SOL    HW191199  12.796   4.015   9.748
63725SOL    HW291200  12.746   4.168   9.724
63726SOL     OW91201  12.195   4.490  10.276
63726SOL    HW191202  12.210   4.511  10.372
63726SOL    HW291203  12.165   4.395  10.267
63727SOL     OW91204  12.152   5.297  11.010
63727SOL    HW191205  12.132   5.341  10.922
63727SOL    HW291206  12.191   5.206  10.994
63728SOL     OW91207  11.522   4.622  11.114
63728SOL    HW191208  11.598   4.666  11.162
63728SOL    HW291209  11.557   4.575  11.032
63729SOL     OW91210  12.712   3.998   9.435
63729SOL    HW191211  12.651   3.923   9.458
63729SOL    HW291212  12.734   4.050   9.518
63730SOL     OW91213  12.475   4.562   9.352
63730SOL    HW191214  12.509   4.469   9.367
63730SOL    HW291215  12.493   4.589   9.257
63731SOL     OW91216  12.240   5.057  10.159
63731SOL    HW191217  12.247   4.973  10.104
63731SOL    HW291218  12.302   5.126  10.123
63732SOL     OW91219  11.491   4.534  10.259
63732SOL    HW191220  11.584   4.570  10.264
63732SOL    HW291221  11.485   4.449  10.311
63733SOL     OW91222  11.511   4.233  10.316
63733SOL    HW191223  11.459   4.150  10.299
63733SOL    HW291224  11.588   4.238  10.252
63734SOL     OW91225  12.310   4.104  10.988
63734SOL    HW191226  12.265   4.167  11.052
63734SOL    HW291227  12.403   4.135  10.971
63735SOL     OW91228  12.332   3.931  10.787
63735SOL    HW191229  12.332   3.995  10.864
63735SOL    HW291230  12.360   3.979  10.704
63736SOL     OW91231  11.180   5.050   9.510
63736SOL    HW191232  11.087   5.071   9.479
63736SOL    HW291233  11.190   4.951   9.523
63737SOL     OW91234  11.260   5.525  10.237
63737SOL    HW191235  11.218   5.439  10.210
63737SOL    HW291236  11.354   5.528  10.203
63738SOL     OW91237  11.676   5.292  10.220
63738SOL    HW191238  11.742   5.366  10.229
63738SOL    HW291239  11.720   5.213  10.178
63739SOL     OW91240  12.174   4.520  10.548
63739SOL    HW191241  12.215   4.488  10.634
63739SOL    HW291242  12.078   4.493  10.545
63740SOL     OW91243  11.212   4.268  10.424
63740SOL    HW191244  11.297   4.235  10.383
63740SOL    HW291245  11.225   4.283  10.522
63741SOL     OW91246  11.361   4.244  11.032
63741SOL    HW191247  11.420   4.204  10.962
63741SOL    HW291248  11.303   4.315  10.991
63742SOL     OW91249  12.541   4.674  10.970
63742SOL    HW191250  12.580   4.763  10.990
63742SOL    HW291251  12.551   4.654  10.873
63743SOL     OW91252  11.987   4.296   9.635
63743SOL    HW191253  11.994   4.207   9.589
63743SOL    HW291254  11.893   4.330   9.627
63744SOL     OW91255  11.424   5.288  11.054
63744SOL    HW191256  11.394   5.345  11.130
63744SOL    HW291257  11.417   5.191  11.080
63745SOL     OW91258  11.843   4.188  10.579
63745SOL    HW191259  11.809   4.099  10.549
63745SOL    HW291260  11.869   4.242  10.499
63746SOL     OW91261  12.102   5.402  10.775
63746SOL    HW191262  12.078   5.384  10.680
63746SOL    HW291263  12.132   5.496  10.785
63747SOL     OW91264  11.645   4.224   9.501
63747SOL    HW191265  11.706   4.304   9.505
63747SOL    HW291266  11.550   4.255   9.508
63748SOL     OW91267  11.331   4.861  10.776
63748SOL    HW191268  11.353   4.800  10.852
63748SOL    HW291269  11.341   4.812  10.690
63749SOL     OW91270  12.519   4.783  10.544
63749SOL    HW191271  12.543   4.720  10.470
63749SOL    HW291272  12.429   4.823  10.526
63750SOL     OW91273  12.474   4.579   9.619
63750SOL    HW191274  12.388   4.548   9.661
63750SOL    HW291275  12.470   4.565   9.520
63751SOL     OW91276  12.424   5.455  10.438
63751SOL    HW191277  12.508   5.460  10.384
63751SOL    HW291278  12.401   5.359  10.456
63752SOL     OW91279  11.255   4.982  10.332
63752SOL    HW191280  11.250   4.981  10.432
63752SOL    HW291281  11.172   4.941  10.294
63753SOL     OW91282  11.860   5.386  11.026
63753SOL    HW191283  11.804   5.467  11.035
63753SOL    HW291284  11.912   5.390  10.940
63754SOL     OW91285  12.898   3.859   9.833
63754SOL    HW191286  12.971   3.842   9.766
63754SOL    HW291287  12.867   3.772   9.871
63755SOL     OW91288  12.560   5.297   9.787
63755SOL    HW191289  12.627   5.309   9.713
63755SOL    HW291290  12.520   5.386   9.810
63756SOL     OW91291  11.302   5.518  11.161
63756SOL    HW191292  11.261   5.444  11.214
63756SOL    HW291293  11.366   5.569  11.219
63757SOL     OW91294  12.452   4.651   9.982
63757SOL    HW191295  12.512   4.570   9.984
63757SOL    HW291296  12.492   4.720   9.922
63758SOL     OW91297  12.002   4.997  10.732
63758SOL    HW191298  11.997   5.030  10.827
63758SOL    HW291299  11.916   5.016  10.686
63759SOL     OW91300  11.844   5.340   9.464
63759SOL    HW191301  11.853   5.350   9.365
63759SOL    HW291302  11.804   5.251   9.485
63760SOL     OW91303  11.435   4.050  10.030
63760SOL    HW191304  11.356   4.101   9.996
63760SOL    HW291305  11.426   4.035  10.128
63761SOL     OW91306  12.366   5.336   9.341
63761SOL    HW191307  12.372   5.243   9.378
63761SOL    HW291308  12.307   5.336   9.261
63762SOL     OW91309  11.994   4.726  10.682
63762SOL    HW191310  12.034   4.725  10.590
63762SOL    HW291311  12.004   4.818  10.722
63763SOL     OW91312  12.088   4.634   9.601
63763SOL    HW191313  12.151   4.672   9.533
63763SOL    HW291314  12.128   4.551   9.640
63764SOL     OW91315  12.676   5.331   9.354
63764SOL    HW191316  12.584   5.368   9.361
63764SOL    HW291317  12.714   5.351   9.264
63765SOL     OW91318  11.544   5.012  10.800
63765SOL    HW191319  11.531   5.105  10.766
63765SOL    HW291320  11.460   4.960  10.787
63766SOL     OW91321  12.211   4.822  10.006
63766SOL    HW191322  12.141   4.775  10.060
63766SOL    HW291323  12.270   4.754   9.963
63767SOL     OW91324  12.186   3.960  10.281
63767SOL    HW191325  12.178   3.924  10.188
63767SOL    HW291326  12.184   3.884  10.346
63768SOL     OW91327  11.762   5.211   9.801
63768SOL    HW191328  11.804   5.153   9.731
63768SOL    HW291329  11.718   5.290   9.757
63769SOL     OW91330  11.427   5.072   9.600
63769SOL    HW191331  11.331   5.073   9.573
63769SOL    HW291332  11.439   5.125   9.684
63770SOL     OW91333  11.277   4.737  11.036
63770SOL    HW191334  11.200   4.704  11.090
63770SOL    HW291335  11.362   4.707  11.078
63771SOL     OW91336  11.844   3.927  10.799
63771SOL    HW191337  11.934   3.911  10.759
63771SOL    HW291338  11.852   3.932  10.898
63772SOL     OW91339  11.247   4.069   9.343
63772SOL    HW191340  11.155   4.041   9.314
63772SOL    HW291341  11.278   4.146   9.287
63773SOL     OW91342  12.612   4.580  10.708
63773SOL    HW191343  12.555   4.632  10.645
63773SOL    HW291344  12.708   4.592  10.684
63774SOL     OW91345  11.244   3.890   9.628
63774SOL    HW191346  11.227   3.973   9.574
63774SOL    HW291347  11.334   3.853   9.606
63775SOL     OW91348  12.355   5.059   9.429
63775SOL    HW191349  12.256   5.048   9.431
63775SOL    HW291350  12.389   5.074   9.522
63776SOL     OW91351  11.785   4.566  10.741
63776SOL    HW191352  11.841   4.647  10.724
63776SOL    HW291353  11.844   4.486  10.744
63777SOL     OW91354  12.665   5.491  10.269
63777SOL    HW191355  12.698   5.555  10.200
63777SOL    HW291356  12.731   5.485  10.344
63778SOL     OW91357  11.888   4.289  11.018
63778SOL    HW191358  11.907   4.354  11.092
63778SOL    HW291359  11.948   4.209  11.027
63779SOL     OW91360  12.622   4.944  10.943
63779SOL    HW191361  12.613   4.934  11.042
63779SOL    HW291362  12.718   4.937  10.917
63780SOL     OW91363  11.562   5.465  10.870
63780SOL    HW191364  11.471   5.506  10.868
63780SOL    HW291365  11.555   5.371  10.902
63781SOL     OW91366  12.397   4.049   9.759
63781SOL    HW191367  12.462   3.975   9.748
63781SOL    HW291368  12.417   4.099   9.843
63782SOL     OW91369  11.766   4.469   9.962
63782SOL    HW191370  11.816   4.554   9.943
63782SOL    HW291371  11.678   4.471   9.914
63783SOL     OW91372  12.031   5.098   9.326
63783SOL    HW191373  11.985   5.113   9.414
63783SOL    HW291374  12.075   5.183   9.296
63784SOL     OW91375  11.833   5.514  10.263
63784SOL    HW191376  11.787   5.602  10.250
63784SOL    HW291377  11.932   5.526  10.256
63785SOL     OW91378  12.031   4.680  10.171
63785SOL    HW191379  12.085   4.611  10.219
63785SOL    HW291380  11.999   4.749  10.237
63786SOL     OW91381  12.255   4.708   9.397
63786SOL    HW191382  12.232   4.761   9.315
63786SOL    HW291383  12.336   4.652   9.378
63787SOL     OW91384  13.033   5.293  10.161
63787SOL    HW191385  12.962   5.281  10.091
63787SOL    HW291386  13.034   5.214  10.221
63788SOL     OW91387  11.393   5.038  11.154
63788SOL    HW191388  11.328   4.965  11.133
63788SOL    HW291389  11.397   5.052  11.252
63789SOL     OW91390  11.251   4.964   9.963
63789SOL    HW191391  11.250   4.917  10.051
63789SOL    HW291392  11.333   4.936   9.912
63790SOL     OW91393  11.844   5.115  10.934
63790SOL    HW191394  11.766   5.065  10.972
63790SOL    HW291395  11.841   5.210  10.965
63791SOL     OW91396  11.600   4.148   9.830
63791SOL    HW191397  11.630   4.076   9.768
63791SOL    HW291398  11.561   4.108   9.913
63792SOL     OW91399  11.489   4.271  10.590
63792SOL    HW191400  11.527   4.212  10.662
63792SOL    HW291401  11.529   4.245  10.502
63793SOL     OW91402  11.984   5.310   9.997
63793SOL    HW191403  12.016   5.320   9.903
63793SOL    HW291404  11.905   5.248   9.999
63794SOL     OW91405  12.596   3.938  10.422
63794SOL    HW191406  12.648   3.873  10.477
63794SOL    HW291407  12.547   4.001  10.483
63795SOL     OW91408  12.173   3.758  10.464
63795SOL    HW191409  12.110   3.686  10.433
63795SOL    HW291410  12.266   3.722  10.464
63796SOL     OW91411  11.942   5.054   9.611
63796SOL    HW191412  11.896   4.967   9.628
63796SOL    HW291413  12.033   5.051   9.652
63797SOL     OW91414  11.790   5.291  10.594
63797SOL    HW191415  11.785   5.373  10.651
63797SOL    HW291416  11.879   5.288  10.549
63798SOL     OW91417  12.524   3.776   9.478
63798SOL    HW191418  12.559   3.735   9.394
63798SOL    HW291419  12.434   3.738   9.498
63799SOL     OW91420  12.472   4.177  10.001
63799SOL    HW191421  12.413   4.257  10.005
63799SOL    HW291422  12.487   4.142  10.094
63800SOL     OW91423  12.765   3.945  10.192
63800SOL    HW191424  12.681   3.944  10.246
63800SOL    HW291425  12.767   4.028  10.136
63801SOL     OW91426  11.211   4.801   9.610
63801SOL    HW191427  11.310   4.790   9.601
63801SOL    HW291428  11.171   4.715   9.642
63802SOL     OW91429  12.047   5.370   9.647
63802SOL    HW191430  11.970   5.335   9.593
63802SOL    HW291431  12.015   5.441   9.709
63803SOL     OW91432  11.402   4.352  11.285
63803SOL    HW191433  11.309   4.350  11.322
63803SOL    HW291434  11.403   4.313  11.193
63804SOL     OW91435  11.397   3.999  12.168
63804SOL    HW191436  11.432   3.982  12.260
63804SOL    HW291437  11.309   3.954  12.156
63805SOL     OW91438  11.191   4.092  11.819
63805SOL    HW191439  11.109   4.135  11.858
63805SOL    HW291440  11.163   4.019  11.756
63806SOL     OW91441  11.741   4.999  12.337
63806SOL    HW191442  11.648   4.992  12.300
63806SOL    HW291443  11.752   5.088  12.381
63807SOL     OW91444  12.727   5.235  11.875
63807SOL    HW191445  12.670   5.219  11.956
63807SOL    HW291446  12.668   5.245  11.795
63808SOL     OW91447  12.307   4.427  11.889
63808SOL    HW191448  12.364   4.505  11.864
63808SOL    HW291449  12.247   4.453  11.965
63809SOL     OW91450  11.940   4.868  12.195
63809SOL    HW191451  11.862   4.885  12.255
63809SOL    HW291452  11.974   4.955  12.159
63810SOL     OW91453  11.857   4.736  11.837
63810SOL    HW191454  11.926   4.720  11.907
63810SOL    HW291455  11.784   4.793  11.875
63811SOL     OW91456  11.507   5.159  12.233
63811SOL    HW191457  11.429   5.128  12.180
63811SOL    HW291458  11.565   5.217  12.176
63812SOL     OW91459  12.632   5.229  12.511
63812SOL    HW191460  12.656   5.323  12.537
63812SOL    HW291461  12.616   5.175  12.593
63813SOL     OW91462  11.610   4.116  12.671
63813SOL    HW191463  11.692   4.060  12.680
63813SOL    HW291464  11.529   4.058  12.675
63814SOL     OW91465  11.403   5.437  11.655
63814SOL    HW191466  11.437   5.514  11.709
63814SOL    HW291467  11.447   5.437  11.565
63815SOL     OW91468  11.402   5.158  11.710
63815SOL    HW191469  11.376   5.254  11.710
63815SOL    HW291470  11.331   5.104  11.755
63816SOL     OW91471  11.412   4.815  12.058
63816SOL    HW191472  11.426   4.731  12.110
63816SOL    HW291473  11.357   4.879  12.113
63817SOL     OW91474  11.792   5.510  12.611
63817SOL    HW191475  11.700   5.493  12.646
63817SOL    HW291476  11.820   5.602  12.637
63818SOL     OW91477  11.778   4.688  11.295
63818SOL    HW191478  11.785   4.772  11.241
63818SOL    HW291479  11.824   4.701  11.383
63819SOL     OW91480  12.766   3.838  12.652
63819SOL    HW191481  12.748   3.905  12.580
63819SOL    HW291482  12.763   3.884  12.741
63820SOL     OW91483  11.294   4.367  11.735
63820SOL    HW191484  11.249   4.279  11.752
63820SOL    HW291485  11.293   4.421  11.819
63821SOL     OW91486  11.199   5.320  11.289
63821SOL    HW191487  11.180   5.224  11.310
63821SOL    HW291488  11.166   5.378  11.364
63822SOL     OW91489  12.861   4.646  11.784
63822SOL    HW191490  12.956   4.617  11.792
63822SOL    HW291491  12.853   4.711  11.709
63823SOL     OW91492  11.285   4.461  12.769
63823SOL    HW191493  11.373   4.448  12.814
63823SOL    HW291494  11.272   4.558  12.747
63824SOL     OW91495  11.785   5.089  11.898
63824SOL    HW191496  11.736   5.002  11.907
63824SOL    HW291497  11.762   5.132  11.811
63825SOL     OW91498  12.465   4.952  12.595
63825SOL    HW191499  12.502   4.879  12.537
63825SOL    HW291500  12.517   4.957  12.680
63826SOL     OW91501  11.981   3.728  11.674
63826SOL    HW191502  12.021   3.819  11.665
63826SOL    HW291503  11.881   3.736  11.680
63827SOL     OW91504  11.369   4.700  12.436
63827SOL    HW191505  11.458   4.655  12.422
63827SOL    HW291506  11.296   4.635  12.417
63828SOL     OW91507  12.638   5.141  12.125
63828SOL    HW191508  12.579   5.147  12.205
63828SOL    HW291509  12.623   5.053  12.079
63829SOL     OW91510  12.839   5.438  11.744
63829SOL    HW191511  12.798   5.415  11.656
63829SOL    HW291512  12.821   5.364  11.809
63830SOL     OW91513  11.770   4.453  11.442
63830SOL    HW191514  11.794   4.522  11.374
63830SOL    HW291515  11.692   4.486  11.496
63831SOL     OW91516  12.453   4.069  12.116
63831SOL    HW191517  12.367   4.019  12.103
63831SOL    HW291518  12.515   4.015  12.172
63832SOL     OW91519  11.979   4.329  12.637
63832SOL    HW191520  11.932   4.326  12.726
63832SOL    HW291521  11.928   4.274  12.571
63833SOL     OW91522  12.145   4.614  12.744
63833SOL    HW191523  12.191   4.530  12.715
63833SOL    HW291524  12.089   4.648  12.669
63834SOL     OW91525  12.163   4.134  12.414
63834SOL    HW191526  12.086   4.168  12.468
63834SOL    HW291527  12.129   4.083  12.335
63835SOL     OW91528  12.213   4.425  11.601
63835SOL    HW191529  12.239   4.421  11.697
63835SOL    HW291530  12.128   4.374  11.587
63836SOL     OW91531  11.248   4.535  11.961
63836SOL    HW191532  11.347   4.523  11.970
63836SOL    HW291533  11.224   4.630  11.982
63837SOL     OW91534  11.302   5.545  12.743
63837SOL    HW191535  11.292   5.530  12.842
63837SOL    HW291536  11.216   5.581  12.707
63838SOL     OW91537  12.037   4.072  11.367
63838SOL    HW191538  12.096   4.135  11.318
63838SOL    HW291539  12.056   3.978  11.338
63839SOL     OW91540  12.534   4.868  11.717
63839SOL    HW191541  12.617   4.839  11.669
63839SOL    HW291542  12.485   4.935  11.661
63840SOL     OW91543  11.722   3.920  12.057
63840SOL    HW191544  11.717   3.915  12.157
63840SOL    HW291545  11.724   4.016  12.028
63841SOL     OW91546  12.180   5.180  11.649
63841SOL    HW191547  12.134   5.252  11.597
63841SOL    HW291548  12.176   5.200  11.747
63842SOL     OW91549  11.523   5.525  12.025
63842SOL    HW191550  11.573   5.439  12.031
63842SOL    HW291551  11.588   5.602  12.022
63843SOL     OW91552  12.399   5.274  12.678
63843SOL    HW191553  12.405   5.197  12.742
63843SOL    HW291554  12.347   5.248  12.598
63844SOL     OW91555  11.493   4.667  11.414
63844SOL    HW191556  11.575   4.706  11.372
63844SOL    HW291557  11.466   4.585  11.365
63845SOL     OW91558  12.630   4.459  11.900
63845SOL    HW191559  12.625   4.394  11.975
63845SOL    HW291560  12.710   4.518  11.913
63846SOL     OW91561  12.283   5.500  11.409
63846SOL    HW191562  12.223   5.438  11.459
63846SOL    HW291563  12.314   5.456  11.324
63847SOL     OW91564  11.374   4.009  12.670
63847SOL    HW191565  11.294   4.069  12.657
63847SOL    HW291566  11.364   3.960  12.756
63848SOL     OW91567  11.636   5.467  11.495
63848SOL    HW191568  11.669   5.506  11.581
63848SOL    HW291569  11.712   5.460  11.430
63849SOL     OW91570  12.572   3.831  11.598
63849SOL    HW191571  12.548   3.794  11.508
63849SOL    HW291572  12.671   3.847  11.602
63850SOL     OW91573  11.421   5.509  12.413
63850SOL    HW191574  11.478   5.444  12.463
63850SOL    HW291575  11.405   5.476  12.320
63851SOL     OW91576  12.112   5.422  12.076
63851SOL    HW191577  12.192   5.365  12.097
63851SOL    HW291578  12.063   5.382  11.999
63852SOL     OW91579  11.554   4.424  11.652
63852SOL    HW191580  11.599   4.334  11.649
63852SOL    HW291581  11.460   4.413  11.685
63853SOL     OW91582  11.786   3.846  11.289
63853SOL    HW191583  11.884   3.824  11.296
63853SOL    HW291584  11.755   3.829  11.196
63854SOL     OW91585  12.060   5.238  12.367
63854SOL    HW191586  12.037   5.213  12.273
63854SOL    HW291587  12.121   5.169  12.406
63855SOL     OW91588  12.523   4.314  12.605
63855SOL    HW191589  12.551   4.271  12.690
63855SOL    HW291590  12.548   4.410  12.606
63856SOL     OW91591  11.975   5.126  12.096
63856SOL    HW191592  12.065   5.140  12.054
63856SOL    HW291593  11.904   5.128  12.025
63857SOL     OW91594  12.094   4.227  12.071
63857SOL    HW191595  12.069   4.218  11.975
63857SOL    HW291596  12.142   4.145  12.102
63858SOL     OW91597  11.711   3.788  11.684
63858SOL    HW191598  11.630   3.789  11.742
63858SOL    HW291599  11.714   3.871  11.629
63859SOL     OW91600  12.606   4.912  11.213
63859SOL    HW191601  12.638   4.836  11.270
63859SOL    HW291602  12.514   4.939  11.243
63860SOL     OW91603  11.469   3.759  11.343
63860SOL    HW191604  11.518   3.843  11.322
63860SOL    HW291605  11.531   3.694  11.388
63861SOL     OW91606  12.107   3.960  11.652
63861SOL    HW191607  12.059   4.001  11.574
63861SOL    HW291608  12.206   3.958  11.633
63862SOL     OW91609  12.248   4.407  12.636
63862SOL    HW191610  12.168   4.346  12.639
63862SOL    HW291611  12.329   4.354  12.612
63863SOL     OW91612  12.399   5.294  11.965
63863SOL    HW191613  12.420   5.368  11.900
63863SOL    HW291614  12.467   5.294  12.038
63864SOL     OW91615  11.631   4.876  11.913
63864SOL    HW191616  11.560   4.849  11.978
63864SOL    HW291617  11.605   4.848  11.820
63865SOL     OW91618  12.443   5.521  11.763
63865SOL    HW191619  12.487   5.585  11.699
63865SOL    HW291620  12.393   5.573  11.833
63866SOL     OW91621  12.204   4.273  11.188
63866SOL    HW191622  12.163   4.355  11.149
63866SOL    HW291623  12.268   4.299  11.261
63867SOL     OW91624  11.250   4.280  12.558
63867SOL    HW191625  11.342   4.279  12.517
63867SOL    HW291626  11.244   4.354  12.625
63868SOL     OW91627  11.733   3.946  12.319
63868SOL    HW191628  11.771   3.862  12.356
63868SOL    HW291629  11.645   3.965  12.363
63869SOL     OW91630  12.038   4.178  11.814
63869SOL    HW191631  12.006   4.250  11.752
63869SOL    HW291632  12.062   4.097  11.761
63870SOL     OW91633  12.189   3.763  11.925
63870SOL    HW191634  12.117   3.768  11.856
63870SOL    HW291635  12.165   3.694  11.994
63871SOL     OW91636  12.601   4.897  12.039
63871SOL    HW191637  12.546   4.813  12.032
63871SOL    HW291638  12.627   4.926  11.947
63872SOL     OW91639  12.638   4.314  12.164
63872SOL    HW191640  12.608   4.219  12.171
63872SOL    HW291641  12.711   4.330  12.230
63873SOL     OW91642  11.660   5.109  11.346
63873SOL    HW191643  11.573   5.094  11.393
63873SOL    HW291644  11.643   5.135  11.251
63874SOL     OW91645  12.562   4.299  11.250
63874SOL    HW191646  12.508   4.278  11.331
63874SOL    HW291647  12.653   4.258  11.259
63875SOL     OW91648  11.699   3.980  11.500
63875SOL    HW191649  11.726   3.921  11.425
63875SOL    HW291650  11.699   4.075  11.469
63876SOL     OW91651  12.236   5.071  12.512
63876SOL    HW191652  12.156   5.048  12.567
63876SOL    HW291653  12.319   5.045  12.561
63877SOL     OW91654  12.283   4.919  12.272
63877SOL    HW191655  12.243   4.963  12.353
63877SOL    HW291656  12.242   4.956  12.189
63878SOL     OW91657  12.087   3.813  12.574
63878SOL    HW191658  12.112   3.793  12.479
63878SOL    HW291659  12.159   3.869  12.616
63879SOL     OW91660  11.877   4.774  11.540
63879SOL    HW191661  11.863   4.781  11.639
63879SOL    HW291662  11.961   4.723  11.522
63880SOL     OW91663  11.582   4.537  12.423
63880SOL    HW191664  11.668   4.549  12.473
63880SOL    HW291665  11.540   4.450  12.450
63881SOL     OW91666  12.446   4.110  12.434
63881SOL    HW191667  12.467   4.184  12.498
63881SOL    HW291668  12.357   4.127  12.391
63882SOL     OW91669  11.236   5.288  12.503
63882SOL    HW191670  11.190   5.370  12.469
63882SOL    HW291671  11.334   5.307  12.512
63883SOL     OW91672  11.539   4.824  11.673
63883SOL    HW191673  11.532   4.907  11.617
63883SOL    HW291674  11.543   4.744  11.613
63884SOL     OW91675  11.738   4.261  12.037
63884SOL    HW191676  11.750   4.327  11.963
63884SOL    HW291677  11.784   4.295  12.120
63885SOL     OW91678  12.424   5.072  11.560
63885SOL    HW191679  12.474   5.149  11.600
63885SOL    HW291680  12.329   5.074  11.592
63886SOL     OW91681  12.444   5.169  12.314
63886SOL    HW191682  12.491   5.182  12.401
63886SOL    HW291683  12.378   5.095  12.323
63887SOL     OW91684  12.754   4.363  11.644
63887SOL    HW191685  12.723   4.424  11.717
63887SOL    HW291686  12.804   4.415  11.575
63888SOL     OW91687  11.526   5.234  12.501
63888SOL    HW191688  11.505   5.190  12.414
63888SOL    HW291689  11.623   5.260  12.504
63889SOL     OW91690  11.574   4.475  12.770
63889SOL    HW191691  11.642   4.530  12.723
63889SOL    HW291692  11.614   4.387  12.797
63890SOL     OW91693  11.745   4.594  12.201
63890SOL    HW191694  11.789   4.683  12.192
63890SOL    HW291695  11.682   4.594  12.278
63891SOL     OW91696  12.532   4.586  12.217
63891SOL    HW191697  12.457   4.586  12.151
63891SOL    HW291698  12.569   4.494  12.226
63892SOL     OW91699  12.381   4.249  11.447
63892SOL    HW191700  12.394   4.165  11.501
63892SOL    HW291701  12.352   4.323  11.507
63893SOL     OW91702  11.479   3.937  12.403
63893SOL    HW191703  11.456   3.974  12.493
63893SOL    HW291704  11.449   3.842  12.397
63894SOL     OW91705  11.209   5.034  12.454
63894SOL    HW191706  11.262   4.985  12.522
63894SOL    HW291707  11.231   5.132  12.459
63895SOL     OW91708  11.904   4.358  12.236
63895SOL    HW191709  11.963   4.332  12.160
63895SOL    HW291710  11.876   4.454  12.225
63896SOL     OW91711  11.479   3.787  11.790
63896SOL    HW191712  11.468   3.881  11.823
63896SOL    HW291713  11.474   3.724  11.867
63897SOL     OW91714  12.794   4.091  11.546
63897SOL    HW191715  12.796   4.015  11.610
63897SOL    HW291716  12.746   4.168  11.586
63898SOL     OW91717  12.195   4.490  12.138
63898SOL    HW191718  12.210   4.511  12.234
63898SOL    HW291719  12.165   4.395  12.129
63899SOL     OW91720  12.712   3.998  11.297
63899SOL    HW191721  12.651   3.923  11.320
63899SOL    HW291722  12.734   4.050  11.380
63900SOL     OW91723  12.475   4.562  11.214
63900SOL    HW191724  12.509   4.469  11.229
63900SOL    HW291725  12.493   4.589  11.119
63901SOL     OW91726  12.240   5.057  12.021
63901SOL    HW191727  12.247   4.973  11.966
63901SOL    HW291728  12.302   5.126  11.985
63902SOL     OW91729  11.491   4.534  12.121
63902SOL    HW191730  11.584   4.570  12.126
63902SOL    HW291731  11.485   4.449  12.173
63903SOL     OW91732  11.511   4.233  12.178
63903SOL    HW191733  11.459   4.150  12.161
63903SOL    HW291734  11.588   4.238  12.114
63904SOL     OW91735  12.332   3.931  12.649
63904SOL    HW191736  12.332   3.995  12.726
63904SOL    HW291737  12.360   3.979  12.566
63905SOL     OW91738  11.180   5.050  11.372
63905SOL    HW191739  11.087   5.071  11.341
63905SOL    HW291740  11.190   4.951  11.385
63906SOL     OW91741  11.260   5.525  12.099
63906SOL    HW191742  11.218   5.439  12.072
63906SOL    HW291743  11.354   5.528  12.065
63907SOL     OW91744  11.676   5.292  12.082
63907SOL    HW191745  11.742   5.366  12.091
63907SOL    HW291746  11.720   5.213  12.040
63908SOL     OW91747  12.174   4.520  12.410
63908SOL    HW191748  12.215   4.488  12.496
63908SOL    HW291749  12.078   4.493  12.407
63909SOL     OW91750  11.212   4.268  12.286
63909SOL    HW191751  11.297   4.235  12.245
63909SOL    HW291752  11.225   4.283  12.384
63910SOL     OW91753  11.987   4.296  11.497
63910SOL    HW191754  11.994   4.207  11.451
63910SOL    HW291755  11.893   4.330  11.489
63911SOL     OW91756  11.424   5.288  12.916
63911SOL    HW191757  11.394   5.345  12.992
63911SOL    HW291758  11.417   5.191  12.942
63912SOL     OW91759  11.843   4.188  12.441
63912SOL    HW191760  11.809   4.099  12.411
63912SOL    HW291761  11.869   4.242  12.361
63913SOL     OW91762  12.102   5.402  12.637
63913SOL    HW191763  12.078   5.384  12.542
63913SOL    HW291764  12.132   5.496  12.647
63914SOL     OW91765  11.645   4.224  11.363
63914SOL    HW191766  11.706   4.304  11.367
63914SOL    HW291767  11.550   4.255  11.370
63915SOL     OW91768  11.331   4.861  12.638
63915SOL    HW191769  11.353   4.800  12.714
63915SOL    HW291770  11.341   4.812  12.552
63916SOL     OW91771  12.519   4.783  12.406
63916SOL    HW191772  12.543   4.720  12.332
63916SOL    HW291773  12.429   4.823  12.388
63917SOL     OW91774  12.474   4.579  11.481
63917SOL    HW191775  12.388   4.548  11.523
63917SOL    HW291776  12.470   4.565  11.382
63918SOL     OW91777  12.424   5.455  12.300
63918SOL    HW191778  12.508   5.460  12.246
63918SOL    HW291779  12.401   5.359  12.318
63919SOL     OW91780  11.255   4.982  12.194
63919SOL    HW191781  11.250   4.981  12.294
63919SOL    HW291782  11.172   4.941  12.156
63920SOL     OW91783  12.898   3.859  11.695
63920SOL    HW191784  12.971   3.842  11.628
63920SOL    HW291785  12.867   3.772  11.733
63921SOL     OW91786  12.560   5.297  11.649
63921SOL    HW191787  12.627   5.309  11.575
63921SOL    HW291788  12.520   5.386  11.672
63922SOL     OW91789  12.452   4.651  11.844
63922SOL    HW191790  12.512   4.570  11.846
63922SOL    HW291791  12.492   4.720  11.784
63923SOL     OW91792  12.002   4.997  12.594
63923SOL    HW191793  11.997   5.030  12.689
63923SOL    HW291794  11.916   5.016  12.548
63924SOL     OW91795  11.844   5.340  11.326
63924SOL    HW191796  11.853   5.350  11.227
63924SOL    HW291797  11.804   5.251  11.347
63925SOL     OW91798  11.435   4.050  11.892
63925SOL    HW191799  11.356   4.101  11.858
63925SOL    HW291800  11.426   4.035  11.990
63926SOL     OW91801  12.366   5.336  11.203
63926SOL    HW191802  12.372   5.243  11.240
63926SOL    HW291803  12.307   5.336  11.123
63927SOL     OW91804  11.994   4.726  12.544
63927SOL    HW191805  12.034   4.725  12.452
63927SOL    HW291806  12.004   4.818  12.584
63928SOL     OW91807  12.088   4.634  11.463
63928SOL    HW191808  12.151   4.672  11.395
63928SOL    HW291809  12.128   4.551  11.502
63929SOL     OW91810  12.676   5.331  11.216
63929SOL    HW191811  12.584   5.368  11.223
63929SOL    HW291812  12.714   5.351  11.126
63930SOL     OW91813  11.544   5.012  12.662
63930SOL    HW191814  11.531   5.105  12.628
63930SOL    HW291815  11.460   4.960  12.649
63931SOL     OW91816  12.211   4.822  11.868
63931SOL    HW191817  12.141   4.775  11.922
63931SOL    HW291818  12.270   4.754  11.825
63932SOL     OW91819  12.186   3.960  12.143
63932SOL    HW191820  12.178   3.924  12.050
63932SOL    HW291821  12.184   3.884  12.208
63933SOL     OW91822  11.762   5.211  11.663
63933SOL    HW191823  11.804   5.153  11.593
63933SOL    HW291824  11.718   5.290  11.619
63934SOL     OW91825  11.427   5.072  11.462
63934SOL    HW191826  11.331   5.073  11.435
63934SOL    HW291827  11.439   5.125  11.546
63935SOL     OW91828  11.277   4.737  12.898
63935SOL    HW191829  11.200   4.704  12.952
63935SOL    HW291830  11.362   4.707  12.940
63936SOL     OW91831  11.844   3.927  12.661
63936SOL    HW191832  11.934   3.911  12.621
63936SOL    HW291833  11.852   3.932  12.760
63937SOL     OW91834  11.247   4.069  11.205
63937SOL    HW191835  11.155   4.041  11.176
63937SOL    HW291836  11.278   4.146  11.149
63938SOL     OW91837  12.612   4.580  12.570
63938SOL    HW191838  12.555   4.632  12.507
63938SOL    HW291839  12.708   4.592  12.546
63939SOL     OW91840  11.244   3.890  11.490
63939SOL    HW191841  11.227   3.973  11.436
63939SOL    HW291842  11.334   3.853  11.468
63940SOL     OW91843  12.355   5.059  11.291
63940SOL    HW191844  12.256   5.048  11.293
63940SOL    HW291845  12.389   5.074  11.384
63941SOL     OW91846  11.785   4.566  12.603
63941SOL    HW191847  11.841   4.647  12.586
63941SOL    HW291848  11.844   4.486  12.606
63942SOL     OW91849  12.665   5.491  12.131
63942SOL    HW191850  12.698   5.555  12.062
63942SOL    HW291851  12.731   5.485  12.206
63943SOL     OW91852  11.888   4.289  12.880
63943SOL    HW191853  11.907   4.354  12.954
63943SOL    HW291854  11.948   4.209  12.889
63944SOL     OW91855  11.562   5.465  12.732
63944SOL    HW191856  11.471   5.506  12.730
63944SOL    HW291857  11.555   5.371  12.764
63945SOL     OW91858  12.397   4.049  11.621
63945SOL    HW191859  12.462   3.975  11.610
63945SOL    HW291860  12.417   4.099  11.705
63946SOL     OW91861  11.766   4.469  11.824
63946SOL    HW191862  11.816   4.554  11.805
63946SOL    HW291863  11.678   4.471  11.776
63947SOL     OW91864  12.031   5.098  11.188
63947SOL    HW191865  11.985   5.113  11.276
63947SOL    HW291866  12.075   5.183  11.158
63948SOL     OW91867  11.833   5.514  12.125
63948SOL    HW191868  11.787   5.602  12.112
63948SOL    HW291869  11.932   5.526  12.118
63949SOL     OW91870  12.031   4.680  12.033
63949SOL    HW191871  12.085   4.611  12.081
63949SOL    HW291872  11.999   4.749  12.099
63950SOL     OW91873  12.255   4.708  11.259
63950SOL    HW191874  12.232   4.761  11.177
63950SOL    HW291875  12.336   4.652  11.240
63951SOL     OW91876  13.033   5.293  12.023
63951SOL    HW191877  12.962   5.281  11.953
63951SOL    HW291878  13.034   5.214  12.083
63952SOL     OW91879  11.251   4.964  11.825
63952SOL    HW191880  11.250   4.917  11.913
63952SOL    HW291881  11.333   4.936  11.774
63953SOL     OW91882  11.844   5.115  12.796
63953SOL    HW191883  11.766   5.065  12.834
63953SOL    HW291884  11.841   5.210  12.827
63954SOL     OW91885  11.600   4.148  11.692
63954SOL    HW191886  11.630   4.076  11.630
63954SOL    HW291887  11.561   4.108  11.775
63955SOL     OW91888  11.489   4.271  12.452
63955SOL    HW191889  11.527   4.212  12.524
63955SOL    HW291890  11.529   4.245  12.364
63956SOL     OW91891  11.984   5.310  11.859
63956SOL    HW191892  12.016   5.320  11.765
63956SOL    HW291893  11.905   5.248  11.861
63957SOL     OW91894  12.596   3.938  12.284
63957SOL    HW191895  12.648   3.873  12.339
63957SOL    HW291896  12.547   4.001  12.345
63958SOL     OW91897  12.173   3.758  12.326
63958SOL    HW191898  12.110   3.686  12.295
63958SOL    HW291899  12.266   3.722  12.326
63959SOL     OW91900  11.942   5.054  11.473
63959SOL    HW191901  11.896   4.967  11.490
63959SOL    HW291902  12.033   5.051  11.514
63960SOL     OW91903  11.790   5.291  12.456
63960SOL    HW191904  11.785   5.373  12.513
63960SOL    HW291905  11.879   5.288  12.411
63961SOL     OW91906  12.524   3.776  11.340
63961SOL    HW191907  12.559   3.735  11.256
63961SOL    HW291908  12.434   3.738  11.360
63962SOL     OW91909  12.472   4.177  11.863
63962SOL    HW191910  12.413   4.257  11.867
63962SOL    HW291911  12.487   4.142  11.956
63963SOL     OW91912  12.765   3.945  12.054
63963SOL    HW191913  12.681   3.944  12.108
63963SOL    HW291914  12.767   4.028  11.998
63964SOL     OW91915  11.211   4.801  11.472
63964SOL    HW191916  11.310   4.790  11.463
63964SOL    HW291917  11.171   4.715  11.504
63965SOL     OW91918  12.047   5.370  11.509
63965SOL    HW191919  11.970   5.335  11.455
63965SOL    HW291920  12.015   5.441  11.571
63966SOL     OW91921  11.402   6.214   0.113
63966SOL    HW191922  11.309   6.212   0.150
63966SOL    HW291923  11.403   6.175   0.021
63967SOL     OW91924  11.397   5.861   0.996
63967SOL    HW191925  11.432   5.844   1.088
63967SOL    HW291926  11.309   5.816   0.984
63968SOL     OW91927  11.191   5.954   0.647
63968SOL    HW191928  11.109   5.997   0.686
63968SOL    HW291929  11.163   5.881   0.584
63969SOL     OW91930  11.741   6.861   1.165
63969SOL    HW191931  11.648   6.854   1.128
63969SOL    HW291932  11.752   6.950   1.209
63970SOL     OW91933  12.727   7.097   0.703
63970SOL    HW191934  12.670   7.081   0.784
63970SOL    HW291935  12.668   7.107   0.623
63971SOL     OW91936  12.307   6.289   0.717
63971SOL    HW191937  12.364   6.367   0.692
63971SOL    HW291938  12.247   6.315   0.793
63972SOL     OW91939  11.940   6.730   1.023
63972SOL    HW191940  11.862   6.747   1.083
63972SOL    HW291941  11.974   6.817   0.987
63973SOL     OW91942  12.022   6.384   1.823
63973SOL    HW191943  12.018   6.460   1.888
63973SOL    HW291944  12.044   6.420   1.732
63974SOL     OW91945  11.857   6.598   0.665
63974SOL    HW191946  11.926   6.582   0.735
63974SOL    HW291947  11.784   6.655   0.703
63975SOL     OW91948  11.858   6.747   1.803
63975SOL    HW191949  11.918   6.826   1.817
63975SOL    HW291950  11.772   6.778   1.762
63976SOL     OW91951  11.507   7.021   1.061
63976SOL    HW191952  11.429   6.990   1.008
63976SOL    HW291953  11.565   7.079   1.004
63977SOL     OW91954  12.632   7.091   1.339
63977SOL    HW191955  12.656   7.185   1.365
63977SOL    HW291956  12.616   7.037   1.421
63978SOL     OW91957  11.610   5.978   1.499
63978SOL    HW191958  11.692   5.922   1.508
63978SOL    HW291959  11.529   5.920   1.503
63979SOL     OW91960  11.403   7.299   0.483
63979SOL    HW191961  11.437   7.376   0.537
63979SOL    HW291962  11.447   7.299   0.393
63980SOL     OW91963  12.299   6.927   1.690
63980SOL    HW191964  12.346   6.927   1.778
63980SOL    HW291965  12.251   6.840   1.679
63981SOL     OW91966  11.402   7.020   0.538
63981SOL    HW191967  11.376   7.116   0.538
63981SOL    HW291968  11.331   6.966   0.583
63982SOL     OW91969  11.412   6.677   0.886
63982SOL    HW191970  11.426   6.593   0.938
63982SOL    HW291971  11.357   6.741   0.941
63983SOL     OW91972  11.792   7.372   1.439
63983SOL    HW191973  11.700   7.355   1.474
63983SOL    HW291974  11.820   7.464   1.465
63984SOL     OW91975  11.778   6.550   0.123
63984SOL    HW191976  11.785   6.634   0.069
63984SOL    HW291977  11.824   6.563   0.211
63985SOL     OW91978  12.766   5.700   1.480
63985SOL    HW191979  12.748   5.767   1.408
63985SOL    HW291980  12.763   5.746   1.569
63986SOL     OW91981  11.294   6.229   0.563
63986SOL    HW191982  11.249   6.141   0.580
63986SOL    HW291983  11.293   6.283   0.647
63987SOL     OW91984  11.199   7.182   0.117
63987SOL    HW191985  11.180   7.086   0.138
63987SOL    HW291986  11.166   7.240   0.192
63988SOL     OW91987  12.861   6.508   0.612
63988SOL    HW191988  12.956   6.479   0.620
63988SOL    HW291989  12.853   6.573   0.537
63989SOL     OW91990  11.285   6.323   1.597
63989SOL    HW191991  11.373   6.310   1.642
63989SOL    HW291992  11.272   6.420   1.575
63990SOL     OW91993  11.785   6.951   0.726
63990SOL    HW191994  11.736   6.864   0.735
63990SOL    HW291995  11.762   6.994   0.639
63991SOL     OW91996  12.465   6.814   1.423
63991SOL    HW191997  12.502   6.741   1.365
63991SOL    HW291998  12.517   6.819   1.508
63992SOL     OW91999  11.981   5.590   0.502
63992SOL    HW192000  12.021   5.681   0.493
63992SOL    HW292001  11.881   5.598   0.508
63993SOL     OW92002  11.369   6.562   1.264
63993SOL    HW192003  11.458   6.517   1.250
63993SOL    HW292004  11.296   6.497   1.245
63994SOL     OW92005  12.359   7.378   1.616
63994SOL    HW192006  12.383   7.438   1.540
63994SOL    HW292007  12.366   7.283   1.586
63995SOL     OW92008  11.489   5.837   1.801
63995SOL    HW192009  11.560   5.908   1.807
63995SOL    HW292010  11.401   5.876   1.829
63996SOL     OW92011  12.638   7.003   0.953
63996SOL    HW192012  12.579   7.009   1.033
63996SOL    HW292013  12.623   6.915   0.907
63997SOL     OW92014  12.839   7.300   0.572
63997SOL    HW192015  12.798   7.277   0.484
63997SOL    HW292016  12.821   7.226   0.637
63998SOL     OW92017  11.770   6.315   0.270
63998SOL    HW192018  11.794   6.384   0.202
63998SOL    HW292019  11.692   6.348   0.324
63999SOL     OW92020  12.453   5.931   0.944
63999SOL    HW192021  12.367   5.881   0.931
63999SOL    HW292022  12.515   5.877   1.000
64000SOL     OW92023  11.979   6.191   1.465
64000SOL    HW192024  11.932   6.188   1.554
64000SOL    HW292025  11.928   6.136   1.399
64001SOL     OW92026  12.566   6.055   1.674
64001SOL    HW192027  12.546   6.098   1.762
64001SOL    HW292028  12.644   5.993   1.683
64002SOL     OW92029  12.145   6.476   1.572
64002SOL    HW192030  12.191   6.392   1.543
64002SOL    HW292031  12.089   6.510   1.497
64003SOL     OW92032  12.163   5.996   1.242
64003SOL    HW192033  12.086   6.030   1.296
64003SOL    HW292034  12.129   5.945   1.163
64004SOL     OW92035  12.213   6.287   0.429
64004SOL    HW192036  12.239   6.283   0.525
64004SOL    HW292037  12.128   6.236   0.415
64005SOL     OW92038  11.248   6.397   0.789
64005SOL    HW192039  11.347   6.385   0.798
64005SOL    HW292040  11.224   6.492   0.810
64006SOL     OW92041  11.302   7.407   1.571
64006SOL    HW192042  11.292   7.392   1.670
64006SOL    HW292043  11.216   7.443   1.535
64007SOL     OW92044  12.037   5.934   0.195
64007SOL    HW192045  12.096   5.997   0.146
64007SOL    HW292046  12.056   5.840   0.166
64008SOL     OW92047  12.534   6.730   0.545
64008SOL    HW192048  12.617   6.701   0.497
64008SOL    HW292049  12.485   6.797   0.489
64009SOL     OW92050  11.722   5.782   0.885
64009SOL    HW192051  11.717   5.777   0.985
64009SOL    HW292052  11.724   5.878   0.856
64010SOL     OW92053  12.180   7.042   0.477
64010SOL    HW192054  12.134   7.114   0.425
64010SOL    HW292055  12.176   7.062   0.575
64011SOL     OW92056  11.523   7.387   0.853
64011SOL    HW192057  11.573   7.301   0.859
64011SOL    HW292058  11.588   7.464   0.850
64012SOL     OW92059  12.399   7.136   1.506
64012SOL    HW192060  12.405   7.059   1.570
64012SOL    HW292061  12.347   7.110   1.426
64013SOL     OW92062  11.493   6.529   0.242
64013SOL    HW192063  11.575   6.568   0.200
64013SOL    HW292064  11.466   6.447   0.193
64014SOL     OW92065  12.630   6.321   0.728
64014SOL    HW192066  12.625   6.256   0.803
64014SOL    HW292067  12.710   6.380   0.741
64015SOL     OW92068  11.633   6.852   1.727
64015SOL    HW192069  11.583   6.853   1.641
64015SOL    HW292070  11.570   6.834   1.803
64016SOL     OW92071  12.283   7.362   0.237
64016SOL    HW192072  12.223   7.300   0.287
64016SOL    HW292073  12.314   7.318   0.152
64017SOL     OW92074  11.374   5.871   1.498
64017SOL    HW192075  11.294   5.931   1.485
64017SOL    HW292076  11.364   5.822   1.584
64018SOL     OW92077  11.636   7.329   0.323
64018SOL    HW192078  11.669   7.368   0.409
64018SOL    HW292079  11.712   7.322   0.258
64019SOL     OW92080  12.572   5.693   0.426
64019SOL    HW192081  12.548   5.656   0.336
64019SOL    HW292082  12.671   5.709   0.430
64020SOL     OW92083  11.421   7.371   1.241
64020SOL    HW192084  11.478   7.306   1.291
64020SOL    HW292085  11.405   7.338   1.148
64021SOL     OW92086  12.112   7.284   0.904
64021SOL    HW192087  12.192   7.227   0.925
64021SOL    HW292088  12.063   7.244   0.827
64022SOL     OW92089  11.554   6.286   0.480
64022SOL    HW192090  11.599   6.196   0.477
64022SOL    HW292091  11.460   6.275   0.513
64023SOL     OW92092  11.786   5.708   0.117
64023SOL    HW192093  11.884   5.686   0.124
64023SOL    HW292094  11.755   5.691   0.024
64024SOL     OW92095  11.953   5.850   1.749
64024SOL    HW192096  12.020   5.789   1.792
64024SOL    HW292097  11.880   5.869   1.814
64025SOL     OW92098  12.060   7.100   1.195
64025SOL    HW192099  12.037   7.075   1.101
64025SOL    HW292100  12.121   7.031   1.234
64026SOL     OW92101  12.523   6.176   1.433
64026SOL    HW192102  12.551   6.133   1.518
64026SOL    HW292103  12.548   6.272   1.434
64027SOL     OW92104  11.975   6.988   0.924
64027SOL    HW192105  12.065   7.002   0.882
64027SOL    HW292106  11.904   6.990   0.853
64028SOL     OW92107  12.094   6.089   0.899
64028SOL    HW192108  12.069   6.080   0.803
64028SOL    HW292109  12.142   6.007   0.930
64029SOL     OW92110  11.711   5.650   0.512
64029SOL    HW192111  11.630   5.651   0.570
64029SOL    HW292112  11.714   5.733   0.457
64030SOL     OW92113  12.606   6.774   0.041
64030SOL    HW192114  12.638   6.698   0.098
64030SOL    HW292115  12.514   6.801   0.071
64031SOL     OW92116  11.469   5.621   0.171
64031SOL    HW192117  11.518   5.705   0.150
64031SOL    HW292118  11.531   5.556   0.216
64032SOL     OW92119  12.107   5.822   0.480
64032SOL    HW192120  12.059   5.863   0.402
64032SOL    HW292121  12.206   5.820   0.461
64033SOL     OW92122  12.248   6.269   1.464
64033SOL    HW192123  12.168   6.208   1.467
64033SOL    HW292124  12.329   6.216   1.440
64034SOL     OW92125  12.399   7.156   0.793
64034SOL    HW192126  12.420   7.230   0.728
64034SOL    HW292127  12.467   7.156   0.866
64035SOL     OW92128  11.631   6.738   0.741
64035SOL    HW192129  11.560   6.711   0.806
64035SOL    HW292130  11.605   6.710   0.648
64036SOL     OW92131  12.443   7.383   0.591
64036SOL    HW192132  12.487   7.447   0.527
64036SOL    HW292133  12.393   7.435   0.661
64037SOL     OW92134  12.204   6.135   0.016
64037SOL    HW192135  12.163   6.217  -0.023
64037SOL    HW292136  12.268   6.161   0.089
64038SOL     OW92137  11.250   6.142   1.386
64038SOL    HW192138  11.342   6.141   1.345
64038SOL    HW292139  11.244   6.216   1.453
64039SOL     OW92140  11.733   5.808   1.147
64039SOL    HW192141  11.771   5.724   1.184
64039SOL    HW292142  11.645   5.827   1.191
64040SOL     OW92143  12.038   6.040   0.642
64040SOL    HW192144  12.006   6.112   0.580
64040SOL    HW292145  12.062   5.959   0.589
64041SOL     OW92146  12.189   5.625   0.753
64041SOL    HW192147  12.117   5.630   0.684
64041SOL    HW292148  12.165   5.556   0.822
64042SOL     OW92149  12.601   6.759   0.867
64042SOL    HW192150  12.546   6.675   0.860
64042SOL    HW292151  12.627   6.788   0.775
64043SOL     OW92152  12.638   6.176   0.992
64043SOL    HW192153  12.608   6.081   0.999
64043SOL    HW292154  12.711   6.192   1.058
64044SOL     OW92155  11.660   6.971   0.174
64044SOL    HW192156  11.573   6.956   0.221
64044SOL    HW292157  11.643   6.997   0.079
64045SOL     OW92158  12.562   6.161   0.078
64045SOL    HW192159  12.508   6.140   0.159
64045SOL    HW292160  12.653   6.120   0.087
64046SOL     OW92161  11.699   5.842   0.328
64046SOL    HW192162  11.726   5.783   0.253
64046SOL    HW292163  11.699   5.937   0.297
64047SOL     OW92164  12.236   6.933   1.340
64047SOL    HW192165  12.156   6.910   1.395
64047SOL    HW292166  12.319   6.907   1.389
64048SOL     OW92167  12.764   7.215   1.625
64048SOL    HW192168  12.791   7.249   1.535
64048SOL    HW292169  12.843   7.177   1.671
64049SOL     OW92170  12.283   6.781   1.100
64049SOL    HW192171  12.243   6.825   1.181
64049SOL    HW292172  12.242   6.818   1.017
64050SOL     OW92173  12.087   5.675   1.402
64050SOL    HW192174  12.112   5.655   1.307
64050SOL    HW292175  12.159   5.731   1.444
64051SOL     OW92176  12.152   6.702   1.719
64051SOL    HW192177  12.053   6.708   1.729
64051SOL    HW292178  12.175   6.622   1.663
64052SOL     OW92179  11.877   6.636   0.368
64052SOL    HW192180  11.863   6.643   0.467
64052SOL    HW292181  11.961   6.585   0.350
64053SOL     OW92182  11.582   6.399   1.251
64053SOL    HW192183  11.668   6.411   1.301
64053SOL    HW292184  11.540   6.312   1.278
64054SOL     OW92185  12.446   5.972   1.262
64054SOL    HW192186  12.467   6.046   1.326
64054SOL    HW292187  12.357   5.989   1.219
64055SOL     OW92188  11.236   7.150   1.331
64055SOL    HW192189  11.190   7.232   1.297
64055SOL    HW292190  11.334   7.169   1.340
64056SOL     OW92191  11.539   6.686   0.501
64056SOL    HW192192  11.532   6.769   0.445
64056SOL    HW292193  11.543   6.606   0.441
64057SOL     OW92194  11.738   6.123   0.865
64057SOL    HW192195  11.750   6.189   0.791
64057SOL    HW292196  11.784   6.157   0.948
64058SOL     OW92197  12.424   6.934   0.388
64058SOL    HW192198  12.474   7.011   0.428
64058SOL    HW292199  12.329   6.936   0.420
64059SOL     OW92200  12.444   7.031   1.142
64059SOL    HW192201  12.491   7.044   1.229
64059SOL    HW292202  12.378   6.957   1.151
64060SOL     OW92203  12.754   6.225   0.472
64060SOL    HW192204  12.723   6.286   0.545
64060SOL    HW292205  12.804   6.277   0.403
64061SOL     OW92206  11.526   7.096   1.329
64061SOL    HW192207  11.505   7.052   1.242
64061SOL    HW292208  11.623   7.122   1.332
64062SOL     OW92209  11.574   6.337   1.598
64062SOL    HW192210  11.642   6.392   1.551
64062SOL    HW292211  11.614   6.249   1.625
64063SOL     OW92212  12.185   5.691   1.770
64063SOL    HW192213  12.191   5.776   1.718
64063SOL    HW292214  12.217   5.615   1.713
64064SOL     OW92215  11.676   5.636   1.740
64064SOL    HW192216  11.634   5.579   1.670
64064SOL    HW292217  11.610   5.705   1.772
64065SOL     OW92218  11.745   6.456   1.029
64065SOL    HW192219  11.789   6.545   1.020
64065SOL    HW292220  11.682   6.456   1.106
64066SOL     OW92221  12.532   6.448   1.045
64066SOL    HW192222  12.457   6.448   0.979
64066SOL    HW292223  12.569   6.356   1.054
64067SOL     OW92224  12.381   6.111   0.275
64067SOL    HW192225  12.394   6.027   0.329
64067SOL    HW292226  12.352   6.185   0.335
64068SOL     OW92227  11.479   5.799   1.231
64068SOL    HW192228  11.456   5.836   1.321
64068SOL    HW292229  11.449   5.704   1.225
64069SOL     OW92230  11.209   6.896   1.282
64069SOL    HW192231  11.262   6.847   1.350
64069SOL    HW292232  11.231   6.994   1.287
64070SOL     OW92233  11.904   6.220   1.064
64070SOL    HW192234  11.963   6.194   0.988
64070SOL    HW292235  11.876   6.316   1.053
64071SOL     OW92236  11.479   5.649   0.618
64071SOL    HW192237  11.468   5.743   0.651
64071SOL    HW292238  11.474   5.586   0.695
64072SOL     OW92239  12.794   5.953   0.374
64072SOL    HW192240  12.796   5.877   0.438
64072SOL    HW292241  12.746   6.030   0.414
64073SOL     OW92242  12.195   6.352   0.966
64073SOL    HW192243  12.210   6.373   1.062
64073SOL    HW292244  12.165   6.257   0.957
64074SOL     OW92245  12.152   7.159   1.700
64074SOL    HW192246  12.132   7.203   1.612
64074SOL    HW292247  12.191   7.068   1.684
64075SOL     OW92248  11.522   6.484   1.804
64075SOL    HW192249  11.598   6.528   1.852
64075SOL    HW292250  11.557   6.437   1.722
64076SOL     OW92251  12.712   5.860   0.125
64076SOL    HW192252  12.651   5.785   0.148
64076SOL    HW292253  12.734   5.912   0.208
64077SOL     OW92254  12.475   6.424   0.042
64077SOL    HW192255  12.509   6.331   0.057
64077SOL    HW292256  12.493   6.451  -0.053
64078SOL     OW92257  12.240   6.919   0.849
64078SOL    HW192258  12.247   6.835   0.794
64078SOL    HW292259  12.302   6.988   0.813
64079SOL     OW92260  11.491   6.396   0.949
64079SOL    HW192261  11.584   6.432   0.954
64079SOL    HW292262  11.485   6.311   1.001
64080SOL     OW92263  11.511   6.095   1.006
64080SOL    HW192264  11.459   6.012   0.989
64080SOL    HW292265  11.588   6.100   0.942
64081SOL     OW92266  12.310   5.966   1.678
64081SOL    HW192267  12.265   6.029   1.742
64081SOL    HW292268  12.403   5.997   1.661
64082SOL     OW92269  12.332   5.793   1.477
64082SOL    HW192270  12.332   5.857   1.554
64082SOL    HW292271  12.360   5.841   1.394
64083SOL     OW92272  11.180   6.912   0.200
64083SOL    HW192273  11.087   6.933   0.169
64083SOL    HW292274  11.190   6.813   0.213
64084SOL     OW92275  11.260   7.387   0.927
64084SOL    HW192276  11.218   7.301   0.900
64084SOL    HW292277  11.354   7.390   0.893
64085SOL     OW92278  11.676   7.154   0.910
64085SOL    HW192279  11.742   7.228   0.919
64085SOL    HW292280  11.720   7.075   0.868
64086SOL     OW92281  12.174   6.382   1.238
64086SOL    HW192282  12.215   6.350   1.324
64086SOL    HW292283  12.078   6.355   1.235
64087SOL     OW92284  11.212   6.130   1.114
64087SOL    HW192285  11.297   6.097   1.073
64087SOL    HW292286  11.225   6.145   1.212
64088SOL     OW92287  11.361   6.106   1.722
64088SOL    HW192288  11.420   6.066   1.652
64088SOL    HW292289  11.303   6.177   1.681
64089SOL     OW92290  12.541   6.536   1.660
64089SOL    HW192291  12.580   6.625   1.680
64089SOL    HW292292  12.551   6.516   1.563
64090SOL     OW92293  11.987   6.158   0.325
64090SOL    HW192294  11.994   6.069   0.279
64090SOL    HW292295  11.893   6.192   0.317
64091SOL     OW92296  11.424   7.150   1.744
64091SOL    HW192297  11.394   7.207   1.820
64091SOL    HW292298  11.417   7.053   1.770
64092SOL     OW92299  11.843   6.050   1.269
64092SOL    HW192300  11.809   5.961   1.239
64092SOL    HW292301  11.869   6.104   1.189
64093SOL     OW92302  12.102   7.264   1.465
64093SOL    HW192303  12.078   7.246   1.370
64093SOL    HW292304  12.132   7.358   1.475
64094SOL     OW92305  11.645   6.086   0.191
64094SOL    HW192306  11.706   6.166   0.195
64094SOL    HW292307  11.550   6.117   0.198
64095SOL     OW92308  11.331   6.723   1.466
64095SOL    HW192309  11.353   6.662   1.542
64095SOL    HW292310  11.341   6.674   1.380
64096SOL     OW92311  12.519   6.645   1.234
64096SOL    HW192312  12.543   6.582   1.160
64096SOL    HW292313  12.429   6.685   1.216
64097SOL     OW92314  12.474   6.441   0.309
64097SOL    HW192315  12.388   6.410   0.351
64097SOL    HW292316  12.470   6.427   0.210
64098SOL     OW92317  12.424   7.317   1.128
64098SOL    HW192318  12.508   7.322   1.074
64098SOL    HW292319  12.401   7.221   1.146
64099SOL     OW92320  11.255   6.844   1.022
64099SOL    HW192321  11.250   6.843   1.122
64099SOL    HW292322  11.172   6.803   0.984
64100SOL     OW92323  11.860   7.248   1.716
64100SOL    HW192324  11.804   7.329   1.725
64100SOL    HW292325  11.912   7.252   1.630
64101SOL     OW92326  12.075   5.672   0.133
64101SOL    HW192327  12.126   5.673   0.047
64101SOL    HW292328  12.131   5.630   0.204
64102SOL     OW92329  12.898   5.721   0.523
64102SOL    HW192330  12.971   5.704   0.456
64102SOL    HW292331  12.867   5.634   0.561
64103SOL     OW92332  12.560   7.159   0.477
64103SOL    HW192333  12.627   7.171   0.403
64103SOL    HW292334  12.520   7.248   0.500
64104SOL     OW92335  11.302   7.380   1.851
64104SOL    HW192336  11.261   7.306   1.904
64104SOL    HW292337  11.366   7.431   1.909
64105SOL     OW92338  12.452   6.513   0.672
64105SOL    HW192339  12.512   6.432   0.674
64105SOL    HW292340  12.492   6.582   0.612
64106SOL     OW92341  12.002   6.859   1.422
64106SOL    HW192342  11.997   6.892   1.517
64106SOL    HW292343  11.916   6.878   1.376
64107SOL     OW92344  11.844   7.202   0.154
64107SOL    HW192345  11.853   7.212   0.055
64107SOL    HW292346  11.804   7.113   0.175
64108SOL     OW92347  11.435   5.912   0.720
64108SOL    HW192348  11.356   5.963   0.686
64108SOL    HW292349  11.426   5.897   0.818
64109SOL     OW92350  12.366   7.198   0.031
64109SOL    HW192351  12.372   7.105   0.068
64109SOL    HW292352  12.307   7.198  -0.049
64110SOL     OW92353  11.994   6.588   1.372
64110SOL    HW192354  12.034   6.587   1.280
64110SOL    HW292355  12.004   6.680   1.412
64111SOL     OW92356  12.088   6.496   0.291
64111SOL    HW192357  12.151   6.534   0.223
64111SOL    HW292358  12.128   6.413   0.330
64112SOL     OW92359  12.676   7.193   0.044
64112SOL    HW192360  12.584   7.230   0.051
64112SOL    HW292361  12.714   7.213  -0.046
64113SOL     OW92362  11.544   6.874   1.490
64113SOL    HW192363  11.531   6.967   1.456
64113SOL    HW292364  11.460   6.822   1.477
64114SOL     OW92365  12.211   6.684   0.696
64114SOL    HW192366  12.141   6.637   0.750
64114SOL    HW292367  12.270   6.616   0.653
64115SOL     OW92368  12.186   5.822   0.971
64115SOL    HW192369  12.178   5.786   0.878
64115SOL    HW292370  12.184   5.746   1.036
64116SOL     OW92371  11.762   7.073   0.491
64116SOL    HW192372  11.804   7.015   0.421
64116SOL    HW292373  11.718   7.152   0.447
64117SOL     OW92374  11.427   6.934   0.290
64117SOL    HW192375  11.331   6.935   0.263
64117SOL    HW292376  11.439   6.987   0.374
64118SOL     OW92377  11.277   6.599   1.726
64118SOL    HW192378  11.200   6.566   1.780
64118SOL    HW292379  11.362   6.569   1.768
64119SOL     OW92380  11.844   5.789   1.489
64119SOL    HW192381  11.934   5.773   1.449
64119SOL    HW292382  11.852   5.794   1.588
64120SOL     OW92383  12.612   6.442   1.398
64120SOL    HW192384  12.555   6.494   1.335
64120SOL    HW292385  12.708   6.454   1.374
64121SOL     OW92386  11.244   5.752   0.318
64121SOL    HW192387  11.227   5.835   0.264
64121SOL    HW292388  11.334   5.715   0.296
64122SOL     OW92389  12.355   6.921   0.119
64122SOL    HW192390  12.256   6.910   0.121
64122SOL    HW292391  12.389   6.936   0.212
64123SOL     OW92392  11.785   6.428   1.431
64123SOL    HW192393  11.841   6.509   1.414
64123SOL    HW292394  11.844   6.348   1.434
64124SOL     OW92395  12.665   7.353   0.959
64124SOL    HW192396  12.698   7.417   0.890
64124SOL    HW292397  12.731   7.347   1.034
64125SOL     OW92398  11.888   6.151   1.708
64125SOL    HW192399  11.907   6.216   1.782
64125SOL    HW292400  11.948   6.071   1.717
64126SOL     OW92401  12.622   6.806   1.633
64126SOL    HW192402  12.613   6.796   1.732
64126SOL    HW292403  12.718   6.799   1.607
64127SOL     OW92404  11.562   7.327   1.560
64127SOL    HW192405  11.471   7.368   1.558
64127SOL    HW292406  11.555   7.233   1.592
64128SOL     OW92407  12.397   5.911   0.449
64128SOL    HW192408  12.462   5.837   0.438
64128SOL    HW292409  12.417   5.961   0.533
64129SOL     OW92410  11.766   6.331   0.652
64129SOL    HW192411  11.816   6.416   0.633
64129SOL    HW292412  11.678   6.333   0.604
64130SOL     OW92413  12.031   6.960   0.016
64130SOL    HW192414  11.985   6.975   0.104
64130SOL    HW292415  12.075   7.045  -0.014
64131SOL     OW92416  11.833   7.376   0.953
64131SOL    HW192417  11.787   7.464   0.940
64131SOL    HW292418  11.932   7.388   0.946
64132SOL     OW92419  12.031   6.542   0.861
64132SOL    HW192420  12.085   6.473   0.909
64132SOL    HW292421  11.999   6.611   0.927
64133SOL     OW92422  12.255   6.570   0.087
64133SOL    HW192423  12.232   6.623   0.005
64133SOL    HW292424  12.336   6.514   0.068
64134SOL     OW92425  13.033   7.155   0.851
64134SOL    HW192426  12.962   7.143   0.781
64134SOL    HW292427  13.034   7.076   0.911
64135SOL     OW92428  11.393   6.900   1.844
64135SOL    HW192429  11.328   6.827   1.823
64135SOL    HW292430  11.397   6.914   1.942
64136SOL     OW92431  11.251   6.826   0.653
64136SOL    HW192432  11.250   6.779   0.741
64136SOL    HW292433  11.333   6.798   0.602
64137SOL     OW92434  11.844   6.977   1.624
64137SOL    HW192435  11.766   6.927   1.662
64137SOL    HW292436  11.841   7.072   1.655
64138SOL     OW92437  11.600   6.010   0.520
64138SOL    HW192438  11.630   5.938   0.458
64138SOL    HW292439  11.561   5.970   0.603
64139SOL     OW92440  11.489   6.133   1.280
64139SOL    HW192441  11.527   6.074   1.352
64139SOL    HW292442  11.529   6.107   1.192
64140SOL     OW92443  11.984   7.172   0.687
64140SOL    HW192444  12.016   7.182   0.593
64140SOL    HW292445  11.905   7.110   0.689
64141SOL     OW92446  12.596   5.800   1.112
64141SOL    HW192447  12.648   5.735   1.167
64141SOL    HW292448  12.547   5.863   1.173
64142SOL     OW92449  12.173   5.620   1.154
64142SOL    HW192450  12.110   5.548   1.123
64142SOL    HW292451  12.266   5.584   1.154
64143SOL     OW92452  11.942   6.916   0.301
64143SOL    HW192453  11.896   6.829   0.318
64143SOL    HW292454  12.033   6.913   0.342
64144SOL     OW92455  11.790   7.153   1.284
64144SOL    HW192456  11.785   7.235   1.341
64144SOL    HW292457  11.879   7.150   1.239
64145SOL     OW92458  12.524   5.638   0.168
64145SOL    HW192459  12.559   5.597   0.084
64145SOL    HW292460  12.434   5.600   0.188
64146SOL     OW92461  12.472   6.039   0.691
64146SOL    HW192462  12.413   6.119   0.695
64146SOL    HW292463  12.487   6.004   0.784
64147SOL     OW92464  12.765   5.807   0.882
64147SOL    HW192465  12.681   5.806   0.936
64147SOL    HW292466  12.767   5.890   0.826
64148SOL     OW92467  11.211   6.663   0.300
64148SOL    HW192468  11.310   6.652   0.291
64148SOL    HW292469  11.171   6.577   0.332
64149SOL     OW92470  12.047   7.232   0.337
64149SOL    HW192471  11.970   7.197   0.283
64149SOL    HW292472  12.015   7.303   0.399
64150SOL     OW92473  11.402   6.214   1.975
64150SOL    HW192474  11.309   6.212   2.012
64150SOL    HW292475  11.403   6.175   1.883
64151SOL     OW92476  11.397   5.861   2.858
64151SOL    HW192477  11.432   5.844   2.950
64151SOL    HW292478  11.309   5.816   2.846
64152SOL     OW92479  11.191   5.954   2.509
64152SOL    HW192480  11.109   5.997   2.548
64152SOL    HW292481  11.163   5.881   2.446
64153SOL     OW92482  11.741   6.861   3.027
64153SOL    HW192483  11.648   6.854   2.990
64153SOL    HW292484  11.752   6.950   3.071
64154SOL     OW92485  12.727   7.097   2.565
64154SOL    HW192486  12.670   7.081   2.646
64154SOL    HW292487  12.668   7.107   2.485
64155SOL     OW92488  12.307   6.289   2.579
64155SOL    HW192489  12.364   6.367   2.554
64155SOL    HW292490  12.247   6.315   2.655
64156SOL     OW92491  11.940   6.730   2.885
64156SOL    HW192492  11.862   6.747   2.945
64156SOL    HW292493  11.974   6.817   2.849
64157SOL     OW92494  12.022   6.384   3.685
64157SOL    HW192495  12.018   6.460   3.750
64157SOL    HW292496  12.044   6.420   3.594
64158SOL     OW92497  11.857   6.598   2.527
64158SOL    HW192498  11.926   6.582   2.597
64158SOL    HW292499  11.784   6.655   2.565
64159SOL     OW92500  11.858   6.747   3.665
64159SOL    HW192501  11.918   6.826   3.679
64159SOL    HW292502  11.772   6.778   3.624
64160SOL     OW92503  11.507   7.021   2.923
64160SOL    HW192504  11.429   6.990   2.870
64160SOL    HW292505  11.565   7.079   2.866
64161SOL     OW92506  12.632   7.091   3.201
64161SOL    HW192507  12.656   7.185   3.227
64161SOL    HW292508  12.616   7.037   3.283
64162SOL     OW92509  11.610   5.978   3.361
64162SOL    HW192510  11.692   5.922   3.370
64162SOL    HW292511  11.529   5.920   3.365
64163SOL     OW92512  11.403   7.299   2.345
64163SOL    HW192513  11.437   7.376   2.399
64163SOL    HW292514  11.447   7.299   2.255
64164SOL     OW92515  12.299   6.927   3.552
64164SOL    HW192516  12.346   6.927   3.640
64164SOL    HW292517  12.251   6.840   3.541
64165SOL     OW92518  11.402   7.020   2.400
64165SOL    HW192519  11.376   7.116   2.400
64165SOL    HW292520  11.331   6.966   2.445
64166SOL     OW92521  11.412   6.677   2.748
64166SOL    HW192522  11.426   6.593   2.800
64166SOL    HW292523  11.357   6.741   2.803
64167SOL     OW92524  11.792   7.372   3.301
64167SOL    HW192525  11.700   7.355   3.336
64167SOL    HW292526  11.820   7.464   3.327
64168SOL     OW92527  11.778   6.550   1.985
64168SOL    HW192528  11.785   6.634   1.931
64168SOL    HW292529  11.824   6.563   2.073
64169SOL     OW92530  12.766   5.700   3.342
64169SOL    HW192531  12.748   5.767   3.270
64169SOL    HW292532  12.763   5.746   3.431
64170SOL     OW92533  11.294   6.229   2.425
64170SOL    HW192534  11.249   6.141   2.442
64170SOL    HW292535  11.293   6.283   2.509
64171SOL     OW92536  11.199   7.182   1.979
64171SOL    HW192537  11.180   7.086   2.000
64171SOL    HW292538  11.166   7.240   2.054
64172SOL     OW92539  12.861   6.508   2.474
64172SOL    HW192540  12.956   6.479   2.482
64172SOL    HW292541  12.853   6.573   2.399
64173SOL     OW92542  11.285   6.323   3.459
64173SOL    HW192543  11.373   6.310   3.504
64173SOL    HW292544  11.272   6.420   3.437
64174SOL     OW92545  11.785   6.951   2.588
64174SOL    HW192546  11.736   6.864   2.597
64174SOL    HW292547  11.762   6.994   2.501
64175SOL     OW92548  12.465   6.814   3.285
64175SOL    HW192549  12.502   6.741   3.227
64175SOL    HW292550  12.517   6.819   3.370
64176SOL     OW92551  11.981   5.590   2.364
64176SOL    HW192552  12.021   5.681   2.355
64176SOL    HW292553  11.881   5.598   2.370
64177SOL     OW92554  11.369   6.562   3.126
64177SOL    HW192555  11.458   6.517   3.112
64177SOL    HW292556  11.296   6.497   3.107
64178SOL     OW92557  12.359   7.378   3.478
64178SOL    HW192558  12.383   7.438   3.402
64178SOL    HW292559  12.366   7.283   3.448
64179SOL     OW92560  11.489   5.837   3.663
64179SOL    HW192561  11.560   5.908   3.669
64179SOL    HW292562  11.401   5.876   3.691
64180SOL     OW92563  12.638   7.003   2.815
64180SOL    HW192564  12.579   7.009   2.895
64180SOL    HW292565  12.623   6.915   2.769
64181SOL     OW92566  12.839   7.300   2.434
64181SOL    HW192567  12.798   7.277   2.346
64181SOL    HW292568  12.821   7.226   2.499
64182SOL     OW92569  11.770   6.315   2.132
64182SOL    HW192570  11.794   6.384   2.064
64182SOL    HW292571  11.692   6.348   2.186
64183SOL     OW92572  12.453   5.931   2.806
64183SOL    HW192573  12.367   5.881   2.793
64183SOL    HW292574  12.515   5.877   2.862
64184SOL     OW92575  11.979   6.191   3.327
64184SOL    HW192576  11.932   6.188   3.416
64184SOL    HW292577  11.928   6.136   3.261
64185SOL     OW92578  12.566   6.055   3.536
64185SOL    HW192579  12.546   6.098   3.624
64185SOL    HW292580  12.644   5.993   3.545
64186SOL     OW92581  12.145   6.476   3.434
64186SOL    HW192582  12.191   6.392   3.405
64186SOL    HW292583  12.089   6.510   3.359
64187SOL     OW92584  12.163   5.996   3.104
64187SOL    HW192585  12.086   6.030   3.158
64187SOL    HW292586  12.129   5.945   3.025
64188SOL     OW92587  12.213   6.287   2.291
64188SOL    HW192588  12.239   6.283   2.387
64188SOL    HW292589  12.128   6.236   2.277
64189SOL     OW92590  11.248   6.397   2.651
64189SOL    HW192591  11.347   6.385   2.660
64189SOL    HW292592  11.224   6.492   2.672
64190SOL     OW92593  11.302   7.407   3.433
64190SOL    HW192594  11.292   7.392   3.532
64190SOL    HW292595  11.216   7.443   3.397
64191SOL     OW92596  12.037   5.934   2.057
64191SOL    HW192597  12.096   5.997   2.008
64191SOL    HW292598  12.056   5.840   2.028
64192SOL     OW92599  12.534   6.730   2.407
64192SOL    HW192600  12.617   6.701   2.359
64192SOL    HW292601  12.485   6.797   2.351
64193SOL     OW92602  11.722   5.782   2.747
64193SOL    HW192603  11.717   5.777   2.847
64193SOL    HW292604  11.724   5.878   2.718
64194SOL     OW92605  12.180   7.042   2.339
64194SOL    HW192606  12.134   7.114   2.287
64194SOL    HW292607  12.176   7.062   2.437
64195SOL     OW92608  11.523   7.387   2.715
64195SOL    HW192609  11.573   7.301   2.721
64195SOL    HW292610  11.588   7.464   2.712
64196SOL     OW92611  12.399   7.136   3.368
64196SOL    HW192612  12.405   7.059   3.432
64196SOL    HW292613  12.347   7.110   3.288
64197SOL     OW92614  11.493   6.529   2.104
64197SOL    HW192615  11.575   6.568   2.062
64197SOL    HW292616  11.466   6.447   2.055
64198SOL     OW92617  12.630   6.321   2.590
64198SOL    HW192618  12.625   6.256   2.665
64198SOL    HW292619  12.710   6.380   2.603
64199SOL     OW92620  11.633   6.852   3.589
64199SOL    HW192621  11.583   6.853   3.503
64199SOL    HW292622  11.570   6.834   3.665
64200SOL     OW92623  12.283   7.362   2.099
64200SOL    HW192624  12.223   7.300   2.149
64200SOL    HW292625  12.314   7.318   2.014
64201SOL     OW92626  11.374   5.871   3.360
64201SOL    HW192627  11.294   5.931   3.347
64201SOL    HW292628  11.364   5.822   3.446
64202SOL     OW92629  11.636   7.329   2.185
64202SOL    HW192630  11.669   7.368   2.271
64202SOL    HW292631  11.712   7.322   2.120
64203SOL     OW92632  12.572   5.693   2.288
64203SOL    HW192633  12.548   5.656   2.198
64203SOL    HW292634  12.671   5.709   2.292
64204SOL     OW92635  11.421   7.371   3.103
64204SOL    HW192636  11.478   7.306   3.153
64204SOL    HW292637  11.405   7.338   3.010
64205SOL     OW92638  12.112   7.284   2.766
64205SOL    HW192639  12.192   7.227   2.787
64205SOL    HW292640  12.063   7.244   2.689
64206SOL     OW92641  11.554   6.286   2.342
64206SOL    HW192642  11.599   6.196   2.339
64206SOL    HW292643  11.460   6.275   2.375
64207SOL     OW92644  11.786   5.708   1.979
64207SOL    HW192645  11.884   5.686   1.986
64207SOL    HW292646  11.755   5.691   1.886
64208SOL     OW92647  11.953   5.850   3.611
64208SOL    HW192648  12.020   5.789   3.654
64208SOL    HW292649  11.880   5.869   3.676
64209SOL     OW92650  12.060   7.100   3.057
64209SOL    HW192651  12.037   7.075   2.963
64209SOL    HW292652  12.121   7.031   3.096
64210SOL     OW92653  12.523   6.176   3.295
64210SOL    HW192654  12.551   6.133   3.380
64210SOL    HW292655  12.548   6.272   3.296
64211SOL     OW92656  11.975   6.988   2.786
64211SOL    HW192657  12.065   7.002   2.744
64211SOL    HW292658  11.904   6.990   2.715
64212SOL     OW92659  12.094   6.089   2.761
64212SOL    HW192660  12.069   6.080   2.665
64212SOL    HW292661  12.142   6.007   2.792
64213SOL     OW92662  11.711   5.650   2.374
64213SOL    HW192663  11.630   5.651   2.432
64213SOL    HW292664  11.714   5.733   2.319
64214SOL     OW92665  12.606   6.774   1.903
64214SOL    HW192666  12.638   6.698   1.960
64214SOL    HW292667  12.514   6.801   1.933
64215SOL     OW92668  11.469   5.621   2.033
64215SOL    HW192669  11.518   5.705   2.012
64215SOL    HW292670  11.531   5.556   2.078
64216SOL     OW92671  12.107   5.822   2.342
64216SOL    HW192672  12.059   5.863   2.264
64216SOL    HW292673  12.206   5.820   2.323
64217SOL     OW92674  12.248   6.269   3.326
64217SOL    HW192675  12.168   6.208   3.329
64217SOL    HW292676  12.329   6.216   3.302
64218SOL     OW92677  12.399   7.156   2.655
64218SOL    HW192678  12.420   7.230   2.590
64218SOL    HW292679  12.467   7.156   2.728
64219SOL     OW92680  11.631   6.738   2.603
64219SOL    HW192681  11.560   6.711   2.668
64219SOL    HW292682  11.605   6.710   2.510
64220SOL     OW92683  12.443   7.383   2.453
64220SOL    HW192684  12.487   7.447   2.389
64220SOL    HW292685  12.393   7.435   2.523
64221SOL     OW92686  12.204   6.135   1.878
64221SOL    HW192687  12.163   6.217   1.839
64221SOL    HW292688  12.268   6.161   1.951
64222SOL     OW92689  11.250   6.142   3.248
64222SOL    HW192690  11.342   6.141   3.207
64222SOL    HW292691  11.244   6.216   3.315
64223SOL     OW92692  11.733   5.808   3.009
64223SOL    HW192693  11.771   5.724   3.046
64223SOL    HW292694  11.645   5.827   3.053
64224SOL     OW92695  12.038   6.040   2.504
64224SOL    HW192696  12.006   6.112   2.442
64224SOL    HW292697  12.062   5.959   2.451
64225SOL     OW92698  12.189   5.625   2.615
64225SOL    HW192699  12.117   5.630   2.546
64225SOL    HW292700  12.165   5.556   2.684
64226SOL     OW92701  12.601   6.759   2.729
64226SOL    HW192702  12.546   6.675   2.722
64226SOL    HW292703  12.627   6.788   2.637
64227SOL     OW92704  12.638   6.176   2.854
64227SOL    HW192705  12.608   6.081   2.861
64227SOL    HW292706  12.711   6.192   2.920
64228SOL     OW92707  11.660   6.971   2.036
64228SOL    HW192708  11.573   6.956   2.083
64228SOL    HW292709  11.643   6.997   1.941
64229SOL     OW92710  12.562   6.161   1.940
64229SOL    HW192711  12.508   6.140   2.021
64229SOL    HW292712  12.653   6.120   1.949
64230SOL     OW92713  11.699   5.842   2.190
64230SOL    HW192714  11.726   5.783   2.115
64230SOL    HW292715  11.699   5.937   2.159
64231SOL     OW92716  12.236   6.933   3.202
64231SOL    HW192717  12.156   6.910   3.257
64231SOL    HW292718  12.319   6.907   3.251
64232SOL     OW92719  12.764   7.215   3.487
64232SOL    HW192720  12.791   7.249   3.397
64232SOL    HW292721  12.843   7.177   3.533
64233SOL     OW92722  12.283   6.781   2.962
64233SOL    HW192723  12.243   6.825   3.043
64233SOL    HW292724  12.242   6.818   2.879
64234SOL     OW92725  12.087   5.675   3.264
64234SOL    HW192726  12.112   5.655   3.169
64234SOL    HW292727  12.159   5.731   3.306
64235SOL     OW92728  12.152   6.702   3.581
64235SOL    HW192729  12.053   6.708   3.591
64235SOL    HW292730  12.175   6.622   3.525
64236SOL     OW92731  11.877   6.636   2.230
64236SOL    HW192732  11.863   6.643   2.329
64236SOL    HW292733  11.961   6.585   2.212
64237SOL     OW92734  11.582   6.399   3.113
64237SOL    HW192735  11.668   6.411   3.163
64237SOL    HW292736  11.540   6.312   3.140
64238SOL     OW92737  12.446   5.972   3.124
64238SOL    HW192738  12.467   6.046   3.188
64238SOL    HW292739  12.357   5.989   3.081
64239SOL     OW92740  11.236   7.150   3.193
64239SOL    HW192741  11.190   7.232   3.159
64239SOL    HW292742  11.334   7.169   3.202
64240SOL     OW92743  11.539   6.686   2.363
64240SOL    HW192744  11.532   6.769   2.307
64240SOL    HW292745  11.543   6.606   2.303
64241SOL     OW92746  11.738   6.123   2.727
64241SOL    HW192747  11.750   6.189   2.653
64241SOL    HW292748  11.784   6.157   2.810
64242SOL     OW92749  12.424   6.934   2.250
64242SOL    HW192750  12.474   7.011   2.290
64242SOL    HW292751  12.329   6.936   2.282
64243SOL     OW92752  12.444   7.031   3.004
64243SOL    HW192753  12.491   7.044   3.091
64243SOL    HW292754  12.378   6.957   3.013
64244SOL     OW92755  12.754   6.225   2.334
64244SOL    HW192756  12.723   6.286   2.407
64244SOL    HW292757  12.804   6.277   2.265
64245SOL     OW92758  11.526   7.096   3.191
64245SOL    HW192759  11.505   7.052   3.104
64245SOL    HW292760  11.623   7.122   3.194
64246SOL     OW92761  11.574   6.337   3.460
64246SOL    HW192762  11.642   6.392   3.413
64246SOL    HW292763  11.614   6.249   3.487
64247SOL     OW92764  12.185   5.691   3.632
64247SOL    HW192765  12.191   5.776   3.580
64247SOL    HW292766  12.217   5.615   3.575
64248SOL     OW92767  11.676   5.636   3.602
64248SOL    HW192768  11.634   5.579   3.532
64248SOL    HW292769  11.610   5.705   3.634
64249SOL     OW92770  11.745   6.456   2.891
64249SOL    HW192771  11.789   6.545   2.882
64249SOL    HW292772  11.682   6.456   2.968
64250SOL     OW92773  12.532   6.448   2.907
64250SOL    HW192774  12.457   6.448   2.841
64250SOL    HW292775  12.569   6.356   2.916
64251SOL     OW92776  12.381   6.111   2.137
64251SOL    HW192777  12.394   6.027   2.191
64251SOL    HW292778  12.352   6.185   2.197
64252SOL     OW92779  11.479   5.799   3.093
64252SOL    HW192780  11.456   5.836   3.183
64252SOL    HW292781  11.449   5.704   3.087
64253SOL     OW92782  11.209   6.896   3.144
64253SOL    HW192783  11.262   6.847   3.212
64253SOL    HW292784  11.231   6.994   3.149
64254SOL     OW92785  11.904   6.220   2.926
64254SOL    HW192786  11.963   6.194   2.850
64254SOL    HW292787  11.876   6.316   2.915
64255SOL     OW92788  11.479   5.649   2.480
64255SOL    HW192789  11.468   5.743   2.513
64255SOL    HW292790  11.474   5.586   2.557
64256SOL     OW92791  12.794   5.953   2.236
64256SOL    HW192792  12.796   5.877   2.300
64256SOL    HW292793  12.746   6.030   2.276
64257SOL     OW92794  12.195   6.352   2.828
64257SOL    HW192795  12.210   6.373   2.924
64257SOL    HW292796  12.165   6.257   2.819
64258SOL     OW92797  12.152   7.159   3.562
64258SOL    HW192798  12.132   7.203   3.474
64258SOL    HW292799  12.191   7.068   3.546
64259SOL     OW92800  11.522   6.484   3.666
64259SOL    HW192801  11.598   6.528   3.714
64259SOL    HW292802  11.557   6.437   3.584
64260SOL     OW92803  12.712   5.860   1.987
64260SOL    HW192804  12.651   5.785   2.010
64260SOL    HW292805  12.734   5.912   2.070
64261SOL     OW92806  12.475   6.424   1.904
64261SOL    HW192807  12.509   6.331   1.919
64261SOL    HW292808  12.493   6.451   1.809
64262SOL     OW92809  12.240   6.919   2.711
64262SOL    HW192810  12.247   6.835   2.656
64262SOL    HW292811  12.302   6.988   2.675
64263SOL     OW92812  11.491   6.396   2.811
64263SOL    HW192813  11.584   6.432   2.816
64263SOL    HW292814  11.485   6.311   2.863
64264SOL     OW92815  11.511   6.095   2.868
64264SOL    HW192816  11.459   6.012   2.851
64264SOL    HW292817  11.588   6.100   2.804
64265SOL     OW92818  12.310   5.966   3.540
64265SOL    HW192819  12.265   6.029   3.604
64265SOL    HW292820  12.403   5.997   3.523
64266SOL     OW92821  12.332   5.793   3.339
64266SOL    HW192822  12.332   5.857   3.416
64266SOL    HW292823  12.360   5.841   3.256
64267SOL     OW92824  11.180   6.912   2.062
64267SOL    HW192825  11.087   6.933   2.031
64267SOL    HW292826  11.190   6.813   2.075
64268SOL     OW92827  11.260   7.387   2.789
64268SOL    HW192828  11.218   7.301   2.762
64268SOL    HW292829  11.354   7.390   2.755
64269SOL     OW92830  11.676   7.154   2.772
64269SOL    HW192831  11.742   7.228   2.781
64269SOL    HW292832  11.720   7.075   2.730
64270SOL     OW92833  12.174   6.382   3.100
64270SOL    HW192834  12.215   6.350   3.186
64270SOL    HW292835  12.078   6.355   3.097
64271SOL     OW92836  11.212   6.130   2.976
64271SOL    HW192837  11.297   6.097   2.935
64271SOL    HW292838  11.225   6.145   3.074
64272SOL     OW92839  11.361   6.106   3.584
64272SOL    HW192840  11.420   6.066   3.514
64272SOL    HW292841  11.303   6.177   3.543
64273SOL     OW92842  12.541   6.536   3.522
64273SOL    HW192843  12.580   6.625   3.542
64273SOL    HW292844  12.551   6.516   3.425
64274SOL     OW92845  11.987   6.158   2.187
64274SOL    HW192846  11.994   6.069   2.141
64274SOL    HW292847  11.893   6.192   2.179
64275SOL     OW92848  11.424   7.150   3.606
64275SOL    HW192849  11.394   7.207   3.682
64275SOL    HW292850  11.417   7.053   3.632
64276SOL     OW92851  11.843   6.050   3.131
64276SOL    HW192852  11.809   5.961   3.101
64276SOL    HW292853  11.869   6.104   3.051
64277SOL     OW92854  12.102   7.264   3.327
64277SOL    HW192855  12.078   7.246   3.232
64277SOL    HW292856  12.132   7.358   3.337
64278SOL     OW92857  11.645   6.086   2.053
64278SOL    HW192858  11.706   6.166   2.057
64278SOL    HW292859  11.550   6.117   2.060
64279SOL     OW92860  11.331   6.723   3.328
64279SOL    HW192861  11.353   6.662   3.404
64279SOL    HW292862  11.341   6.674   3.242
64280SOL     OW92863  12.519   6.645   3.096
64280SOL    HW192864  12.543   6.582   3.022
64280SOL    HW292865  12.429   6.685   3.078
64281SOL     OW92866  12.474   6.441   2.171
64281SOL    HW192867  12.388   6.410   2.213
64281SOL    HW292868  12.470   6.427   2.072
64282SOL     OW92869  12.424   7.317   2.990
64282SOL    HW192870  12.508   7.322   2.936
64282SOL    HW292871  12.401   7.221   3.008
64283SOL     OW92872  11.255   6.844   2.884
64283SOL    HW192873  11.250   6.843   2.984
64283SOL    HW292874  11.172   6.803   2.846
64284SOL     OW92875  11.860   7.248   3.578
64284SOL    HW192876  11.804   7.329   3.587
64284SOL    HW292877  11.912   7.252   3.492
64285SOL     OW92878  12.898   5.721   2.385
64285SOL    HW192879  12.971   5.704   2.318
64285SOL    HW292880  12.867   5.634   2.423
64286SOL     OW92881  12.560   7.159   2.339
64286SOL    HW192882  12.627   7.171   2.265
64286SOL    HW292883  12.520   7.248   2.362
64287SOL     OW92884  11.302   7.380   3.713
64287SOL    HW192885  11.261   7.306   3.766
64287SOL    HW292886  11.366   7.431   3.771
64288SOL     OW92887  12.452   6.513   2.534
64288SOL    HW192888  12.512   6.432   2.536
64288SOL    HW292889  12.492   6.582   2.474
64289SOL     OW92890  12.002   6.859   3.284
64289SOL    HW192891  11.997   6.892   3.379
64289SOL    HW292892  11.916   6.878   3.238
64290SOL     OW92893  11.844   7.202   2.016
64290SOL    HW192894  11.853   7.212   1.917
64290SOL    HW292895  11.804   7.113   2.037
64291SOL     OW92896  11.435   5.912   2.582
64291SOL    HW192897  11.356   5.963   2.548
64291SOL    HW292898  11.426   5.897   2.680
64292SOL     OW92899  12.366   7.198   1.893
64292SOL    HW192900  12.372   7.105   1.930
64292SOL    HW292901  12.307   7.198   1.813
64293SOL     OW92902  11.994   6.588   3.234
64293SOL    HW192903  12.034   6.587   3.142
64293SOL    HW292904  12.004   6.680   3.274
64294SOL     OW92905  12.088   6.496   2.153
64294SOL    HW192906  12.151   6.534   2.085
64294SOL    HW292907  12.128   6.413   2.192
64295SOL     OW92908  12.676   7.193   1.906
64295SOL    HW192909  12.584   7.230   1.913
64295SOL    HW292910  12.714   7.213   1.816
64296SOL     OW92911  11.544   6.874   3.352
64296SOL    HW192912  11.531   6.967   3.318
64296SOL    HW292913  11.460   6.822   3.339
64297SOL     OW92914  12.211   6.684   2.558
64297SOL    HW192915  12.141   6.637   2.612
64297SOL    HW292916  12.270   6.616   2.515
64298SOL     OW92917  12.186   5.822   2.833
64298SOL    HW192918  12.178   5.786   2.740
64298SOL    HW292919  12.184   5.746   2.898
64299SOL     OW92920  11.762   7.073   2.353
64299SOL    HW192921  11.804   7.015   2.283
64299SOL    HW292922  11.718   7.152   2.309
64300SOL     OW92923  11.427   6.934   2.152
64300SOL    HW192924  11.331   6.935   2.125
64300SOL    HW292925  11.439   6.987   2.236
64301SOL     OW92926  11.277   6.599   3.588
64301SOL    HW192927  11.200   6.566   3.642
64301SOL    HW292928  11.362   6.569   3.630
64302SOL     OW92929  11.844   5.789   3.351
64302SOL    HW192930  11.934   5.773   3.311
64302SOL    HW292931  11.852   5.794   3.450
64303SOL     OW92932  11.247   5.931   1.895
64303SOL    HW192933  11.155   5.903   1.866
64303SOL    HW292934  11.278   6.008   1.839
64304SOL     OW92935  12.612   6.442   3.260
64304SOL    HW192936  12.555   6.494   3.197
64304SOL    HW292937  12.708   6.454   3.236
64305SOL     OW92938  11.244   5.752   2.180
64305SOL    HW192939  11.227   5.835   2.126
64305SOL    HW292940  11.334   5.715   2.158
64306SOL     OW92941  12.355   6.921   1.981
64306SOL    HW192942  12.256   6.910   1.983
64306SOL    HW292943  12.389   6.936   2.074
64307SOL     OW92944  11.785   6.428   3.293
64307SOL    HW192945  11.841   6.509   3.276
64307SOL    HW292946  11.844   6.348   3.296
64308SOL     OW92947  12.665   7.353   2.821
64308SOL    HW192948  12.698   7.417   2.752
64308SOL    HW292949  12.731   7.347   2.896
64309SOL     OW92950  11.888   6.151   3.570
64309SOL    HW192951  11.907   6.216   3.644
64309SOL    HW292952  11.948   6.071   3.579
64310SOL     OW92953  12.622   6.806   3.495
64310SOL    HW192954  12.613   6.796   3.594
64310SOL    HW292955  12.718   6.799   3.469
64311SOL     OW92956  11.562   7.327   3.422
64311SOL    HW192957  11.471   7.368   3.420
64311SOL    HW292958  11.555   7.233   3.454
64312SOL     OW92959  12.397   5.911   2.311
64312SOL    HW192960  12.462   5.837   2.300
64312SOL    HW292961  12.417   5.961   2.395
64313SOL     OW92962  11.766   6.331   2.514
64313SOL    HW192963  11.816   6.416   2.495
64313SOL    HW292964  11.678   6.333   2.466
64314SOL     OW92965  12.031   6.960   1.878
64314SOL    HW192966  11.985   6.975   1.966
64314SOL    HW292967  12.075   7.045   1.848
64315SOL     OW92968  11.833   7.376   2.815
64315SOL    HW192969  11.787   7.464   2.802
64315SOL    HW292970  11.932   7.388   2.808
64316SOL     OW92971  12.031   6.542   2.723
64316SOL    HW192972  12.085   6.473   2.771
64316SOL    HW292973  11.999   6.611   2.789
64317SOL     OW92974  12.255   6.570   1.949
64317SOL    HW192975  12.232   6.623   1.867
64317SOL    HW292976  12.336   6.514   1.930
64318SOL     OW92977  13.033   7.155   2.713
64318SOL    HW192978  12.962   7.143   2.643
64318SOL    HW292979  13.034   7.076   2.773
64319SOL     OW92980  11.393   6.900   3.706
64319SOL    HW192981  11.328   6.827   3.685
64319SOL    HW292982  11.397   6.914   3.804
64320SOL     OW92983  11.251   6.826   2.515
64320SOL    HW192984  11.250   6.779   2.603
64320SOL    HW292985  11.333   6.798   2.464
64321SOL     OW92986  11.844   6.977   3.486
64321SOL    HW192987  11.766   6.927   3.524
64321SOL    HW292988  11.841   7.072   3.517
64322SOL     OW92989  11.600   6.010   2.382
64322SOL    HW192990  11.630   5.938   2.320
64322SOL    HW292991  11.561   5.970   2.465
64323SOL     OW92992  11.489   6.133   3.142
64323SOL    HW192993  11.527   6.074   3.214
64323SOL    HW292994  11.529   6.107   3.054
64324SOL     OW92995  11.984   7.172   2.549
64324SOL    HW192996  12.016   7.182   2.455
64324SOL    HW292997  11.905   7.110   2.551
64325SOL     OW92998  12.596   5.800   2.974
64325SOL    HW192999  12.648   5.735   3.029
64325SOL    HW293000  12.547   5.863   3.035
64326SOL     OW93001  12.173   5.620   3.016
64326SOL    HW193002  12.110   5.548   2.985
64326SOL    HW293003  12.266   5.584   3.016
64327SOL     OW93004  11.942   6.916   2.163
64327SOL    HW193005  11.896   6.829   2.180
64327SOL    HW293006  12.033   6.913   2.204
64328SOL     OW93007  11.790   7.153   3.146
64328SOL    HW193008  11.785   7.235   3.203
64328SOL    HW293009  11.879   7.150   3.101
64329SOL     OW93010  12.524   5.638   2.030
64329SOL    HW193011  12.559   5.597   1.946
64329SOL    HW293012  12.434   5.600   2.050
64330SOL     OW93013  12.472   6.039   2.553
64330SOL    HW193014  12.413   6.119   2.557
64330SOL    HW293015  12.487   6.004   2.646
64331SOL     OW93016  12.765   5.807   2.744
64331SOL    HW193017  12.681   5.806   2.798
64331SOL    HW293018  12.767   5.890   2.688
64332SOL     OW93019  11.211   6.663   2.162
64332SOL    HW193020  11.310   6.652   2.153
64332SOL    HW293021  11.171   6.577   2.194
64333SOL     OW93022  12.047   7.232   2.199
64333SOL    HW193023  11.970   7.197   2.145
64333SOL    HW293024  12.015   7.303   2.261
64334SOL     OW93025  11.402   6.214   3.837
64334SOL    HW193026  11.309   6.212   3.874
64334SOL    HW293027  11.403   6.175   3.745
64335SOL     OW93028  11.397   5.861   4.720
64335SOL    HW193029  11.432   5.844   4.812
64335SOL    HW293030  11.309   5.816   4.708
64336SOL     OW93031  11.191   5.954   4.371
64336SOL    HW193032  11.109   5.997   4.410
64336SOL    HW293033  11.163   5.881   4.308
64337SOL     OW93034  11.741   6.861   4.889
64337SOL    HW193035  11.648   6.854   4.852
64337SOL    HW293036  11.752   6.950   4.933
64338SOL     OW93037  12.727   7.097   4.427
64338SOL    HW193038  12.670   7.081   4.508
64338SOL    HW293039  12.668   7.107   4.347
64339SOL     OW93040  12.307   6.289   4.441
64339SOL    HW193041  12.364   6.367   4.416
64339SOL    HW293042  12.247   6.315   4.517
64340SOL     OW93043  11.940   6.730   4.747
64340SOL    HW193044  11.862   6.747   4.807
64340SOL    HW293045  11.974   6.817   4.711
64341SOL     OW93046  12.022   6.384   5.547
64341SOL    HW193047  12.018   6.460   5.612
64341SOL    HW293048  12.044   6.420   5.456
64342SOL     OW93049  11.857   6.598   4.389
64342SOL    HW193050  11.926   6.582   4.459
64342SOL    HW293051  11.784   6.655   4.427
64343SOL     OW93052  11.858   6.747   5.527
64343SOL    HW193053  11.918   6.826   5.541
64343SOL    HW293054  11.772   6.778   5.486
64344SOL     OW93055  11.507   7.021   4.785
64344SOL    HW193056  11.429   6.990   4.732
64344SOL    HW293057  11.565   7.079   4.728
64345SOL     OW93058  12.632   7.091   5.063
64345SOL    HW193059  12.656   7.185   5.089
64345SOL    HW293060  12.616   7.037   5.145
64346SOL     OW93061  11.610   5.978   5.223
64346SOL    HW193062  11.692   5.922   5.232
64346SOL    HW293063  11.529   5.920   5.227
64347SOL     OW93064  11.403   7.299   4.207
64347SOL    HW193065  11.437   7.376   4.261
64347SOL    HW293066  11.447   7.299   4.117
64348SOL     OW93067  12.299   6.927   5.414
64348SOL    HW193068  12.346   6.927   5.502
64348SOL    HW293069  12.251   6.840   5.403
64349SOL     OW93070  11.402   7.020   4.262
64349SOL    HW193071  11.376   7.116   4.262
64349SOL    HW293072  11.331   6.966   4.307
64350SOL     OW93073  11.412   6.677   4.610
64350SOL    HW193074  11.426   6.593   4.662
64350SOL    HW293075  11.357   6.741   4.665
64351SOL     OW93076  11.792   7.372   5.163
64351SOL    HW193077  11.700   7.355   5.198
64351SOL    HW293078  11.820   7.464   5.189
64352SOL     OW93079  11.778   6.550   3.847
64352SOL    HW193080  11.785   6.634   3.793
64352SOL    HW293081  11.824   6.563   3.935
64353SOL     OW93082  12.766   5.700   5.204
64353SOL    HW193083  12.748   5.767   5.132
64353SOL    HW293084  12.763   5.746   5.293
64354SOL     OW93085  11.294   6.229   4.287
64354SOL    HW193086  11.249   6.141   4.304
64354SOL    HW293087  11.293   6.283   4.371
64355SOL     OW93088  11.199   7.182   3.841
64355SOL    HW193089  11.180   7.086   3.862
64355SOL    HW293090  11.166   7.240   3.916
64356SOL     OW93091  12.861   6.508   4.336
64356SOL    HW193092  12.956   6.479   4.344
64356SOL    HW293093  12.853   6.573   4.261
64357SOL     OW93094  11.285   6.323   5.321
64357SOL    HW193095  11.373   6.310   5.366
64357SOL    HW293096  11.272   6.420   5.299
64358SOL     OW93097  11.785   6.951   4.450
64358SOL    HW193098  11.736   6.864   4.459
64358SOL    HW293099  11.762   6.994   4.363
64359SOL     OW93100  12.465   6.814   5.147
64359SOL    HW193101  12.502   6.741   5.089
64359SOL    HW293102  12.517   6.819   5.232
64360SOL     OW93103  11.981   5.590   4.226
64360SOL    HW193104  12.021   5.681   4.217
64360SOL    HW293105  11.881   5.598   4.232
64361SOL     OW93106  11.369   6.562   4.988
64361SOL    HW193107  11.458   6.517   4.974
64361SOL    HW293108  11.296   6.497   4.969
64362SOL     OW93109  12.359   7.378   5.340
64362SOL    HW193110  12.383   7.438   5.264
64362SOL    HW293111  12.366   7.283   5.310
64363SOL     OW93112  11.489   5.837   5.525
64363SOL    HW193113  11.560   5.908   5.531
64363SOL    HW293114  11.401   5.876   5.553
64364SOL     OW93115  12.638   7.003   4.677
64364SOL    HW193116  12.579   7.009   4.757
64364SOL    HW293117  12.623   6.915   4.631
64365SOL     OW93118  12.839   7.300   4.296
64365SOL    HW193119  12.798   7.277   4.208
64365SOL    HW293120  12.821   7.226   4.361
64366SOL     OW93121  11.770   6.315   3.994
64366SOL    HW193122  11.794   6.384   3.926
64366SOL    HW293123  11.692   6.348   4.048
64367SOL     OW93124  12.453   5.931   4.668
64367SOL    HW193125  12.367   5.881   4.655
64367SOL    HW293126  12.515   5.877   4.724
64368SOL     OW93127  11.979   6.191   5.189
64368SOL    HW193128  11.932   6.188   5.278
64368SOL    HW293129  11.928   6.136   5.123
64369SOL     OW93130  12.566   6.055   5.398
64369SOL    HW193131  12.546   6.098   5.486
64369SOL    HW293132  12.644   5.993   5.407
64370SOL     OW93133  12.145   6.476   5.296
64370SOL    HW193134  12.191   6.392   5.267
64370SOL    HW293135  12.089   6.510   5.221
64371SOL     OW93136  12.163   5.996   4.966
64371SOL    HW193137  12.086   6.030   5.020
64371SOL    HW293138  12.129   5.945   4.887
64372SOL     OW93139  12.213   6.287   4.153
64372SOL    HW193140  12.239   6.283   4.249
64372SOL    HW293141  12.128   6.236   4.139
64373SOL     OW93142  11.248   6.397   4.513
64373SOL    HW193143  11.347   6.385   4.522
64373SOL    HW293144  11.224   6.492   4.534
64374SOL     OW93145  11.302   7.407   5.295
64374SOL    HW193146  11.292   7.392   5.394
64374SOL    HW293147  11.216   7.443   5.259
64375SOL     OW93148  12.037   5.934   3.919
64375SOL    HW193149  12.096   5.997   3.870
64375SOL    HW293150  12.056   5.840   3.890
64376SOL     OW93151  12.534   6.730   4.269
64376SOL    HW193152  12.617   6.701   4.221
64376SOL    HW293153  12.485   6.797   4.213
64377SOL     OW93154  11.722   5.782   4.609
64377SOL    HW193155  11.717   5.777   4.709
64377SOL    HW293156  11.724   5.878   4.580
64378SOL     OW93157  12.180   7.042   4.201
64378SOL    HW193158  12.134   7.114   4.149
64378SOL    HW293159  12.176   7.062   4.299
64379SOL     OW93160  11.523   7.387   4.577
64379SOL    HW193161  11.573   7.301   4.583
64379SOL    HW293162  11.588   7.464   4.574
64380SOL     OW93163  12.399   7.136   5.230
64380SOL    HW193164  12.405   7.059   5.294
64380SOL    HW293165  12.347   7.110   5.150
64381SOL     OW93166  11.493   6.529   3.966
64381SOL    HW193167  11.575   6.568   3.924
64381SOL    HW293168  11.466   6.447   3.917
64382SOL     OW93169  12.630   6.321   4.452
64382SOL    HW193170  12.625   6.256   4.527
64382SOL    HW293171  12.710   6.380   4.465
64383SOL     OW93172  11.633   6.852   5.451
64383SOL    HW193173  11.583   6.853   5.365
64383SOL    HW293174  11.570   6.834   5.527
64384SOL     OW93175  12.283   7.362   3.961
64384SOL    HW193176  12.223   7.300   4.011
64384SOL    HW293177  12.314   7.318   3.876
64385SOL     OW93178  11.374   5.871   5.222
64385SOL    HW193179  11.294   5.931   5.209
64385SOL    HW293180  11.364   5.822   5.308
64386SOL     OW93181  11.636   7.329   4.047
64386SOL    HW193182  11.669   7.368   4.133
64386SOL    HW293183  11.712   7.322   3.982
64387SOL     OW93184  12.572   5.693   4.150
64387SOL    HW193185  12.548   5.656   4.060
64387SOL    HW293186  12.671   5.709   4.154
64388SOL     OW93187  11.421   7.371   4.965
64388SOL    HW193188  11.478   7.306   5.015
64388SOL    HW293189  11.405   7.338   4.872
64389SOL     OW93190  12.112   7.284   4.628
64389SOL    HW193191  12.192   7.227   4.649
64389SOL    HW293192  12.063   7.244   4.551
64390SOL     OW93193  11.554   6.286   4.204
64390SOL    HW193194  11.599   6.196   4.201
64390SOL    HW293195  11.460   6.275   4.237
64391SOL     OW93196  11.786   5.708   3.841
64391SOL    HW193197  11.884   5.686   3.848
64391SOL    HW293198  11.755   5.691   3.748
64392SOL     OW93199  11.953   5.850   5.473
64392SOL    HW193200  12.020   5.789   5.516
64392SOL    HW293201  11.880   5.869   5.538
64393SOL     OW93202  12.060   7.100   4.919
64393SOL    HW193203  12.037   7.075   4.825
64393SOL    HW293204  12.121   7.031   4.958
64394SOL     OW93205  12.523   6.176   5.157
64394SOL    HW193206  12.551   6.133   5.242
64394SOL    HW293207  12.548   6.272   5.158
64395SOL     OW93208  11.975   6.988   4.648
64395SOL    HW193209  12.065   7.002   4.606
64395SOL    HW293210  11.904   6.990   4.577
64396SOL     OW93211  12.094   6.089   4.623
64396SOL    HW193212  12.069   6.080   4.527
64396SOL    HW293213  12.142   6.007   4.654
64397SOL     OW93214  11.711   5.650   4.236
64397SOL    HW193215  11.630   5.651   4.294
64397SOL    HW293216  11.714   5.733   4.181
64398SOL     OW93217  12.606   6.774   3.765
64398SOL    HW193218  12.638   6.698   3.822
64398SOL    HW293219  12.514   6.801   3.795
64399SOL     OW93220  11.469   5.621   3.895
64399SOL    HW193221  11.518   5.705   3.874
64399SOL    HW293222  11.531   5.556   3.940
64400SOL     OW93223  12.107   5.822   4.204
64400SOL    HW193224  12.059   5.863   4.126
64400SOL    HW293225  12.206   5.820   4.185
64401SOL     OW93226  12.248   6.269   5.188
64401SOL    HW193227  12.168   6.208   5.191
64401SOL    HW293228  12.329   6.216   5.164
64402SOL     OW93229  12.399   7.156   4.517
64402SOL    HW193230  12.420   7.230   4.452
64402SOL    HW293231  12.467   7.156   4.590
64403SOL     OW93232  11.631   6.738   4.465
64403SOL    HW193233  11.560   6.711   4.530
64403SOL    HW293234  11.605   6.710   4.372
64404SOL     OW93235  12.443   7.383   4.315
64404SOL    HW193236  12.487   7.447   4.251
64404SOL    HW293237  12.393   7.435   4.385
64405SOL     OW93238  12.204   6.135   3.740
64405SOL    HW193239  12.163   6.217   3.701
64405SOL    HW293240  12.268   6.161   3.813
64406SOL     OW93241  11.250   6.142   5.110
64406SOL    HW193242  11.342   6.141   5.069
64406SOL    HW293243  11.244   6.216   5.177
64407SOL     OW93244  11.733   5.808   4.871
64407SOL    HW193245  11.771   5.724   4.908
64407SOL    HW293246  11.645   5.827   4.915
64408SOL     OW93247  12.038   6.040   4.366
64408SOL    HW193248  12.006   6.112   4.304
64408SOL    HW293249  12.062   5.959   4.313
64409SOL     OW93250  12.189   5.625   4.477
64409SOL    HW193251  12.117   5.630   4.408
64409SOL    HW293252  12.165   5.556   4.546
64410SOL     OW93253  12.601   6.759   4.591
64410SOL    HW193254  12.546   6.675   4.584
64410SOL    HW293255  12.627   6.788   4.499
64411SOL     OW93256  12.638   6.176   4.716
64411SOL    HW193257  12.608   6.081   4.723
64411SOL    HW293258  12.711   6.192   4.782
64412SOL     OW93259  11.660   6.971   3.898
64412SOL    HW193260  11.573   6.956   3.945
64412SOL    HW293261  11.643   6.997   3.803
64413SOL     OW93262  12.562   6.161   3.802
64413SOL    HW193263  12.508   6.140   3.883
64413SOL    HW293264  12.653   6.120   3.811
64414SOL     OW93265  11.699   5.842   4.052
64414SOL    HW193266  11.726   5.783   3.977
64414SOL    HW293267  11.699   5.937   4.021
64415SOL     OW93268  12.236   6.933   5.064
64415SOL    HW193269  12.156   6.910   5.119
64415SOL    HW293270  12.319   6.907   5.113
64416SOL     OW93271  12.764   7.215   5.349
64416SOL    HW193272  12.791   7.249   5.259
64416SOL    HW293273  12.843   7.177   5.395
64417SOL     OW93274  12.283   6.781   4.824
64417SOL    HW193275  12.243   6.825   4.905
64417SOL    HW293276  12.242   6.818   4.741
64418SOL     OW93277  12.087   5.675   5.126
64418SOL    HW193278  12.112   5.655   5.031
64418SOL    HW293279  12.159   5.731   5.168
64419SOL     OW93280  12.152   6.702   5.443
64419SOL    HW193281  12.053   6.708   5.453
64419SOL    HW293282  12.175   6.622   5.387
64420SOL     OW93283  11.877   6.636   4.092
64420SOL    HW193284  11.863   6.643   4.191
64420SOL    HW293285  11.961   6.585   4.074
64421SOL     OW93286  11.582   6.399   4.975
64421SOL    HW193287  11.668   6.411   5.025
64421SOL    HW293288  11.540   6.312   5.002
64422SOL     OW93289  12.446   5.972   4.986
64422SOL    HW193290  12.467   6.046   5.050
64422SOL    HW293291  12.357   5.989   4.943
64423SOL     OW93292  11.236   7.150   5.055
64423SOL    HW193293  11.190   7.232   5.021
64423SOL    HW293294  11.334   7.169   5.064
64424SOL     OW93295  11.539   6.686   4.225
64424SOL    HW193296  11.532   6.769   4.169
64424SOL    HW293297  11.543   6.606   4.165
64425SOL     OW93298  11.738   6.123   4.589
64425SOL    HW193299  11.750   6.189   4.515
64425SOL    HW293300  11.784   6.157   4.672
64426SOL     OW93301  12.424   6.934   4.112
64426SOL    HW193302  12.474   7.011   4.152
64426SOL    HW293303  12.329   6.936   4.144
64427SOL     OW93304  12.444   7.031   4.866
64427SOL    HW193305  12.491   7.044   4.953
64427SOL    HW293306  12.378   6.957   4.875
64428SOL     OW93307  12.754   6.225   4.196
64428SOL    HW193308  12.723   6.286   4.269
64428SOL    HW293309  12.804   6.277   4.127
64429SOL     OW93310  11.526   7.096   5.053
64429SOL    HW193311  11.505   7.052   4.966
64429SOL    HW293312  11.623   7.122   5.056
64430SOL     OW93313  11.574   6.337   5.322
64430SOL    HW193314  11.642   6.392   5.275
64430SOL    HW293315  11.614   6.249   5.349
64431SOL     OW93316  12.185   5.691   5.494
64431SOL    HW193317  12.191   5.776   5.442
64431SOL    HW293318  12.217   5.615   5.437
64432SOL     OW93319  11.676   5.636   5.464
64432SOL    HW193320  11.634   5.579   5.394
64432SOL    HW293321  11.610   5.705   5.496
64433SOL     OW93322  11.745   6.456   4.753
64433SOL    HW193323  11.789   6.545   4.744
64433SOL    HW293324  11.682   6.456   4.830
64434SOL     OW93325  12.532   6.448   4.769
64434SOL    HW193326  12.457   6.448   4.703
64434SOL    HW293327  12.569   6.356   4.778
64435SOL     OW93328  12.381   6.111   3.999
64435SOL    HW193329  12.394   6.027   4.053
64435SOL    HW293330  12.352   6.185   4.059
64436SOL     OW93331  11.479   5.799   4.955
64436SOL    HW193332  11.456   5.836   5.045
64436SOL    HW293333  11.449   5.704   4.949
64437SOL     OW93334  11.209   6.896   5.006
64437SOL    HW193335  11.262   6.847   5.074
64437SOL    HW293336  11.231   6.994   5.011
64438SOL     OW93337  11.904   6.220   4.788
64438SOL    HW193338  11.963   6.194   4.712
64438SOL    HW293339  11.876   6.316   4.777
64439SOL     OW93340  11.479   5.649   4.342
64439SOL    HW193341  11.468   5.743   4.375
64439SOL    HW293342  11.474   5.586   4.419
64440SOL     OW93343  12.794   5.953   4.098
64440SOL    HW193344  12.796   5.877   4.162
64440SOL    HW293345  12.746   6.030   4.138
64441SOL     OW93346  12.195   6.352   4.690
64441SOL    HW193347  12.210   6.373   4.786
64441SOL    HW293348  12.165   6.257   4.681
64442SOL     OW93349  12.152   7.159   5.424
64442SOL    HW193350  12.132   7.203   5.336
64442SOL    HW293351  12.191   7.068   5.408
64443SOL     OW93352  11.522   6.484   5.528
64443SOL    HW193353  11.598   6.528   5.576
64443SOL    HW293354  11.557   6.437   5.446
64444SOL     OW93355  12.712   5.860   3.849
64444SOL    HW193356  12.651   5.785   3.872
64444SOL    HW293357  12.734   5.912   3.932
64445SOL     OW93358  12.475   6.424   3.766
64445SOL    HW193359  12.509   6.331   3.781
64445SOL    HW293360  12.493   6.451   3.671
64446SOL     OW93361  12.240   6.919   4.573
64446SOL    HW193362  12.247   6.835   4.518
64446SOL    HW293363  12.302   6.988   4.537
64447SOL     OW93364  11.491   6.396   4.673
64447SOL    HW193365  11.584   6.432   4.678
64447SOL    HW293366  11.485   6.311   4.725
64448SOL     OW93367  11.511   6.095   4.730
64448SOL    HW193368  11.459   6.012   4.713
64448SOL    HW293369  11.588   6.100   4.666
64449SOL     OW93370  12.310   5.966   5.402
64449SOL    HW193371  12.265   6.029   5.466
64449SOL    HW293372  12.403   5.997   5.385
64450SOL     OW93373  12.332   5.793   5.201
64450SOL    HW193374  12.332   5.857   5.278
64450SOL    HW293375  12.360   5.841   5.118
64451SOL     OW93376  11.180   6.912   3.924
64451SOL    HW193377  11.087   6.933   3.893
64451SOL    HW293378  11.190   6.813   3.937
64452SOL     OW93379  11.260   7.387   4.651
64452SOL    HW193380  11.218   7.301   4.624
64452SOL    HW293381  11.354   7.390   4.617
64453SOL     OW93382  11.676   7.154   4.634
64453SOL    HW193383  11.742   7.228   4.643
64453SOL    HW293384  11.720   7.075   4.592
64454SOL     OW93385  12.174   6.382   4.962
64454SOL    HW193386  12.215   6.350   5.048
64454SOL    HW293387  12.078   6.355   4.959
64455SOL     OW93388  11.212   6.130   4.838
64455SOL    HW193389  11.297   6.097   4.797
64455SOL    HW293390  11.225   6.145   4.936
64456SOL     OW93391  11.361   6.106   5.446
64456SOL    HW193392  11.420   6.066   5.376
64456SOL    HW293393  11.303   6.177   5.405
64457SOL     OW93394  12.541   6.536   5.384
64457SOL    HW193395  12.580   6.625   5.404
64457SOL    HW293396  12.551   6.516   5.287
64458SOL     OW93397  11.987   6.158   4.049
64458SOL    HW193398  11.994   6.069   4.003
64458SOL    HW293399  11.893   6.192   4.041
64459SOL     OW93400  11.424   7.150   5.468
64459SOL    HW193401  11.394   7.207   5.544
64459SOL    HW293402  11.417   7.053   5.494
64460SOL     OW93403  11.843   6.050   4.993
64460SOL    HW193404  11.809   5.961   4.963
64460SOL    HW293405  11.869   6.104   4.913
64461SOL     OW93406  12.102   7.264   5.189
64461SOL    HW193407  12.078   7.246   5.094
64461SOL    HW293408  12.132   7.358   5.199
64462SOL     OW93409  11.645   6.086   3.915
64462SOL    HW193410  11.706   6.166   3.919
64462SOL    HW293411  11.550   6.117   3.922
64463SOL     OW93412  11.331   6.723   5.190
64463SOL    HW193413  11.353   6.662   5.266
64463SOL    HW293414  11.341   6.674   5.104
64464SOL     OW93415  12.519   6.645   4.958
64464SOL    HW193416  12.543   6.582   4.884
64464SOL    HW293417  12.429   6.685   4.940
64465SOL     OW93418  12.474   6.441   4.033
64465SOL    HW193419  12.388   6.410   4.075
64465SOL    HW293420  12.470   6.427   3.934
64466SOL     OW93421  12.424   7.317   4.852
64466SOL    HW193422  12.508   7.322   4.798
64466SOL    HW293423  12.401   7.221   4.870
64467SOL     OW93424  11.255   6.844   4.746
64467SOL    HW193425  11.250   6.843   4.846
64467SOL    HW293426  11.172   6.803   4.708
64468SOL     OW93427  11.860   7.248   5.440
64468SOL    HW193428  11.804   7.329   5.449
64468SOL    HW293429  11.912   7.252   5.354
64469SOL     OW93430  12.898   5.721   4.247
64469SOL    HW193431  12.971   5.704   4.180
64469SOL    HW293432  12.867   5.634   4.285
64470SOL     OW93433  12.560   7.159   4.201
64470SOL    HW193434  12.627   7.171   4.127
64470SOL    HW293435  12.520   7.248   4.224
64471SOL     OW93436  11.302   7.380   5.575
64471SOL    HW193437  11.261   7.306   5.628
64471SOL    HW293438  11.366   7.431   5.633
64472SOL     OW93439  12.452   6.513   4.396
64472SOL    HW193440  12.512   6.432   4.398
64472SOL    HW293441  12.492   6.582   4.336
64473SOL     OW93442  12.002   6.859   5.146
64473SOL    HW193443  11.997   6.892   5.241
64473SOL    HW293444  11.916   6.878   5.100
64474SOL     OW93445  11.844   7.202   3.878
64474SOL    HW193446  11.853   7.212   3.779
64474SOL    HW293447  11.804   7.113   3.899
64475SOL     OW93448  11.435   5.912   4.444
64475SOL    HW193449  11.356   5.963   4.410
64475SOL    HW293450  11.426   5.897   4.542
64476SOL     OW93451  12.366   7.198   3.755
64476SOL    HW193452  12.372   7.105   3.792
64476SOL    HW293453  12.307   7.198   3.675
64477SOL     OW93454  11.994   6.588   5.096
64477SOL    HW193455  12.034   6.587   5.004
64477SOL    HW293456  12.004   6.680   5.136
64478SOL     OW93457  12.088   6.496   4.015
64478SOL    HW193458  12.151   6.534   3.947
64478SOL    HW293459  12.128   6.413   4.054
64479SOL     OW93460  12.676   7.193   3.768
64479SOL    HW193461  12.584   7.230   3.775
64479SOL    HW293462  12.714   7.213   3.678
64480SOL     OW93463  11.544   6.874   5.214
64480SOL    HW193464  11.531   6.967   5.180
64480SOL    HW293465  11.460   6.822   5.201
64481SOL     OW93466  12.211   6.684   4.420
64481SOL    HW193467  12.141   6.637   4.474
64481SOL    HW293468  12.270   6.616   4.377
64482SOL     OW93469  12.186   5.822   4.695
64482SOL    HW193470  12.178   5.786   4.602
64482SOL    HW293471  12.184   5.746   4.760
64483SOL     OW93472  11.762   7.073   4.215
64483SOL    HW193473  11.804   7.015   4.145
64483SOL    HW293474  11.718   7.152   4.171
64484SOL     OW93475  11.427   6.934   4.014
64484SOL    HW193476  11.331   6.935   3.987
64484SOL    HW293477  11.439   6.987   4.098
64485SOL     OW93478  11.277   6.599   5.450
64485SOL    HW193479  11.200   6.566   5.504
64485SOL    HW293480  11.362   6.569   5.492
64486SOL     OW93481  11.844   5.789   5.213
64486SOL    HW193482  11.934   5.773   5.173
64486SOL    HW293483  11.852   5.794   5.312
64487SOL     OW93484  11.247   5.931   3.757
64487SOL    HW193485  11.155   5.903   3.728
64487SOL    HW293486  11.278   6.008   3.701
64488SOL     OW93487  12.612   6.442   5.122
64488SOL    HW193488  12.555   6.494   5.059
64488SOL    HW293489  12.708   6.454   5.098
64489SOL     OW93490  11.244   5.752   4.042
64489SOL    HW193491  11.227   5.835   3.988
64489SOL    HW293492  11.334   5.715   4.020
64490SOL     OW93493  12.355   6.921   3.843
64490SOL    HW193494  12.256   6.910   3.845
64490SOL    HW293495  12.389   6.936   3.936
64491SOL     OW93496  11.785   6.428   5.155
64491SOL    HW193497  11.841   6.509   5.138
64491SOL    HW293498  11.844   6.348   5.158
64492SOL     OW93499  12.665   7.353   4.683
64492SOL    HW193500  12.698   7.417   4.614
64492SOL    HW293501  12.731   7.347   4.758
64493SOL     OW93502  11.888   6.151   5.432
64493SOL    HW193503  11.907   6.216   5.506
64493SOL    HW293504  11.948   6.071   5.441
64494SOL     OW93505  12.622   6.806   5.357
64494SOL    HW193506  12.613   6.796   5.456
64494SOL    HW293507  12.718   6.799   5.331
64495SOL     OW93508  11.562   7.327   5.284
64495SOL    HW193509  11.471   7.368   5.282
64495SOL    HW293510  11.555   7.233   5.316
64496SOL     OW93511  12.397   5.911   4.173
64496SOL    HW193512  12.462   5.837   4.162
64496SOL    HW293513  12.417   5.961   4.257
64497SOL     OW93514  11.766   6.331   4.376
64497SOL    HW193515  11.816   6.416   4.357
64497SOL    HW293516  11.678   6.333   4.328
64498SOL     OW93517  12.031   6.960   3.740
64498SOL    HW193518  11.985   6.975   3.828
64498SOL    HW293519  12.075   7.045   3.710
64499SOL     OW93520  11.833   7.376   4.677
64499SOL    HW193521  11.787   7.464   4.664
64499SOL    HW293522  11.932   7.388   4.670
64500SOL     OW93523  12.031   6.542   4.585
64500SOL    HW193524  12.085   6.473   4.633
64500SOL    HW293525  11.999   6.611   4.651
64501SOL     OW93526  12.255   6.570   3.811
64501SOL    HW193527  12.232   6.623   3.729
64501SOL    HW293528  12.336   6.514   3.792
64502SOL     OW93529  13.033   7.155   4.575
64502SOL    HW193530  12.962   7.143   4.505
64502SOL    HW293531  13.034   7.076   4.635
64503SOL     OW93532  11.393   6.900   5.568
64503SOL    HW193533  11.328   6.827   5.547
64503SOL    HW293534  11.397   6.914   5.666
64504SOL     OW93535  11.251   6.826   4.377
64504SOL    HW193536  11.250   6.779   4.465
64504SOL    HW293537  11.333   6.798   4.326
64505SOL     OW93538  11.844   6.977   5.348
64505SOL    HW193539  11.766   6.927   5.386
64505SOL    HW293540  11.841   7.072   5.379
64506SOL     OW93541  11.600   6.010   4.244
64506SOL    HW193542  11.630   5.938   4.182
64506SOL    HW293543  11.561   5.970   4.327
64507SOL     OW93544  11.489   6.133   5.004
64507SOL    HW193545  11.527   6.074   5.076
64507SOL    HW293546  11.529   6.107   4.916
64508SOL     OW93547  11.984   7.172   4.411
64508SOL    HW193548  12.016   7.182   4.317
64508SOL    HW293549  11.905   7.110   4.413
64509SOL     OW93550  12.596   5.800   4.836
64509SOL    HW193551  12.648   5.735   4.891
64509SOL    HW293552  12.547   5.863   4.897
64510SOL     OW93553  12.173   5.620   4.878
64510SOL    HW193554  12.110   5.548   4.847
64510SOL    HW293555  12.266   5.584   4.878
64511SOL     OW93556  11.942   6.916   4.025
64511SOL    HW193557  11.896   6.829   4.042
64511SOL    HW293558  12.033   6.913   4.066
64512SOL     OW93559  11.790   7.153   5.008
64512SOL    HW193560  11.785   7.235   5.065
64512SOL    HW293561  11.879   7.150   4.963
64513SOL     OW93562  12.524   5.638   3.892
64513SOL    HW193563  12.559   5.597   3.808
64513SOL    HW293564  12.434   5.600   3.912
64514SOL     OW93565  12.472   6.039   4.415
64514SOL    HW193566  12.413   6.119   4.419
64514SOL    HW293567  12.487   6.004   4.508
64515SOL     OW93568  12.765   5.807   4.606
64515SOL    HW193569  12.681   5.806   4.660
64515SOL    HW293570  12.767   5.890   4.550
64516SOL     OW93571  11.211   6.663   4.024
64516SOL    HW193572  11.310   6.652   4.015
64516SOL    HW293573  11.171   6.577   4.056
64517SOL     OW93574  12.047   7.232   4.061
64517SOL    HW193575  11.970   7.197   4.007
64517SOL    HW293576  12.015   7.303   4.123
64518SOL     OW93577  11.402   6.214   5.699
64518SOL    HW193578  11.309   6.212   5.736
64518SOL    HW293579  11.403   6.175   5.607
64519SOL     OW93580  11.397   5.861   6.582
64519SOL    HW193581  11.432   5.844   6.674
64519SOL    HW293582  11.309   5.816   6.570
64520SOL     OW93583  11.191   5.954   6.233
64520SOL    HW193584  11.109   5.997   6.272
64520SOL    HW293585  11.163   5.881   6.170
64521SOL     OW93586  11.741   6.861   6.751
64521SOL    HW193587  11.648   6.854   6.714
64521SOL    HW293588  11.752   6.950   6.795
64522SOL     OW93589  12.727   7.097   6.289
64522SOL    HW193590  12.670   7.081   6.370
64522SOL    HW293591  12.668   7.107   6.209
64523SOL     OW93592  12.307   6.289   6.303
64523SOL    HW193593  12.364   6.367   6.278
64523SOL    HW293594  12.247   6.315   6.379
64524SOL     OW93595  11.940   6.730   6.609
64524SOL    HW193596  11.862   6.747   6.669
64524SOL    HW293597  11.974   6.817   6.573
64525SOL     OW93598  12.022   6.384   7.409
64525SOL    HW193599  12.018   6.460   7.474
64525SOL    HW293600  12.044   6.420   7.318
64526SOL     OW93601  11.857   6.598   6.251
64526SOL    HW193602  11.926   6.582   6.321
64526SOL    HW293603  11.784   6.655   6.289
64527SOL     OW93604  11.858   6.747   7.389
64527SOL    HW193605  11.918   6.826   7.403
64527SOL    HW293606  11.772   6.778   7.348
64528SOL     OW93607  11.507   7.021   6.647
64528SOL    HW193608  11.429   6.990   6.594
64528SOL    HW293609  11.565   7.079   6.590
64529SOL     OW93610  12.632   7.091   6.925
64529SOL    HW193611  12.656   7.185   6.951
64529SOL    HW293612  12.616   7.037   7.007
64530SOL     OW93613  11.610   5.978   7.085
64530SOL    HW193614  11.692   5.922   7.094
64530SOL    HW293615  11.529   5.920   7.089
64531SOL     OW93616  11.403   7.299   6.069
64531SOL    HW193617  11.437   7.376   6.123
64531SOL    HW293618  11.447   7.299   5.979
64532SOL     OW93619  12.299   6.927   7.276
64532SOL    HW193620  12.346   6.927   7.364
64532SOL    HW293621  12.251   6.840   7.265
64533SOL     OW93622  11.402   7.020   6.124
64533SOL    HW193623  11.376   7.116   6.124
64533SOL    HW293624  11.331   6.966   6.169
64534SOL     OW93625  11.412   6.677   6.472
64534SOL    HW193626  11.426   6.593   6.524
64534SOL    HW293627  11.357   6.741   6.527
64535SOL     OW93628  11.792   7.372   7.025
64535SOL    HW193629  11.700   7.355   7.060
64535SOL    HW293630  11.820   7.464   7.051
64536SOL     OW93631  11.778   6.550   5.709
64536SOL    HW193632  11.785   6.634   5.655
64536SOL    HW293633  11.824   6.563   5.797
64537SOL     OW93634  12.766   5.700   7.066
64537SOL    HW193635  12.748   5.767   6.994
64537SOL    HW293636  12.763   5.746   7.155
64538SOL     OW93637  11.294   6.229   6.149
64538SOL    HW193638  11.249   6.141   6.166
64538SOL    HW293639  11.293   6.283   6.233
64539SOL     OW93640  11.199   7.182   5.703
64539SOL    HW193641  11.180   7.086   5.724
64539SOL    HW293642  11.166   7.240   5.778
64540SOL     OW93643  12.861   6.508   6.198
64540SOL    HW193644  12.956   6.479   6.206
64540SOL    HW293645  12.853   6.573   6.123
64541SOL     OW93646  11.285   6.323   7.183
64541SOL    HW193647  11.373   6.310   7.228
64541SOL    HW293648  11.272   6.420   7.161
64542SOL     OW93649  11.785   6.951   6.312
64542SOL    HW193650  11.736   6.864   6.321
64542SOL    HW293651  11.762   6.994   6.225
64543SOL     OW93652  12.465   6.814   7.009
64543SOL    HW193653  12.502   6.741   6.951
64543SOL    HW293654  12.517   6.819   7.094
64544SOL     OW93655  11.981   5.590   6.088
64544SOL    HW193656  12.021   5.681   6.079
64544SOL    HW293657  11.881   5.598   6.094
64545SOL     OW93658  11.369   6.562   6.850
64545SOL    HW193659  11.458   6.517   6.836
64545SOL    HW293660  11.296   6.497   6.831
64546SOL     OW93661  12.359   7.378   7.202
64546SOL    HW193662  12.383   7.438   7.126
64546SOL    HW293663  12.366   7.283   7.172
64547SOL     OW93664  11.489   5.837   7.387
64547SOL    HW193665  11.560   5.908   7.393
64547SOL    HW293666  11.401   5.876   7.415
64548SOL     OW93667  12.638   7.003   6.539
64548SOL    HW193668  12.579   7.009   6.619
64548SOL    HW293669  12.623   6.915   6.493
64549SOL     OW93670  12.839   7.300   6.158
64549SOL    HW193671  12.798   7.277   6.070
64549SOL    HW293672  12.821   7.226   6.223
64550SOL     OW93673  11.770   6.315   5.856
64550SOL    HW193674  11.794   6.384   5.788
64550SOL    HW293675  11.692   6.348   5.910
64551SOL     OW93676  12.453   5.931   6.530
64551SOL    HW193677  12.367   5.881   6.517
64551SOL    HW293678  12.515   5.877   6.586
64552SOL     OW93679  11.979   6.191   7.051
64552SOL    HW193680  11.932   6.188   7.140
64552SOL    HW293681  11.928   6.136   6.985
64553SOL     OW93682  12.566   6.055   7.260
64553SOL    HW193683  12.546   6.098   7.348
64553SOL    HW293684  12.644   5.993   7.269
64554SOL     OW93685  12.145   6.476   7.158
64554SOL    HW193686  12.191   6.392   7.129
64554SOL    HW293687  12.089   6.510   7.083
64555SOL     OW93688  12.163   5.996   6.828
64555SOL    HW193689  12.086   6.030   6.882
64555SOL    HW293690  12.129   5.945   6.749
64556SOL     OW93691  12.213   6.287   6.015
64556SOL    HW193692  12.239   6.283   6.111
64556SOL    HW293693  12.128   6.236   6.001
64557SOL     OW93694  11.248   6.397   6.375
64557SOL    HW193695  11.347   6.385   6.384
64557SOL    HW293696  11.224   6.492   6.396
64558SOL     OW93697  11.302   7.407   7.157
64558SOL    HW193698  11.292   7.392   7.256
64558SOL    HW293699  11.216   7.443   7.121
64559SOL     OW93700  12.037   5.934   5.781
64559SOL    HW193701  12.096   5.997   5.732
64559SOL    HW293702  12.056   5.840   5.752
64560SOL     OW93703  12.534   6.730   6.131
64560SOL    HW193704  12.617   6.701   6.083
64560SOL    HW293705  12.485   6.797   6.075
64561SOL     OW93706  11.722   5.782   6.471
64561SOL    HW193707  11.717   5.777   6.571
64561SOL    HW293708  11.724   5.878   6.442
64562SOL     OW93709  12.180   7.042   6.063
64562SOL    HW193710  12.134   7.114   6.011
64562SOL    HW293711  12.176   7.062   6.161
64563SOL     OW93712  11.523   7.387   6.439
64563SOL    HW193713  11.573   7.301   6.445
64563SOL    HW293714  11.588   7.464   6.436
64564SOL     OW93715  12.399   7.136   7.092
64564SOL    HW193716  12.405   7.059   7.156
64564SOL    HW293717  12.347   7.110   7.012
64565SOL     OW93718  11.493   6.529   5.828
64565SOL    HW193719  11.575   6.568   5.786
64565SOL    HW293720  11.466   6.447   5.779
64566SOL     OW93721  12.630   6.321   6.314
64566SOL    HW193722  12.625   6.256   6.389
64566SOL    HW293723  12.710   6.380   6.327
64567SOL     OW93724  11.633   6.852   7.313
64567SOL    HW193725  11.583   6.853   7.227
64567SOL    HW293726  11.570   6.834   7.389
64568SOL     OW93727  12.283   7.362   5.823
64568SOL    HW193728  12.223   7.300   5.873
64568SOL    HW293729  12.314   7.318   5.738
64569SOL     OW93730  11.374   5.871   7.084
64569SOL    HW193731  11.294   5.931   7.071
64569SOL    HW293732  11.364   5.822   7.170
64570SOL     OW93733  11.636   7.329   5.909
64570SOL    HW193734  11.669   7.368   5.995
64570SOL    HW293735  11.712   7.322   5.844
64571SOL     OW93736  12.572   5.693   6.012
64571SOL    HW193737  12.548   5.656   5.922
64571SOL    HW293738  12.671   5.709   6.016
64572SOL     OW93739  11.421   7.371   6.827
64572SOL    HW193740  11.478   7.306   6.877
64572SOL    HW293741  11.405   7.338   6.734
64573SOL     OW93742  12.112   7.284   6.490
64573SOL    HW193743  12.192   7.227   6.511
64573SOL    HW293744  12.063   7.244   6.413
64574SOL     OW93745  11.554   6.286   6.066
64574SOL    HW193746  11.599   6.196   6.063
64574SOL    HW293747  11.460   6.275   6.099
64575SOL     OW93748  11.786   5.708   5.703
64575SOL    HW193749  11.884   5.686   5.710
64575SOL    HW293750  11.755   5.691   5.610
64576SOL     OW93751  11.953   5.850   7.335
64576SOL    HW193752  12.020   5.789   7.378
64576SOL    HW293753  11.880   5.869   7.400
64577SOL     OW93754  12.060   7.100   6.781
64577SOL    HW193755  12.037   7.075   6.687
64577SOL    HW293756  12.121   7.031   6.820
64578SOL     OW93757  12.523   6.176   7.019
64578SOL    HW193758  12.551   6.133   7.104
64578SOL    HW293759  12.548   6.272   7.020
64579SOL     OW93760  11.975   6.988   6.510
64579SOL    HW193761  12.065   7.002   6.468
64579SOL    HW293762  11.904   6.990   6.439
64580SOL     OW93763  12.094   6.089   6.485
64580SOL    HW193764  12.069   6.080   6.389
64580SOL    HW293765  12.142   6.007   6.516
64581SOL     OW93766  11.711   5.650   6.098
64581SOL    HW193767  11.630   5.651   6.156
64581SOL    HW293768  11.714   5.733   6.043
64582SOL     OW93769  12.606   6.774   5.627
64582SOL    HW193770  12.638   6.698   5.684
64582SOL    HW293771  12.514   6.801   5.657
64583SOL     OW93772  11.469   5.621   5.757
64583SOL    HW193773  11.518   5.705   5.736
64583SOL    HW293774  11.531   5.556   5.802
64584SOL     OW93775  12.107   5.822   6.066
64584SOL    HW193776  12.059   5.863   5.988
64584SOL    HW293777  12.206   5.820   6.047
64585SOL     OW93778  12.248   6.269   7.050
64585SOL    HW193779  12.168   6.208   7.053
64585SOL    HW293780  12.329   6.216   7.026
64586SOL     OW93781  12.399   7.156   6.379
64586SOL    HW193782  12.420   7.230   6.314
64586SOL    HW293783  12.467   7.156   6.452
64587SOL     OW93784  11.631   6.738   6.327
64587SOL    HW193785  11.560   6.711   6.392
64587SOL    HW293786  11.605   6.710   6.234
64588SOL     OW93787  12.443   7.383   6.177
64588SOL    HW193788  12.487   7.447   6.113
64588SOL    HW293789  12.393   7.435   6.247
64589SOL     OW93790  12.204   6.135   5.602
64589SOL    HW193791  12.163   6.217   5.563
64589SOL    HW293792  12.268   6.161   5.675
64590SOL     OW93793  11.250   6.142   6.972
64590SOL    HW193794  11.342   6.141   6.931
64590SOL    HW293795  11.244   6.216   7.039
64591SOL     OW93796  11.733   5.808   6.733
64591SOL    HW193797  11.771   5.724   6.770
64591SOL    HW293798  11.645   5.827   6.777
64592SOL     OW93799  12.038   6.040   6.228
64592SOL    HW193800  12.006   6.112   6.166
64592SOL    HW293801  12.062   5.959   6.175
64593SOL     OW93802  12.189   5.625   6.339
64593SOL    HW193803  12.117   5.630   6.270
64593SOL    HW293804  12.165   5.556   6.408
64594SOL     OW93805  12.601   6.759   6.453
64594SOL    HW193806  12.546   6.675   6.446
64594SOL    HW293807  12.627   6.788   6.361
64595SOL     OW93808  12.638   6.176   6.578
64595SOL    HW193809  12.608   6.081   6.585
64595SOL    HW293810  12.711   6.192   6.644
64596SOL     OW93811  11.660   6.971   5.760
64596SOL    HW193812  11.573   6.956   5.807
64596SOL    HW293813  11.643   6.997   5.665
64597SOL     OW93814  12.562   6.161   5.664
64597SOL    HW193815  12.508   6.140   5.745
64597SOL    HW293816  12.653   6.120   5.673
64598SOL     OW93817  11.699   5.842   5.914
64598SOL    HW193818  11.726   5.783   5.839
64598SOL    HW293819  11.699   5.937   5.883
64599SOL     OW93820  12.236   6.933   6.926
64599SOL    HW193821  12.156   6.910   6.981
64599SOL    HW293822  12.319   6.907   6.975
64600SOL     OW93823  12.764   7.215   7.211
64600SOL    HW193824  12.791   7.249   7.121
64600SOL    HW293825  12.843   7.177   7.257
64601SOL     OW93826  12.283   6.781   6.686
64601SOL    HW193827  12.243   6.825   6.767
64601SOL    HW293828  12.242   6.818   6.603
64602SOL     OW93829  12.087   5.675   6.988
64602SOL    HW193830  12.112   5.655   6.893
64602SOL    HW293831  12.159   5.731   7.030
64603SOL     OW93832  12.152   6.702   7.305
64603SOL    HW193833  12.053   6.708   7.315
64603SOL    HW293834  12.175   6.622   7.249
64604SOL     OW93835  11.877   6.636   5.954
64604SOL    HW193836  11.863   6.643   6.053
64604SOL    HW293837  11.961   6.585   5.936
64605SOL     OW93838  11.582   6.399   6.837
64605SOL    HW193839  11.668   6.411   6.887
64605SOL    HW293840  11.540   6.312   6.864
64606SOL     OW93841  12.446   5.972   6.848
64606SOL    HW193842  12.467   6.046   6.912
64606SOL    HW293843  12.357   5.989   6.805
64607SOL     OW93844  11.236   7.150   6.917
64607SOL    HW193845  11.190   7.232   6.883
64607SOL    HW293846  11.334   7.169   6.926
64608SOL     OW93847  11.539   6.686   6.087
64608SOL    HW193848  11.532   6.769   6.031
64608SOL    HW293849  11.543   6.606   6.027
64609SOL     OW93850  11.738   6.123   6.451
64609SOL    HW193851  11.750   6.189   6.377
64609SOL    HW293852  11.784   6.157   6.534
64610SOL     OW93853  12.424   6.934   5.974
64610SOL    HW193854  12.474   7.011   6.014
64610SOL    HW293855  12.329   6.936   6.006
64611SOL     OW93856  12.444   7.031   6.728
64611SOL    HW193857  12.491   7.044   6.815
64611SOL    HW293858  12.378   6.957   6.737
64612SOL     OW93859  12.754   6.225   6.058
64612SOL    HW193860  12.723   6.286   6.131
64612SOL    HW293861  12.804   6.277   5.989
64613SOL     OW93862  11.526   7.096   6.915
64613SOL    HW193863  11.505   7.052   6.828
64613SOL    HW293864  11.623   7.122   6.918
64614SOL     OW93865  11.574   6.337   7.184
64614SOL    HW193866  11.642   6.392   7.137
64614SOL    HW293867  11.614   6.249   7.211
64615SOL     OW93868  12.185   5.691   7.356
64615SOL    HW193869  12.191   5.776   7.304
64615SOL    HW293870  12.217   5.615   7.299
64616SOL     OW93871  11.676   5.636   7.326
64616SOL    HW193872  11.634   5.579   7.256
64616SOL    HW293873  11.610   5.705   7.358
64617SOL     OW93874  11.745   6.456   6.615
64617SOL    HW193875  11.789   6.545   6.606
64617SOL    HW293876  11.682   6.456   6.692
64618SOL     OW93877  12.532   6.448   6.631
64618SOL    HW193878  12.457   6.448   6.565
64618SOL    HW293879  12.569   6.356   6.640
64619SOL     OW93880  12.381   6.111   5.861
64619SOL    HW193881  12.394   6.027   5.915
64619SOL    HW293882  12.352   6.185   5.921
64620SOL     OW93883  11.479   5.799   6.817
64620SOL    HW193884  11.456   5.836   6.907
64620SOL    HW293885  11.449   5.704   6.811
64621SOL     OW93886  11.209   6.896   6.868
64621SOL    HW193887  11.262   6.847   6.936
64621SOL    HW293888  11.231   6.994   6.873
64622SOL     OW93889  11.904   6.220   6.650
64622SOL    HW193890  11.963   6.194   6.574
64622SOL    HW293891  11.876   6.316   6.639
64623SOL     OW93892  11.479   5.649   6.204
64623SOL    HW193893  11.468   5.743   6.237
64623SOL    HW293894  11.474   5.586   6.281
64624SOL     OW93895  12.794   5.953   5.960
64624SOL    HW193896  12.796   5.877   6.024
64624SOL    HW293897  12.746   6.030   6.000
64625SOL     OW93898  12.195   6.352   6.552
64625SOL    HW193899  12.210   6.373   6.648
64625SOL    HW293900  12.165   6.257   6.543
64626SOL     OW93901  12.152   7.159   7.286
64626SOL    HW193902  12.132   7.203   7.198
64626SOL    HW293903  12.191   7.068   7.270
64627SOL     OW93904  11.522   6.484   7.390
64627SOL    HW193905  11.598   6.528   7.438
64627SOL    HW293906  11.557   6.437   7.308
64628SOL     OW93907  12.712   5.860   5.711
64628SOL    HW193908  12.651   5.785   5.734
64628SOL    HW293909  12.734   5.912   5.794
64629SOL     OW93910  12.475   6.424   5.628
64629SOL    HW193911  12.509   6.331   5.643
64629SOL    HW293912  12.493   6.451   5.533
64630SOL     OW93913  12.240   6.919   6.435
64630SOL    HW193914  12.247   6.835   6.380
64630SOL    HW293915  12.302   6.988   6.399
64631SOL     OW93916  11.491   6.396   6.535
64631SOL    HW193917  11.584   6.432   6.540
64631SOL    HW293918  11.485   6.311   6.587
64632SOL     OW93919  11.511   6.095   6.592
64632SOL    HW193920  11.459   6.012   6.575
64632SOL    HW293921  11.588   6.100   6.528
64633SOL     OW93922  12.310   5.966   7.264
64633SOL    HW193923  12.265   6.029   7.328
64633SOL    HW293924  12.403   5.997   7.247
64634SOL     OW93925  12.332   5.793   7.063
64634SOL    HW193926  12.332   5.857   7.140
64634SOL    HW293927  12.360   5.841   6.980
64635SOL     OW93928  11.180   6.912   5.786
64635SOL    HW193929  11.087   6.933   5.755
64635SOL    HW293930  11.190   6.813   5.799
64636SOL     OW93931  11.260   7.387   6.513
64636SOL    HW193932  11.218   7.301   6.486
64636SOL    HW293933  11.354   7.390   6.479
64637SOL     OW93934  11.676   7.154   6.496
64637SOL    HW193935  11.742   7.228   6.505
64637SOL    HW293936  11.720   7.075   6.454
64638SOL     OW93937  12.174   6.382   6.824
64638SOL    HW193938  12.215   6.350   6.910
64638SOL    HW293939  12.078   6.355   6.821
64639SOL     OW93940  11.212   6.130   6.700
64639SOL    HW193941  11.297   6.097   6.659
64639SOL    HW293942  11.225   6.145   6.798
64640SOL     OW93943  11.361   6.106   7.308
64640SOL    HW193944  11.420   6.066   7.238
64640SOL    HW293945  11.303   6.177   7.267
64641SOL     OW93946  12.541   6.536   7.246
64641SOL    HW193947  12.580   6.625   7.266
64641SOL    HW293948  12.551   6.516   7.149
64642SOL     OW93949  11.987   6.158   5.911
64642SOL    HW193950  11.994   6.069   5.865
64642SOL    HW293951  11.893   6.192   5.903
64643SOL     OW93952  11.424   7.150   7.330
64643SOL    HW193953  11.394   7.207   7.406
64643SOL    HW293954  11.417   7.053   7.356
64644SOL     OW93955  11.843   6.050   6.855
64644SOL    HW193956  11.809   5.961   6.825
64644SOL    HW293957  11.869   6.104   6.775
64645SOL     OW93958  12.102   7.264   7.051
64645SOL    HW193959  12.078   7.246   6.956
64645SOL    HW293960  12.132   7.358   7.061
64646SOL     OW93961  11.645   6.086   5.777
64646SOL    HW193962  11.706   6.166   5.781
64646SOL    HW293963  11.550   6.117   5.784
64647SOL     OW93964  11.331   6.723   7.052
64647SOL    HW193965  11.353   6.662   7.128
64647SOL    HW293966  11.341   6.674   6.966
64648SOL     OW93967  12.519   6.645   6.820
64648SOL    HW193968  12.543   6.582   6.746
64648SOL    HW293969  12.429   6.685   6.802
64649SOL     OW93970  12.474   6.441   5.895
64649SOL    HW193971  12.388   6.410   5.937
64649SOL    HW293972  12.470   6.427   5.796
64650SOL     OW93973  12.424   7.317   6.714
64650SOL    HW193974  12.508   7.322   6.660
64650SOL    HW293975  12.401   7.221   6.732
64651SOL     OW93976  11.255   6.844   6.608
64651SOL    HW193977  11.250   6.843   6.708
64651SOL    HW293978  11.172   6.803   6.570
64652SOL     OW93979  11.860   7.248   7.302
64652SOL    HW193980  11.804   7.329   7.311
64652SOL    HW293981  11.912   7.252   7.216
64653SOL     OW93982  12.898   5.721   6.109
64653SOL    HW193983  12.971   5.704   6.042
64653SOL    HW293984  12.867   5.634   6.147
64654SOL     OW93985  12.560   7.159   6.063
64654SOL    HW193986  12.627   7.171   5.989
64654SOL    HW293987  12.520   7.248   6.086
64655SOL     OW93988  11.302   7.380   7.437
64655SOL    HW193989  11.261   7.306   7.490
64655SOL    HW293990  11.366   7.431   7.495
64656SOL     OW93991  12.452   6.513   6.258
64656SOL    HW193992  12.512   6.432   6.260
64656SOL    HW293993  12.492   6.582   6.198
64657SOL     OW93994  12.002   6.859   7.008
64657SOL    HW193995  11.997   6.892   7.103
64657SOL    HW293996  11.916   6.878   6.962
64658SOL     OW93997  11.844   7.202   5.740
64658SOL    HW193998  11.853   7.212   5.641
64658SOL    HW293999  11.804   7.113   5.761
64659SOL     OW94000  11.435   5.912   6.306
64659SOL    HW194001  11.356   5.963   6.272
64659SOL    HW294002  11.426   5.897   6.404
64660SOL     OW94003  12.366   7.198   5.617
64660SOL    HW194004  12.372   7.105   5.654
64660SOL    HW294005  12.307   7.198   5.537
64661SOL     OW94006  11.994   6.588   6.958
64661SOL    HW194007  12.034   6.587   6.866
64661SOL    HW294008  12.004   6.680   6.998
64662SOL     OW94009  12.088   6.496   5.877
64662SOL    HW194010  12.151   6.534   5.809
64662SOL    HW294011  12.128   6.413   5.916
64663SOL     OW94012  12.676   7.193   5.630
64663SOL    HW194013  12.584   7.230   5.637
64663SOL    HW294014  12.714   7.213   5.540
64664SOL     OW94015  11.544   6.874   7.076
64664SOL    HW194016  11.531   6.967   7.042
64664SOL    HW294017  11.460   6.822   7.063
64665SOL     OW94018  12.211   6.684   6.282
64665SOL    HW194019  12.141   6.637   6.336
64665SOL    HW294020  12.270   6.616   6.239
64666SOL     OW94021  12.186   5.822   6.557
64666SOL    HW194022  12.178   5.786   6.464
64666SOL    HW294023  12.184   5.746   6.622
64667SOL     OW94024  11.762   7.073   6.077
64667SOL    HW194025  11.804   7.015   6.007
64667SOL    HW294026  11.718   7.152   6.033
64668SOL     OW94027  11.427   6.934   5.876
64668SOL    HW194028  11.331   6.935   5.849
64668SOL    HW294029  11.439   6.987   5.960
64669SOL     OW94030  11.277   6.599   7.312
64669SOL    HW194031  11.200   6.566   7.366
64669SOL    HW294032  11.362   6.569   7.354
64670SOL     OW94033  11.844   5.789   7.075
64670SOL    HW194034  11.934   5.773   7.035
64670SOL    HW294035  11.852   5.794   7.174
64671SOL     OW94036  11.247   5.931   5.619
64671SOL    HW194037  11.155   5.903   5.590
64671SOL    HW294038  11.278   6.008   5.563
64672SOL     OW94039  12.612   6.442   6.984
64672SOL    HW194040  12.555   6.494   6.921
64672SOL    HW294041  12.708   6.454   6.960
64673SOL     OW94042  11.244   5.752   5.904
64673SOL    HW194043  11.227   5.835   5.850
64673SOL    HW294044  11.334   5.715   5.882
64674SOL     OW94045  12.355   6.921   5.705
64674SOL    HW194046  12.256   6.910   5.707
64674SOL    HW294047  12.389   6.936   5.798
64675SOL     OW94048  11.785   6.428   7.017
64675SOL    HW194049  11.841   6.509   7.000
64675SOL    HW294050  11.844   6.348   7.020
64676SOL     OW94051  12.665   7.353   6.545
64676SOL    HW194052  12.698   7.417   6.476
64676SOL    HW294053  12.731   7.347   6.620
64677SOL     OW94054  11.888   6.151   7.294
64677SOL    HW194055  11.907   6.216   7.368
64677SOL    HW294056  11.948   6.071   7.303
64678SOL     OW94057  12.622   6.806   7.219
64678SOL    HW194058  12.613   6.796   7.318
64678SOL    HW294059  12.718   6.799   7.193
64679SOL     OW94060  11.562   7.327   7.146
64679SOL    HW194061  11.471   7.368   7.144
64679SOL    HW294062  11.555   7.233   7.178
64680SOL     OW94063  12.397   5.911   6.035
64680SOL    HW194064  12.462   5.837   6.024
64680SOL    HW294065  12.417   5.961   6.119
64681SOL     OW94066  11.766   6.331   6.238
64681SOL    HW194067  11.816   6.416   6.219
64681SOL    HW294068  11.678   6.333   6.190
64682SOL     OW94069  12.031   6.960   5.602
64682SOL    HW194070  11.985   6.975   5.690
64682SOL    HW294071  12.075   7.045   5.572
64683SOL     OW94072  11.833   7.376   6.539
64683SOL    HW194073  11.787   7.464   6.526
64683SOL    HW294074  11.932   7.388   6.532
64684SOL     OW94075  12.031   6.542   6.447
64684SOL    HW194076  12.085   6.473   6.495
64684SOL    HW294077  11.999   6.611   6.513
64685SOL     OW94078  12.255   6.570   5.673
64685SOL    HW194079  12.232   6.623   5.591
64685SOL    HW294080  12.336   6.514   5.654
64686SOL     OW94081  13.033   7.155   6.437
64686SOL    HW194082  12.962   7.143   6.367
64686SOL    HW294083  13.034   7.076   6.497
64687SOL     OW94084  11.393   6.900   7.430
64687SOL    HW194085  11.328   6.827   7.409
64687SOL    HW294086  11.397   6.914   7.528
64688SOL     OW94087  11.251   6.826   6.239
64688SOL    HW194088  11.250   6.779   6.327
64688SOL    HW294089  11.333   6.798   6.188
64689SOL     OW94090  11.844   6.977   7.210
64689SOL    HW194091  11.766   6.927   7.248
64689SOL    HW294092  11.841   7.072   7.241
64690SOL     OW94093  11.600   6.010   6.106
64690SOL    HW194094  11.630   5.938   6.044
64690SOL    HW294095  11.561   5.970   6.189
64691SOL     OW94096  11.489   6.133   6.866
64691SOL    HW194097  11.527   6.074   6.938
64691SOL    HW294098  11.529   6.107   6.778
64692SOL     OW94099  11.984   7.172   6.273
64692SOL    HW194100  12.016   7.182   6.179
64692SOL    HW294101  11.905   7.110   6.275
64693SOL     OW94102  12.596   5.800   6.698
64693SOL    HW194103  12.648   5.735   6.753
64693SOL    HW294104  12.547   5.863   6.759
64694SOL     OW94105  12.173   5.620   6.740
64694SOL    HW194106  12.110   5.548   6.709
64694SOL    HW294107  12.266   5.584   6.740
64695SOL     OW94108  11.942   6.916   5.887
64695SOL    HW194109  11.896   6.829   5.904
64695SOL    HW294110  12.033   6.913   5.928
64696SOL     OW94111  11.790   7.153   6.870
64696SOL    HW194112  11.785   7.235   6.927
64696SOL    HW294113  11.879   7.150   6.825
64697SOL     OW94114  12.524   5.638   5.754
64697SOL    HW194115  12.559   5.597   5.670
64697SOL    HW294116  12.434   5.600   5.774
64698SOL     OW94117  12.472   6.039   6.277
64698SOL    HW194118  12.413   6.119   6.281
64698SOL    HW294119  12.487   6.004   6.370
64699SOL     OW94120  12.765   5.807   6.468
64699SOL    HW194121  12.681   5.806   6.522
64699SOL    HW294122  12.767   5.890   6.412
64700SOL     OW94123  11.211   6.663   5.886
64700SOL    HW194124  11.310   6.652   5.877
64700SOL    HW294125  11.171   6.577   5.918
64701SOL     OW94126  12.047   7.232   5.923
64701SOL    HW194127  11.970   7.197   5.869
64701SOL    HW294128  12.015   7.303   5.985
64702SOL     OW94129  11.402   6.214   7.561
64702SOL    HW194130  11.309   6.212   7.598
64702SOL    HW294131  11.403   6.175   7.469
64703SOL     OW94132  11.397   5.861   8.444
64703SOL    HW194133  11.432   5.844   8.536
64703SOL    HW294134  11.309   5.816   8.432
64704SOL     OW94135  11.191   5.954   8.095
64704SOL    HW194136  11.109   5.997   8.134
64704SOL    HW294137  11.163   5.881   8.032
64705SOL     OW94138  11.741   6.861   8.613
64705SOL    HW194139  11.648   6.854   8.576
64705SOL    HW294140  11.752   6.950   8.657
64706SOL     OW94141  12.727   7.097   8.151
64706SOL    HW194142  12.670   7.081   8.232
64706SOL    HW294143  12.668   7.107   8.071
64707SOL     OW94144  12.307   6.289   8.165
64707SOL    HW194145  12.364   6.367   8.140
64707SOL    HW294146  12.247   6.315   8.241
64708SOL     OW94147  11.940   6.730   8.471
64708SOL    HW194148  11.862   6.747   8.531
64708SOL    HW294149  11.974   6.817   8.435
64709SOL     OW94150  12.022   6.384   9.271
64709SOL    HW194151  12.018   6.460   9.336
64709SOL    HW294152  12.044   6.420   9.180
64710SOL     OW94153  11.857   6.598   8.113
64710SOL    HW194154  11.926   6.582   8.183
64710SOL    HW294155  11.784   6.655   8.151
64711SOL     OW94156  11.858   6.747   9.251
64711SOL    HW194157  11.918   6.826   9.265
64711SOL    HW294158  11.772   6.778   9.210
64712SOL     OW94159  11.507   7.021   8.509
64712SOL    HW194160  11.429   6.990   8.456
64712SOL    HW294161  11.565   7.079   8.452
64713SOL     OW94162  12.632   7.091   8.787
64713SOL    HW194163  12.656   7.185   8.813
64713SOL    HW294164  12.616   7.037   8.869
64714SOL     OW94165  11.610   5.978   8.947
64714SOL    HW194166  11.692   5.922   8.956
64714SOL    HW294167  11.529   5.920   8.951
64715SOL     OW94168  11.403   7.299   7.931
64715SOL    HW194169  11.437   7.376   7.985
64715SOL    HW294170  11.447   7.299   7.841
64716SOL     OW94171  12.299   6.927   9.138
64716SOL    HW194172  12.346   6.927   9.226
64716SOL    HW294173  12.251   6.840   9.127
64717SOL     OW94174  11.402   7.020   7.986
64717SOL    HW194175  11.376   7.116   7.986
64717SOL    HW294176  11.331   6.966   8.031
64718SOL     OW94177  11.412   6.677   8.334
64718SOL    HW194178  11.426   6.593   8.386
64718SOL    HW294179  11.357   6.741   8.389
64719SOL     OW94180  11.792   7.372   8.887
64719SOL    HW194181  11.700   7.355   8.922
64719SOL    HW294182  11.820   7.464   8.913
64720SOL     OW94183  11.778   6.550   7.571
64720SOL    HW194184  11.785   6.634   7.517
64720SOL    HW294185  11.824   6.563   7.659
64721SOL     OW94186  12.766   5.700   8.928
64721SOL    HW194187  12.748   5.767   8.856
64721SOL    HW294188  12.763   5.746   9.017
64722SOL     OW94189  11.294   6.229   8.011
64722SOL    HW194190  11.249   6.141   8.028
64722SOL    HW294191  11.293   6.283   8.095
64723SOL     OW94192  11.199   7.182   7.565
64723SOL    HW194193  11.180   7.086   7.586
64723SOL    HW294194  11.166   7.240   7.640
64724SOL     OW94195  12.861   6.508   8.060
64724SOL    HW194196  12.956   6.479   8.068
64724SOL    HW294197  12.853   6.573   7.985
64725SOL     OW94198  11.285   6.323   9.045
64725SOL    HW194199  11.373   6.310   9.090
64725SOL    HW294200  11.272   6.420   9.023
64726SOL     OW94201  11.785   6.951   8.174
64726SOL    HW194202  11.736   6.864   8.183
64726SOL    HW294203  11.762   6.994   8.087
64727SOL     OW94204  12.465   6.814   8.871
64727SOL    HW194205  12.502   6.741   8.813
64727SOL    HW294206  12.517   6.819   8.956
64728SOL     OW94207  11.981   5.590   7.950
64728SOL    HW194208  12.021   5.681   7.941
64728SOL    HW294209  11.881   5.598   7.956
64729SOL     OW94210  11.369   6.562   8.712
64729SOL    HW194211  11.458   6.517   8.698
64729SOL    HW294212  11.296   6.497   8.693
64730SOL     OW94213  12.359   7.378   9.064
64730SOL    HW194214  12.383   7.438   8.988
64730SOL    HW294215  12.366   7.283   9.034
64731SOL     OW94216  11.489   5.837   9.249
64731SOL    HW194217  11.560   5.908   9.255
64731SOL    HW294218  11.401   5.876   9.277
64732SOL     OW94219  12.638   7.003   8.401
64732SOL    HW194220  12.579   7.009   8.481
64732SOL    HW294221  12.623   6.915   8.355
64733SOL     OW94222  12.839   7.300   8.020
64733SOL    HW194223  12.798   7.277   7.932
64733SOL    HW294224  12.821   7.226   8.085
64734SOL     OW94225  11.770   6.315   7.718
64734SOL    HW194226  11.794   6.384   7.650
64734SOL    HW294227  11.692   6.348   7.772
64735SOL     OW94228  12.453   5.931   8.392
64735SOL    HW194229  12.367   5.881   8.379
64735SOL    HW294230  12.515   5.877   8.448
64736SOL     OW94231  11.979   6.191   8.913
64736SOL    HW194232  11.932   6.188   9.002
64736SOL    HW294233  11.928   6.136   8.847
64737SOL     OW94234  12.566   6.055   9.122
64737SOL    HW194235  12.546   6.098   9.210
64737SOL    HW294236  12.644   5.993   9.131
64738SOL     OW94237  12.145   6.476   9.020
64738SOL    HW194238  12.191   6.392   8.991
64738SOL    HW294239  12.089   6.510   8.945
64739SOL     OW94240  12.163   5.996   8.690
64739SOL    HW194241  12.086   6.030   8.744
64739SOL    HW294242  12.129   5.945   8.611
64740SOL     OW94243  12.213   6.287   7.877
64740SOL    HW194244  12.239   6.283   7.973
64740SOL    HW294245  12.128   6.236   7.863
64741SOL     OW94246  11.248   6.397   8.237
64741SOL    HW194247  11.347   6.385   8.246
64741SOL    HW294248  11.224   6.492   8.258
64742SOL     OW94249  11.302   7.407   9.019
64742SOL    HW194250  11.292   7.392   9.118
64742SOL    HW294251  11.216   7.443   8.983
64743SOL     OW94252  12.037   5.934   7.643
64743SOL    HW194253  12.096   5.997   7.594
64743SOL    HW294254  12.056   5.840   7.614
64744SOL     OW94255  12.534   6.730   7.993
64744SOL    HW194256  12.617   6.701   7.945
64744SOL    HW294257  12.485   6.797   7.937
64745SOL     OW94258  11.722   5.782   8.333
64745SOL    HW194259  11.717   5.777   8.433
64745SOL    HW294260  11.724   5.878   8.304
64746SOL     OW94261  12.180   7.042   7.925
64746SOL    HW194262  12.134   7.114   7.873
64746SOL    HW294263  12.176   7.062   8.023
64747SOL     OW94264  11.523   7.387   8.301
64747SOL    HW194265  11.573   7.301   8.307
64747SOL    HW294266  11.588   7.464   8.298
64748SOL     OW94267  12.399   7.136   8.954
64748SOL    HW194268  12.405   7.059   9.018
64748SOL    HW294269  12.347   7.110   8.874
64749SOL     OW94270  11.493   6.529   7.690
64749SOL    HW194271  11.575   6.568   7.648
64749SOL    HW294272  11.466   6.447   7.641
64750SOL     OW94273  12.630   6.321   8.176
64750SOL    HW194274  12.625   6.256   8.251
64750SOL    HW294275  12.710   6.380   8.189
64751SOL     OW94276  11.633   6.852   9.175
64751SOL    HW194277  11.583   6.853   9.089
64751SOL    HW294278  11.570   6.834   9.251
64752SOL     OW94279  12.283   7.362   7.685
64752SOL    HW194280  12.223   7.300   7.735
64752SOL    HW294281  12.314   7.318   7.600
64753SOL     OW94282  11.374   5.871   8.946
64753SOL    HW194283  11.294   5.931   8.933
64753SOL    HW294284  11.364   5.822   9.032
64754SOL     OW94285  11.636   7.329   7.771
64754SOL    HW194286  11.669   7.368   7.857
64754SOL    HW294287  11.712   7.322   7.706
64755SOL     OW94288  12.572   5.693   7.874
64755SOL    HW194289  12.548   5.656   7.784
64755SOL    HW294290  12.671   5.709   7.878
64756SOL     OW94291  11.421   7.371   8.689
64756SOL    HW194292  11.478   7.306   8.739
64756SOL    HW294293  11.405   7.338   8.596
64757SOL     OW94294  12.112   7.284   8.352
64757SOL    HW194295  12.192   7.227   8.373
64757SOL    HW294296  12.063   7.244   8.275
64758SOL     OW94297  11.554   6.286   7.928
64758SOL    HW194298  11.599   6.196   7.925
64758SOL    HW294299  11.460   6.275   7.961
64759SOL     OW94300  11.786   5.708   7.565
64759SOL    HW194301  11.884   5.686   7.572
64759SOL    HW294302  11.755   5.691   7.472
64760SOL     OW94303  11.953   5.850   9.197
64760SOL    HW194304  12.020   5.789   9.240
64760SOL    HW294305  11.880   5.869   9.262
64761SOL     OW94306  12.060   7.100   8.643
64761SOL    HW194307  12.037   7.075   8.549
64761SOL    HW294308  12.121   7.031   8.682
64762SOL     OW94309  12.523   6.176   8.881
64762SOL    HW194310  12.551   6.133   8.966
64762SOL    HW294311  12.548   6.272   8.882
64763SOL     OW94312  11.975   6.988   8.372
64763SOL    HW194313  12.065   7.002   8.330
64763SOL    HW294314  11.904   6.990   8.301
64764SOL     OW94315  12.094   6.089   8.347
64764SOL    HW194316  12.069   6.080   8.251
64764SOL    HW294317  12.142   6.007   8.378
64765SOL     OW94318  11.711   5.650   7.960
64765SOL    HW194319  11.630   5.651   8.018
64765SOL    HW294320  11.714   5.733   7.905
64766SOL     OW94321  12.606   6.774   7.489
64766SOL    HW194322  12.638   6.698   7.546
64766SOL    HW294323  12.514   6.801   7.519
64767SOL     OW94324  11.469   5.621   7.619
64767SOL    HW194325  11.518   5.705   7.598
64767SOL    HW294326  11.531   5.556   7.664
64768SOL     OW94327  12.107   5.822   7.928
64768SOL    HW194328  12.059   5.863   7.850
64768SOL    HW294329  12.206   5.820   7.909
64769SOL     OW94330  12.248   6.269   8.912
64769SOL    HW194331  12.168   6.208   8.915
64769SOL    HW294332  12.329   6.216   8.888
64770SOL     OW94333  12.399   7.156   8.241
64770SOL    HW194334  12.420   7.230   8.176
64770SOL    HW294335  12.467   7.156   8.314
64771SOL     OW94336  11.631   6.738   8.189
64771SOL    HW194337  11.560   6.711   8.254
64771SOL    HW294338  11.605   6.710   8.096
64772SOL     OW94339  12.443   7.383   8.039
64772SOL    HW194340  12.487   7.447   7.975
64772SOL    HW294341  12.393   7.435   8.109
64773SOL     OW94342  12.204   6.135   7.464
64773SOL    HW194343  12.163   6.217   7.425
64773SOL    HW294344  12.268   6.161   7.537
64774SOL     OW94345  11.250   6.142   8.834
64774SOL    HW194346  11.342   6.141   8.793
64774SOL    HW294347  11.244   6.216   8.901
64775SOL     OW94348  11.733   5.808   8.595
64775SOL    HW194349  11.771   5.724   8.632
64775SOL    HW294350  11.645   5.827   8.639
64776SOL     OW94351  12.038   6.040   8.090
64776SOL    HW194352  12.006   6.112   8.028
64776SOL    HW294353  12.062   5.959   8.037
64777SOL     OW94354  12.189   5.625   8.201
64777SOL    HW194355  12.117   5.630   8.132
64777SOL    HW294356  12.165   5.556   8.270
64778SOL     OW94357  12.601   6.759   8.315
64778SOL    HW194358  12.546   6.675   8.308
64778SOL    HW294359  12.627   6.788   8.223
64779SOL     OW94360  12.638   6.176   8.440
64779SOL    HW194361  12.608   6.081   8.447
64779SOL    HW294362  12.711   6.192   8.506
64780SOL     OW94363  11.660   6.971   7.622
64780SOL    HW194364  11.573   6.956   7.669
64780SOL    HW294365  11.643   6.997   7.527
64781SOL     OW94366  12.562   6.161   7.526
64781SOL    HW194367  12.508   6.140   7.607
64781SOL    HW294368  12.653   6.120   7.535
64782SOL     OW94369  11.699   5.842   7.776
64782SOL    HW194370  11.726   5.783   7.701
64782SOL    HW294371  11.699   5.937   7.745
64783SOL     OW94372  12.236   6.933   8.788
64783SOL    HW194373  12.156   6.910   8.843
64783SOL    HW294374  12.319   6.907   8.837
64784SOL     OW94375  12.764   7.215   9.073
64784SOL    HW194376  12.791   7.249   8.983
64784SOL    HW294377  12.843   7.177   9.119
64785SOL     OW94378  12.283   6.781   8.548
64785SOL    HW194379  12.243   6.825   8.629
64785SOL    HW294380  12.242   6.818   8.465
64786SOL     OW94381  12.087   5.675   8.850
64786SOL    HW194382  12.112   5.655   8.755
64786SOL    HW294383  12.159   5.731   8.892
64787SOL     OW94384  12.152   6.702   9.167
64787SOL    HW194385  12.053   6.708   9.177
64787SOL    HW294386  12.175   6.622   9.111
64788SOL     OW94387  11.877   6.636   7.816
64788SOL    HW194388  11.863   6.643   7.915
64788SOL    HW294389  11.961   6.585   7.798
64789SOL     OW94390  11.582   6.399   8.699
64789SOL    HW194391  11.668   6.411   8.749
64789SOL    HW294392  11.540   6.312   8.726
64790SOL     OW94393  12.446   5.972   8.710
64790SOL    HW194394  12.467   6.046   8.774
64790SOL    HW294395  12.357   5.989   8.667
64791SOL     OW94396  11.236   7.150   8.779
64791SOL    HW194397  11.190   7.232   8.745
64791SOL    HW294398  11.334   7.169   8.788
64792SOL     OW94399  11.539   6.686   7.949
64792SOL    HW194400  11.532   6.769   7.893
64792SOL    HW294401  11.543   6.606   7.889
64793SOL     OW94402  11.738   6.123   8.313
64793SOL    HW194403  11.750   6.189   8.239
64793SOL    HW294404  11.784   6.157   8.396
64794SOL     OW94405  12.424   6.934   7.836
64794SOL    HW194406  12.474   7.011   7.876
64794SOL    HW294407  12.329   6.936   7.868
64795SOL     OW94408  12.444   7.031   8.590
64795SOL    HW194409  12.491   7.044   8.677
64795SOL    HW294410  12.378   6.957   8.599
64796SOL     OW94411  12.754   6.225   7.920
64796SOL    HW194412  12.723   6.286   7.993
64796SOL    HW294413  12.804   6.277   7.851
64797SOL     OW94414  11.526   7.096   8.777
64797SOL    HW194415  11.505   7.052   8.690
64797SOL    HW294416  11.623   7.122   8.780
64798SOL     OW94417  11.574   6.337   9.046
64798SOL    HW194418  11.642   6.392   8.999
64798SOL    HW294419  11.614   6.249   9.073
64799SOL     OW94420  12.185   5.691   9.218
64799SOL    HW194421  12.191   5.776   9.166
64799SOL    HW294422  12.217   5.615   9.161
64800SOL     OW94423  11.676   5.636   9.188
64800SOL    HW194424  11.634   5.579   9.118
64800SOL    HW294425  11.610   5.705   9.220
64801SOL     OW94426  11.745   6.456   8.477
64801SOL    HW194427  11.789   6.545   8.468
64801SOL    HW294428  11.682   6.456   8.554
64802SOL     OW94429  12.532   6.448   8.493
64802SOL    HW194430  12.457   6.448   8.427
64802SOL    HW294431  12.569   6.356   8.502
64803SOL     OW94432  12.381   6.111   7.723
64803SOL    HW194433  12.394   6.027   7.777
64803SOL    HW294434  12.352   6.185   7.783
64804SOL     OW94435  11.479   5.799   8.679
64804SOL    HW194436  11.456   5.836   8.769
64804SOL    HW294437  11.449   5.704   8.673
64805SOL     OW94438  11.209   6.896   8.730
64805SOL    HW194439  11.262   6.847   8.798
64805SOL    HW294440  11.231   6.994   8.735
64806SOL     OW94441  11.904   6.220   8.512
64806SOL    HW194442  11.963   6.194   8.436
64806SOL    HW294443  11.876   6.316   8.501
64807SOL     OW94444  11.479   5.649   8.066
64807SOL    HW194445  11.468   5.743   8.099
64807SOL    HW294446  11.474   5.586   8.143
64808SOL     OW94447  12.794   5.953   7.822
64808SOL    HW194448  12.796   5.877   7.886
64808SOL    HW294449  12.746   6.030   7.862
64809SOL     OW94450  12.195   6.352   8.414
64809SOL    HW194451  12.210   6.373   8.510
64809SOL    HW294452  12.165   6.257   8.405
64810SOL     OW94453  12.152   7.159   9.148
64810SOL    HW194454  12.132   7.203   9.060
64810SOL    HW294455  12.191   7.068   9.132
64811SOL     OW94456  11.522   6.484   9.252
64811SOL    HW194457  11.598   6.528   9.300
64811SOL    HW294458  11.557   6.437   9.170
64812SOL     OW94459  12.712   5.860   7.573
64812SOL    HW194460  12.651   5.785   7.596
64812SOL    HW294461  12.734   5.912   7.656
64813SOL     OW94462  12.475   6.424   7.490
64813SOL    HW194463  12.509   6.331   7.505
64813SOL    HW294464  12.493   6.451   7.395
64814SOL     OW94465  12.240   6.919   8.297
64814SOL    HW194466  12.247   6.835   8.242
64814SOL    HW294467  12.302   6.988   8.261
64815SOL     OW94468  11.491   6.396   8.397
64815SOL    HW194469  11.584   6.432   8.402
64815SOL    HW294470  11.485   6.311   8.449
64816SOL     OW94471  11.511   6.095   8.454
64816SOL    HW194472  11.459   6.012   8.437
64816SOL    HW294473  11.588   6.100   8.390
64817SOL     OW94474  12.310   5.966   9.126
64817SOL    HW194475  12.265   6.029   9.190
64817SOL    HW294476  12.403   5.997   9.109
64818SOL     OW94477  12.332   5.793   8.925
64818SOL    HW194478  12.332   5.857   9.002
64818SOL    HW294479  12.360   5.841   8.842
64819SOL     OW94480  11.180   6.912   7.648
64819SOL    HW194481  11.087   6.933   7.617
64819SOL    HW294482  11.190   6.813   7.661
64820SOL     OW94483  11.260   7.387   8.375
64820SOL    HW194484  11.218   7.301   8.348
64820SOL    HW294485  11.354   7.390   8.341
64821SOL     OW94486  11.676   7.154   8.358
64821SOL    HW194487  11.742   7.228   8.367
64821SOL    HW294488  11.720   7.075   8.316
64822SOL     OW94489  12.174   6.382   8.686
64822SOL    HW194490  12.215   6.350   8.772
64822SOL    HW294491  12.078   6.355   8.683
64823SOL     OW94492  11.212   6.130   8.562
64823SOL    HW194493  11.297   6.097   8.521
64823SOL    HW294494  11.225   6.145   8.660
64824SOL     OW94495  11.361   6.106   9.170
64824SOL    HW194496  11.420   6.066   9.100
64824SOL    HW294497  11.303   6.177   9.129
64825SOL     OW94498  12.541   6.536   9.108
64825SOL    HW194499  12.580   6.625   9.128
64825SOL    HW294500  12.551   6.516   9.011
64826SOL     OW94501  11.987   6.158   7.773
64826SOL    HW194502  11.994   6.069   7.727
64826SOL    HW294503  11.893   6.192   7.765
64827SOL     OW94504  11.424   7.150   9.192
64827SOL    HW194505  11.394   7.207   9.268
64827SOL    HW294506  11.417   7.053   9.218
64828SOL     OW94507  11.843   6.050   8.717
64828SOL    HW194508  11.809   5.961   8.687
64828SOL    HW294509  11.869   6.104   8.637
64829SOL     OW94510  12.102   7.264   8.913
64829SOL    HW194511  12.078   7.246   8.818
64829SOL    HW294512  12.132   7.358   8.923
64830SOL     OW94513  11.645   6.086   7.639
64830SOL    HW194514  11.706   6.166   7.643
64830SOL    HW294515  11.550   6.117   7.646
64831SOL     OW94516  11.331   6.723   8.914
64831SOL    HW194517  11.353   6.662   8.990
64831SOL    HW294518  11.341   6.674   8.828
64832SOL     OW94519  12.519   6.645   8.682
64832SOL    HW194520  12.543   6.582   8.608
64832SOL    HW294521  12.429   6.685   8.664
64833SOL     OW94522  12.474   6.441   7.757
64833SOL    HW194523  12.388   6.410   7.799
64833SOL    HW294524  12.470   6.427   7.658
64834SOL     OW94525  12.424   7.317   8.576
64834SOL    HW194526  12.508   7.322   8.522
64834SOL    HW294527  12.401   7.221   8.594
64835SOL     OW94528  11.255   6.844   8.470
64835SOL    HW194529  11.250   6.843   8.570
64835SOL    HW294530  11.172   6.803   8.432
64836SOL     OW94531  11.860   7.248   9.164
64836SOL    HW194532  11.804   7.329   9.173
64836SOL    HW294533  11.912   7.252   9.078
64837SOL     OW94534  12.898   5.721   7.971
64837SOL    HW194535  12.971   5.704   7.904
64837SOL    HW294536  12.867   5.634   8.009
64838SOL     OW94537  12.560   7.159   7.925
64838SOL    HW194538  12.627   7.171   7.851
64838SOL    HW294539  12.520   7.248   7.948
64839SOL     OW94540  11.302   7.380   9.299
64839SOL    HW194541  11.261   7.306   9.352
64839SOL    HW294542  11.366   7.431   9.357
64840SOL     OW94543  12.452   6.513   8.120
64840SOL    HW194544  12.512   6.432   8.122
64840SOL    HW294545  12.492   6.582   8.060
64841SOL     OW94546  12.002   6.859   8.870
64841SOL    HW194547  11.997   6.892   8.965
64841SOL    HW294548  11.916   6.878   8.824
64842SOL     OW94549  11.844   7.202   7.602
64842SOL    HW194550  11.853   7.212   7.503
64842SOL    HW294551  11.804   7.113   7.623
64843SOL     OW94552  11.435   5.912   8.168
64843SOL    HW194553  11.356   5.963   8.134
64843SOL    HW294554  11.426   5.897   8.266
64844SOL     OW94555  12.366   7.198   7.479
64844SOL    HW194556  12.372   7.105   7.516
64844SOL    HW294557  12.307   7.198   7.399
64845SOL     OW94558  11.994   6.588   8.820
64845SOL    HW194559  12.034   6.587   8.728
64845SOL    HW294560  12.004   6.680   8.860
64846SOL     OW94561  12.088   6.496   7.739
64846SOL    HW194562  12.151   6.534   7.671
64846SOL    HW294563  12.128   6.413   7.778
64847SOL     OW94564  12.676   7.193   7.492
64847SOL    HW194565  12.584   7.230   7.499
64847SOL    HW294566  12.714   7.213   7.402
64848SOL     OW94567  11.544   6.874   8.938
64848SOL    HW194568  11.531   6.967   8.904
64848SOL    HW294569  11.460   6.822   8.925
64849SOL     OW94570  12.211   6.684   8.144
64849SOL    HW194571  12.141   6.637   8.198
64849SOL    HW294572  12.270   6.616   8.101
64850SOL     OW94573  12.186   5.822   8.419
64850SOL    HW194574  12.178   5.786   8.326
64850SOL    HW294575  12.184   5.746   8.484
64851SOL     OW94576  11.762   7.073   7.939
64851SOL    HW194577  11.804   7.015   7.869
64851SOL    HW294578  11.718   7.152   7.895
64852SOL     OW94579  11.427   6.934   7.738
64852SOL    HW194580  11.331   6.935   7.711
64852SOL    HW294581  11.439   6.987   7.822
64853SOL     OW94582  11.277   6.599   9.174
64853SOL    HW194583  11.200   6.566   9.228
64853SOL    HW294584  11.362   6.569   9.216
64854SOL     OW94585  11.844   5.789   8.937
64854SOL    HW194586  11.934   5.773   8.897
64854SOL    HW294587  11.852   5.794   9.036
64855SOL     OW94588  11.247   5.931   7.481
64855SOL    HW194589  11.155   5.903   7.452
64855SOL    HW294590  11.278   6.008   7.425
64856SOL     OW94591  12.612   6.442   8.846
64856SOL    HW194592  12.555   6.494   8.783
64856SOL    HW294593  12.708   6.454   8.822
64857SOL     OW94594  11.244   5.752   7.766
64857SOL    HW194595  11.227   5.835   7.712
64857SOL    HW294596  11.334   5.715   7.744
64858SOL     OW94597  12.355   6.921   7.567
64858SOL    HW194598  12.256   6.910   7.569
64858SOL    HW294599  12.389   6.936   7.660
64859SOL     OW94600  11.785   6.428   8.879
64859SOL    HW194601  11.841   6.509   8.862
64859SOL    HW294602  11.844   6.348   8.882
64860SOL     OW94603  12.665   7.353   8.407
64860SOL    HW194604  12.698   7.417   8.338
64860SOL    HW294605  12.731   7.347   8.482
64861SOL     OW94606  11.888   6.151   9.156
64861SOL    HW194607  11.907   6.216   9.230
64861SOL    HW294608  11.948   6.071   9.165
64862SOL     OW94609  12.622   6.806   9.081
64862SOL    HW194610  12.613   6.796   9.180
64862SOL    HW294611  12.718   6.799   9.055
64863SOL     OW94612  11.562   7.327   9.008
64863SOL    HW194613  11.471   7.368   9.006
64863SOL    HW294614  11.555   7.233   9.040
64864SOL     OW94615  12.397   5.911   7.897
64864SOL    HW194616  12.462   5.837   7.886
64864SOL    HW294617  12.417   5.961   7.981
64865SOL     OW94618  11.766   6.331   8.100
64865SOL    HW194619  11.816   6.416   8.081
64865SOL    HW294620  11.678   6.333   8.052
64866SOL     OW94621  12.031   6.960   7.464
64866SOL    HW194622  11.985   6.975   7.552
64866SOL    HW294623  12.075   7.045   7.434
64867SOL     OW94624  11.833   7.376   8.401
64867SOL    HW194625  11.787   7.464   8.388
64867SOL    HW294626  11.932   7.388   8.394
64868SOL     OW94627  12.031   6.542   8.309
64868SOL    HW194628  12.085   6.473   8.357
64868SOL    HW294629  11.999   6.611   8.375
64869SOL     OW94630  12.255   6.570   7.535
64869SOL    HW194631  12.232   6.623   7.453
64869SOL    HW294632  12.336   6.514   7.516
64870SOL     OW94633  13.033   7.155   8.299
64870SOL    HW194634  12.962   7.143   8.229
64870SOL    HW294635  13.034   7.076   8.359
64871SOL     OW94636  11.393   6.900   9.292
64871SOL    HW194637  11.328   6.827   9.271
64871SOL    HW294638  11.397   6.914   9.390
64872SOL     OW94639  11.251   6.826   8.101
64872SOL    HW194640  11.250   6.779   8.189
64872SOL    HW294641  11.333   6.798   8.050
64873SOL     OW94642  11.844   6.977   9.072
64873SOL    HW194643  11.766   6.927   9.110
64873SOL    HW294644  11.841   7.072   9.103
64874SOL     OW94645  11.600   6.010   7.968
64874SOL    HW194646  11.630   5.938   7.906
64874SOL    HW294647  11.561   5.970   8.051
64875SOL     OW94648  11.489   6.133   8.728
64875SOL    HW194649  11.527   6.074   8.800
64875SOL    HW294650  11.529   6.107   8.640
64876SOL     OW94651  11.984   7.172   8.135
64876SOL    HW194652  12.016   7.182   8.041
64876SOL    HW294653  11.905   7.110   8.137
64877SOL     OW94654  12.596   5.800   8.560
64877SOL    HW194655  12.648   5.735   8.615
64877SOL    HW294656  12.547   5.863   8.621
64878SOL     OW94657  12.173   5.620   8.602
64878SOL    HW194658  12.110   5.548   8.571
64878SOL    HW294659  12.266   5.584   8.602
64879SOL     OW94660  11.942   6.916   7.749
64879SOL    HW194661  11.896   6.829   7.766
64879SOL    HW294662  12.033   6.913   7.790
64880SOL     OW94663  11.790   7.153   8.732
64880SOL    HW194664  11.785   7.235   8.789
64880SOL    HW294665  11.879   7.150   8.687
64881SOL     OW94666  12.524   5.638   7.616
64881SOL    HW194667  12.559   5.597   7.532
64881SOL    HW294668  12.434   5.600   7.636
64882SOL     OW94669  12.472   6.039   8.139
64882SOL    HW194670  12.413   6.119   8.143
64882SOL    HW294671  12.487   6.004   8.232
64883SOL     OW94672  12.765   5.807   8.330
64883SOL    HW194673  12.681   5.806   8.384
64883SOL    HW294674  12.767   5.890   8.274
64884SOL     OW94675  11.211   6.663   7.748
64884SOL    HW194676  11.310   6.652   7.739
64884SOL    HW294677  11.171   6.577   7.780
64885SOL     OW94678  12.047   7.232   7.785
64885SOL    HW194679  11.970   7.197   7.731
64885SOL    HW294680  12.015   7.303   7.847
64886SOL     OW94681  11.402   6.214   9.423
64886SOL    HW194682  11.309   6.212   9.460
64886SOL    HW294683  11.403   6.175   9.331
64887SOL     OW94684  11.397   5.861  10.306
64887SOL    HW194685  11.432   5.844  10.398
64887SOL    HW294686  11.309   5.816  10.294
64888SOL     OW94687  11.191   5.954   9.957
64888SOL    HW194688  11.109   5.997   9.996
64888SOL    HW294689  11.163   5.881   9.894
64889SOL     OW94690  11.741   6.861  10.475
64889SOL    HW194691  11.648   6.854  10.438
64889SOL    HW294692  11.752   6.950  10.519
64890SOL     OW94693  12.727   7.097  10.013
64890SOL    HW194694  12.670   7.081  10.094
64890SOL    HW294695  12.668   7.107   9.933
64891SOL     OW94696  12.307   6.289  10.027
64891SOL    HW194697  12.364   6.367  10.002
64891SOL    HW294698  12.247   6.315  10.103
64892SOL     OW94699  11.940   6.730  10.333
64892SOL    HW194700  11.862   6.747  10.393
64892SOL    HW294701  11.974   6.817  10.297
64893SOL     OW94702  12.022   6.384  11.133
64893SOL    HW194703  12.018   6.460  11.198
64893SOL    HW294704  12.044   6.420  11.042
64894SOL     OW94705  11.857   6.598   9.975
64894SOL    HW194706  11.926   6.582  10.045
64894SOL    HW294707  11.784   6.655  10.013
64895SOL     OW94708  11.858   6.747  11.113
64895SOL    HW194709  11.918   6.826  11.127
64895SOL    HW294710  11.772   6.778  11.072
64896SOL     OW94711  11.507   7.021  10.371
64896SOL    HW194712  11.429   6.990  10.318
64896SOL    HW294713  11.565   7.079  10.314
64897SOL     OW94714  12.632   7.091  10.649
64897SOL    HW194715  12.656   7.185  10.675
64897SOL    HW294716  12.616   7.037  10.731
64898SOL     OW94717  11.610   5.978  10.809
64898SOL    HW194718  11.692   5.922  10.818
64898SOL    HW294719  11.529   5.920  10.813
64899SOL     OW94720  11.403   7.299   9.793
64899SOL    HW194721  11.437   7.376   9.847
64899SOL    HW294722  11.447   7.299   9.703
64900SOL     OW94723  12.299   6.927  11.000
64900SOL    HW194724  12.346   6.927  11.088
64900SOL    HW294725  12.251   6.840  10.989
64901SOL     OW94726  11.402   7.020   9.848
64901SOL    HW194727  11.376   7.116   9.848
64901SOL    HW294728  11.331   6.966   9.893
64902SOL     OW94729  11.412   6.677  10.196
64902SOL    HW194730  11.426   6.593  10.248
64902SOL    HW294731  11.357   6.741  10.251
64903SOL     OW94732  11.792   7.372  10.749
64903SOL    HW194733  11.700   7.355  10.784
64903SOL    HW294734  11.820   7.464  10.775
64904SOL     OW94735  11.778   6.550   9.433
64904SOL    HW194736  11.785   6.634   9.379
64904SOL    HW294737  11.824   6.563   9.521
64905SOL     OW94738  12.766   5.700  10.790
64905SOL    HW194739  12.748   5.767  10.718
64905SOL    HW294740  12.763   5.746  10.879
64906SOL     OW94741  11.294   6.229   9.873
64906SOL    HW194742  11.249   6.141   9.890
64906SOL    HW294743  11.293   6.283   9.957
64907SOL     OW94744  11.199   7.182   9.427
64907SOL    HW194745  11.180   7.086   9.448
64907SOL    HW294746  11.166   7.240   9.502
64908SOL     OW94747  12.861   6.508   9.922
64908SOL    HW194748  12.956   6.479   9.930
64908SOL    HW294749  12.853   6.573   9.847
64909SOL     OW94750  11.285   6.323  10.907
64909SOL    HW194751  11.373   6.310  10.952
64909SOL    HW294752  11.272   6.420  10.885
64910SOL     OW94753  11.785   6.951  10.036
64910SOL    HW194754  11.736   6.864  10.045
64910SOL    HW294755  11.762   6.994   9.949
64911SOL     OW94756  12.465   6.814  10.733
64911SOL    HW194757  12.502   6.741  10.675
64911SOL    HW294758  12.517   6.819  10.818
64912SOL     OW94759  11.981   5.590   9.812
64912SOL    HW194760  12.021   5.681   9.803
64912SOL    HW294761  11.881   5.598   9.818
64913SOL     OW94762  11.369   6.562  10.574
64913SOL    HW194763  11.458   6.517  10.560
64913SOL    HW294764  11.296   6.497  10.555
64914SOL     OW94765  12.359   7.378  10.926
64914SOL    HW194766  12.383   7.438  10.850
64914SOL    HW294767  12.366   7.283  10.896
64915SOL     OW94768  11.489   5.837  11.111
64915SOL    HW194769  11.560   5.908  11.117
64915SOL    HW294770  11.401   5.876  11.139
64916SOL     OW94771  12.638   7.003  10.263
64916SOL    HW194772  12.579   7.009  10.343
64916SOL    HW294773  12.623   6.915  10.217
64917SOL     OW94774  12.839   7.300   9.882
64917SOL    HW194775  12.798   7.277   9.794
64917SOL    HW294776  12.821   7.226   9.947
64918SOL     OW94777  11.770   6.315   9.580
64918SOL    HW194778  11.794   6.384   9.512
64918SOL    HW294779  11.692   6.348   9.634
64919SOL     OW94780  12.453   5.931  10.254
64919SOL    HW194781  12.367   5.881  10.241
64919SOL    HW294782  12.515   5.877  10.310
64920SOL     OW94783  11.979   6.191  10.775
64920SOL    HW194784  11.932   6.188  10.864
64920SOL    HW294785  11.928   6.136  10.709
64921SOL     OW94786  12.566   6.055  10.984
64921SOL    HW194787  12.546   6.098  11.072
64921SOL    HW294788  12.644   5.993  10.993
64922SOL     OW94789  12.145   6.476  10.882
64922SOL    HW194790  12.191   6.392  10.853
64922SOL    HW294791  12.089   6.510  10.807
64923SOL     OW94792  12.163   5.996  10.552
64923SOL    HW194793  12.086   6.030  10.606
64923SOL    HW294794  12.129   5.945  10.473
64924SOL     OW94795  12.213   6.287   9.739
64924SOL    HW194796  12.239   6.283   9.835
64924SOL    HW294797  12.128   6.236   9.725
64925SOL     OW94798  11.248   6.397  10.099
64925SOL    HW194799  11.347   6.385  10.108
64925SOL    HW294800  11.224   6.492  10.120
64926SOL     OW94801  11.302   7.407  10.881
64926SOL    HW194802  11.292   7.392  10.980
64926SOL    HW294803  11.216   7.443  10.845
64927SOL     OW94804  12.037   5.934   9.505
64927SOL    HW194805  12.096   5.997   9.456
64927SOL    HW294806  12.056   5.840   9.476
64928SOL     OW94807  12.534   6.730   9.855
64928SOL    HW194808  12.617   6.701   9.807
64928SOL    HW294809  12.485   6.797   9.799
64929SOL     OW94810  11.722   5.782  10.195
64929SOL    HW194811  11.717   5.777  10.295
64929SOL    HW294812  11.724   5.878  10.166
64930SOL     OW94813  12.180   7.042   9.787
64930SOL    HW194814  12.134   7.114   9.735
64930SOL    HW294815  12.176   7.062   9.885
64931SOL     OW94816  11.523   7.387  10.163
64931SOL    HW194817  11.573   7.301  10.169
64931SOL    HW294818  11.588   7.464  10.160
64932SOL     OW94819  12.399   7.136  10.816
64932SOL    HW194820  12.405   7.059  10.880
64932SOL    HW294821  12.347   7.110  10.736
64933SOL     OW94822  11.493   6.529   9.552
64933SOL    HW194823  11.575   6.568   9.510
64933SOL    HW294824  11.466   6.447   9.503
64934SOL     OW94825  12.630   6.321  10.038
64934SOL    HW194826  12.625   6.256  10.113
64934SOL    HW294827  12.710   6.380  10.051
64935SOL     OW94828  11.633   6.852  11.037
64935SOL    HW194829  11.583   6.853  10.951
64935SOL    HW294830  11.570   6.834  11.113
64936SOL     OW94831  12.283   7.362   9.547
64936SOL    HW194832  12.223   7.300   9.597
64936SOL    HW294833  12.314   7.318   9.462
64937SOL     OW94834  11.374   5.871  10.808
64937SOL    HW194835  11.294   5.931  10.795
64937SOL    HW294836  11.364   5.822  10.894
64938SOL     OW94837  11.636   7.329   9.633
64938SOL    HW194838  11.669   7.368   9.719
64938SOL    HW294839  11.712   7.322   9.568
64939SOL     OW94840  12.572   5.693   9.736
64939SOL    HW194841  12.548   5.656   9.646
64939SOL    HW294842  12.671   5.709   9.740
64940SOL     OW94843  11.421   7.371  10.551
64940SOL    HW194844  11.478   7.306  10.601
64940SOL    HW294845  11.405   7.338  10.458
64941SOL     OW94846  12.112   7.284  10.214
64941SOL    HW194847  12.192   7.227  10.235
64941SOL    HW294848  12.063   7.244  10.137
64942SOL     OW94849  11.554   6.286   9.790
64942SOL    HW194850  11.599   6.196   9.787
64942SOL    HW294851  11.460   6.275   9.823
64943SOL     OW94852  11.786   5.708   9.427
64943SOL    HW194853  11.884   5.686   9.434
64943SOL    HW294854  11.755   5.691   9.334
64944SOL     OW94855  11.953   5.850  11.059
64944SOL    HW194856  12.020   5.789  11.102
64944SOL    HW294857  11.880   5.869  11.124
64945SOL     OW94858  12.060   7.100  10.505
64945SOL    HW194859  12.037   7.075  10.411
64945SOL    HW294860  12.121   7.031  10.544
64946SOL     OW94861  12.523   6.176  10.743
64946SOL    HW194862  12.551   6.133  10.828
64946SOL    HW294863  12.548   6.272  10.744
64947SOL     OW94864  11.975   6.988  10.234
64947SOL    HW194865  12.065   7.002  10.192
64947SOL    HW294866  11.904   6.990  10.163
64948SOL     OW94867  12.094   6.089  10.209
64948SOL    HW194868  12.069   6.080  10.113
64948SOL    HW294869  12.142   6.007  10.240
64949SOL     OW94870  11.711   5.650   9.822
64949SOL    HW194871  11.630   5.651   9.880
64949SOL    HW294872  11.714   5.733   9.767
64950SOL     OW94873  12.606   6.774   9.351
64950SOL    HW194874  12.638   6.698   9.408
64950SOL    HW294875  12.514   6.801   9.381
64951SOL     OW94876  11.469   5.621   9.481
64951SOL    HW194877  11.518   5.705   9.460
64951SOL    HW294878  11.531   5.556   9.526
64952SOL     OW94879  12.107   5.822   9.790
64952SOL    HW194880  12.059   5.863   9.712
64952SOL    HW294881  12.206   5.820   9.771
64953SOL     OW94882  12.248   6.269  10.774
64953SOL    HW194883  12.168   6.208  10.777
64953SOL    HW294884  12.329   6.216  10.750
64954SOL     OW94885  12.399   7.156  10.103
64954SOL    HW194886  12.420   7.230  10.038
64954SOL    HW294887  12.467   7.156  10.176
64955SOL     OW94888  11.631   6.738  10.051
64955SOL    HW194889  11.560   6.711  10.116
64955SOL    HW294890  11.605   6.710   9.958
64956SOL     OW94891  12.443   7.383   9.901
64956SOL    HW194892  12.487   7.447   9.837
64956SOL    HW294893  12.393   7.435   9.971
64957SOL     OW94894  12.204   6.135   9.326
64957SOL    HW194895  12.163   6.217   9.287
64957SOL    HW294896  12.268   6.161   9.399
64958SOL     OW94897  11.250   6.142  10.696
64958SOL    HW194898  11.342   6.141  10.655
64958SOL    HW294899  11.244   6.216  10.763
64959SOL     OW94900  11.733   5.808  10.457
64959SOL    HW194901  11.771   5.724  10.494
64959SOL    HW294902  11.645   5.827  10.501
64960SOL     OW94903  12.038   6.040   9.952
64960SOL    HW194904  12.006   6.112   9.890
64960SOL    HW294905  12.062   5.959   9.899
64961SOL     OW94906  12.189   5.625  10.063
64961SOL    HW194907  12.117   5.630   9.994
64961SOL    HW294908  12.165   5.556  10.132
64962SOL     OW94909  12.601   6.759  10.177
64962SOL    HW194910  12.546   6.675  10.170
64962SOL    HW294911  12.627   6.788  10.085
64963SOL     OW94912  12.638   6.176  10.302
64963SOL    HW194913  12.608   6.081  10.309
64963SOL    HW294914  12.711   6.192  10.368
64964SOL     OW94915  11.660   6.971   9.484
64964SOL    HW194916  11.573   6.956   9.531
64964SOL    HW294917  11.643   6.997   9.389
64965SOL     OW94918  12.562   6.161   9.388
64965SOL    HW194919  12.508   6.140   9.469
64965SOL    HW294920  12.653   6.120   9.397
64966SOL     OW94921  11.699   5.842   9.638
64966SOL    HW194922  11.726   5.783   9.563
64966SOL    HW294923  11.699   5.937   9.607
64967SOL     OW94924  12.236   6.933  10.650
64967SOL    HW194925  12.156   6.910  10.705
64967SOL    HW294926  12.319   6.907  10.699
64968SOL     OW94927  12.764   7.215  10.935
64968SOL    HW194928  12.791   7.249  10.845
64968SOL    HW294929  12.843   7.177  10.981
64969SOL     OW94930  12.283   6.781  10.410
64969SOL    HW194931  12.243   6.825  10.491
64969SOL    HW294932  12.242   6.818  10.327
64970SOL     OW94933  12.087   5.675  10.712
64970SOL    HW194934  12.112   5.655  10.617
64970SOL    HW294935  12.159   5.731  10.754
64971SOL     OW94936  12.152   6.702  11.029
64971SOL    HW194937  12.053   6.708  11.039
64971SOL    HW294938  12.175   6.622  10.973
64972SOL     OW94939  11.877   6.636   9.678
64972SOL    HW194940  11.863   6.643   9.777
64972SOL    HW294941  11.961   6.585   9.660
64973SOL     OW94942  11.582   6.399  10.561
64973SOL    HW194943  11.668   6.411  10.611
64973SOL    HW294944  11.540   6.312  10.588
64974SOL     OW94945  12.446   5.972  10.572
64974SOL    HW194946  12.467   6.046  10.636
64974SOL    HW294947  12.357   5.989  10.529
64975SOL     OW94948  11.236   7.150  10.641
64975SOL    HW194949  11.190   7.232  10.607
64975SOL    HW294950  11.334   7.169  10.650
64976SOL     OW94951  11.539   6.686   9.811
64976SOL    HW194952  11.532   6.769   9.755
64976SOL    HW294953  11.543   6.606   9.751
64977SOL     OW94954  11.738   6.123  10.175
64977SOL    HW194955  11.750   6.189  10.101
64977SOL    HW294956  11.784   6.157  10.258
64978SOL     OW94957  12.424   6.934   9.698
64978SOL    HW194958  12.474   7.011   9.738
64978SOL    HW294959  12.329   6.936   9.730
64979SOL     OW94960  12.444   7.031  10.452
64979SOL    HW194961  12.491   7.044  10.539
64979SOL    HW294962  12.378   6.957  10.461
64980SOL     OW94963  12.754   6.225   9.782
64980SOL    HW194964  12.723   6.286   9.855
64980SOL    HW294965  12.804   6.277   9.713
64981SOL     OW94966  11.526   7.096  10.639
64981SOL    HW194967  11.505   7.052  10.552
64981SOL    HW294968  11.623   7.122  10.642
64982SOL     OW94969  11.574   6.337  10.908
64982SOL    HW194970  11.642   6.392  10.861
64982SOL    HW294971  11.614   6.249  10.935
64983SOL     OW94972  12.185   5.691  11.080
64983SOL    HW194973  12.191   5.776  11.028
64983SOL    HW294974  12.217   5.615  11.023
64984SOL     OW94975  11.676   5.636  11.050
64984SOL    HW194976  11.634   5.579  10.980
64984SOL    HW294977  11.610   5.705  11.082
64985SOL     OW94978  11.745   6.456  10.339
64985SOL    HW194979  11.789   6.545  10.330
64985SOL    HW294980  11.682   6.456  10.416
64986SOL     OW94981  12.532   6.448  10.355
64986SOL    HW194982  12.457   6.448  10.289
64986SOL    HW294983  12.569   6.356  10.364
64987SOL     OW94984  12.381   6.111   9.585
64987SOL    HW194985  12.394   6.027   9.639
64987SOL    HW294986  12.352   6.185   9.645
64988SOL     OW94987  11.479   5.799  10.541
64988SOL    HW194988  11.456   5.836  10.631
64988SOL    HW294989  11.449   5.704  10.535
64989SOL     OW94990  11.209   6.896  10.592
64989SOL    HW194991  11.262   6.847  10.660
64989SOL    HW294992  11.231   6.994  10.597
64990SOL     OW94993  11.904   6.220  10.374
64990SOL    HW194994  11.963   6.194  10.298
64990SOL    HW294995  11.876   6.316  10.363
64991SOL     OW94996  11.479   5.649   9.928
64991SOL    HW194997  11.468   5.743   9.961
64991SOL    HW294998  11.474   5.586  10.005
64992SOL     OW94999  12.794   5.953   9.684
64992SOL    HW195000  12.796   5.877   9.748
64992SOL    HW295001  12.746   6.030   9.724
64993SOL     OW95002  12.195   6.352  10.276
64993SOL    HW195003  12.210   6.373  10.372
64993SOL    HW295004  12.165   6.257  10.267
64994SOL     OW95005  12.152   7.159  11.010
64994SOL    HW195006  12.132   7.203  10.922
64994SOL    HW295007  12.191   7.068  10.994
64995SOL     OW95008  11.522   6.484  11.114
64995SOL    HW195009  11.598   6.528  11.162
64995SOL    HW295010  11.557   6.437  11.032
64996SOL     OW95011  12.712   5.860   9.435
64996SOL    HW195012  12.651   5.785   9.458
64996SOL    HW295013  12.734   5.912   9.518
64997SOL     OW95014  12.475   6.424   9.352
64997SOL    HW195015  12.509   6.331   9.367
64997SOL    HW295016  12.493   6.451   9.257
64998SOL     OW95017  12.240   6.919  10.159
64998SOL    HW195018  12.247   6.835  10.104
64998SOL    HW295019  12.302   6.988  10.123
64999SOL     OW95020  11.491   6.396  10.259
64999SOL    HW195021  11.584   6.432  10.264
64999SOL    HW295022  11.485   6.311  10.311
65000SOL     OW95023  11.511   6.095  10.316
65000SOL    HW195024  11.459   6.012  10.299
65000SOL    HW295025  11.588   6.100  10.252
65001SOL     OW95026  12.310   5.966  10.988
65001SOL    HW195027  12.265   6.029  11.052
65001SOL    HW295028  12.403   5.997  10.971
65002SOL     OW95029  12.332   5.793  10.787
65002SOL    HW195030  12.332   5.857  10.864
65002SOL    HW295031  12.360   5.841  10.704
65003SOL     OW95032  11.180   6.912   9.510
65003SOL    HW195033  11.087   6.933   9.479
65003SOL    HW295034  11.190   6.813   9.523
65004SOL     OW95035  11.260   7.387  10.237
65004SOL    HW195036  11.218   7.301  10.210
65004SOL    HW295037  11.354   7.390  10.203
65005SOL     OW95038  11.676   7.154  10.220
65005SOL    HW195039  11.742   7.228  10.229
65005SOL    HW295040  11.720   7.075  10.178
65006SOL     OW95041  12.174   6.382  10.548
65006SOL    HW195042  12.215   6.350  10.634
65006SOL    HW295043  12.078   6.355  10.545
65007SOL     OW95044  11.212   6.130  10.424
65007SOL    HW195045  11.297   6.097  10.383
65007SOL    HW295046  11.225   6.145  10.522
65008SOL     OW95047  11.361   6.106  11.032
65008SOL    HW195048  11.420   6.066  10.962
65008SOL    HW295049  11.303   6.177  10.991
65009SOL     OW95050  12.541   6.536  10.970
65009SOL    HW195051  12.580   6.625  10.990
65009SOL    HW295052  12.551   6.516  10.873
65010SOL     OW95053  11.987   6.158   9.635
65010SOL    HW195054  11.994   6.069   9.589
65010SOL    HW295055  11.893   6.192   9.627
65011SOL     OW95056  11.424   7.150  11.054
65011SOL    HW195057  11.394   7.207  11.130
65011SOL    HW295058  11.417   7.053  11.080
65012SOL     OW95059  11.843   6.050  10.579
65012SOL    HW195060  11.809   5.961  10.549
65012SOL    HW295061  11.869   6.104  10.499
65013SOL     OW95062  12.102   7.264  10.775
65013SOL    HW195063  12.078   7.246  10.680
65013SOL    HW295064  12.132   7.358  10.785
65014SOL     OW95065  11.645   6.086   9.501
65014SOL    HW195066  11.706   6.166   9.505
65014SOL    HW295067  11.550   6.117   9.508
65015SOL     OW95068  11.331   6.723  10.776
65015SOL    HW195069  11.353   6.662  10.852
65015SOL    HW295070  11.341   6.674  10.690
65016SOL     OW95071  12.519   6.645  10.544
65016SOL    HW195072  12.543   6.582  10.470
65016SOL    HW295073  12.429   6.685  10.526
65017SOL     OW95074  12.474   6.441   9.619
65017SOL    HW195075  12.388   6.410   9.661
65017SOL    HW295076  12.470   6.427   9.520
65018SOL     OW95077  12.424   7.317  10.438
65018SOL    HW195078  12.508   7.322  10.384
65018SOL    HW295079  12.401   7.221  10.456
65019SOL     OW95080  11.255   6.844  10.332
65019SOL    HW195081  11.250   6.843  10.432
65019SOL    HW295082  11.172   6.803  10.294
65020SOL     OW95083  11.860   7.248  11.026
65020SOL    HW195084  11.804   7.329  11.035
65020SOL    HW295085  11.912   7.252  10.940
65021SOL     OW95086  12.898   5.721   9.833
65021SOL    HW195087  12.971   5.704   9.766
65021SOL    HW295088  12.867   5.634   9.871
65022SOL     OW95089  12.560   7.159   9.787
65022SOL    HW195090  12.627   7.171   9.713
65022SOL    HW295091  12.520   7.248   9.810
65023SOL     OW95092  11.302   7.380  11.161
65023SOL    HW195093  11.261   7.306  11.214
65023SOL    HW295094  11.366   7.431  11.219
65024SOL     OW95095  12.452   6.513   9.982
65024SOL    HW195096  12.512   6.432   9.984
65024SOL    HW295097  12.492   6.582   9.922
65025SOL     OW95098  12.002   6.859  10.732
65025SOL    HW195099  11.997   6.892  10.827
65025SOL    HW295100  11.916   6.878  10.686
65026SOL     OW95101  11.844   7.202   9.464
65026SOL    HW195102  11.853   7.212   9.365
65026SOL    HW295103  11.804   7.113   9.485
65027SOL     OW95104  11.435   5.912  10.030
65027SOL    HW195105  11.356   5.963   9.996
65027SOL    HW295106  11.426   5.897  10.128
65028SOL     OW95107  12.366   7.198   9.341
65028SOL    HW195108  12.372   7.105   9.378
65028SOL    HW295109  12.307   7.198   9.261
65029SOL     OW95110  11.994   6.588  10.682
65029SOL    HW195111  12.034   6.587  10.590
65029SOL    HW295112  12.004   6.680  10.722
65030SOL     OW95113  12.088   6.496   9.601
65030SOL    HW195114  12.151   6.534   9.533
65030SOL    HW295115  12.128   6.413   9.640
65031SOL     OW95116  12.676   7.193   9.354
65031SOL    HW195117  12.584   7.230   9.361
65031SOL    HW295118  12.714   7.213   9.264
65032SOL     OW95119  11.544   6.874  10.800
65032SOL    HW195120  11.531   6.967  10.766
65032SOL    HW295121  11.460   6.822  10.787
65033SOL     OW95122  12.211   6.684  10.006
65033SOL    HW195123  12.141   6.637  10.060
65033SOL    HW295124  12.270   6.616   9.963
65034SOL     OW95125  12.186   5.822  10.281
65034SOL    HW195126  12.178   5.786  10.188
65034SOL    HW295127  12.184   5.746  10.346
65035SOL     OW95128  11.762   7.073   9.801
65035SOL    HW195129  11.804   7.015   9.731
65035SOL    HW295130  11.718   7.152   9.757
65036SOL     OW95131  11.427   6.934   9.600
65036SOL    HW195132  11.331   6.935   9.573
65036SOL    HW295133  11.439   6.987   9.684
65037SOL     OW95134  11.277   6.599  11.036
65037SOL    HW195135  11.200   6.566  11.090
65037SOL    HW295136  11.362   6.569  11.078
65038SOL     OW95137  11.844   5.789  10.799
65038SOL    HW195138  11.934   5.773  10.759
65038SOL    HW295139  11.852   5.794  10.898
65039SOL     OW95140  11.247   5.931   9.343
65039SOL    HW195141  11.155   5.903   9.314
65039SOL    HW295142  11.278   6.008   9.287
65040SOL     OW95143  12.612   6.442  10.708
65040SOL    HW195144  12.555   6.494  10.645
65040SOL    HW295145  12.708   6.454  10.684
65041SOL     OW95146  11.244   5.752   9.628
65041SOL    HW195147  11.227   5.835   9.574
65041SOL    HW295148  11.334   5.715   9.606
65042SOL     OW95149  12.355   6.921   9.429
65042SOL    HW195150  12.256   6.910   9.431
65042SOL    HW295151  12.389   6.936   9.522
65043SOL     OW95152  11.785   6.428  10.741
65043SOL    HW195153  11.841   6.509  10.724
65043SOL    HW295154  11.844   6.348  10.744
65044SOL     OW95155  12.665   7.353  10.269
65044SOL    HW195156  12.698   7.417  10.200
65044SOL    HW295157  12.731   7.347  10.344
65045SOL     OW95158  11.888   6.151  11.018
65045SOL    HW195159  11.907   6.216  11.092
65045SOL    HW295160  11.948   6.071  11.027
65046SOL     OW95161  12.622   6.806  10.943
65046SOL    HW195162  12.613   6.796  11.042
65046SOL    HW295163  12.718   6.799  10.917
65047SOL     OW95164  11.562   7.327  10.870
65047SOL    HW195165  11.471   7.368  10.868
65047SOL    HW295166  11.555   7.233  10.902
65048SOL     OW95167  12.397   5.911   9.759
65048SOL    HW195168  12.462   5.837   9.748
65048SOL    HW295169  12.417   5.961   9.843
65049SOL     OW95170  11.766   6.331   9.962
65049SOL    HW195171  11.816   6.416   9.943
65049SOL    HW295172  11.678   6.333   9.914
65050SOL     OW95173  12.031   6.960   9.326
65050SOL    HW195174  11.985   6.975   9.414
65050SOL    HW295175  12.075   7.045   9.296
65051SOL     OW95176  11.833   7.376  10.263
65051SOL    HW195177  11.787   7.464  10.250
65051SOL    HW295178  11.932   7.388  10.256
65052SOL     OW95179  12.031   6.542  10.171
65052SOL    HW195180  12.085   6.473  10.219
65052SOL    HW295181  11.999   6.611  10.237
65053SOL     OW95182  12.255   6.570   9.397
65053SOL    HW195183  12.232   6.623   9.315
65053SOL    HW295184  12.336   6.514   9.378
65054SOL     OW95185  13.033   7.155  10.161
65054SOL    HW195186  12.962   7.143  10.091
65054SOL    HW295187  13.034   7.076  10.221
65055SOL     OW95188  11.393   6.900  11.154
65055SOL    HW195189  11.328   6.827  11.133
65055SOL    HW295190  11.397   6.914  11.252
65056SOL     OW95191  11.251   6.826   9.963
65056SOL    HW195192  11.250   6.779  10.051
65056SOL    HW295193  11.333   6.798   9.912
65057SOL     OW95194  11.844   6.977  10.934
65057SOL    HW195195  11.766   6.927  10.972
65057SOL    HW295196  11.841   7.072  10.965
65058SOL     OW95197  11.600   6.010   9.830
65058SOL    HW195198  11.630   5.938   9.768
65058SOL    HW295199  11.561   5.970   9.913
65059SOL     OW95200  11.489   6.133  10.590
65059SOL    HW195201  11.527   6.074  10.662
65059SOL    HW295202  11.529   6.107  10.502
65060SOL     OW95203  11.984   7.172   9.997
65060SOL    HW195204  12.016   7.182   9.903
65060SOL    HW295205  11.905   7.110   9.999
65061SOL     OW95206  12.596   5.800  10.422
65061SOL    HW195207  12.648   5.735  10.477
65061SOL    HW295208  12.547   5.863  10.483
65062SOL     OW95209  12.173   5.620  10.464
65062SOL    HW195210  12.110   5.548  10.433
65062SOL    HW295211  12.266   5.584  10.464
65063SOL     OW95212  11.942   6.916   9.611
65063SOL    HW195213  11.896   6.829   9.628
65063SOL    HW295214  12.033   6.913   9.652
65064SOL     OW95215  11.790   7.153  10.594
65064SOL    HW195216  11.785   7.235  10.651
65064SOL    HW295217  11.879   7.150  10.549
65065SOL     OW95218  12.524   5.638   9.478
65065SOL    HW195219  12.559   5.597   9.394
65065SOL    HW295220  12.434   5.600   9.498
65066SOL     OW95221  12.472   6.039  10.001
65066SOL    HW195222  12.413   6.119  10.005
65066SOL    HW295223  12.487   6.004  10.094
65067SOL     OW95224  12.765   5.807  10.192
65067SOL    HW195225  12.681   5.806  10.246
65067SOL    HW295226  12.767   5.890  10.136
65068SOL     OW95227  11.211   6.663   9.610
65068SOL    HW195228  11.310   6.652   9.601
65068SOL    HW295229  11.171   6.577   9.642
65069SOL     OW95230  12.047   7.232   9.647
65069SOL    HW195231  11.970   7.197   9.593
65069SOL    HW295232  12.015   7.303   9.709
65070SOL     OW95233  11.402   6.214  11.285
65070SOL    HW195234  11.309   6.212  11.322
65070SOL    HW295235  11.403   6.175  11.193
65071SOL     OW95236  11.397   5.861  12.168
65071SOL    HW195237  11.432   5.844  12.260
65071SOL    HW295238  11.309   5.816  12.156
65072SOL     OW95239  11.191   5.954  11.819
65072SOL    HW195240  11.109   5.997  11.858
65072SOL    HW295241  11.163   5.881  11.756
65073SOL     OW95242  11.741   6.861  12.337
65073SOL    HW195243  11.648   6.854  12.300
65073SOL    HW295244  11.752   6.950  12.381
65074SOL     OW95245  12.727   7.097  11.875
65074SOL    HW195246  12.670   7.081  11.956
65074SOL    HW295247  12.668   7.107  11.795
65075SOL     OW95248  12.307   6.289  11.889
65075SOL    HW195249  12.364   6.367  11.864
65075SOL    HW295250  12.247   6.315  11.965
65076SOL     OW95251  11.940   6.730  12.195
65076SOL    HW195252  11.862   6.747  12.255
65076SOL    HW295253  11.974   6.817  12.159
65077SOL     OW95254  11.857   6.598  11.837
65077SOL    HW195255  11.926   6.582  11.907
65077SOL    HW295256  11.784   6.655  11.875
65078SOL     OW95257  11.507   7.021  12.233
65078SOL    HW195258  11.429   6.990  12.180
65078SOL    HW295259  11.565   7.079  12.176
65079SOL     OW95260  12.632   7.091  12.511
65079SOL    HW195261  12.656   7.185  12.537
65079SOL    HW295262  12.616   7.037  12.593
65080SOL     OW95263  11.610   5.978  12.671
65080SOL    HW195264  11.692   5.922  12.680
65080SOL    HW295265  11.529   5.920  12.675
65081SOL     OW95266  11.403   7.299  11.655
65081SOL    HW195267  11.437   7.376  11.709
65081SOL    HW295268  11.447   7.299  11.565
65082SOL     OW95269  11.402   7.020  11.710
65082SOL    HW195270  11.376   7.116  11.710
65082SOL    HW295271  11.331   6.966  11.755
65083SOL     OW95272  11.412   6.677  12.058
65083SOL    HW195273  11.426   6.593  12.110
65083SOL    HW295274  11.357   6.741  12.113
65084SOL     OW95275  11.792   7.372  12.611
65084SOL    HW195276  11.700   7.355  12.646
65084SOL    HW295277  11.820   7.464  12.637
65085SOL     OW95278  11.778   6.550  11.295
65085SOL    HW195279  11.785   6.634  11.241
65085SOL    HW295280  11.824   6.563  11.383
65086SOL     OW95281  12.766   5.700  12.652
65086SOL    HW195282  12.748   5.767  12.580
65086SOL    HW295283  12.763   5.746  12.741
65087SOL     OW95284  11.294   6.229  11.735
65087SOL    HW195285  11.249   6.141  11.752
65087SOL    HW295286  11.293   6.283  11.819
65088SOL     OW95287  11.199   7.182  11.289
65088SOL    HW195288  11.180   7.086  11.310
65088SOL    HW295289  11.166   7.240  11.364
65089SOL     OW95290  12.861   6.508  11.784
65089SOL    HW195291  12.956   6.479  11.792
65089SOL    HW295292  12.853   6.573  11.709
65090SOL     OW95293  11.285   6.323  12.769
65090SOL    HW195294  11.373   6.310  12.814
65090SOL    HW295295  11.272   6.420  12.747
65091SOL     OW95296  11.785   6.951  11.898
65091SOL    HW195297  11.736   6.864  11.907
65091SOL    HW295298  11.762   6.994  11.811
65092SOL     OW95299  12.465   6.814  12.595
65092SOL    HW195300  12.502   6.741  12.537
65092SOL    HW295301  12.517   6.819  12.680
65093SOL     OW95302  11.981   5.590  11.674
65093SOL    HW195303  12.021   5.681  11.665
65093SOL    HW295304  11.881   5.598  11.680
65094SOL     OW95305  11.369   6.562  12.436
65094SOL    HW195306  11.458   6.517  12.422
65094SOL    HW295307  11.296   6.497  12.417
65095SOL     OW95308  12.638   7.003  12.125
65095SOL    HW195309  12.579   7.009  12.205
65095SOL    HW295310  12.623   6.915  12.079
65096SOL     OW95311  12.839   7.300  11.744
65096SOL    HW195312  12.798   7.277  11.656
65096SOL    HW295313  12.821   7.226  11.809
65097SOL     OW95314  11.770   6.315  11.442
65097SOL    HW195315  11.794   6.384  11.374
65097SOL    HW295316  11.692   6.348  11.496
65098SOL     OW95317  12.453   5.931  12.116
65098SOL    HW195318  12.367   5.881  12.103
65098SOL    HW295319  12.515   5.877  12.172
65099SOL     OW95320  11.979   6.191  12.637
65099SOL    HW195321  11.932   6.188  12.726
65099SOL    HW295322  11.928   6.136  12.571
65100SOL     OW95323  12.145   6.476  12.744
65100SOL    HW195324  12.191   6.392  12.715
65100SOL    HW295325  12.089   6.510  12.669
65101SOL     OW95326  12.163   5.996  12.414
65101SOL    HW195327  12.086   6.030  12.468
65101SOL    HW295328  12.129   5.945  12.335
65102SOL     OW95329  12.213   6.287  11.601
65102SOL    HW195330  12.239   6.283  11.697
65102SOL    HW295331  12.128   6.236  11.587
65103SOL     OW95332  11.248   6.397  11.961
65103SOL    HW195333  11.347   6.385  11.970
65103SOL    HW295334  11.224   6.492  11.982
65104SOL     OW95335  11.302   7.407  12.743
65104SOL    HW195336  11.292   7.392  12.842
65104SOL    HW295337  11.216   7.443  12.707
65105SOL     OW95338  12.037   5.934  11.367
65105SOL    HW195339  12.096   5.997  11.318
65105SOL    HW295340  12.056   5.840  11.338
65106SOL     OW95341  12.534   6.730  11.717
65106SOL    HW195342  12.617   6.701  11.669
65106SOL    HW295343  12.485   6.797  11.661
65107SOL     OW95344  11.722   5.782  12.057
65107SOL    HW195345  11.717   5.777  12.157
65107SOL    HW295346  11.724   5.878  12.028
65108SOL     OW95347  12.180   7.042  11.649
65108SOL    HW195348  12.134   7.114  11.597
65108SOL    HW295349  12.176   7.062  11.747
65109SOL     OW95350  11.523   7.387  12.025
65109SOL    HW195351  11.573   7.301  12.031
65109SOL    HW295352  11.588   7.464  12.022
65110SOL     OW95353  12.399   7.136  12.678
65110SOL    HW195354  12.405   7.059  12.742
65110SOL    HW295355  12.347   7.110  12.598
65111SOL     OW95356  11.493   6.529  11.414
65111SOL    HW195357  11.575   6.568  11.372
65111SOL    HW295358  11.466   6.447  11.365
65112SOL     OW95359  12.630   6.321  11.900
65112SOL    HW195360  12.625   6.256  11.975
65112SOL    HW295361  12.710   6.380  11.913
65113SOL     OW95362  12.283   7.362  11.409
65113SOL    HW195363  12.223   7.300  11.459
65113SOL    HW295364  12.314   7.318  11.324
65114SOL     OW95365  11.374   5.871  12.670
65114SOL    HW195366  11.294   5.931  12.657
65114SOL    HW295367  11.364   5.822  12.756
65115SOL     OW95368  11.636   7.329  11.495
65115SOL    HW195369  11.669   7.368  11.581
65115SOL    HW295370  11.712   7.322  11.430
65116SOL     OW95371  12.572   5.693  11.598
65116SOL    HW195372  12.548   5.656  11.508
65116SOL    HW295373  12.671   5.709  11.602
65117SOL     OW95374  11.421   7.371  12.413
65117SOL    HW195375  11.478   7.306  12.463
65117SOL    HW295376  11.405   7.338  12.320
65118SOL     OW95377  12.112   7.284  12.076
65118SOL    HW195378  12.192   7.227  12.097
65118SOL    HW295379  12.063   7.244  11.999
65119SOL     OW95380  11.554   6.286  11.652
65119SOL    HW195381  11.599   6.196  11.649
65119SOL    HW295382  11.460   6.275  11.685
65120SOL     OW95383  11.786   5.708  11.289
65120SOL    HW195384  11.884   5.686  11.296
65120SOL    HW295385  11.755   5.691  11.196
65121SOL     OW95386  12.060   7.100  12.367
65121SOL    HW195387  12.037   7.075  12.273
65121SOL    HW295388  12.121   7.031  12.406
65122SOL     OW95389  12.523   6.176  12.605
65122SOL    HW195390  12.551   6.133  12.690
65122SOL    HW295391  12.548   6.272  12.606
65123SOL     OW95392  11.975   6.988  12.096
65123SOL    HW195393  12.065   7.002  12.054
65123SOL    HW295394  11.904   6.990  12.025
65124SOL     OW95395  12.094   6.089  12.071
65124SOL    HW195396  12.069   6.080  11.975
65124SOL    HW295397  12.142   6.007  12.102
65125SOL     OW95398  11.711   5.650  11.684
65125SOL    HW195399  11.630   5.651  11.742
65125SOL    HW295400  11.714   5.733  11.629
65126SOL     OW95401  12.606   6.774  11.213
65126SOL    HW195402  12.638   6.698  11.270
65126SOL    HW295403  12.514   6.801  11.243
65127SOL     OW95404  11.469   5.621  11.343
65127SOL    HW195405  11.518   5.705  11.322
65127SOL    HW295406  11.531   5.556  11.388
65128SOL     OW95407  12.107   5.822  11.652
65128SOL    HW195408  12.059   5.863  11.574
65128SOL    HW295409  12.206   5.820  11.633
65129SOL     OW95410  12.248   6.269  12.636
65129SOL    HW195411  12.168   6.208  12.639
65129SOL    HW295412  12.329   6.216  12.612
65130SOL     OW95413  12.399   7.156  11.965
65130SOL    HW195414  12.420   7.230  11.900
65130SOL    HW295415  12.467   7.156  12.038
65131SOL     OW95416  11.631   6.738  11.913
65131SOL    HW195417  11.560   6.711  11.978
65131SOL    HW295418  11.605   6.710  11.820
65132SOL     OW95419  12.443   7.383  11.763
65132SOL    HW195420  12.487   7.447  11.699
65132SOL    HW295421  12.393   7.435  11.833
65133SOL     OW95422  12.204   6.135  11.188
65133SOL    HW195423  12.163   6.217  11.149
65133SOL    HW295424  12.268   6.161  11.261
65134SOL     OW95425  11.250   6.142  12.558
65134SOL    HW195426  11.342   6.141  12.517
65134SOL    HW295427  11.244   6.216  12.625
65135SOL     OW95428  11.733   5.808  12.319
65135SOL    HW195429  11.771   5.724  12.356
65135SOL    HW295430  11.645   5.827  12.363
65136SOL     OW95431  12.038   6.040  11.814
65136SOL    HW195432  12.006   6.112  11.752
65136SOL    HW295433  12.062   5.959  11.761
65137SOL     OW95434  12.189   5.625  11.925
65137SOL    HW195435  12.117   5.630  11.856
65137SOL    HW295436  12.165   5.556  11.994
65138SOL     OW95437  12.601   6.759  12.039
65138SOL    HW195438  12.546   6.675  12.032
65138SOL    HW295439  12.627   6.788  11.947
65139SOL     OW95440  12.638   6.176  12.164
65139SOL    HW195441  12.608   6.081  12.171
65139SOL    HW295442  12.711   6.192  12.230
65140SOL     OW95443  11.660   6.971  11.346
65140SOL    HW195444  11.573   6.956  11.393
65140SOL    HW295445  11.643   6.997  11.251
65141SOL     OW95446  12.562   6.161  11.250
65141SOL    HW195447  12.508   6.140  11.331
65141SOL    HW295448  12.653   6.120  11.259
65142SOL     OW95449  11.699   5.842  11.500
65142SOL    HW195450  11.726   5.783  11.425
65142SOL    HW295451  11.699   5.937  11.469
65143SOL     OW95452  12.236   6.933  12.512
65143SOL    HW195453  12.156   6.910  12.567
65143SOL    HW295454  12.319   6.907  12.561
65144SOL     OW95455  12.283   6.781  12.272
65144SOL    HW195456  12.243   6.825  12.353
65144SOL    HW295457  12.242   6.818  12.189
65145SOL     OW95458  12.087   5.675  12.574
65145SOL    HW195459  12.112   5.655  12.479
65145SOL    HW295460  12.159   5.731  12.616
65146SOL     OW95461  11.877   6.636  11.540
65146SOL    HW195462  11.863   6.643  11.639
65146SOL    HW295463  11.961   6.585  11.522
65147SOL     OW95464  11.582   6.399  12.423
65147SOL    HW195465  11.668   6.411  12.473
65147SOL    HW295466  11.540   6.312  12.450
65148SOL     OW95467  12.446   5.972  12.434
65148SOL    HW195468  12.467   6.046  12.498
65148SOL    HW295469  12.357   5.989  12.391
65149SOL     OW95470  11.236   7.150  12.503
65149SOL    HW195471  11.190   7.232  12.469
65149SOL    HW295472  11.334   7.169  12.512
65150SOL     OW95473  11.539   6.686  11.673
65150SOL    HW195474  11.532   6.769  11.617
65150SOL    HW295475  11.543   6.606  11.613
65151SOL     OW95476  11.738   6.123  12.037
65151SOL    HW195477  11.750   6.189  11.963
65151SOL    HW295478  11.784   6.157  12.120
65152SOL     OW95479  12.424   6.934  11.560
65152SOL    HW195480  12.474   7.011  11.600
65152SOL    HW295481  12.329   6.936  11.592
65153SOL     OW95482  12.444   7.031  12.314
65153SOL    HW195483  12.491   7.044  12.401
65153SOL    HW295484  12.378   6.957  12.323
65154SOL     OW95485  12.754   6.225  11.644
65154SOL    HW195486  12.723   6.286  11.717
65154SOL    HW295487  12.804   6.277  11.575
65155SOL     OW95488  11.526   7.096  12.501
65155SOL    HW195489  11.505   7.052  12.414
65155SOL    HW295490  11.623   7.122  12.504
65156SOL     OW95491  11.574   6.337  12.770
65156SOL    HW195492  11.642   6.392  12.723
65156SOL    HW295493  11.614   6.249  12.797
65157SOL     OW95494  11.745   6.456  12.201
65157SOL    HW195495  11.789   6.545  12.192
65157SOL    HW295496  11.682   6.456  12.278
65158SOL     OW95497  12.532   6.448  12.217
65158SOL    HW195498  12.457   6.448  12.151
65158SOL    HW295499  12.569   6.356  12.226
65159SOL     OW95500  12.381   6.111  11.447
65159SOL    HW195501  12.394   6.027  11.501
65159SOL    HW295502  12.352   6.185  11.507
65160SOL     OW95503  11.479   5.799  12.403
65160SOL    HW195504  11.456   5.836  12.493
65160SOL    HW295505  11.449   5.704  12.397
65161SOL     OW95506  11.209   6.896  12.454
65161SOL    HW195507  11.262   6.847  12.522
65161SOL    HW295508  11.231   6.994  12.459
65162SOL     OW95509  11.904   6.220  12.236
65162SOL    HW195510  11.963   6.194  12.160
65162SOL    HW295511  11.876   6.316  12.225
65163SOL     OW95512  11.479   5.649  11.790
65163SOL    HW195513  11.468   5.743  11.823
65163SOL    HW295514  11.474   5.586  11.867
65164SOL     OW95515  12.794   5.953  11.546
65164SOL    HW195516  12.796   5.877  11.610
65164SOL    HW295517  12.746   6.030  11.586
65165SOL     OW95518  12.195   6.352  12.138
65165SOL    HW195519  12.210   6.373  12.234
65165SOL    HW295520  12.165   6.257  12.129
65166SOL     OW95521  12.712   5.860  11.297
65166SOL    HW195522  12.651   5.785  11.320
65166SOL    HW295523  12.734   5.912  11.380
65167SOL     OW95524  12.475   6.424  11.214
65167SOL    HW195525  12.509   6.331  11.229
65167SOL    HW295526  12.493   6.451  11.119
65168SOL     OW95527  12.240   6.919  12.021
65168SOL    HW195528  12.247   6.835  11.966
65168SOL    HW295529  12.302   6.988  11.985
65169SOL     OW95530  11.491   6.396  12.121
65169SOL    HW195531  11.584   6.432  12.126
65169SOL    HW295532  11.485   6.311  12.173
65170SOL     OW95533  11.511   6.095  12.178
65170SOL    HW195534  11.459   6.012  12.161
65170SOL    HW295535  11.588   6.100  12.114
65171SOL     OW95536  12.332   5.793  12.649
65171SOL    HW195537  12.332   5.857  12.726
65171SOL    HW295538  12.360   5.841  12.566
65172SOL     OW95539  11.180   6.912  11.372
65172SOL    HW195540  11.087   6.933  11.341
65172SOL    HW295541  11.190   6.813  11.385
65173SOL     OW95542  11.260   7.387  12.099
65173SOL    HW195543  11.218   7.301  12.072
65173SOL    HW295544  11.354   7.390  12.065
65174SOL     OW95545  11.676   7.154  12.082
65174SOL    HW195546  11.742   7.228  12.091
65174SOL    HW295547  11.720   7.075  12.040
65175SOL     OW95548  12.174   6.382  12.410
65175SOL    HW195549  12.215   6.350  12.496
65175SOL    HW295550  12.078   6.355  12.407
65176SOL     OW95551  11.212   6.130  12.286
65176SOL    HW195552  11.297   6.097  12.245
65176SOL    HW295553  11.225   6.145  12.384
65177SOL     OW95554  11.987   6.158  11.497
65177SOL    HW195555  11.994   6.069  11.451
65177SOL    HW295556  11.893   6.192  11.489
65178SOL     OW95557  11.424   7.150  12.916
65178SOL    HW195558  11.394   7.207  12.992
65178SOL    HW295559  11.417   7.053  12.942
65179SOL     OW95560  11.843   6.050  12.441
65179SOL    HW195561  11.809   5.961  12.411
65179SOL    HW295562  11.869   6.104  12.361
65180SOL     OW95563  12.102   7.264  12.637
65180SOL    HW195564  12.078   7.246  12.542
65180SOL    HW295565  12.132   7.358  12.647
65181SOL     OW95566  11.645   6.086  11.363
65181SOL    HW195567  11.706   6.166  11.367
65181SOL    HW295568  11.550   6.117  11.370
65182SOL     OW95569  11.331   6.723  12.638
65182SOL    HW195570  11.353   6.662  12.714
65182SOL    HW295571  11.341   6.674  12.552
65183SOL     OW95572  12.519   6.645  12.406
65183SOL    HW195573  12.543   6.582  12.332
65183SOL    HW295574  12.429   6.685  12.388
65184SOL     OW95575  12.474   6.441  11.481
65184SOL    HW195576  12.388   6.410  11.523
65184SOL    HW295577  12.470   6.427  11.382
65185SOL     OW95578  12.424   7.317  12.300
65185SOL    HW195579  12.508   7.322  12.246
65185SOL    HW295580  12.401   7.221  12.318
65186SOL     OW95581  11.255   6.844  12.194
65186SOL    HW195582  11.250   6.843  12.294
65186SOL    HW295583  11.172   6.803  12.156
65187SOL     OW95584  12.898   5.721  11.695
65187SOL    HW195585  12.971   5.704  11.628
65187SOL    HW295586  12.867   5.634  11.733
65188SOL     OW95587  12.560   7.159  11.649
65188SOL    HW195588  12.627   7.171  11.575
65188SOL    HW295589  12.520   7.248  11.672
65189SOL     OW95590  12.452   6.513  11.844
65189SOL    HW195591  12.512   6.432  11.846
65189SOL    HW295592  12.492   6.582  11.784
65190SOL     OW95593  12.002   6.859  12.594
65190SOL    HW195594  11.997   6.892  12.689
65190SOL    HW295595  11.916   6.878  12.548
65191SOL     OW95596  11.844   7.202  11.326
65191SOL    HW195597  11.853   7.212  11.227
65191SOL    HW295598  11.804   7.113  11.347
65192SOL     OW95599  11.435   5.912  11.892
65192SOL    HW195600  11.356   5.963  11.858
65192SOL    HW295601  11.426   5.897  11.990
65193SOL     OW95602  12.366   7.198  11.203
65193SOL    HW195603  12.372   7.105  11.240
65193SOL    HW295604  12.307   7.198  11.123
65194SOL     OW95605  11.994   6.588  12.544
65194SOL    HW195606  12.034   6.587  12.452
65194SOL    HW295607  12.004   6.680  12.584
65195SOL     OW95608  12.088   6.496  11.463
65195SOL    HW195609  12.151   6.534  11.395
65195SOL    HW295610  12.128   6.413  11.502
65196SOL     OW95611  12.676   7.193  11.216
65196SOL    HW195612  12.584   7.230  11.223
65196SOL    HW295613  12.714   7.213  11.126
65197SOL     OW95614  11.544   6.874  12.662
65197SOL    HW195615  11.531   6.967  12.628
65197SOL    HW295616  11.460   6.822  12.649
65198SOL     OW95617  12.211   6.684  11.868
65198SOL    HW195618  12.141   6.637  11.922
65198SOL    HW295619  12.270   6.616  11.825
65199SOL     OW95620  12.186   5.822  12.143
65199SOL    HW195621  12.178   5.786  12.050
65199SOL    HW295622  12.184   5.746  12.208
65200SOL     OW95623  11.762   7.073  11.663
65200SOL    HW195624  11.804   7.015  11.593
65200SOL    HW295625  11.718   7.152  11.619
65201SOL     OW95626  11.427   6.934  11.462
65201SOL    HW195627  11.331   6.935  11.435
65201SOL    HW295628  11.439   6.987  11.546
65202SOL     OW95629  11.277   6.599  12.898
65202SOL    HW195630  11.200   6.566  12.952
65202SOL    HW295631  11.362   6.569  12.940
65203SOL     OW95632  11.844   5.789  12.661
65203SOL    HW195633  11.934   5.773  12.621
65203SOL    HW295634  11.852   5.794  12.760
65204SOL     OW95635  11.247   5.931  11.205
65204SOL    HW195636  11.155   5.903  11.176
65204SOL    HW295637  11.278   6.008  11.149
65205SOL     OW95638  12.612   6.442  12.570
65205SOL    HW195639  12.555   6.494  12.507
65205SOL    HW295640  12.708   6.454  12.546
65206SOL     OW95641  11.244   5.752  11.490
65206SOL    HW195642  11.227   5.835  11.436
65206SOL    HW295643  11.334   5.715  11.468
65207SOL     OW95644  12.355   6.921  11.291
65207SOL    HW195645  12.256   6.910  11.293
65207SOL    HW295646  12.389   6.936  11.384
65208SOL     OW95647  11.785   6.428  12.603
65208SOL    HW195648  11.841   6.509  12.586
65208SOL    HW295649  11.844   6.348  12.606
65209SOL     OW95650  12.665   7.353  12.131
65209SOL    HW195651  12.698   7.417  12.062
65209SOL    HW295652  12.731   7.347  12.206
65210SOL     OW95653  11.888   6.151  12.880
65210SOL    HW195654  11.907   6.216  12.954
65210SOL    HW295655  11.948   6.071  12.889
65211SOL     OW95656  11.562   7.327  12.732
65211SOL    HW195657  11.471   7.368  12.730
65211SOL    HW295658  11.555   7.233  12.764
65212SOL     OW95659  12.397   5.911  11.621
65212SOL    HW195660  12.462   5.837  11.610
65212SOL    HW295661  12.417   5.961  11.705
65213SOL     OW95662  11.766   6.331  11.824
65213SOL    HW195663  11.816   6.416  11.805
65213SOL    HW295664  11.678   6.333  11.776
65214SOL     OW95665  12.031   6.960  11.188
65214SOL    HW195666  11.985   6.975  11.276
65214SOL    HW295667  12.075   7.045  11.158
65215SOL     OW95668  11.833   7.376  12.125
65215SOL    HW195669  11.787   7.464  12.112
65215SOL    HW295670  11.932   7.388  12.118
65216SOL     OW95671  12.031   6.542  12.033
65216SOL    HW195672  12.085   6.473  12.081
65216SOL    HW295673  11.999   6.611  12.099
65217SOL     OW95674  12.255   6.570  11.259
65217SOL    HW195675  12.232   6.623  11.177
65217SOL    HW295676  12.336   6.514  11.240
65218SOL     OW95677  13.033   7.155  12.023
65218SOL    HW195678  12.962   7.143  11.953
65218SOL    HW295679  13.034   7.076  12.083
65219SOL     OW95680  11.251   6.826  11.825
65219SOL    HW195681  11.250   6.779  11.913
65219SOL    HW295682  11.333   6.798  11.774
65220SOL     OW95683  11.844   6.977  12.796
65220SOL    HW195684  11.766   6.927  12.834
65220SOL    HW295685  11.841   7.072  12.827
65221SOL     OW95686  11.600   6.010  11.692
65221SOL    HW195687  11.630   5.938  11.630
65221SOL    HW295688  11.561   5.970  11.775
65222SOL     OW95689  11.489   6.133  12.452
65222SOL    HW195690  11.527   6.074  12.524
65222SOL    HW295691  11.529   6.107  12.364
65223SOL     OW95692  11.984   7.172  11.859
65223SOL    HW195693  12.016   7.182  11.765
65223SOL    HW295694  11.905   7.110  11.861
65224SOL     OW95695  12.596   5.800  12.284
65224SOL    HW195696  12.648   5.735  12.339
65224SOL    HW295697  12.547   5.863  12.345
65225SOL     OW95698  12.173   5.620  12.326
65225SOL    HW195699  12.110   5.548  12.295
65225SOL    HW295700  12.266   5.584  12.326
65226SOL     OW95701  11.942   6.916  11.473
65226SOL    HW195702  11.896   6.829  11.490
65226SOL    HW295703  12.033   6.913  11.514
65227SOL     OW95704  11.790   7.153  12.456
65227SOL    HW195705  11.785   7.235  12.513
65227SOL    HW295706  11.879   7.150  12.411
65228SOL     OW95707  12.524   5.638  11.340
65228SOL    HW195708  12.559   5.597  11.256
65228SOL    HW295709  12.434   5.600  11.360
65229SOL     OW95710  12.472   6.039  11.863
65229SOL    HW195711  12.413   6.119  11.867
65229SOL    HW295712  12.487   6.004  11.956
65230SOL     OW95713  12.765   5.807  12.054
65230SOL    HW195714  12.681   5.806  12.108
65230SOL    HW295715  12.767   5.890  11.998
65231SOL     OW95716  11.211   6.663  11.472
65231SOL    HW195717  11.310   6.652  11.463
65231SOL    HW295718  11.171   6.577  11.504
65232SOL     OW95719  12.047   7.232  11.509
65232SOL    HW195720  11.970   7.197  11.455
65232SOL    HW295721  12.015   7.303  11.571
65233SOL     OW95722  11.402   8.076   0.113
65233SOL    HW195723  11.309   8.074   0.150
65233SOL    HW295724  11.403   8.037   0.021
65234SOL     OW95725  11.397   7.723   0.996
65234SOL    HW195726  11.432   7.706   1.088
65234SOL    HW295727  11.309   7.678   0.984
65235SOL     OW95728  11.191   7.816   0.647
65235SOL    HW195729  11.109   7.859   0.686
65235SOL    HW295730  11.163   7.743   0.584
65236SOL     OW95731  11.741   8.723   1.165
65236SOL    HW195732  11.648   8.716   1.128
65236SOL    HW295733  11.752   8.812   1.209
65237SOL     OW95734  12.727   8.959   0.703
65237SOL    HW195735  12.670   8.943   0.784
65237SOL    HW295736  12.668   8.969   0.623
65238SOL     OW95737  12.307   8.151   0.717
65238SOL    HW195738  12.364   8.229   0.692
65238SOL    HW295739  12.247   8.177   0.793
65239SOL     OW95740  11.940   8.592   1.023
65239SOL    HW195741  11.862   8.609   1.083
65239SOL    HW295742  11.974   8.679   0.987
65240SOL     OW95743  12.022   8.246   1.823
65240SOL    HW195744  12.018   8.322   1.888
65240SOL    HW295745  12.044   8.282   1.732
65241SOL     OW95746  11.857   8.460   0.665
65241SOL    HW195747  11.926   8.444   0.735
65241SOL    HW295748  11.784   8.517   0.703
65242SOL     OW95749  11.858   8.609   1.803
65242SOL    HW195750  11.918   8.688   1.817
65242SOL    HW295751  11.772   8.640   1.762
65243SOL     OW95752  11.507   8.883   1.061
65243SOL    HW195753  11.429   8.852   1.008
65243SOL    HW295754  11.565   8.941   1.004
65244SOL     OW95755  12.632   8.953   1.339
65244SOL    HW195756  12.656   9.047   1.365
65244SOL    HW295757  12.616   8.899   1.421
65245SOL     OW95758  11.610   7.840   1.499
65245SOL    HW195759  11.692   7.784   1.508
65245SOL    HW295760  11.529   7.782   1.503
65246SOL     OW95761  11.403   9.161   0.483
65246SOL    HW195762  11.437   9.238   0.537
65246SOL    HW295763  11.447   9.161   0.393
65247SOL     OW95764  12.299   8.789   1.690
65247SOL    HW195765  12.346   8.789   1.778
65247SOL    HW295766  12.251   8.702   1.679
65248SOL     OW95767  11.402   8.882   0.538
65248SOL    HW195768  11.376   8.978   0.538
65248SOL    HW295769  11.331   8.828   0.583
65249SOL     OW95770  11.412   8.539   0.886
65249SOL    HW195771  11.426   8.455   0.938
65249SOL    HW295772  11.357   8.603   0.941
65250SOL     OW95773  11.792   9.234   1.439
65250SOL    HW195774  11.700   9.217   1.474
65250SOL    HW295775  11.820   9.326   1.465
65251SOL     OW95776  11.778   8.412   0.123
65251SOL    HW195777  11.785   8.496   0.069
65251SOL    HW295778  11.824   8.425   0.211
65252SOL     OW95779  12.766   7.562   1.480
65252SOL    HW195780  12.748   7.629   1.408
65252SOL    HW295781  12.763   7.608   1.569
65253SOL     OW95782  11.294   8.091   0.563
65253SOL    HW195783  11.249   8.003   0.580
65253SOL    HW295784  11.293   8.145   0.647
65254SOL     OW95785  11.199   9.044   0.117
65254SOL    HW195786  11.180   8.948   0.138
65254SOL    HW295787  11.166   9.102   0.192
65255SOL     OW95788  12.861   8.370   0.612
65255SOL    HW195789  12.956   8.341   0.620
65255SOL    HW295790  12.853   8.435   0.537
65256SOL     OW95791  11.285   8.185   1.597
65256SOL    HW195792  11.373   8.172   1.642
65256SOL    HW295793  11.272   8.282   1.575
65257SOL     OW95794  11.785   8.813   0.726
65257SOL    HW195795  11.736   8.726   0.735
65257SOL    HW295796  11.762   8.856   0.639
65258SOL     OW95797  12.465   8.676   1.423
65258SOL    HW195798  12.502   8.603   1.365
65258SOL    HW295799  12.517   8.681   1.508
65259SOL     OW95800  11.981   7.452   0.502
65259SOL    HW195801  12.021   7.543   0.493
65259SOL    HW295802  11.881   7.460   0.508
65260SOL     OW95803  11.369   8.424   1.264
65260SOL    HW195804  11.458   8.379   1.250
65260SOL    HW295805  11.296   8.359   1.245
65261SOL     OW95806  12.359   9.240   1.616
65261SOL    HW195807  12.383   9.300   1.540
65261SOL    HW295808  12.366   9.145   1.586
65262SOL     OW95809  11.489   7.699   1.801
65262SOL    HW195810  11.560   7.770   1.807
65262SOL    HW295811  11.401   7.738   1.829
65263SOL     OW95812  12.638   8.865   0.953
65263SOL    HW195813  12.579   8.871   1.033
65263SOL    HW295814  12.623   8.777   0.907
65264SOL     OW95815  12.839   9.162   0.572
65264SOL    HW195816  12.798   9.139   0.484
65264SOL    HW295817  12.821   9.088   0.637
65265SOL     OW95818  11.770   8.177   0.270
65265SOL    HW195819  11.794   8.246   0.202
65265SOL    HW295820  11.692   8.210   0.324
65266SOL     OW95821  12.453   7.793   0.944
65266SOL    HW195822  12.367   7.743   0.931
65266SOL    HW295823  12.515   7.739   1.000
65267SOL     OW95824  11.979   8.053   1.465
65267SOL    HW195825  11.932   8.050   1.554
65267SOL    HW295826  11.928   7.998   1.399
65268SOL     OW95827  12.566   7.917   1.674
65268SOL    HW195828  12.546   7.960   1.762
65268SOL    HW295829  12.644   7.855   1.683
65269SOL     OW95830  12.145   8.338   1.572
65269SOL    HW195831  12.191   8.254   1.543
65269SOL    HW295832  12.089   8.372   1.497
65270SOL     OW95833  12.163   7.858   1.242
65270SOL    HW195834  12.086   7.892   1.296
65270SOL    HW295835  12.129   7.807   1.163
65271SOL     OW95836  12.213   8.149   0.429
65271SOL    HW195837  12.239   8.145   0.525
65271SOL    HW295838  12.128   8.098   0.415
65272SOL     OW95839  11.248   8.259   0.789
65272SOL    HW195840  11.347   8.247   0.798
65272SOL    HW295841  11.224   8.354   0.810
65273SOL     OW95842  11.302   9.269   1.571
65273SOL    HW195843  11.292   9.254   1.670
65273SOL    HW295844  11.216   9.305   1.535
65274SOL     OW95845  12.037   7.796   0.195
65274SOL    HW195846  12.096   7.859   0.146
65274SOL    HW295847  12.056   7.702   0.166
65275SOL     OW95848  12.534   8.592   0.545
65275SOL    HW195849  12.617   8.563   0.497
65275SOL    HW295850  12.485   8.659   0.489
65276SOL     OW95851  11.722   7.644   0.885
65276SOL    HW195852  11.717   7.639   0.985
65276SOL    HW295853  11.724   7.740   0.856
65277SOL     OW95854  12.180   8.904   0.477
65277SOL    HW195855  12.134   8.976   0.425
65277SOL    HW295856  12.176   8.924   0.575
65278SOL     OW95857  11.523   9.249   0.853
65278SOL    HW195858  11.573   9.163   0.859
65278SOL    HW295859  11.588   9.326   0.850
65279SOL     OW95860  12.399   8.998   1.506
65279SOL    HW195861  12.405   8.921   1.570
65279SOL    HW295862  12.347   8.972   1.426
65280SOL     OW95863  11.493   8.391   0.242
65280SOL    HW195864  11.575   8.430   0.200
65280SOL    HW295865  11.466   8.309   0.193
65281SOL     OW95866  12.630   8.183   0.728
65281SOL    HW195867  12.625   8.118   0.803
65281SOL    HW295868  12.710   8.242   0.741
65282SOL     OW95869  11.633   8.714   1.727
65282SOL    HW195870  11.583   8.715   1.641
65282SOL    HW295871  11.570   8.696   1.803
65283SOL     OW95872  12.283   9.224   0.237
65283SOL    HW195873  12.223   9.162   0.287
65283SOL    HW295874  12.314   9.180   0.152
65284SOL     OW95875  11.374   7.733   1.498
65284SOL    HW195876  11.294   7.793   1.485
65284SOL    HW295877  11.364   7.684   1.584
65285SOL     OW95878  11.636   9.191   0.323
65285SOL    HW195879  11.669   9.230   0.409
65285SOL    HW295880  11.712   9.184   0.258
65286SOL     OW95881  12.572   7.555   0.426
65286SOL    HW195882  12.548   7.518   0.336
65286SOL    HW295883  12.671   7.571   0.430
65287SOL     OW95884  11.421   9.233   1.241
65287SOL    HW195885  11.478   9.168   1.291
65287SOL    HW295886  11.405   9.200   1.148
65288SOL     OW95887  12.112   9.146   0.904
65288SOL    HW195888  12.192   9.089   0.925
65288SOL    HW295889  12.063   9.106   0.827
65289SOL     OW95890  11.554   8.148   0.480
65289SOL    HW195891  11.599   8.058   0.477
65289SOL    HW295892  11.460   8.137   0.513
65290SOL     OW95893  11.786   7.570   0.117
65290SOL    HW195894  11.884   7.548   0.124
65290SOL    HW295895  11.755   7.553   0.024
65291SOL     OW95896  11.953   7.712   1.749
65291SOL    HW195897  12.020   7.651   1.792
65291SOL    HW295898  11.880   7.731   1.814
65292SOL     OW95899  12.060   8.962   1.195
65292SOL    HW195900  12.037   8.937   1.101
65292SOL    HW295901  12.121   8.893   1.234
65293SOL     OW95902  12.523   8.038   1.433
65293SOL    HW195903  12.551   7.995   1.518
65293SOL    HW295904  12.548   8.134   1.434
65294SOL     OW95905  11.975   8.850   0.924
65294SOL    HW195906  12.065   8.864   0.882
65294SOL    HW295907  11.904   8.852   0.853
65295SOL     OW95908  12.094   7.951   0.899
65295SOL    HW195909  12.069   7.942   0.803
65295SOL    HW295910  12.142   7.869   0.930
65296SOL     OW95911  11.711   7.512   0.512
65296SOL    HW195912  11.630   7.513   0.570
65296SOL    HW295913  11.714   7.595   0.457
65297SOL     OW95914  12.606   8.636   0.041
65297SOL    HW195915  12.638   8.560   0.098
65297SOL    HW295916  12.514   8.663   0.071
65298SOL     OW95917  11.469   7.483   0.171
65298SOL    HW195918  11.518   7.567   0.150
65298SOL    HW295919  11.531   7.418   0.216
65299SOL     OW95920  12.107   7.684   0.480
65299SOL    HW195921  12.059   7.725   0.402
65299SOL    HW295922  12.206   7.682   0.461
65300SOL     OW95923  12.248   8.131   1.464
65300SOL    HW195924  12.168   8.070   1.467
65300SOL    HW295925  12.329   8.078   1.440
65301SOL     OW95926  12.399   9.018   0.793
65301SOL    HW195927  12.420   9.092   0.728
65301SOL    HW295928  12.467   9.018   0.866
65302SOL     OW95929  11.631   8.600   0.741
65302SOL    HW195930  11.560   8.573   0.806
65302SOL    HW295931  11.605   8.572   0.648
65303SOL     OW95932  12.443   9.245   0.591
65303SOL    HW195933  12.487   9.309   0.527
65303SOL    HW295934  12.393   9.297   0.661
65304SOL     OW95935  12.204   7.997   0.016
65304SOL    HW195936  12.163   8.079  -0.023
65304SOL    HW295937  12.268   8.023   0.089
65305SOL     OW95938  11.250   8.004   1.386
65305SOL    HW195939  11.342   8.003   1.345
65305SOL    HW295940  11.244   8.078   1.453
65306SOL     OW95941  11.733   7.670   1.147
65306SOL    HW195942  11.771   7.586   1.184
65306SOL    HW295943  11.645   7.689   1.191
65307SOL     OW95944  12.038   7.902   0.642
65307SOL    HW195945  12.006   7.974   0.580
65307SOL    HW295946  12.062   7.821   0.589
65308SOL     OW95947  12.189   7.487   0.753
65308SOL    HW195948  12.117   7.492   0.684
65308SOL    HW295949  12.165   7.418   0.822
65309SOL     OW95950  12.601   8.621   0.867
65309SOL    HW195951  12.546   8.537   0.860
65309SOL    HW295952  12.627   8.650   0.775
65310SOL     OW95953  12.638   8.038   0.992
65310SOL    HW195954  12.608   7.943   0.999
65310SOL    HW295955  12.711   8.054   1.058
65311SOL     OW95956  11.660   8.833   0.174
65311SOL    HW195957  11.573   8.818   0.221
65311SOL    HW295958  11.643   8.859   0.079
65312SOL     OW95959  12.562   8.023   0.078
65312SOL    HW195960  12.508   8.002   0.159
65312SOL    HW295961  12.653   7.982   0.087
65313SOL     OW95962  11.699   7.704   0.328
65313SOL    HW195963  11.726   7.645   0.253
65313SOL    HW295964  11.699   7.799   0.297
65314SOL     OW95965  12.236   8.795   1.340
65314SOL    HW195966  12.156   8.772   1.395
65314SOL    HW295967  12.319   8.769   1.389
65315SOL     OW95968  12.764   9.077   1.625
65315SOL    HW195969  12.791   9.111   1.535
65315SOL    HW295970  12.843   9.039   1.671
65316SOL     OW95971  12.283   8.643   1.100
65316SOL    HW195972  12.243   8.687   1.181
65316SOL    HW295973  12.242   8.680   1.017
65317SOL     OW95974  12.087   7.537   1.402
65317SOL    HW195975  12.112   7.517   1.307
65317SOL    HW295976  12.159   7.593   1.444
65318SOL     OW95977  12.152   8.564   1.719
65318SOL    HW195978  12.053   8.570   1.729
65318SOL    HW295979  12.175   8.484   1.663
65319SOL     OW95980  11.877   8.498   0.368
65319SOL    HW195981  11.863   8.505   0.467
65319SOL    HW295982  11.961   8.447   0.350
65320SOL     OW95983  11.582   8.261   1.251
65320SOL    HW195984  11.668   8.273   1.301
65320SOL    HW295985  11.540   8.174   1.278
65321SOL     OW95986  12.446   7.834   1.262
65321SOL    HW195987  12.467   7.908   1.326
65321SOL    HW295988  12.357   7.851   1.219
65322SOL     OW95989  11.236   9.012   1.331
65322SOL    HW195990  11.190   9.094   1.297
65322SOL    HW295991  11.334   9.031   1.340
65323SOL     OW95992  11.539   8.548   0.501
65323SOL    HW195993  11.532   8.631   0.445
65323SOL    HW295994  11.543   8.468   0.441
65324SOL     OW95995  11.738   7.985   0.865
65324SOL    HW195996  11.750   8.051   0.791
65324SOL    HW295997  11.784   8.019   0.948
65325SOL     OW95998  12.424   8.796   0.388
65325SOL    HW195999  12.474   8.873   0.428
65325SOL    HW296000  12.329   8.798   0.420
65326SOL     OW96001  12.444   8.893   1.142
65326SOL    HW196002  12.491   8.906   1.229
65326SOL    HW296003  12.378   8.819   1.151
65327SOL     OW96004  12.754   8.087   0.472
65327SOL    HW196005  12.723   8.148   0.545
65327SOL    HW296006  12.804   8.139   0.403
65328SOL     OW96007  11.526   8.958   1.329
65328SOL    HW196008  11.505   8.914   1.242
65328SOL    HW296009  11.623   8.984   1.332
65329SOL     OW96010  11.574   8.199   1.598
65329SOL    HW196011  11.642   8.254   1.551
65329SOL    HW296012  11.614   8.111   1.625
65330SOL     OW96013  12.185   7.553   1.770
65330SOL    HW196014  12.191   7.638   1.718
65330SOL    HW296015  12.217   7.477   1.713
65331SOL     OW96016  11.676   7.498   1.740
65331SOL    HW196017  11.634   7.441   1.670
65331SOL    HW296018  11.610   7.567   1.772
65332SOL     OW96019  11.745   8.318   1.029
65332SOL    HW196020  11.789   8.407   1.020
65332SOL    HW296021  11.682   8.318   1.106
65333SOL     OW96022  12.532   8.310   1.045
65333SOL    HW196023  12.457   8.310   0.979
65333SOL    HW296024  12.569   8.218   1.054
65334SOL     OW96025  12.381   7.973   0.275
65334SOL    HW196026  12.394   7.889   0.329
65334SOL    HW296027  12.352   8.047   0.335
65335SOL     OW96028  11.479   7.661   1.231
65335SOL    HW196029  11.456   7.698   1.321
65335SOL    HW296030  11.449   7.566   1.225
65336SOL     OW96031  11.209   8.758   1.282
65336SOL    HW196032  11.262   8.709   1.350
65336SOL    HW296033  11.231   8.856   1.287
65337SOL     OW96034  11.904   8.082   1.064
65337SOL    HW196035  11.963   8.056   0.988
65337SOL    HW296036  11.876   8.178   1.053
65338SOL     OW96037  11.479   7.511   0.618
65338SOL    HW196038  11.468   7.605   0.651
65338SOL    HW296039  11.474   7.448   0.695
65339SOL     OW96040  12.794   7.815   0.374
65339SOL    HW196041  12.796   7.739   0.438
65339SOL    HW296042  12.746   7.892   0.414
65340SOL     OW96043  12.195   8.214   0.966
65340SOL    HW196044  12.210   8.235   1.062
65340SOL    HW296045  12.165   8.119   0.957
65341SOL     OW96046  12.152   9.021   1.700
65341SOL    HW196047  12.132   9.065   1.612
65341SOL    HW296048  12.191   8.930   1.684
65342SOL     OW96049  11.522   8.346   1.804
65342SOL    HW196050  11.598   8.390   1.852
65342SOL    HW296051  11.557   8.299   1.722
65343SOL     OW96052  12.712   7.722   0.125
65343SOL    HW196053  12.651   7.647   0.148
65343SOL    HW296054  12.734   7.774   0.208
65344SOL     OW96055  12.475   8.286   0.042
65344SOL    HW196056  12.509   8.193   0.057
65344SOL    HW296057  12.493   8.313  -0.053
65345SOL     OW96058  12.240   8.781   0.849
65345SOL    HW196059  12.247   8.697   0.794
65345SOL    HW296060  12.302   8.850   0.813
65346SOL     OW96061  11.491   8.258   0.949
65346SOL    HW196062  11.584   8.294   0.954
65346SOL    HW296063  11.485   8.173   1.001
65347SOL     OW96064  11.511   7.957   1.006
65347SOL    HW196065  11.459   7.874   0.989
65347SOL    HW296066  11.588   7.962   0.942
65348SOL     OW96067  12.310   7.828   1.678
65348SOL    HW196068  12.265   7.891   1.742
65348SOL    HW296069  12.403   7.859   1.661
65349SOL     OW96070  12.332   7.655   1.477
65349SOL    HW196071  12.332   7.719   1.554
65349SOL    HW296072  12.360   7.703   1.394
65350SOL     OW96073  11.180   8.774   0.200
65350SOL    HW196074  11.087   8.795   0.169
65350SOL    HW296075  11.190   8.675   0.213
65351SOL     OW96076  11.260   9.249   0.927
65351SOL    HW196077  11.218   9.163   0.900
65351SOL    HW296078  11.354   9.252   0.893
65352SOL     OW96079  11.676   9.016   0.910
65352SOL    HW196080  11.742   9.090   0.919
65352SOL    HW296081  11.720   8.937   0.868
65353SOL     OW96082  12.174   8.244   1.238
65353SOL    HW196083  12.215   8.212   1.324
65353SOL    HW296084  12.078   8.217   1.235
65354SOL     OW96085  11.212   7.992   1.114
65354SOL    HW196086  11.297   7.959   1.073
65354SOL    HW296087  11.225   8.007   1.212
65355SOL     OW96088  11.361   7.968   1.722
65355SOL    HW196089  11.420   7.928   1.652
65355SOL    HW296090  11.303   8.039   1.681
65356SOL     OW96091  12.541   8.398   1.660
65356SOL    HW196092  12.580   8.487   1.680
65356SOL    HW296093  12.551   8.378   1.563
65357SOL     OW96094  11.987   8.020   0.325
65357SOL    HW196095  11.994   7.931   0.279
65357SOL    HW296096  11.893   8.054   0.317
65358SOL     OW96097  11.424   9.012   1.744
65358SOL    HW196098  11.394   9.069   1.820
65358SOL    HW296099  11.417   8.915   1.770
65359SOL     OW96100  11.843   7.912   1.269
65359SOL    HW196101  11.809   7.823   1.239
65359SOL    HW296102  11.869   7.966   1.189
65360SOL     OW96103  12.102   9.126   1.465
65360SOL    HW196104  12.078   9.108   1.370
65360SOL    HW296105  12.132   9.220   1.475
65361SOL     OW96106  11.645   7.948   0.191
65361SOL    HW196107  11.706   8.028   0.195
65361SOL    HW296108  11.550   7.979   0.198
65362SOL     OW96109  11.331   8.585   1.466
65362SOL    HW196110  11.353   8.524   1.542
65362SOL    HW296111  11.341   8.536   1.380
65363SOL     OW96112  12.519   8.507   1.234
65363SOL    HW196113  12.543   8.444   1.160
65363SOL    HW296114  12.429   8.547   1.216
65364SOL     OW96115  12.474   8.303   0.309
65364SOL    HW196116  12.388   8.272   0.351
65364SOL    HW296117  12.470   8.289   0.210
65365SOL     OW96118  12.424   9.179   1.128
65365SOL    HW196119  12.508   9.184   1.074
65365SOL    HW296120  12.401   9.083   1.146
65366SOL     OW96121  11.255   8.706   1.022
65366SOL    HW196122  11.250   8.705   1.122
65366SOL    HW296123  11.172   8.665   0.984
65367SOL     OW96124  11.860   9.110   1.716
65367SOL    HW196125  11.804   9.191   1.725
65367SOL    HW296126  11.912   9.114   1.630
65368SOL     OW96127  12.075   7.534   0.133
65368SOL    HW196128  12.126   7.535   0.047
65368SOL    HW296129  12.131   7.492   0.204
65369SOL     OW96130  12.898   7.583   0.523
65369SOL    HW196131  12.971   7.566   0.456
65369SOL    HW296132  12.867   7.496   0.561
65370SOL     OW96133  12.560   9.021   0.477
65370SOL    HW196134  12.627   9.033   0.403
65370SOL    HW296135  12.520   9.110   0.500
65371SOL     OW96136  11.302   9.242   1.851
65371SOL    HW196137  11.261   9.168   1.904
65371SOL    HW296138  11.366   9.293   1.909
65372SOL     OW96139  12.452   8.375   0.672
65372SOL    HW196140  12.512   8.294   0.674
65372SOL    HW296141  12.492   8.444   0.612
65373SOL     OW96142  12.002   8.721   1.422
65373SOL    HW196143  11.997   8.754   1.517
65373SOL    HW296144  11.916   8.740   1.376
65374SOL     OW96145  11.844   9.064   0.154
65374SOL    HW196146  11.853   9.074   0.055
65374SOL    HW296147  11.804   8.975   0.175
65375SOL     OW96148  11.435   7.774   0.720
65375SOL    HW196149  11.356   7.825   0.686
65375SOL    HW296150  11.426   7.759   0.818
65376SOL     OW96151  12.366   9.060   0.031
65376SOL    HW196152  12.372   8.967   0.068
65376SOL    HW296153  12.307   9.060  -0.049
65377SOL     OW96154  11.994   8.450   1.372
65377SOL    HW196155  12.034   8.449   1.280
65377SOL    HW296156  12.004   8.542   1.412
65378SOL     OW96157  12.088   8.358   0.291
65378SOL    HW196158  12.151   8.396   0.223
65378SOL    HW296159  12.128   8.275   0.330
65379SOL     OW96160  12.676   9.055   0.044
65379SOL    HW196161  12.584   9.092   0.051
65379SOL    HW296162  12.714   9.075  -0.046
65380SOL     OW96163  11.544   8.736   1.490
65380SOL    HW196164  11.531   8.829   1.456
65380SOL    HW296165  11.460   8.684   1.477
65381SOL     OW96166  12.211   8.546   0.696
65381SOL    HW196167  12.141   8.499   0.750
65381SOL    HW296168  12.270   8.478   0.653
65382SOL     OW96169  12.186   7.684   0.971
65382SOL    HW196170  12.178   7.648   0.878
65382SOL    HW296171  12.184   7.608   1.036
65383SOL     OW96172  11.762   8.935   0.491
65383SOL    HW196173  11.804   8.877   0.421
65383SOL    HW296174  11.718   9.014   0.447
65384SOL     OW96175  11.427   8.796   0.290
65384SOL    HW196176  11.331   8.797   0.263
65384SOL    HW296177  11.439   8.849   0.374
65385SOL     OW96178  11.277   8.461   1.726
65385SOL    HW196179  11.200   8.428   1.780
65385SOL    HW296180  11.362   8.431   1.768
65386SOL     OW96181  11.844   7.651   1.489
65386SOL    HW196182  11.934   7.635   1.449
65386SOL    HW296183  11.852   7.656   1.588
65387SOL     OW96184  12.612   8.304   1.398
65387SOL    HW196185  12.555   8.356   1.335
65387SOL    HW296186  12.708   8.316   1.374
65388SOL     OW96187  11.244   7.614   0.318
65388SOL    HW196188  11.227   7.697   0.264
65388SOL    HW296189  11.334   7.577   0.296
65389SOL     OW96190  12.355   8.783   0.119
65389SOL    HW196191  12.256   8.772   0.121
65389SOL    HW296192  12.389   8.798   0.212
65390SOL     OW96193  11.785   8.290   1.431
65390SOL    HW196194  11.841   8.371   1.414
65390SOL    HW296195  11.844   8.210   1.434
65391SOL     OW96196  12.665   9.215   0.959
65391SOL    HW196197  12.698   9.279   0.890
65391SOL    HW296198  12.731   9.209   1.034
65392SOL     OW96199  11.888   8.013   1.708
65392SOL    HW196200  11.907   8.078   1.782
65392SOL    HW296201  11.948   7.933   1.717
65393SOL     OW96202  12.622   8.668   1.633
65393SOL    HW196203  12.613   8.658   1.732
65393SOL    HW296204  12.718   8.661   1.607
65394SOL     OW96205  11.562   9.189   1.560
65394SOL    HW196206  11.471   9.230   1.558
65394SOL    HW296207  11.555   9.095   1.592
65395SOL     OW96208  12.397   7.773   0.449
65395SOL    HW196209  12.462   7.699   0.438
65395SOL    HW296210  12.417   7.823   0.533
65396SOL     OW96211  11.766   8.193   0.652
65396SOL    HW196212  11.816   8.278   0.633
65396SOL    HW296213  11.678   8.195   0.604
65397SOL     OW96214  12.031   8.822   0.016
65397SOL    HW196215  11.985   8.837   0.104
65397SOL    HW296216  12.075   8.907  -0.014
65398SOL     OW96217  11.833   9.238   0.953
65398SOL    HW196218  11.787   9.326   0.940
65398SOL    HW296219  11.932   9.250   0.946
65399SOL     OW96220  12.031   8.404   0.861
65399SOL    HW196221  12.085   8.335   0.909
65399SOL    HW296222  11.999   8.473   0.927
65400SOL     OW96223  12.255   8.432   0.087
65400SOL    HW196224  12.232   8.485   0.005
65400SOL    HW296225  12.336   8.376   0.068
65401SOL     OW96226  13.033   9.017   0.851
65401SOL    HW196227  12.962   9.005   0.781
65401SOL    HW296228  13.034   8.938   0.911
65402SOL     OW96229  11.393   8.762   1.844
65402SOL    HW196230  11.328   8.689   1.823
65402SOL    HW296231  11.397   8.776   1.942
65403SOL     OW96232  11.251   8.688   0.653
65403SOL    HW196233  11.250   8.641   0.741
65403SOL    HW296234  11.333   8.660   0.602
65404SOL     OW96235  11.844   8.839   1.624
65404SOL    HW196236  11.766   8.789   1.662
65404SOL    HW296237  11.841   8.934   1.655
65405SOL     OW96238  11.600   7.872   0.520
65405SOL    HW196239  11.630   7.800   0.458
65405SOL    HW296240  11.561   7.832   0.603
65406SOL     OW96241  11.489   7.995   1.280
65406SOL    HW196242  11.527   7.936   1.352
65406SOL    HW296243  11.529   7.969   1.192
65407SOL     OW96244  11.984   9.034   0.687
65407SOL    HW196245  12.016   9.044   0.593
65407SOL    HW296246  11.905   8.972   0.689
65408SOL     OW96247  12.596   7.662   1.112
65408SOL    HW196248  12.648   7.597   1.167
65408SOL    HW296249  12.547   7.725   1.173
65409SOL     OW96250  12.173   7.482   1.154
65409SOL    HW196251  12.110   7.410   1.123
65409SOL    HW296252  12.266   7.446   1.154
65410SOL     OW96253  11.942   8.778   0.301
65410SOL    HW196254  11.896   8.691   0.318
65410SOL    HW296255  12.033   8.775   0.342
65411SOL     OW96256  11.790   9.015   1.284
65411SOL    HW196257  11.785   9.097   1.341
65411SOL    HW296258  11.879   9.012   1.239
65412SOL     OW96259  12.524   7.500   0.168
65412SOL    HW196260  12.559   7.459   0.084
65412SOL    HW296261  12.434   7.462   0.188
65413SOL     OW96262  12.472   7.901   0.691
65413SOL    HW196263  12.413   7.981   0.695
65413SOL    HW296264  12.487   7.866   0.784
65414SOL     OW96265  12.765   7.669   0.882
65414SOL    HW196266  12.681   7.668   0.936
65414SOL    HW296267  12.767   7.752   0.826
65415SOL     OW96268  11.211   8.525   0.300
65415SOL    HW196269  11.310   8.514   0.291
65415SOL    HW296270  11.171   8.439   0.332
65416SOL     OW96271  12.047   9.094   0.337
65416SOL    HW196272  11.970   9.059   0.283
65416SOL    HW296273  12.015   9.165   0.399
65417SOL     OW96274  11.402   8.076   1.975
65417SOL    HW196275  11.309   8.074   2.012
65417SOL    HW296276  11.403   8.037   1.883
65418SOL     OW96277  11.397   7.723   2.858
65418SOL    HW196278  11.432   7.706   2.950
65418SOL    HW296279  11.309   7.678   2.846
65419SOL     OW96280  11.191   7.816   2.509
65419SOL    HW196281  11.109   7.859   2.548
65419SOL    HW296282  11.163   7.743   2.446
65420SOL     OW96283  11.741   8.723   3.027
65420SOL    HW196284  11.648   8.716   2.990
65420SOL    HW296285  11.752   8.812   3.071
65421SOL     OW96286  12.727   8.959   2.565
65421SOL    HW196287  12.670   8.943   2.646
65421SOL    HW296288  12.668   8.969   2.485
65422SOL     OW96289  12.307   8.151   2.579
65422SOL    HW196290  12.364   8.229   2.554
65422SOL    HW296291  12.247   8.177   2.655
65423SOL     OW96292  11.940   8.592   2.885
65423SOL    HW196293  11.862   8.609   2.945
65423SOL    HW296294  11.974   8.679   2.849
65424SOL     OW96295  12.022   8.246   3.685
65424SOL    HW196296  12.018   8.322   3.750
65424SOL    HW296297  12.044   8.282   3.594
65425SOL     OW96298  11.857   8.460   2.527
65425SOL    HW196299  11.926   8.444   2.597
65425SOL    HW296300  11.784   8.517   2.565
65426SOL     OW96301  11.858   8.609   3.665
65426SOL    HW196302  11.918   8.688   3.679
65426SOL    HW296303  11.772   8.640   3.624
65427SOL     OW96304  11.507   8.883   2.923
65427SOL    HW196305  11.429   8.852   2.870
65427SOL    HW296306  11.565   8.941   2.866
65428SOL     OW96307  12.632   8.953   3.201
65428SOL    HW196308  12.656   9.047   3.227
65428SOL    HW296309  12.616   8.899   3.283
65429SOL     OW96310  11.610   7.840   3.361
65429SOL    HW196311  11.692   7.784   3.370
65429SOL    HW296312  11.529   7.782   3.365
65430SOL     OW96313  11.403   9.161   2.345
65430SOL    HW196314  11.437   9.238   2.399
65430SOL    HW296315  11.447   9.161   2.255
65431SOL     OW96316  12.299   8.789   3.552
65431SOL    HW196317  12.346   8.789   3.640
65431SOL    HW296318  12.251   8.702   3.541
65432SOL     OW96319  11.402   8.882   2.400
65432SOL    HW196320  11.376   8.978   2.400
65432SOL    HW296321  11.331   8.828   2.445
65433SOL     OW96322  11.412   8.539   2.748
65433SOL    HW196323  11.426   8.455   2.800
65433SOL    HW296324  11.357   8.603   2.803
65434SOL     OW96325  11.792   9.234   3.301
65434SOL    HW196326  11.700   9.217   3.336
65434SOL    HW296327  11.820   9.326   3.327
65435SOL     OW96328  11.778   8.412   1.985
65435SOL    HW196329  11.785   8.496   1.931
65435SOL    HW296330  11.824   8.425   2.073
65436SOL     OW96331  12.766   7.562   3.342
65436SOL    HW196332  12.748   7.629   3.270
65436SOL    HW296333  12.763   7.608   3.431
65437SOL     OW96334  11.294   8.091   2.425
65437SOL    HW196335  11.249   8.003   2.442
65437SOL    HW296336  11.293   8.145   2.509
65438SOL     OW96337  11.199   9.044   1.979
65438SOL    HW196338  11.180   8.948   2.000
65438SOL    HW296339  11.166   9.102   2.054
65439SOL     OW96340  12.861   8.370   2.474
65439SOL    HW196341  12.956   8.341   2.482
65439SOL    HW296342  12.853   8.435   2.399
65440SOL     OW96343  11.285   8.185   3.459
65440SOL    HW196344  11.373   8.172   3.504
65440SOL    HW296345  11.272   8.282   3.437
65441SOL     OW96346  11.785   8.813   2.588
65441SOL    HW196347  11.736   8.726   2.597
65441SOL    HW296348  11.762   8.856   2.501
65442SOL     OW96349  12.465   8.676   3.285
65442SOL    HW196350  12.502   8.603   3.227
65442SOL    HW296351  12.517   8.681   3.370
65443SOL     OW96352  11.981   7.452   2.364
65443SOL    HW196353  12.021   7.543   2.355
65443SOL    HW296354  11.881   7.460   2.370
65444SOL     OW96355  11.369   8.424   3.126
65444SOL    HW196356  11.458   8.379   3.112
65444SOL    HW296357  11.296   8.359   3.107
65445SOL     OW96358  12.359   9.240   3.478
65445SOL    HW196359  12.383   9.300   3.402
65445SOL    HW296360  12.366   9.145   3.448
65446SOL     OW96361  11.489   7.699   3.663
65446SOL    HW196362  11.560   7.770   3.669
65446SOL    HW296363  11.401   7.738   3.691
65447SOL     OW96364  12.638   8.865   2.815
65447SOL    HW196365  12.579   8.871   2.895
65447SOL    HW296366  12.623   8.777   2.769
65448SOL     OW96367  12.839   9.162   2.434
65448SOL    HW196368  12.798   9.139   2.346
65448SOL    HW296369  12.821   9.088   2.499
65449SOL     OW96370  11.770   8.177   2.132
65449SOL    HW196371  11.794   8.246   2.064
65449SOL    HW296372  11.692   8.210   2.186
65450SOL     OW96373  12.453   7.793   2.806
65450SOL    HW196374  12.367   7.743   2.793
65450SOL    HW296375  12.515   7.739   2.862
65451SOL     OW96376  11.979   8.053   3.327
65451SOL    HW196377  11.932   8.050   3.416
65451SOL    HW296378  11.928   7.998   3.261
65452SOL     OW96379  12.566   7.917   3.536
65452SOL    HW196380  12.546   7.960   3.624
65452SOL    HW296381  12.644   7.855   3.545
65453SOL     OW96382  12.145   8.338   3.434
65453SOL    HW196383  12.191   8.254   3.405
65453SOL    HW296384  12.089   8.372   3.359
65454SOL     OW96385  12.163   7.858   3.104
65454SOL    HW196386  12.086   7.892   3.158
65454SOL    HW296387  12.129   7.807   3.025
65455SOL     OW96388  12.213   8.149   2.291
65455SOL    HW196389  12.239   8.145   2.387
65455SOL    HW296390  12.128   8.098   2.277
65456SOL     OW96391  11.248   8.259   2.651
65456SOL    HW196392  11.347   8.247   2.660
65456SOL    HW296393  11.224   8.354   2.672
65457SOL     OW96394  11.302   9.269   3.433
65457SOL    HW196395  11.292   9.254   3.532
65457SOL    HW296396  11.216   9.305   3.397
65458SOL     OW96397  12.037   7.796   2.057
65458SOL    HW196398  12.096   7.859   2.008
65458SOL    HW296399  12.056   7.702   2.028
65459SOL     OW96400  12.534   8.592   2.407
65459SOL    HW196401  12.617   8.563   2.359
65459SOL    HW296402  12.485   8.659   2.351
65460SOL     OW96403  11.722   7.644   2.747
65460SOL    HW196404  11.717   7.639   2.847
65460SOL    HW296405  11.724   7.740   2.718
65461SOL     OW96406  12.180   8.904   2.339
65461SOL    HW196407  12.134   8.976   2.287
65461SOL    HW296408  12.176   8.924   2.437
65462SOL     OW96409  11.523   9.249   2.715
65462SOL    HW196410  11.573   9.163   2.721
65462SOL    HW296411  11.588   9.326   2.712
65463SOL     OW96412  12.399   8.998   3.368
65463SOL    HW196413  12.405   8.921   3.432
65463SOL    HW296414  12.347   8.972   3.288
65464SOL     OW96415  11.493   8.391   2.104
65464SOL    HW196416  11.575   8.430   2.062
65464SOL    HW296417  11.466   8.309   2.055
65465SOL     OW96418  12.630   8.183   2.590
65465SOL    HW196419  12.625   8.118   2.665
65465SOL    HW296420  12.710   8.242   2.603
65466SOL     OW96421  11.633   8.714   3.589
65466SOL    HW196422  11.583   8.715   3.503
65466SOL    HW296423  11.570   8.696   3.665
65467SOL     OW96424  12.283   9.224   2.099
65467SOL    HW196425  12.223   9.162   2.149
65467SOL    HW296426  12.314   9.180   2.014
65468SOL     OW96427  11.374   7.733   3.360
65468SOL    HW196428  11.294   7.793   3.347
65468SOL    HW296429  11.364   7.684   3.446
65469SOL     OW96430  11.636   9.191   2.185
65469SOL    HW196431  11.669   9.230   2.271
65469SOL    HW296432  11.712   9.184   2.120
65470SOL     OW96433  12.572   7.555   2.288
65470SOL    HW196434  12.548   7.518   2.198
65470SOL    HW296435  12.671   7.571   2.292
65471SOL     OW96436  11.421   9.233   3.103
65471SOL    HW196437  11.478   9.168   3.153
65471SOL    HW296438  11.405   9.200   3.010
65472SOL     OW96439  12.112   9.146   2.766
65472SOL    HW196440  12.192   9.089   2.787
65472SOL    HW296441  12.063   9.106   2.689
65473SOL     OW96442  11.554   8.148   2.342
65473SOL    HW196443  11.599   8.058   2.339
65473SOL    HW296444  11.460   8.137   2.375
65474SOL     OW96445  11.786   7.570   1.979
65474SOL    HW196446  11.884   7.548   1.986
65474SOL    HW296447  11.755   7.553   1.886
65475SOL     OW96448  11.953   7.712   3.611
65475SOL    HW196449  12.020   7.651   3.654
65475SOL    HW296450  11.880   7.731   3.676
65476SOL     OW96451  12.060   8.962   3.057
65476SOL    HW196452  12.037   8.937   2.963
65476SOL    HW296453  12.121   8.893   3.096
65477SOL     OW96454  12.523   8.038   3.295
65477SOL    HW196455  12.551   7.995   3.380
65477SOL    HW296456  12.548   8.134   3.296
65478SOL     OW96457  11.975   8.850   2.786
65478SOL    HW196458  12.065   8.864   2.744
65478SOL    HW296459  11.904   8.852   2.715
65479SOL     OW96460  12.094   7.951   2.761
65479SOL    HW196461  12.069   7.942   2.665
65479SOL    HW296462  12.142   7.869   2.792
65480SOL     OW96463  11.711   7.512   2.374
65480SOL    HW196464  11.630   7.513   2.432
65480SOL    HW296465  11.714   7.595   2.319
65481SOL     OW96466  12.606   8.636   1.903
65481SOL    HW196467  12.638   8.560   1.960
65481SOL    HW296468  12.514   8.663   1.933
65482SOL     OW96469  11.469   7.483   2.033
65482SOL    HW196470  11.518   7.567   2.012
65482SOL    HW296471  11.531   7.418   2.078
65483SOL     OW96472  12.107   7.684   2.342
65483SOL    HW196473  12.059   7.725   2.264
65483SOL    HW296474  12.206   7.682   2.323
65484SOL     OW96475  12.248   8.131   3.326
65484SOL    HW196476  12.168   8.070   3.329
65484SOL    HW296477  12.329   8.078   3.302
65485SOL     OW96478  12.399   9.018   2.655
65485SOL    HW196479  12.420   9.092   2.590
65485SOL    HW296480  12.467   9.018   2.728
65486SOL     OW96481  11.631   8.600   2.603
65486SOL    HW196482  11.560   8.573   2.668
65486SOL    HW296483  11.605   8.572   2.510
65487SOL     OW96484  12.443   9.245   2.453
65487SOL    HW196485  12.487   9.309   2.389
65487SOL    HW296486  12.393   9.297   2.523
65488SOL     OW96487  12.204   7.997   1.878
65488SOL    HW196488  12.163   8.079   1.839
65488SOL    HW296489  12.268   8.023   1.951
65489SOL     OW96490  11.250   8.004   3.248
65489SOL    HW196491  11.342   8.003   3.207
65489SOL    HW296492  11.244   8.078   3.315
65490SOL     OW96493  11.733   7.670   3.009
65490SOL    HW196494  11.771   7.586   3.046
65490SOL    HW296495  11.645   7.689   3.053
65491SOL     OW96496  12.038   7.902   2.504
65491SOL    HW196497  12.006   7.974   2.442
65491SOL    HW296498  12.062   7.821   2.451
65492SOL     OW96499  12.189   7.487   2.615
65492SOL    HW196500  12.117   7.492   2.546
65492SOL    HW296501  12.165   7.418   2.684
65493SOL     OW96502  12.601   8.621   2.729
65493SOL    HW196503  12.546   8.537   2.722
65493SOL    HW296504  12.627   8.650   2.637
65494SOL     OW96505  12.638   8.038   2.854
65494SOL    HW196506  12.608   7.943   2.861
65494SOL    HW296507  12.711   8.054   2.920
65495SOL     OW96508  11.660   8.833   2.036
65495SOL    HW196509  11.573   8.818   2.083
65495SOL    HW296510  11.643   8.859   1.941
65496SOL     OW96511  12.562   8.023   1.940
65496SOL    HW196512  12.508   8.002   2.021
65496SOL    HW296513  12.653   7.982   1.949
65497SOL     OW96514  11.699   7.704   2.190
65497SOL    HW196515  11.726   7.645   2.115
65497SOL    HW296516  11.699   7.799   2.159
65498SOL     OW96517  12.236   8.795   3.202
65498SOL    HW196518  12.156   8.772   3.257
65498SOL    HW296519  12.319   8.769   3.251
65499SOL     OW96520  12.764   9.077   3.487
65499SOL    HW196521  12.791   9.111   3.397
65499SOL    HW296522  12.843   9.039   3.533
65500SOL     OW96523  12.283   8.643   2.962
65500SOL    HW196524  12.243   8.687   3.043
65500SOL    HW296525  12.242   8.680   2.879
65501SOL     OW96526  12.087   7.537   3.264
65501SOL    HW196527  12.112   7.517   3.169
65501SOL    HW296528  12.159   7.593   3.306
65502SOL     OW96529  12.152   8.564   3.581
65502SOL    HW196530  12.053   8.570   3.591
65502SOL    HW296531  12.175   8.484   3.525
65503SOL     OW96532  11.877   8.498   2.230
65503SOL    HW196533  11.863   8.505   2.329
65503SOL    HW296534  11.961   8.447   2.212
65504SOL     OW96535  11.582   8.261   3.113
65504SOL    HW196536  11.668   8.273   3.163
65504SOL    HW296537  11.540   8.174   3.140
65505SOL     OW96538  12.446   7.834   3.124
65505SOL    HW196539  12.467   7.908   3.188
65505SOL    HW296540  12.357   7.851   3.081
65506SOL     OW96541  11.236   9.012   3.193
65506SOL    HW196542  11.190   9.094   3.159
65506SOL    HW296543  11.334   9.031   3.202
65507SOL     OW96544  11.539   8.548   2.363
65507SOL    HW196545  11.532   8.631   2.307
65507SOL    HW296546  11.543   8.468   2.303
65508SOL     OW96547  11.738   7.985   2.727
65508SOL    HW196548  11.750   8.051   2.653
65508SOL    HW296549  11.784   8.019   2.810
65509SOL     OW96550  12.424   8.796   2.250
65509SOL    HW196551  12.474   8.873   2.290
65509SOL    HW296552  12.329   8.798   2.282
65510SOL     OW96553  12.444   8.893   3.004
65510SOL    HW196554  12.491   8.906   3.091
65510SOL    HW296555  12.378   8.819   3.013
65511SOL     OW96556  12.754   8.087   2.334
65511SOL    HW196557  12.723   8.148   2.407
65511SOL    HW296558  12.804   8.139   2.265
65512SOL     OW96559  11.526   8.958   3.191
65512SOL    HW196560  11.505   8.914   3.104
65512SOL    HW296561  11.623   8.984   3.194
65513SOL     OW96562  11.574   8.199   3.460
65513SOL    HW196563  11.642   8.254   3.413
65513SOL    HW296564  11.614   8.111   3.487
65514SOL     OW96565  12.185   7.553   3.632
65514SOL    HW196566  12.191   7.638   3.580
65514SOL    HW296567  12.217   7.477   3.575
65515SOL     OW96568  11.676   7.498   3.602
65515SOL    HW196569  11.634   7.441   3.532
65515SOL    HW296570  11.610   7.567   3.634
65516SOL     OW96571  11.745   8.318   2.891
65516SOL    HW196572  11.789   8.407   2.882
65516SOL    HW296573  11.682   8.318   2.968
65517SOL     OW96574  12.532   8.310   2.907
65517SOL    HW196575  12.457   8.310   2.841
65517SOL    HW296576  12.569   8.218   2.916
65518SOL     OW96577  12.381   7.973   2.137
65518SOL    HW196578  12.394   7.889   2.191
65518SOL    HW296579  12.352   8.047   2.197
65519SOL     OW96580  11.479   7.661   3.093
65519SOL    HW196581  11.456   7.698   3.183
65519SOL    HW296582  11.449   7.566   3.087
65520SOL     OW96583  11.209   8.758   3.144
65520SOL    HW196584  11.262   8.709   3.212
65520SOL    HW296585  11.231   8.856   3.149
65521SOL     OW96586  11.904   8.082   2.926
65521SOL    HW196587  11.963   8.056   2.850
65521SOL    HW296588  11.876   8.178   2.915
65522SOL     OW96589  11.479   7.511   2.480
65522SOL    HW196590  11.468   7.605   2.513
65522SOL    HW296591  11.474   7.448   2.557
65523SOL     OW96592  12.794   7.815   2.236
65523SOL    HW196593  12.796   7.739   2.300
65523SOL    HW296594  12.746   7.892   2.276
65524SOL     OW96595  12.195   8.214   2.828
65524SOL    HW196596  12.210   8.235   2.924
65524SOL    HW296597  12.165   8.119   2.819
65525SOL     OW96598  12.152   9.021   3.562
65525SOL    HW196599  12.132   9.065   3.474
65525SOL    HW296600  12.191   8.930   3.546
65526SOL     OW96601  11.522   8.346   3.666
65526SOL    HW196602  11.598   8.390   3.714
65526SOL    HW296603  11.557   8.299   3.584
65527SOL     OW96604  12.712   7.722   1.987
65527SOL    HW196605  12.651   7.647   2.010
65527SOL    HW296606  12.734   7.774   2.070
65528SOL     OW96607  12.475   8.286   1.904
65528SOL    HW196608  12.509   8.193   1.919
65528SOL    HW296609  12.493   8.313   1.809
65529SOL     OW96610  12.240   8.781   2.711
65529SOL    HW196611  12.247   8.697   2.656
65529SOL    HW296612  12.302   8.850   2.675
65530SOL     OW96613  11.491   8.258   2.811
65530SOL    HW196614  11.584   8.294   2.816
65530SOL    HW296615  11.485   8.173   2.863
65531SOL     OW96616  11.511   7.957   2.868
65531SOL    HW196617  11.459   7.874   2.851
65531SOL    HW296618  11.588   7.962   2.804
65532SOL     OW96619  12.310   7.828   3.540
65532SOL    HW196620  12.265   7.891   3.604
65532SOL    HW296621  12.403   7.859   3.523
65533SOL     OW96622  12.332   7.655   3.339
65533SOL    HW196623  12.332   7.719   3.416
65533SOL    HW296624  12.360   7.703   3.256
65534SOL     OW96625  11.180   8.774   2.062
65534SOL    HW196626  11.087   8.795   2.031
65534SOL    HW296627  11.190   8.675   2.075
65535SOL     OW96628  11.260   9.249   2.789
65535SOL    HW196629  11.218   9.163   2.762
65535SOL    HW296630  11.354   9.252   2.755
65536SOL     OW96631  11.676   9.016   2.772
65536SOL    HW196632  11.742   9.090   2.781
65536SOL    HW296633  11.720   8.937   2.730
65537SOL     OW96634  12.174   8.244   3.100
65537SOL    HW196635  12.215   8.212   3.186
65537SOL    HW296636  12.078   8.217   3.097
65538SOL     OW96637  11.212   7.992   2.976
65538SOL    HW196638  11.297   7.959   2.935
65538SOL    HW296639  11.225   8.007   3.074
65539SOL     OW96640  11.361   7.968   3.584
65539SOL    HW196641  11.420   7.928   3.514
65539SOL    HW296642  11.303   8.039   3.543
65540SOL     OW96643  12.541   8.398   3.522
65540SOL    HW196644  12.580   8.487   3.542
65540SOL    HW296645  12.551   8.378   3.425
65541SOL     OW96646  11.987   8.020   2.187
65541SOL    HW196647  11.994   7.931   2.141
65541SOL    HW296648  11.893   8.054   2.179
65542SOL     OW96649  11.424   9.012   3.606
65542SOL    HW196650  11.394   9.069   3.682
65542SOL    HW296651  11.417   8.915   3.632
65543SOL     OW96652  11.843   7.912   3.131
65543SOL    HW196653  11.809   7.823   3.101
65543SOL    HW296654  11.869   7.966   3.051
65544SOL     OW96655  12.102   9.126   3.327
65544SOL    HW196656  12.078   9.108   3.232
65544SOL    HW296657  12.132   9.220   3.337
65545SOL     OW96658  11.645   7.948   2.053
65545SOL    HW196659  11.706   8.028   2.057
65545SOL    HW296660  11.550   7.979   2.060
65546SOL     OW96661  11.331   8.585   3.328
65546SOL    HW196662  11.353   8.524   3.404
65546SOL    HW296663  11.341   8.536   3.242
65547SOL     OW96664  12.519   8.507   3.096
65547SOL    HW196665  12.543   8.444   3.022
65547SOL    HW296666  12.429   8.547   3.078
65548SOL     OW96667  12.474   8.303   2.171
65548SOL    HW196668  12.388   8.272   2.213
65548SOL    HW296669  12.470   8.289   2.072
65549SOL     OW96670  12.424   9.179   2.990
65549SOL    HW196671  12.508   9.184   2.936
65549SOL    HW296672  12.401   9.083   3.008
65550SOL     OW96673  11.255   8.706   2.884
65550SOL    HW196674  11.250   8.705   2.984
65550SOL    HW296675  11.172   8.665   2.846
65551SOL     OW96676  11.860   9.110   3.578
65551SOL    HW196677  11.804   9.191   3.587
65551SOL    HW296678  11.912   9.114   3.492
65552SOL     OW96679  12.898   7.583   2.385
65552SOL    HW196680  12.971   7.566   2.318
65552SOL    HW296681  12.867   7.496   2.423
65553SOL     OW96682  12.560   9.021   2.339
65553SOL    HW196683  12.627   9.033   2.265
65553SOL    HW296684  12.520   9.110   2.362
65554SOL     OW96685  11.302   9.242   3.713
65554SOL    HW196686  11.261   9.168   3.766
65554SOL    HW296687  11.366   9.293   3.771
65555SOL     OW96688  12.452   8.375   2.534
65555SOL    HW196689  12.512   8.294   2.536
65555SOL    HW296690  12.492   8.444   2.474
65556SOL     OW96691  12.002   8.721   3.284
65556SOL    HW196692  11.997   8.754   3.379
65556SOL    HW296693  11.916   8.740   3.238
65557SOL     OW96694  11.844   9.064   2.016
65557SOL    HW196695  11.853   9.074   1.917
65557SOL    HW296696  11.804   8.975   2.037
65558SOL     OW96697  11.435   7.774   2.582
65558SOL    HW196698  11.356   7.825   2.548
65558SOL    HW296699  11.426   7.759   2.680
65559SOL     OW96700  12.366   9.060   1.893
65559SOL    HW196701  12.372   8.967   1.930
65559SOL    HW296702  12.307   9.060   1.813
65560SOL     OW96703  11.994   8.450   3.234
65560SOL    HW196704  12.034   8.449   3.142
65560SOL    HW296705  12.004   8.542   3.274
65561SOL     OW96706  12.088   8.358   2.153
65561SOL    HW196707  12.151   8.396   2.085
65561SOL    HW296708  12.128   8.275   2.192
65562SOL     OW96709  12.676   9.055   1.906
65562SOL    HW196710  12.584   9.092   1.913
65562SOL    HW296711  12.714   9.075   1.816
65563SOL     OW96712  11.544   8.736   3.352
65563SOL    HW196713  11.531   8.829   3.318
65563SOL    HW296714  11.460   8.684   3.339
65564SOL     OW96715  12.211   8.546   2.558
65564SOL    HW196716  12.141   8.499   2.612
65564SOL    HW296717  12.270   8.478   2.515
65565SOL     OW96718  12.186   7.684   2.833
65565SOL    HW196719  12.178   7.648   2.740
65565SOL    HW296720  12.184   7.608   2.898
65566SOL     OW96721  11.762   8.935   2.353
65566SOL    HW196722  11.804   8.877   2.283
65566SOL    HW296723  11.718   9.014   2.309
65567SOL     OW96724  11.427   8.796   2.152
65567SOL    HW196725  11.331   8.797   2.125
65567SOL    HW296726  11.439   8.849   2.236
65568SOL     OW96727  11.277   8.461   3.588
65568SOL    HW196728  11.200   8.428   3.642
65568SOL    HW296729  11.362   8.431   3.630
65569SOL     OW96730  11.844   7.651   3.351
65569SOL    HW196731  11.934   7.635   3.311
65569SOL    HW296732  11.852   7.656   3.450
65570SOL     OW96733  11.247   7.793   1.895
65570SOL    HW196734  11.155   7.765   1.866
65570SOL    HW296735  11.278   7.870   1.839
65571SOL     OW96736  12.612   8.304   3.260
65571SOL    HW196737  12.555   8.356   3.197
65571SOL    HW296738  12.708   8.316   3.236
65572SOL     OW96739  11.244   7.614   2.180
65572SOL    HW196740  11.227   7.697   2.126
65572SOL    HW296741  11.334   7.577   2.158
65573SOL     OW96742  12.355   8.783   1.981
65573SOL    HW196743  12.256   8.772   1.983
65573SOL    HW296744  12.389   8.798   2.074
65574SOL     OW96745  11.785   8.290   3.293
65574SOL    HW196746  11.841   8.371   3.276
65574SOL    HW296747  11.844   8.210   3.296
65575SOL     OW96748  12.665   9.215   2.821
65575SOL    HW196749  12.698   9.279   2.752
65575SOL    HW296750  12.731   9.209   2.896
65576SOL     OW96751  11.888   8.013   3.570
65576SOL    HW196752  11.907   8.078   3.644
65576SOL    HW296753  11.948   7.933   3.579
65577SOL     OW96754  12.622   8.668   3.495
65577SOL    HW196755  12.613   8.658   3.594
65577SOL    HW296756  12.718   8.661   3.469
65578SOL     OW96757  11.562   9.189   3.422
65578SOL    HW196758  11.471   9.230   3.420
65578SOL    HW296759  11.555   9.095   3.454
65579SOL     OW96760  12.397   7.773   2.311
65579SOL    HW196761  12.462   7.699   2.300
65579SOL    HW296762  12.417   7.823   2.395
65580SOL     OW96763  11.766   8.193   2.514
65580SOL    HW196764  11.816   8.278   2.495
65580SOL    HW296765  11.678   8.195   2.466
65581SOL     OW96766  12.031   8.822   1.878
65581SOL    HW196767  11.985   8.837   1.966
65581SOL    HW296768  12.075   8.907   1.848
65582SOL     OW96769  11.833   9.238   2.815
65582SOL    HW196770  11.787   9.326   2.802
65582SOL    HW296771  11.932   9.250   2.808
65583SOL     OW96772  12.031   8.404   2.723
65583SOL    HW196773  12.085   8.335   2.771
65583SOL    HW296774  11.999   8.473   2.789
65584SOL     OW96775  12.255   8.432   1.949
65584SOL    HW196776  12.232   8.485   1.867
65584SOL    HW296777  12.336   8.376   1.930
65585SOL     OW96778  13.033   9.017   2.713
65585SOL    HW196779  12.962   9.005   2.643
65585SOL    HW296780  13.034   8.938   2.773
65586SOL     OW96781  11.393   8.762   3.706
65586SOL    HW196782  11.328   8.689   3.685
65586SOL    HW296783  11.397   8.776   3.804
65587SOL     OW96784  11.251   8.688   2.515
65587SOL    HW196785  11.250   8.641   2.603
65587SOL    HW296786  11.333   8.660   2.464
65588SOL     OW96787  11.844   8.839   3.486
65588SOL    HW196788  11.766   8.789   3.524
65588SOL    HW296789  11.841   8.934   3.517
65589SOL     OW96790  11.600   7.872   2.382
65589SOL    HW196791  11.630   7.800   2.320
65589SOL    HW296792  11.561   7.832   2.465
65590SOL     OW96793  11.489   7.995   3.142
65590SOL    HW196794  11.527   7.936   3.214
65590SOL    HW296795  11.529   7.969   3.054
65591SOL     OW96796  11.984   9.034   2.549
65591SOL    HW196797  12.016   9.044   2.455
65591SOL    HW296798  11.905   8.972   2.551
65592SOL     OW96799  12.596   7.662   2.974
65592SOL    HW196800  12.648   7.597   3.029
65592SOL    HW296801  12.547   7.725   3.035
65593SOL     OW96802  12.173   7.482   3.016
65593SOL    HW196803  12.110   7.410   2.985
65593SOL    HW296804  12.266   7.446   3.016
65594SOL     OW96805  11.942   8.778   2.163
65594SOL    HW196806  11.896   8.691   2.180
65594SOL    HW296807  12.033   8.775   2.204
65595SOL     OW96808  11.790   9.015   3.146
65595SOL    HW196809  11.785   9.097   3.203
65595SOL    HW296810  11.879   9.012   3.101
65596SOL     OW96811  12.524   7.500   2.030
65596SOL    HW196812  12.559   7.459   1.946
65596SOL    HW296813  12.434   7.462   2.050
65597SOL     OW96814  12.472   7.901   2.553
65597SOL    HW196815  12.413   7.981   2.557
65597SOL    HW296816  12.487   7.866   2.646
65598SOL     OW96817  12.765   7.669   2.744
65598SOL    HW196818  12.681   7.668   2.798
65598SOL    HW296819  12.767   7.752   2.688
65599SOL     OW96820  11.211   8.525   2.162
65599SOL    HW196821  11.310   8.514   2.153
65599SOL    HW296822  11.171   8.439   2.194
65600SOL     OW96823  12.047   9.094   2.199
65600SOL    HW196824  11.970   9.059   2.145
65600SOL    HW296825  12.015   9.165   2.261
65601SOL     OW96826  11.402   8.076   3.837
65601SOL    HW196827  11.309   8.074   3.874
65601SOL    HW296828  11.403   8.037   3.745
65602SOL     OW96829  11.397   7.723   4.720
65602SOL    HW196830  11.432   7.706   4.812
65602SOL    HW296831  11.309   7.678   4.708
65603SOL     OW96832  11.191   7.816   4.371
65603SOL    HW196833  11.109   7.859   4.410
65603SOL    HW296834  11.163   7.743   4.308
65604SOL     OW96835  11.741   8.723   4.889
65604SOL    HW196836  11.648   8.716   4.852
65604SOL    HW296837  11.752   8.812   4.933
65605SOL     OW96838  12.727   8.959   4.427
65605SOL    HW196839  12.670   8.943   4.508
65605SOL    HW296840  12.668   8.969   4.347
65606SOL     OW96841  12.307   8.151   4.441
65606SOL    HW196842  12.364   8.229   4.416
65606SOL    HW296843  12.247   8.177   4.517
65607SOL     OW96844  11.940   8.592   4.747
65607SOL    HW196845  11.862   8.609   4.807
65607SOL    HW296846  11.974   8.679   4.711
65608SOL     OW96847  12.022   8.246   5.547
65608SOL    HW196848  12.018   8.322   5.612
65608SOL    HW296849  12.044   8.282   5.456
65609SOL     OW96850  11.857   8.460   4.389
65609SOL    HW196851  11.926   8.444   4.459
65609SOL    HW296852  11.784   8.517   4.427
65610SOL     OW96853  11.858   8.609   5.527
65610SOL    HW196854  11.918   8.688   5.541
65610SOL    HW296855  11.772   8.640   5.486
65611SOL     OW96856  11.507   8.883   4.785
65611SOL    HW196857  11.429   8.852   4.732
65611SOL    HW296858  11.565   8.941   4.728
65612SOL     OW96859  12.632   8.953   5.063
65612SOL    HW196860  12.656   9.047   5.089
65612SOL    HW296861  12.616   8.899   5.145
65613SOL     OW96862  11.610   7.840   5.223
65613SOL    HW196863  11.692   7.784   5.232
65613SOL    HW296864  11.529   7.782   5.227
65614SOL     OW96865  11.403   9.161   4.207
65614SOL    HW196866  11.437   9.238   4.261
65614SOL    HW296867  11.447   9.161   4.117
65615SOL     OW96868  12.299   8.789   5.414
65615SOL    HW196869  12.346   8.789   5.502
65615SOL    HW296870  12.251   8.702   5.403
65616SOL     OW96871  11.402   8.882   4.262
65616SOL    HW196872  11.376   8.978   4.262
65616SOL    HW296873  11.331   8.828   4.307
65617SOL     OW96874  11.412   8.539   4.610
65617SOL    HW196875  11.426   8.455   4.662
65617SOL    HW296876  11.357   8.603   4.665
65618SOL     OW96877  11.792   9.234   5.163
65618SOL    HW196878  11.700   9.217   5.198
65618SOL    HW296879  11.820   9.326   5.189
65619SOL     OW96880  11.778   8.412   3.847
65619SOL    HW196881  11.785   8.496   3.793
65619SOL    HW296882  11.824   8.425   3.935
65620SOL     OW96883  12.766   7.562   5.204
65620SOL    HW196884  12.748   7.629   5.132
65620SOL    HW296885  12.763   7.608   5.293
65621SOL     OW96886  11.294   8.091   4.287
65621SOL    HW196887  11.249   8.003   4.304
65621SOL    HW296888  11.293   8.145   4.371
65622SOL     OW96889  11.199   9.044   3.841
65622SOL    HW196890  11.180   8.948   3.862
65622SOL    HW296891  11.166   9.102   3.916
65623SOL     OW96892  12.861   8.370   4.336
65623SOL    HW196893  12.956   8.341   4.344
65623SOL    HW296894  12.853   8.435   4.261
65624SOL     OW96895  11.285   8.185   5.321
65624SOL    HW196896  11.373   8.172   5.366
65624SOL    HW296897  11.272   8.282   5.299
65625SOL     OW96898  11.785   8.813   4.450
65625SOL    HW196899  11.736   8.726   4.459
65625SOL    HW296900  11.762   8.856   4.363
65626SOL     OW96901  12.465   8.676   5.147
65626SOL    HW196902  12.502   8.603   5.089
65626SOL    HW296903  12.517   8.681   5.232
65627SOL     OW96904  11.981   7.452   4.226
65627SOL    HW196905  12.021   7.543   4.217
65627SOL    HW296906  11.881   7.460   4.232
65628SOL     OW96907  11.369   8.424   4.988
65628SOL    HW196908  11.458   8.379   4.974
65628SOL    HW296909  11.296   8.359   4.969
65629SOL     OW96910  12.359   9.240   5.340
65629SOL    HW196911  12.383   9.300   5.264
65629SOL    HW296912  12.366   9.145   5.310
65630SOL     OW96913  11.489   7.699   5.525
65630SOL    HW196914  11.560   7.770   5.531
65630SOL    HW296915  11.401   7.738   5.553
65631SOL     OW96916  12.638   8.865   4.677
65631SOL    HW196917  12.579   8.871   4.757
65631SOL    HW296918  12.623   8.777   4.631
65632SOL     OW96919  12.839   9.162   4.296
65632SOL    HW196920  12.798   9.139   4.208
65632SOL    HW296921  12.821   9.088   4.361
65633SOL     OW96922  11.770   8.177   3.994
65633SOL    HW196923  11.794   8.246   3.926
65633SOL    HW296924  11.692   8.210   4.048
65634SOL     OW96925  12.453   7.793   4.668
65634SOL    HW196926  12.367   7.743   4.655
65634SOL    HW296927  12.515   7.739   4.724
65635SOL     OW96928  11.979   8.053   5.189
65635SOL    HW196929  11.932   8.050   5.278
65635SOL    HW296930  11.928   7.998   5.123
65636SOL     OW96931  12.566   7.917   5.398
65636SOL    HW196932  12.546   7.960   5.486
65636SOL    HW296933  12.644   7.855   5.407
65637SOL     OW96934  12.145   8.338   5.296
65637SOL    HW196935  12.191   8.254   5.267
65637SOL    HW296936  12.089   8.372   5.221
65638SOL     OW96937  12.163   7.858   4.966
65638SOL    HW196938  12.086   7.892   5.020
65638SOL    HW296939  12.129   7.807   4.887
65639SOL     OW96940  12.213   8.149   4.153
65639SOL    HW196941  12.239   8.145   4.249
65639SOL    HW296942  12.128   8.098   4.139
65640SOL     OW96943  11.248   8.259   4.513
65640SOL    HW196944  11.347   8.247   4.522
65640SOL    HW296945  11.224   8.354   4.534
65641SOL     OW96946  11.302   9.269   5.295
65641SOL    HW196947  11.292   9.254   5.394
65641SOL    HW296948  11.216   9.305   5.259
65642SOL     OW96949  12.037   7.796   3.919
65642SOL    HW196950  12.096   7.859   3.870
65642SOL    HW296951  12.056   7.702   3.890
65643SOL     OW96952  12.534   8.592   4.269
65643SOL    HW196953  12.617   8.563   4.221
65643SOL    HW296954  12.485   8.659   4.213
65644SOL     OW96955  11.722   7.644   4.609
65644SOL    HW196956  11.717   7.639   4.709
65644SOL    HW296957  11.724   7.740   4.580
65645SOL     OW96958  12.180   8.904   4.201
65645SOL    HW196959  12.134   8.976   4.149
65645SOL    HW296960  12.176   8.924   4.299
65646SOL     OW96961  11.523   9.249   4.577
65646SOL    HW196962  11.573   9.163   4.583
65646SOL    HW296963  11.588   9.326   4.574
65647SOL     OW96964  12.399   8.998   5.230
65647SOL    HW196965  12.405   8.921   5.294
65647SOL    HW296966  12.347   8.972   5.150
65648SOL     OW96967  11.493   8.391   3.966
65648SOL    HW196968  11.575   8.430   3.924
65648SOL    HW296969  11.466   8.309   3.917
65649SOL     OW96970  12.630   8.183   4.452
65649SOL    HW196971  12.625   8.118   4.527
65649SOL    HW296972  12.710   8.242   4.465
65650SOL     OW96973  11.633   8.714   5.451
65650SOL    HW196974  11.583   8.715   5.365
65650SOL    HW296975  11.570   8.696   5.527
65651SOL     OW96976  12.283   9.224   3.961
65651SOL    HW196977  12.223   9.162   4.011
65651SOL    HW296978  12.314   9.180   3.876
65652SOL     OW96979  11.374   7.733   5.222
65652SOL    HW196980  11.294   7.793   5.209
65652SOL    HW296981  11.364   7.684   5.308
65653SOL     OW96982  11.636   9.191   4.047
65653SOL    HW196983  11.669   9.230   4.133
65653SOL    HW296984  11.712   9.184   3.982
65654SOL     OW96985  12.572   7.555   4.150
65654SOL    HW196986  12.548   7.518   4.060
65654SOL    HW296987  12.671   7.571   4.154
65655SOL     OW96988  11.421   9.233   4.965
65655SOL    HW196989  11.478   9.168   5.015
65655SOL    HW296990  11.405   9.200   4.872
65656SOL     OW96991  12.112   9.146   4.628
65656SOL    HW196992  12.192   9.089   4.649
65656SOL    HW296993  12.063   9.106   4.551
65657SOL     OW96994  11.554   8.148   4.204
65657SOL    HW196995  11.599   8.058   4.201
65657SOL    HW296996  11.460   8.137   4.237
65658SOL     OW96997  11.786   7.570   3.841
65658SOL    HW196998  11.884   7.548   3.848
65658SOL    HW296999  11.755   7.553   3.748
65659SOL     OW97000  11.953   7.712   5.473
65659SOL    HW197001  12.020   7.651   5.516
65659SOL    HW297002  11.880   7.731   5.538
65660SOL     OW97003  12.060   8.962   4.919
65660SOL    HW197004  12.037   8.937   4.825
65660SOL    HW297005  12.121   8.893   4.958
65661SOL     OW97006  12.523   8.038   5.157
65661SOL    HW197007  12.551   7.995   5.242
65661SOL    HW297008  12.548   8.134   5.158
65662SOL     OW97009  11.975   8.850   4.648
65662SOL    HW197010  12.065   8.864   4.606
65662SOL    HW297011  11.904   8.852   4.577
65663SOL     OW97012  12.094   7.951   4.623
65663SOL    HW197013  12.069   7.942   4.527
65663SOL    HW297014  12.142   7.869   4.654
65664SOL     OW97015  11.711   7.512   4.236
65664SOL    HW197016  11.630   7.513   4.294
65664SOL    HW297017  11.714   7.595   4.181
65665SOL     OW97018  12.606   8.636   3.765
65665SOL    HW197019  12.638   8.560   3.822
65665SOL    HW297020  12.514   8.663   3.795
65666SOL     OW97021  11.469   7.483   3.895
65666SOL    HW197022  11.518   7.567   3.874
65666SOL    HW297023  11.531   7.418   3.940
65667SOL     OW97024  12.107   7.684   4.204
65667SOL    HW197025  12.059   7.725   4.126
65667SOL    HW297026  12.206   7.682   4.185
65668SOL     OW97027  12.248   8.131   5.188
65668SOL    HW197028  12.168   8.070   5.191
65668SOL    HW297029  12.329   8.078   5.164
65669SOL     OW97030  12.399   9.018   4.517
65669SOL    HW197031  12.420   9.092   4.452
65669SOL    HW297032  12.467   9.018   4.590
65670SOL     OW97033  11.631   8.600   4.465
65670SOL    HW197034  11.560   8.573   4.530
65670SOL    HW297035  11.605   8.572   4.372
65671SOL     OW97036  12.443   9.245   4.315
65671SOL    HW197037  12.487   9.309   4.251
65671SOL    HW297038  12.393   9.297   4.385
65672SOL     OW97039  12.204   7.997   3.740
65672SOL    HW197040  12.163   8.079   3.701
65672SOL    HW297041  12.268   8.023   3.813
65673SOL     OW97042  11.250   8.004   5.110
65673SOL    HW197043  11.342   8.003   5.069
65673SOL    HW297044  11.244   8.078   5.177
65674SOL     OW97045  11.733   7.670   4.871
65674SOL    HW197046  11.771   7.586   4.908
65674SOL    HW297047  11.645   7.689   4.915
65675SOL     OW97048  12.038   7.902   4.366
65675SOL    HW197049  12.006   7.974   4.304
65675SOL    HW297050  12.062   7.821   4.313
65676SOL     OW97051  12.189   7.487   4.477
65676SOL    HW197052  12.117   7.492   4.408
65676SOL    HW297053  12.165   7.418   4.546
65677SOL     OW97054  12.601   8.621   4.591
65677SOL    HW197055  12.546   8.537   4.584
65677SOL    HW297056  12.627   8.650   4.499
65678SOL     OW97057  12.638   8.038   4.716
65678SOL    HW197058  12.608   7.943   4.723
65678SOL    HW297059  12.711   8.054   4.782
65679SOL     OW97060  11.660   8.833   3.898
65679SOL    HW197061  11.573   8.818   3.945
65679SOL    HW297062  11.643   8.859   3.803
65680SOL     OW97063  12.562   8.023   3.802
65680SOL    HW197064  12.508   8.002   3.883
65680SOL    HW297065  12.653   7.982   3.811
65681SOL     OW97066  11.699   7.704   4.052
65681SOL    HW197067  11.726   7.645   3.977
65681SOL    HW297068  11.699   7.799   4.021
65682SOL     OW97069  12.236   8.795   5.064
65682SOL    HW197070  12.156   8.772   5.119
65682SOL    HW297071  12.319   8.769   5.113
65683SOL     OW97072  12.764   9.077   5.349
65683SOL    HW197073  12.791   9.111   5.259
65683SOL    HW297074  12.843   9.039   5.395
65684SOL     OW97075  12.283   8.643   4.824
65684SOL    HW197076  12.243   8.687   4.905
65684SOL    HW297077  12.242   8.680   4.741
65685SOL     OW97078  12.087   7.537   5.126
65685SOL    HW197079  12.112   7.517   5.031
65685SOL    HW297080  12.159   7.593   5.168
65686SOL     OW97081  12.152   8.564   5.443
65686SOL    HW197082  12.053   8.570   5.453
65686SOL    HW297083  12.175   8.484   5.387
65687SOL     OW97084  11.877   8.498   4.092
65687SOL    HW197085  11.863   8.505   4.191
65687SOL    HW297086  11.961   8.447   4.074
65688SOL     OW97087  11.582   8.261   4.975
65688SOL    HW197088  11.668   8.273   5.025
65688SOL    HW297089  11.540   8.174   5.002
65689SOL     OW97090  12.446   7.834   4.986
65689SOL    HW197091  12.467   7.908   5.050
65689SOL    HW297092  12.357   7.851   4.943
65690SOL     OW97093  11.236   9.012   5.055
65690SOL    HW197094  11.190   9.094   5.021
65690SOL    HW297095  11.334   9.031   5.064
65691SOL     OW97096  11.539   8.548   4.225
65691SOL    HW197097  11.532   8.631   4.169
65691SOL    HW297098  11.543   8.468   4.165
65692SOL     OW97099  11.738   7.985   4.589
65692SOL    HW197100  11.750   8.051   4.515
65692SOL    HW297101  11.784   8.019   4.672
65693SOL     OW97102  12.424   8.796   4.112
65693SOL    HW197103  12.474   8.873   4.152
65693SOL    HW297104  12.329   8.798   4.144
65694SOL     OW97105  12.444   8.893   4.866
65694SOL    HW197106  12.491   8.906   4.953
65694SOL    HW297107  12.378   8.819   4.875
65695SOL     OW97108  12.754   8.087   4.196
65695SOL    HW197109  12.723   8.148   4.269
65695SOL    HW297110  12.804   8.139   4.127
65696SOL     OW97111  11.526   8.958   5.053
65696SOL    HW197112  11.505   8.914   4.966
65696SOL    HW297113  11.623   8.984   5.056
65697SOL     OW97114  11.574   8.199   5.322
65697SOL    HW197115  11.642   8.254   5.275
65697SOL    HW297116  11.614   8.111   5.349
65698SOL     OW97117  12.185   7.553   5.494
65698SOL    HW197118  12.191   7.638   5.442
65698SOL    HW297119  12.217   7.477   5.437
65699SOL     OW97120  11.676   7.498   5.464
65699SOL    HW197121  11.634   7.441   5.394
65699SOL    HW297122  11.610   7.567   5.496
65700SOL     OW97123  11.745   8.318   4.753
65700SOL    HW197124  11.789   8.407   4.744
65700SOL    HW297125  11.682   8.318   4.830
65701SOL     OW97126  12.532   8.310   4.769
65701SOL    HW197127  12.457   8.310   4.703
65701SOL    HW297128  12.569   8.218   4.778
65702SOL     OW97129  12.381   7.973   3.999
65702SOL    HW197130  12.394   7.889   4.053
65702SOL    HW297131  12.352   8.047   4.059
65703SOL     OW97132  11.479   7.661   4.955
65703SOL    HW197133  11.456   7.698   5.045
65703SOL    HW297134  11.449   7.566   4.949
65704SOL     OW97135  11.209   8.758   5.006
65704SOL    HW197136  11.262   8.709   5.074
65704SOL    HW297137  11.231   8.856   5.011
65705SOL     OW97138  11.904   8.082   4.788
65705SOL    HW197139  11.963   8.056   4.712
65705SOL    HW297140  11.876   8.178   4.777
65706SOL     OW97141  11.479   7.511   4.342
65706SOL    HW197142  11.468   7.605   4.375
65706SOL    HW297143  11.474   7.448   4.419
65707SOL     OW97144  12.794   7.815   4.098
65707SOL    HW197145  12.796   7.739   4.162
65707SOL    HW297146  12.746   7.892   4.138
65708SOL     OW97147  12.195   8.214   4.690
65708SOL    HW197148  12.210   8.235   4.786
65708SOL    HW297149  12.165   8.119   4.681
65709SOL     OW97150  12.152   9.021   5.424
65709SOL    HW197151  12.132   9.065   5.336
65709SOL    HW297152  12.191   8.930   5.408
65710SOL     OW97153  11.522   8.346   5.528
65710SOL    HW197154  11.598   8.390   5.576
65710SOL    HW297155  11.557   8.299   5.446
65711SOL     OW97156  12.712   7.722   3.849
65711SOL    HW197157  12.651   7.647   3.872
65711SOL    HW297158  12.734   7.774   3.932
65712SOL     OW97159  12.475   8.286   3.766
65712SOL    HW197160  12.509   8.193   3.781
65712SOL    HW297161  12.493   8.313   3.671
65713SOL     OW97162  12.240   8.781   4.573
65713SOL    HW197163  12.247   8.697   4.518
65713SOL    HW297164  12.302   8.850   4.537
65714SOL     OW97165  11.491   8.258   4.673
65714SOL    HW197166  11.584   8.294   4.678
65714SOL    HW297167  11.485   8.173   4.725
65715SOL     OW97168  11.511   7.957   4.730
65715SOL    HW197169  11.459   7.874   4.713
65715SOL    HW297170  11.588   7.962   4.666
65716SOL     OW97171  12.310   7.828   5.402
65716SOL    HW197172  12.265   7.891   5.466
65716SOL    HW297173  12.403   7.859   5.385
65717SOL     OW97174  12.332   7.655   5.201
65717SOL    HW197175  12.332   7.719   5.278
65717SOL    HW297176  12.360   7.703   5.118
65718SOL     OW97177  11.180   8.774   3.924
65718SOL    HW197178  11.087   8.795   3.893
65718SOL    HW297179  11.190   8.675   3.937
65719SOL     OW97180  11.260   9.249   4.651
65719SOL    HW197181  11.218   9.163   4.624
65719SOL    HW297182  11.354   9.252   4.617
65720SOL     OW97183  11.676   9.016   4.634
65720SOL    HW197184  11.742   9.090   4.643
65720SOL    HW297185  11.720   8.937   4.592
65721SOL     OW97186  12.174   8.244   4.962
65721SOL    HW197187  12.215   8.212   5.048
65721SOL    HW297188  12.078   8.217   4.959
65722SOL     OW97189  11.212   7.992   4.838
65722SOL    HW197190  11.297   7.959   4.797
65722SOL    HW297191  11.225   8.007   4.936
65723SOL     OW97192  11.361   7.968   5.446
65723SOL    HW197193  11.420   7.928   5.376
65723SOL    HW297194  11.303   8.039   5.405
65724SOL     OW97195  12.541   8.398   5.384
65724SOL    HW197196  12.580   8.487   5.404
65724SOL    HW297197  12.551   8.378   5.287
65725SOL     OW97198  11.987   8.020   4.049
65725SOL    HW197199  11.994   7.931   4.003
65725SOL    HW297200  11.893   8.054   4.041
65726SOL     OW97201  11.424   9.012   5.468
65726SOL    HW197202  11.394   9.069   5.544
65726SOL    HW297203  11.417   8.915   5.494
65727SOL     OW97204  11.843   7.912   4.993
65727SOL    HW197205  11.809   7.823   4.963
65727SOL    HW297206  11.869   7.966   4.913
65728SOL     OW97207  12.102   9.126   5.189
65728SOL    HW197208  12.078   9.108   5.094
65728SOL    HW297209  12.132   9.220   5.199
65729SOL     OW97210  11.645   7.948   3.915
65729SOL    HW197211  11.706   8.028   3.919
65729SOL    HW297212  11.550   7.979   3.922
65730SOL     OW97213  11.331   8.585   5.190
65730SOL    HW197214  11.353   8.524   5.266
65730SOL    HW297215  11.341   8.536   5.104
65731SOL     OW97216  12.519   8.507   4.958
65731SOL    HW197217  12.543   8.444   4.884
65731SOL    HW297218  12.429   8.547   4.940
65732SOL     OW97219  12.474   8.303   4.033
65732SOL    HW197220  12.388   8.272   4.075
65732SOL    HW297221  12.470   8.289   3.934
65733SOL     OW97222  12.424   9.179   4.852
65733SOL    HW197223  12.508   9.184   4.798
65733SOL    HW297224  12.401   9.083   4.870
65734SOL     OW97225  11.255   8.706   4.746
65734SOL    HW197226  11.250   8.705   4.846
65734SOL    HW297227  11.172   8.665   4.708
65735SOL     OW97228  11.860   9.110   5.440
65735SOL    HW197229  11.804   9.191   5.449
65735SOL    HW297230  11.912   9.114   5.354
65736SOL     OW97231  12.898   7.583   4.247
65736SOL    HW197232  12.971   7.566   4.180
65736SOL    HW297233  12.867   7.496   4.285
65737SOL     OW97234  12.560   9.021   4.201
65737SOL    HW197235  12.627   9.033   4.127
65737SOL    HW297236  12.520   9.110   4.224
65738SOL     OW97237  11.302   9.242   5.575
65738SOL    HW197238  11.261   9.168   5.628
65738SOL    HW297239  11.366   9.293   5.633
65739SOL     OW97240  12.452   8.375   4.396
65739SOL    HW197241  12.512   8.294   4.398
65739SOL    HW297242  12.492   8.444   4.336
65740SOL     OW97243  12.002   8.721   5.146
65740SOL    HW197244  11.997   8.754   5.241
65740SOL    HW297245  11.916   8.740   5.100
65741SOL     OW97246  11.844   9.064   3.878
65741SOL    HW197247  11.853   9.074   3.779
65741SOL    HW297248  11.804   8.975   3.899
65742SOL     OW97249  11.435   7.774   4.444
65742SOL    HW197250  11.356   7.825   4.410
65742SOL    HW297251  11.426   7.759   4.542
65743SOL     OW97252  12.366   9.060   3.755
65743SOL    HW197253  12.372   8.967   3.792
65743SOL    HW297254  12.307   9.060   3.675
65744SOL     OW97255  11.994   8.450   5.096
65744SOL    HW197256  12.034   8.449   5.004
65744SOL    HW297257  12.004   8.542   5.136
65745SOL     OW97258  12.088   8.358   4.015
65745SOL    HW197259  12.151   8.396   3.947
65745SOL    HW297260  12.128   8.275   4.054
65746SOL     OW97261  12.676   9.055   3.768
65746SOL    HW197262  12.584   9.092   3.775
65746SOL    HW297263  12.714   9.075   3.678
65747SOL     OW97264  11.544   8.736   5.214
65747SOL    HW197265  11.531   8.829   5.180
65747SOL    HW297266  11.460   8.684   5.201
65748SOL     OW97267  12.211   8.546   4.420
65748SOL    HW197268  12.141   8.499   4.474
65748SOL    HW297269  12.270   8.478   4.377
65749SOL     OW97270  12.186   7.684   4.695
65749SOL    HW197271  12.178   7.648   4.602
65749SOL    HW297272  12.184   7.608   4.760
65750SOL     OW97273  11.762   8.935   4.215
65750SOL    HW197274  11.804   8.877   4.145
65750SOL    HW297275  11.718   9.014   4.171
65751SOL     OW97276  11.427   8.796   4.014
65751SOL    HW197277  11.331   8.797   3.987
65751SOL    HW297278  11.439   8.849   4.098
65752SOL     OW97279  11.277   8.461   5.450
65752SOL    HW197280  11.200   8.428   5.504
65752SOL    HW297281  11.362   8.431   5.492
65753SOL     OW97282  11.844   7.651   5.213
65753SOL    HW197283  11.934   7.635   5.173
65753SOL    HW297284  11.852   7.656   5.312
65754SOL     OW97285  11.247   7.793   3.757
65754SOL    HW197286  11.155   7.765   3.728
65754SOL    HW297287  11.278   7.870   3.701
65755SOL     OW97288  12.612   8.304   5.122
65755SOL    HW197289  12.555   8.356   5.059
65755SOL    HW297290  12.708   8.316   5.098
65756SOL     OW97291  11.244   7.614   4.042
65756SOL    HW197292  11.227   7.697   3.988
65756SOL    HW297293  11.334   7.577   4.020
65757SOL     OW97294  12.355   8.783   3.843
65757SOL    HW197295  12.256   8.772   3.845
65757SOL    HW297296  12.389   8.798   3.936
65758SOL     OW97297  11.785   8.290   5.155
65758SOL    HW197298  11.841   8.371   5.138
65758SOL    HW297299  11.844   8.210   5.158
65759SOL     OW97300  12.665   9.215   4.683
65759SOL    HW197301  12.698   9.279   4.614
65759SOL    HW297302  12.731   9.209   4.758
65760SOL     OW97303  11.888   8.013   5.432
65760SOL    HW197304  11.907   8.078   5.506
65760SOL    HW297305  11.948   7.933   5.441
65761SOL     OW97306  12.622   8.668   5.357
65761SOL    HW197307  12.613   8.658   5.456
65761SOL    HW297308  12.718   8.661   5.331
65762SOL     OW97309  11.562   9.189   5.284
65762SOL    HW197310  11.471   9.230   5.282
65762SOL    HW297311  11.555   9.095   5.316
65763SOL     OW97312  12.397   7.773   4.173
65763SOL    HW197313  12.462   7.699   4.162
65763SOL    HW297314  12.417   7.823   4.257
65764SOL     OW97315  11.766   8.193   4.376
65764SOL    HW197316  11.816   8.278   4.357
65764SOL    HW297317  11.678   8.195   4.328
65765SOL     OW97318  12.031   8.822   3.740
65765SOL    HW197319  11.985   8.837   3.828
65765SOL    HW297320  12.075   8.907   3.710
65766SOL     OW97321  11.833   9.238   4.677
65766SOL    HW197322  11.787   9.326   4.664
65766SOL    HW297323  11.932   9.250   4.670
65767SOL     OW97324  12.031   8.404   4.585
65767SOL    HW197325  12.085   8.335   4.633
65767SOL    HW297326  11.999   8.473   4.651
65768SOL     OW97327  12.255   8.432   3.811
65768SOL    HW197328  12.232   8.485   3.729
65768SOL    HW297329  12.336   8.376   3.792
65769SOL     OW97330  13.033   9.017   4.575
65769SOL    HW197331  12.962   9.005   4.505
65769SOL    HW297332  13.034   8.938   4.635
65770SOL     OW97333  11.393   8.762   5.568
65770SOL    HW197334  11.328   8.689   5.547
65770SOL    HW297335  11.397   8.776   5.666
65771SOL     OW97336  11.251   8.688   4.377
65771SOL    HW197337  11.250   8.641   4.465
65771SOL    HW297338  11.333   8.660   4.326
65772SOL     OW97339  11.844   8.839   5.348
65772SOL    HW197340  11.766   8.789   5.386
65772SOL    HW297341  11.841   8.934   5.379
65773SOL     OW97342  11.600   7.872   4.244
65773SOL    HW197343  11.630   7.800   4.182
65773SOL    HW297344  11.561   7.832   4.327
65774SOL     OW97345  11.489   7.995   5.004
65774SOL    HW197346  11.527   7.936   5.076
65774SOL    HW297347  11.529   7.969   4.916
65775SOL     OW97348  11.984   9.034   4.411
65775SOL    HW197349  12.016   9.044   4.317
65775SOL    HW297350  11.905   8.972   4.413
65776SOL     OW97351  12.596   7.662   4.836
65776SOL    HW197352  12.648   7.597   4.891
65776SOL    HW297353  12.547   7.725   4.897
65777SOL     OW97354  12.173   7.482   4.878
65777SOL    HW197355  12.110   7.410   4.847
65777SOL    HW297356  12.266   7.446   4.878
65778SOL     OW97357  11.942   8.778   4.025
65778SOL    HW197358  11.896   8.691   4.042
65778SOL    HW297359  12.033   8.775   4.066
65779SOL     OW97360  11.790   9.015   5.008
65779SOL    HW197361  11.785   9.097   5.065
65779SOL    HW297362  11.879   9.012   4.963
65780SOL     OW97363  12.524   7.500   3.892
65780SOL    HW197364  12.559   7.459   3.808
65780SOL    HW297365  12.434   7.462   3.912
65781SOL     OW97366  12.472   7.901   4.415
65781SOL    HW197367  12.413   7.981   4.419
65781SOL    HW297368  12.487   7.866   4.508
65782SOL     OW97369  12.765   7.669   4.606
65782SOL    HW197370  12.681   7.668   4.660
65782SOL    HW297371  12.767   7.752   4.550
65783SOL     OW97372  11.211   8.525   4.024
65783SOL    HW197373  11.310   8.514   4.015
65783SOL    HW297374  11.171   8.439   4.056
65784SOL     OW97375  12.047   9.094   4.061
65784SOL    HW197376  11.970   9.059   4.007
65784SOL    HW297377  12.015   9.165   4.123
65785SOL     OW97378  11.402   8.076   5.699
65785SOL    HW197379  11.309   8.074   5.736
65785SOL    HW297380  11.403   8.037   5.607
65786SOL     OW97381  11.397   7.723   6.582
65786SOL    HW197382  11.432   7.706   6.674
65786SOL    HW297383  11.309   7.678   6.570
65787SOL     OW97384  11.191   7.816   6.233
65787SOL    HW197385  11.109   7.859   6.272
65787SOL    HW297386  11.163   7.743   6.170
65788SOL     OW97387  11.741   8.723   6.751
65788SOL    HW197388  11.648   8.716   6.714
65788SOL    HW297389  11.752   8.812   6.795
65789SOL     OW97390  12.727   8.959   6.289
65789SOL    HW197391  12.670   8.943   6.370
65789SOL    HW297392  12.668   8.969   6.209
65790SOL     OW97393  12.307   8.151   6.303
65790SOL    HW197394  12.364   8.229   6.278
65790SOL    HW297395  12.247   8.177   6.379
65791SOL     OW97396  11.940   8.592   6.609
65791SOL    HW197397  11.862   8.609   6.669
65791SOL    HW297398  11.974   8.679   6.573
65792SOL     OW97399  12.022   8.246   7.409
65792SOL    HW197400  12.018   8.322   7.474
65792SOL    HW297401  12.044   8.282   7.318
65793SOL     OW97402  11.857   8.460   6.251
65793SOL    HW197403  11.926   8.444   6.321
65793SOL    HW297404  11.784   8.517   6.289
65794SOL     OW97405  11.858   8.609   7.389
65794SOL    HW197406  11.918   8.688   7.403
65794SOL    HW297407  11.772   8.640   7.348
65795SOL     OW97408  11.507   8.883   6.647
65795SOL    HW197409  11.429   8.852   6.594
65795SOL    HW297410  11.565   8.941   6.590
65796SOL     OW97411  12.632   8.953   6.925
65796SOL    HW197412  12.656   9.047   6.951
65796SOL    HW297413  12.616   8.899   7.007
65797SOL     OW97414  11.610   7.840   7.085
65797SOL    HW197415  11.692   7.784   7.094
65797SOL    HW297416  11.529   7.782   7.089
65798SOL     OW97417  11.403   9.161   6.069
65798SOL    HW197418  11.437   9.238   6.123
65798SOL    HW297419  11.447   9.161   5.979
65799SOL     OW97420  12.299   8.789   7.276
65799SOL    HW197421  12.346   8.789   7.364
65799SOL    HW297422  12.251   8.702   7.265
65800SOL     OW97423  11.402   8.882   6.124
65800SOL    HW197424  11.376   8.978   6.124
65800SOL    HW297425  11.331   8.828   6.169
65801SOL     OW97426  11.412   8.539   6.472
65801SOL    HW197427  11.426   8.455   6.524
65801SOL    HW297428  11.357   8.603   6.527
65802SOL     OW97429  11.792   9.234   7.025
65802SOL    HW197430  11.700   9.217   7.060
65802SOL    HW297431  11.820   9.326   7.051
65803SOL     OW97432  11.778   8.412   5.709
65803SOL    HW197433  11.785   8.496   5.655
65803SOL    HW297434  11.824   8.425   5.797
65804SOL     OW97435  12.766   7.562   7.066
65804SOL    HW197436  12.748   7.629   6.994
65804SOL    HW297437  12.763   7.608   7.155
65805SOL     OW97438  11.294   8.091   6.149
65805SOL    HW197439  11.249   8.003   6.166
65805SOL    HW297440  11.293   8.145   6.233
65806SOL     OW97441  11.199   9.044   5.703
65806SOL    HW197442  11.180   8.948   5.724
65806SOL    HW297443  11.166   9.102   5.778
65807SOL     OW97444  12.861   8.370   6.198
65807SOL    HW197445  12.956   8.341   6.206
65807SOL    HW297446  12.853   8.435   6.123
65808SOL     OW97447  11.285   8.185   7.183
65808SOL    HW197448  11.373   8.172   7.228
65808SOL    HW297449  11.272   8.282   7.161
65809SOL     OW97450  11.785   8.813   6.312
65809SOL    HW197451  11.736   8.726   6.321
65809SOL    HW297452  11.762   8.856   6.225
65810SOL     OW97453  12.465   8.676   7.009
65810SOL    HW197454  12.502   8.603   6.951
65810SOL    HW297455  12.517   8.681   7.094
65811SOL     OW97456  11.981   7.452   6.088
65811SOL    HW197457  12.021   7.543   6.079
65811SOL    HW297458  11.881   7.460   6.094
65812SOL     OW97459  11.369   8.424   6.850
65812SOL    HW197460  11.458   8.379   6.836
65812SOL    HW297461  11.296   8.359   6.831
65813SOL     OW97462  12.359   9.240   7.202
65813SOL    HW197463  12.383   9.300   7.126
65813SOL    HW297464  12.366   9.145   7.172
65814SOL     OW97465  11.489   7.699   7.387
65814SOL    HW197466  11.560   7.770   7.393
65814SOL    HW297467  11.401   7.738   7.415
65815SOL     OW97468  12.638   8.865   6.539
65815SOL    HW197469  12.579   8.871   6.619
65815SOL    HW297470  12.623   8.777   6.493
65816SOL     OW97471  12.839   9.162   6.158
65816SOL    HW197472  12.798   9.139   6.070
65816SOL    HW297473  12.821   9.088   6.223
65817SOL     OW97474  11.770   8.177   5.856
65817SOL    HW197475  11.794   8.246   5.788
65817SOL    HW297476  11.692   8.210   5.910
65818SOL     OW97477  12.453   7.793   6.530
65818SOL    HW197478  12.367   7.743   6.517
65818SOL    HW297479  12.515   7.739   6.586
65819SOL     OW97480  11.979   8.053   7.051
65819SOL    HW197481  11.932   8.050   7.140
65819SOL    HW297482  11.928   7.998   6.985
65820SOL     OW97483  12.566   7.917   7.260
65820SOL    HW197484  12.546   7.960   7.348
65820SOL    HW297485  12.644   7.855   7.269
65821SOL     OW97486  12.145   8.338   7.158
65821SOL    HW197487  12.191   8.254   7.129
65821SOL    HW297488  12.089   8.372   7.083
65822SOL     OW97489  12.163   7.858   6.828
65822SOL    HW197490  12.086   7.892   6.882
65822SOL    HW297491  12.129   7.807   6.749
65823SOL     OW97492  12.213   8.149   6.015
65823SOL    HW197493  12.239   8.145   6.111
65823SOL    HW297494  12.128   8.098   6.001
65824SOL     OW97495  11.248   8.259   6.375
65824SOL    HW197496  11.347   8.247   6.384
65824SOL    HW297497  11.224   8.354   6.396
65825SOL     OW97498  11.302   9.269   7.157
65825SOL    HW197499  11.292   9.254   7.256
65825SOL    HW297500  11.216   9.305   7.121
65826SOL     OW97501  12.037   7.796   5.781
65826SOL    HW197502  12.096   7.859   5.732
65826SOL    HW297503  12.056   7.702   5.752
65827SOL     OW97504  12.534   8.592   6.131
65827SOL    HW197505  12.617   8.563   6.083
65827SOL    HW297506  12.485   8.659   6.075
65828SOL     OW97507  11.722   7.644   6.471
65828SOL    HW197508  11.717   7.639   6.571
65828SOL    HW297509  11.724   7.740   6.442
65829SOL     OW97510  12.180   8.904   6.063
65829SOL    HW197511  12.134   8.976   6.011
65829SOL    HW297512  12.176   8.924   6.161
65830SOL     OW97513  11.523   9.249   6.439
65830SOL    HW197514  11.573   9.163   6.445
65830SOL    HW297515  11.588   9.326   6.436
65831SOL     OW97516  12.399   8.998   7.092
65831SOL    HW197517  12.405   8.921   7.156
65831SOL    HW297518  12.347   8.972   7.012
65832SOL     OW97519  11.493   8.391   5.828
65832SOL    HW197520  11.575   8.430   5.786
65832SOL    HW297521  11.466   8.309   5.779
65833SOL     OW97522  12.630   8.183   6.314
65833SOL    HW197523  12.625   8.118   6.389
65833SOL    HW297524  12.710   8.242   6.327
65834SOL     OW97525  11.633   8.714   7.313
65834SOL    HW197526  11.583   8.715   7.227
65834SOL    HW297527  11.570   8.696   7.389
65835SOL     OW97528  12.283   9.224   5.823
65835SOL    HW197529  12.223   9.162   5.873
65835SOL    HW297530  12.314   9.180   5.738
65836SOL     OW97531  11.374   7.733   7.084
65836SOL    HW197532  11.294   7.793   7.071
65836SOL    HW297533  11.364   7.684   7.170
65837SOL     OW97534  11.636   9.191   5.909
65837SOL    HW197535  11.669   9.230   5.995
65837SOL    HW297536  11.712   9.184   5.844
65838SOL     OW97537  12.572   7.555   6.012
65838SOL    HW197538  12.548   7.518   5.922
65838SOL    HW297539  12.671   7.571   6.016
65839SOL     OW97540  11.421   9.233   6.827
65839SOL    HW197541  11.478   9.168   6.877
65839SOL    HW297542  11.405   9.200   6.734
65840SOL     OW97543  12.112   9.146   6.490
65840SOL    HW197544  12.192   9.089   6.511
65840SOL    HW297545  12.063   9.106   6.413
65841SOL     OW97546  11.554   8.148   6.066
65841SOL    HW197547  11.599   8.058   6.063
65841SOL    HW297548  11.460   8.137   6.099
65842SOL     OW97549  11.786   7.570   5.703
65842SOL    HW197550  11.884   7.548   5.710
65842SOL    HW297551  11.755   7.553   5.610
65843SOL     OW97552  11.953   7.712   7.335
65843SOL    HW197553  12.020   7.651   7.378
65843SOL    HW297554  11.880   7.731   7.400
65844SOL     OW97555  12.060   8.962   6.781
65844SOL    HW197556  12.037   8.937   6.687
65844SOL    HW297557  12.121   8.893   6.820
65845SOL     OW97558  12.523   8.038   7.019
65845SOL    HW197559  12.551   7.995   7.104
65845SOL    HW297560  12.548   8.134   7.020
65846SOL     OW97561  11.975   8.850   6.510
65846SOL    HW197562  12.065   8.864   6.468
65846SOL    HW297563  11.904   8.852   6.439
65847SOL     OW97564  12.094   7.951   6.485
65847SOL    HW197565  12.069   7.942   6.389
65847SOL    HW297566  12.142   7.869   6.516
65848SOL     OW97567  11.711   7.512   6.098
65848SOL    HW197568  11.630   7.513   6.156
65848SOL    HW297569  11.714   7.595   6.043
65849SOL     OW97570  12.606   8.636   5.627
65849SOL    HW197571  12.638   8.560   5.684
65849SOL    HW297572  12.514   8.663   5.657
65850SOL     OW97573  11.469   7.483   5.757
65850SOL    HW197574  11.518   7.567   5.736
65850SOL    HW297575  11.531   7.418   5.802
65851SOL     OW97576  12.107   7.684   6.066
65851SOL    HW197577  12.059   7.725   5.988
65851SOL    HW297578  12.206   7.682   6.047
65852SOL     OW97579  12.248   8.131   7.050
65852SOL    HW197580  12.168   8.070   7.053
65852SOL    HW297581  12.329   8.078   7.026
65853SOL     OW97582  12.399   9.018   6.379
65853SOL    HW197583  12.420   9.092   6.314
65853SOL    HW297584  12.467   9.018   6.452
65854SOL     OW97585  11.631   8.600   6.327
65854SOL    HW197586  11.560   8.573   6.392
65854SOL    HW297587  11.605   8.572   6.234
65855SOL     OW97588  12.443   9.245   6.177
65855SOL    HW197589  12.487   9.309   6.113
65855SOL    HW297590  12.393   9.297   6.247
65856SOL     OW97591  12.204   7.997   5.602
65856SOL    HW197592  12.163   8.079   5.563
65856SOL    HW297593  12.268   8.023   5.675
65857SOL     OW97594  11.250   8.004   6.972
65857SOL    HW197595  11.342   8.003   6.931
65857SOL    HW297596  11.244   8.078   7.039
65858SOL     OW97597  11.733   7.670   6.733
65858SOL    HW197598  11.771   7.586   6.770
65858SOL    HW297599  11.645   7.689   6.777
65859SOL     OW97600  12.038   7.902   6.228
65859SOL    HW197601  12.006   7.974   6.166
65859SOL    HW297602  12.062   7.821   6.175
65860SOL     OW97603  12.189   7.487   6.339
65860SOL    HW197604  12.117   7.492   6.270
65860SOL    HW297605  12.165   7.418   6.408
65861SOL     OW97606  12.601   8.621   6.453
65861SOL    HW197607  12.546   8.537   6.446
65861SOL    HW297608  12.627   8.650   6.361
65862SOL     OW97609  12.638   8.038   6.578
65862SOL    HW197610  12.608   7.943   6.585
65862SOL    HW297611  12.711   8.054   6.644
65863SOL     OW97612  11.660   8.833   5.760
65863SOL    HW197613  11.573   8.818   5.807
65863SOL    HW297614  11.643   8.859   5.665
65864SOL     OW97615  12.562   8.023   5.664
65864SOL    HW197616  12.508   8.002   5.745
65864SOL    HW297617  12.653   7.982   5.673
65865SOL     OW97618  11.699   7.704   5.914
65865SOL    HW197619  11.726   7.645   5.839
65865SOL    HW297620  11.699   7.799   5.883
65866SOL     OW97621  12.236   8.795   6.926
65866SOL    HW197622  12.156   8.772   6.981
65866SOL    HW297623  12.319   8.769   6.975
65867SOL     OW97624  12.764   9.077   7.211
65867SOL    HW197625  12.791   9.111   7.121
65867SOL    HW297626  12.843   9.039   7.257
65868SOL     OW97627  12.283   8.643   6.686
65868SOL    HW197628  12.243   8.687   6.767
65868SOL    HW297629  12.242   8.680   6.603
65869SOL     OW97630  12.087   7.537   6.988
65869SOL    HW197631  12.112   7.517   6.893
65869SOL    HW297632  12.159   7.593   7.030
65870SOL     OW97633  12.152   8.564   7.305
65870SOL    HW197634  12.053   8.570   7.315
65870SOL    HW297635  12.175   8.484   7.249
65871SOL     OW97636  11.877   8.498   5.954
65871SOL    HW197637  11.863   8.505   6.053
65871SOL    HW297638  11.961   8.447   5.936
65872SOL     OW97639  11.582   8.261   6.837
65872SOL    HW197640  11.668   8.273   6.887
65872SOL    HW297641  11.540   8.174   6.864
65873SOL     OW97642  12.446   7.834   6.848
65873SOL    HW197643  12.467   7.908   6.912
65873SOL    HW297644  12.357   7.851   6.805
65874SOL     OW97645  11.236   9.012   6.917
65874SOL    HW197646  11.190   9.094   6.883
65874SOL    HW297647  11.334   9.031   6.926
65875SOL     OW97648  11.539   8.548   6.087
65875SOL    HW197649  11.532   8.631   6.031
65875SOL    HW297650  11.543   8.468   6.027
65876SOL     OW97651  11.738   7.985   6.451
65876SOL    HW197652  11.750   8.051   6.377
65876SOL    HW297653  11.784   8.019   6.534
65877SOL     OW97654  12.424   8.796   5.974
65877SOL    HW197655  12.474   8.873   6.014
65877SOL    HW297656  12.329   8.798   6.006
65878SOL     OW97657  12.444   8.893   6.728
65878SOL    HW197658  12.491   8.906   6.815
65878SOL    HW297659  12.378   8.819   6.737
65879SOL     OW97660  12.754   8.087   6.058
65879SOL    HW197661  12.723   8.148   6.131
65879SOL    HW297662  12.804   8.139   5.989
65880SOL     OW97663  11.526   8.958   6.915
65880SOL    HW197664  11.505   8.914   6.828
65880SOL    HW297665  11.623   8.984   6.918
65881SOL     OW97666  11.574   8.199   7.184
65881SOL    HW197667  11.642   8.254   7.137
65881SOL    HW297668  11.614   8.111   7.211
65882SOL     OW97669  12.185   7.553   7.356
65882SOL    HW197670  12.191   7.638   7.304
65882SOL    HW297671  12.217   7.477   7.299
65883SOL     OW97672  11.676   7.498   7.326
65883SOL    HW197673  11.634   7.441   7.256
65883SOL    HW297674  11.610   7.567   7.358
65884SOL     OW97675  11.745   8.318   6.615
65884SOL    HW197676  11.789   8.407   6.606
65884SOL    HW297677  11.682   8.318   6.692
65885SOL     OW97678  12.532   8.310   6.631
65885SOL    HW197679  12.457   8.310   6.565
65885SOL    HW297680  12.569   8.218   6.640
65886SOL     OW97681  12.381   7.973   5.861
65886SOL    HW197682  12.394   7.889   5.915
65886SOL    HW297683  12.352   8.047   5.921
65887SOL     OW97684  11.479   7.661   6.817
65887SOL    HW197685  11.456   7.698   6.907
65887SOL    HW297686  11.449   7.566   6.811
65888SOL     OW97687  11.209   8.758   6.868
65888SOL    HW197688  11.262   8.709   6.936
65888SOL    HW297689  11.231   8.856   6.873
65889SOL     OW97690  11.904   8.082   6.650
65889SOL    HW197691  11.963   8.056   6.574
65889SOL    HW297692  11.876   8.178   6.639
65890SOL     OW97693  11.479   7.511   6.204
65890SOL    HW197694  11.468   7.605   6.237
65890SOL    HW297695  11.474   7.448   6.281
65891SOL     OW97696  12.794   7.815   5.960
65891SOL    HW197697  12.796   7.739   6.024
65891SOL    HW297698  12.746   7.892   6.000
65892SOL     OW97699  12.195   8.214   6.552
65892SOL    HW197700  12.210   8.235   6.648
65892SOL    HW297701  12.165   8.119   6.543
65893SOL     OW97702  12.152   9.021   7.286
65893SOL    HW197703  12.132   9.065   7.198
65893SOL    HW297704  12.191   8.930   7.270
65894SOL     OW97705  11.522   8.346   7.390
65894SOL    HW197706  11.598   8.390   7.438
65894SOL    HW297707  11.557   8.299   7.308
65895SOL     OW97708  12.712   7.722   5.711
65895SOL    HW197709  12.651   7.647   5.734
65895SOL    HW297710  12.734   7.774   5.794
65896SOL     OW97711  12.475   8.286   5.628
65896SOL    HW197712  12.509   8.193   5.643
65896SOL    HW297713  12.493   8.313   5.533
65897SOL     OW97714  12.240   8.781   6.435
65897SOL    HW197715  12.247   8.697   6.380
65897SOL    HW297716  12.302   8.850   6.399
65898SOL     OW97717  11.491   8.258   6.535
65898SOL    HW197718  11.584   8.294   6.540
65898SOL    HW297719  11.485   8.173   6.587
65899SOL     OW97720  11.511   7.957   6.592
65899SOL    HW197721  11.459   7.874   6.575
65899SOL    HW297722  11.588   7.962   6.528
65900SOL     OW97723  12.310   7.828   7.264
65900SOL    HW197724  12.265   7.891   7.328
65900SOL    HW297725  12.403   7.859   7.247
65901SOL     OW97726  12.332   7.655   7.063
65901SOL    HW197727  12.332   7.719   7.140
65901SOL    HW297728  12.360   7.703   6.980
65902SOL     OW97729  11.180   8.774   5.786
65902SOL    HW197730  11.087   8.795   5.755
65902SOL    HW297731  11.190   8.675   5.799
65903SOL     OW97732  11.260   9.249   6.513
65903SOL    HW197733  11.218   9.163   6.486
65903SOL    HW297734  11.354   9.252   6.479
65904SOL     OW97735  11.676   9.016   6.496
65904SOL    HW197736  11.742   9.090   6.505
65904SOL    HW297737  11.720   8.937   6.454
65905SOL     OW97738  12.174   8.244   6.824
65905SOL    HW197739  12.215   8.212   6.910
65905SOL    HW297740  12.078   8.217   6.821
65906SOL     OW97741  11.212   7.992   6.700
65906SOL    HW197742  11.297   7.959   6.659
65906SOL    HW297743  11.225   8.007   6.798
65907SOL     OW97744  11.361   7.968   7.308
65907SOL    HW197745  11.420   7.928   7.238
65907SOL    HW297746  11.303   8.039   7.267
65908SOL     OW97747  12.541   8.398   7.246
65908SOL    HW197748  12.580   8.487   7.266
65908SOL    HW297749  12.551   8.378   7.149
65909SOL     OW97750  11.987   8.020   5.911
65909SOL    HW197751  11.994   7.931   5.865
65909SOL    HW297752  11.893   8.054   5.903
65910SOL     OW97753  11.424   9.012   7.330
65910SOL    HW197754  11.394   9.069   7.406
65910SOL    HW297755  11.417   8.915   7.356
65911SOL     OW97756  11.843   7.912   6.855
65911SOL    HW197757  11.809   7.823   6.825
65911SOL    HW297758  11.869   7.966   6.775
65912SOL     OW97759  12.102   9.126   7.051
65912SOL    HW197760  12.078   9.108   6.956
65912SOL    HW297761  12.132   9.220   7.061
65913SOL     OW97762  11.645   7.948   5.777
65913SOL    HW197763  11.706   8.028   5.781
65913SOL    HW297764  11.550   7.979   5.784
65914SOL     OW97765  11.331   8.585   7.052
65914SOL    HW197766  11.353   8.524   7.128
65914SOL    HW297767  11.341   8.536   6.966
65915SOL     OW97768  12.519   8.507   6.820
65915SOL    HW197769  12.543   8.444   6.746
65915SOL    HW297770  12.429   8.547   6.802
65916SOL     OW97771  12.474   8.303   5.895
65916SOL    HW197772  12.388   8.272   5.937
65916SOL    HW297773  12.470   8.289   5.796
65917SOL     OW97774  12.424   9.179   6.714
65917SOL    HW197775  12.508   9.184   6.660
65917SOL    HW297776  12.401   9.083   6.732
65918SOL     OW97777  11.255   8.706   6.608
65918SOL    HW197778  11.250   8.705   6.708
65918SOL    HW297779  11.172   8.665   6.570
65919SOL     OW97780  11.860   9.110   7.302
65919SOL    HW197781  11.804   9.191   7.311
65919SOL    HW297782  11.912   9.114   7.216
65920SOL     OW97783  12.898   7.583   6.109
65920SOL    HW197784  12.971   7.566   6.042
65920SOL    HW297785  12.867   7.496   6.147
65921SOL     OW97786  12.560   9.021   6.063
65921SOL    HW197787  12.627   9.033   5.989
65921SOL    HW297788  12.520   9.110   6.086
65922SOL     OW97789  11.302   9.242   7.437
65922SOL    HW197790  11.261   9.168   7.490
65922SOL    HW297791  11.366   9.293   7.495
65923SOL     OW97792  12.452   8.375   6.258
65923SOL    HW197793  12.512   8.294   6.260
65923SOL    HW297794  12.492   8.444   6.198
65924SOL     OW97795  12.002   8.721   7.008
65924SOL    HW197796  11.997   8.754   7.103
65924SOL    HW297797  11.916   8.740   6.962
65925SOL     OW97798  11.844   9.064   5.740
65925SOL    HW197799  11.853   9.074   5.641
65925SOL    HW297800  11.804   8.975   5.761
65926SOL     OW97801  11.435   7.774   6.306
65926SOL    HW197802  11.356   7.825   6.272
65926SOL    HW297803  11.426   7.759   6.404
65927SOL     OW97804  12.366   9.060   5.617
65927SOL    HW197805  12.372   8.967   5.654
65927SOL    HW297806  12.307   9.060   5.537
65928SOL     OW97807  11.994   8.450   6.958
65928SOL    HW197808  12.034   8.449   6.866
65928SOL    HW297809  12.004   8.542   6.998
65929SOL     OW97810  12.088   8.358   5.877
65929SOL    HW197811  12.151   8.396   5.809
65929SOL    HW297812  12.128   8.275   5.916
65930SOL     OW97813  12.676   9.055   5.630
65930SOL    HW197814  12.584   9.092   5.637
65930SOL    HW297815  12.714   9.075   5.540
65931SOL     OW97816  11.544   8.736   7.076
65931SOL    HW197817  11.531   8.829   7.042
65931SOL    HW297818  11.460   8.684   7.063
65932SOL     OW97819  12.211   8.546   6.282
65932SOL    HW197820  12.141   8.499   6.336
65932SOL    HW297821  12.270   8.478   6.239
65933SOL     OW97822  12.186   7.684   6.557
65933SOL    HW197823  12.178   7.648   6.464
65933SOL    HW297824  12.184   7.608   6.622
65934SOL     OW97825  11.762   8.935   6.077
65934SOL    HW197826  11.804   8.877   6.007
65934SOL    HW297827  11.718   9.014   6.033
65935SOL     OW97828  11.427   8.796   5.876
65935SOL    HW197829  11.331   8.797   5.849
65935SOL    HW297830  11.439   8.849   5.960
65936SOL     OW97831  11.277   8.461   7.312
65936SOL    HW197832  11.200   8.428   7.366
65936SOL    HW297833  11.362   8.431   7.354
65937SOL     OW97834  11.844   7.651   7.075
65937SOL    HW197835  11.934   7.635   7.035
65937SOL    HW297836  11.852   7.656   7.174
65938SOL     OW97837  11.247   7.793   5.619
65938SOL    HW197838  11.155   7.765   5.590
65938SOL    HW297839  11.278   7.870   5.563
65939SOL     OW97840  12.612   8.304   6.984
65939SOL    HW197841  12.555   8.356   6.921
65939SOL    HW297842  12.708   8.316   6.960
65940SOL     OW97843  11.244   7.614   5.904
65940SOL    HW197844  11.227   7.697   5.850
65940SOL    HW297845  11.334   7.577   5.882
65941SOL     OW97846  12.355   8.783   5.705
65941SOL    HW197847  12.256   8.772   5.707
65941SOL    HW297848  12.389   8.798   5.798
65942SOL     OW97849  11.785   8.290   7.017
65942SOL    HW197850  11.841   8.371   7.000
65942SOL    HW297851  11.844   8.210   7.020
65943SOL     OW97852  12.665   9.215   6.545
65943SOL    HW197853  12.698   9.279   6.476
65943SOL    HW297854  12.731   9.209   6.620
65944SOL     OW97855  11.888   8.013   7.294
65944SOL    HW197856  11.907   8.078   7.368
65944SOL    HW297857  11.948   7.933   7.303
65945SOL     OW97858  12.622   8.668   7.219
65945SOL    HW197859  12.613   8.658   7.318
65945SOL    HW297860  12.718   8.661   7.193
65946SOL     OW97861  11.562   9.189   7.146
65946SOL    HW197862  11.471   9.230   7.144
65946SOL    HW297863  11.555   9.095   7.178
65947SOL     OW97864  12.397   7.773   6.035
65947SOL    HW197865  12.462   7.699   6.024
65947SOL    HW297866  12.417   7.823   6.119
65948SOL     OW97867  11.766   8.193   6.238
65948SOL    HW197868  11.816   8.278   6.219
65948SOL    HW297869  11.678   8.195   6.190
65949SOL     OW97870  12.031   8.822   5.602
65949SOL    HW197871  11.985   8.837   5.690
65949SOL    HW297872  12.075   8.907   5.572
65950SOL     OW97873  11.833   9.238   6.539
65950SOL    HW197874  11.787   9.326   6.526
65950SOL    HW297875  11.932   9.250   6.532
65951SOL     OW97876  12.031   8.404   6.447
65951SOL    HW197877  12.085   8.335   6.495
65951SOL    HW297878  11.999   8.473   6.513
65952SOL     OW97879  12.255   8.432   5.673
65952SOL    HW197880  12.232   8.485   5.591
65952SOL    HW297881  12.336   8.376   5.654
65953SOL     OW97882  13.033   9.017   6.437
65953SOL    HW197883  12.962   9.005   6.367
65953SOL    HW297884  13.034   8.938   6.497
65954SOL     OW97885  11.393   8.762   7.430
65954SOL    HW197886  11.328   8.689   7.409
65954SOL    HW297887  11.397   8.776   7.528
65955SOL     OW97888  11.251   8.688   6.239
65955SOL    HW197889  11.250   8.641   6.327
65955SOL    HW297890  11.333   8.660   6.188
65956SOL     OW97891  11.844   8.839   7.210
65956SOL    HW197892  11.766   8.789   7.248
65956SOL    HW297893  11.841   8.934   7.241
65957SOL     OW97894  11.600   7.872   6.106
65957SOL    HW197895  11.630   7.800   6.044
65957SOL    HW297896  11.561   7.832   6.189
65958SOL     OW97897  11.489   7.995   6.866
65958SOL    HW197898  11.527   7.936   6.938
65958SOL    HW297899  11.529   7.969   6.778
65959SOL     OW97900  11.984   9.034   6.273
65959SOL    HW197901  12.016   9.044   6.179
65959SOL    HW297902  11.905   8.972   6.275
65960SOL     OW97903  12.596   7.662   6.698
65960SOL    HW197904  12.648   7.597   6.753
65960SOL    HW297905  12.547   7.725   6.759
65961SOL     OW97906  12.173   7.482   6.740
65961SOL    HW197907  12.110   7.410   6.709
65961SOL    HW297908  12.266   7.446   6.740
65962SOL     OW97909  11.942   8.778   5.887
65962SOL    HW197910  11.896   8.691   5.904
65962SOL    HW297911  12.033   8.775   5.928
65963SOL     OW97912  11.790   9.015   6.870
65963SOL    HW197913  11.785   9.097   6.927
65963SOL    HW297914  11.879   9.012   6.825
65964SOL     OW97915  12.524   7.500   5.754
65964SOL    HW197916  12.559   7.459   5.670
65964SOL    HW297917  12.434   7.462   5.774
65965SOL     OW97918  12.472   7.901   6.277
65965SOL    HW197919  12.413   7.981   6.281
65965SOL    HW297920  12.487   7.866   6.370
65966SOL     OW97921  12.765   7.669   6.468
65966SOL    HW197922  12.681   7.668   6.522
65966SOL    HW297923  12.767   7.752   6.412
65967SOL     OW97924  11.211   8.525   5.886
65967SOL    HW197925  11.310   8.514   5.877
65967SOL    HW297926  11.171   8.439   5.918
65968SOL     OW97927  12.047   9.094   5.923
65968SOL    HW197928  11.970   9.059   5.869
65968SOL    HW297929  12.015   9.165   5.985
65969SOL     OW97930  11.402   8.076   7.561
65969SOL    HW197931  11.309   8.074   7.598
65969SOL    HW297932  11.403   8.037   7.469
65970SOL     OW97933  11.397   7.723   8.444
65970SOL    HW197934  11.432   7.706   8.536
65970SOL    HW297935  11.309   7.678   8.432
65971SOL     OW97936  11.191   7.816   8.095
65971SOL    HW197937  11.109   7.859   8.134
65971SOL    HW297938  11.163   7.743   8.032
65972SOL     OW97939  11.741   8.723   8.613
65972SOL    HW197940  11.648   8.716   8.576
65972SOL    HW297941  11.752   8.812   8.657
65973SOL     OW97942  12.727   8.959   8.151
65973SOL    HW197943  12.670   8.943   8.232
65973SOL    HW297944  12.668   8.969   8.071
65974SOL     OW97945  12.307   8.151   8.165
65974SOL    HW197946  12.364   8.229   8.140
65974SOL    HW297947  12.247   8.177   8.241
65975SOL     OW97948  11.940   8.592   8.471
65975SOL    HW197949  11.862   8.609   8.531
65975SOL    HW297950  11.974   8.679   8.435
65976SOL     OW97951  12.022   8.246   9.271
65976SOL    HW197952  12.018   8.322   9.336
65976SOL    HW297953  12.044   8.282   9.180
65977SOL     OW97954  11.857   8.460   8.113
65977SOL    HW197955  11.926   8.444   8.183
65977SOL    HW297956  11.784   8.517   8.151
65978SOL     OW97957  11.858   8.609   9.251
65978SOL    HW197958  11.918   8.688   9.265
65978SOL    HW297959  11.772   8.640   9.210
65979SOL     OW97960  11.507   8.883   8.509
65979SOL    HW197961  11.429   8.852   8.456
65979SOL    HW297962  11.565   8.941   8.452
65980SOL     OW97963  12.632   8.953   8.787
65980SOL    HW197964  12.656   9.047   8.813
65980SOL    HW297965  12.616   8.899   8.869
65981SOL     OW97966  11.610   7.840   8.947
65981SOL    HW197967  11.692   7.784   8.956
65981SOL    HW297968  11.529   7.782   8.951
65982SOL     OW97969  11.403   9.161   7.931
65982SOL    HW197970  11.437   9.238   7.985
65982SOL    HW297971  11.447   9.161   7.841
65983SOL     OW97972  12.299   8.789   9.138
65983SOL    HW197973  12.346   8.789   9.226
65983SOL    HW297974  12.251   8.702   9.127
65984SOL     OW97975  11.402   8.882   7.986
65984SOL    HW197976  11.376   8.978   7.986
65984SOL    HW297977  11.331   8.828   8.031
65985SOL     OW97978  11.412   8.539   8.334
65985SOL    HW197979  11.426   8.455   8.386
65985SOL    HW297980  11.357   8.603   8.389
65986SOL     OW97981  11.792   9.234   8.887
65986SOL    HW197982  11.700   9.217   8.922
65986SOL    HW297983  11.820   9.326   8.913
65987SOL     OW97984  11.778   8.412   7.571
65987SOL    HW197985  11.785   8.496   7.517
65987SOL    HW297986  11.824   8.425   7.659
65988SOL     OW97987  12.766   7.562   8.928
65988SOL    HW197988  12.748   7.629   8.856
65988SOL    HW297989  12.763   7.608   9.017
65989SOL     OW97990  11.294   8.091   8.011
65989SOL    HW197991  11.249   8.003   8.028
65989SOL    HW297992  11.293   8.145   8.095
65990SOL     OW97993  11.199   9.044   7.565
65990SOL    HW197994  11.180   8.948   7.586
65990SOL    HW297995  11.166   9.102   7.640
65991SOL     OW97996  12.861   8.370   8.060
65991SOL    HW197997  12.956   8.341   8.068
65991SOL    HW297998  12.853   8.435   7.985
65992SOL     OW97999  11.285   8.185   9.045
65992SOL    HW198000  11.373   8.172   9.090
65992SOL    HW298001  11.272   8.282   9.023
65993SOL     OW98002  11.785   8.813   8.174
65993SOL    HW198003  11.736   8.726   8.183
65993SOL    HW298004  11.762   8.856   8.087
65994SOL     OW98005  12.465   8.676   8.871
65994SOL    HW198006  12.502   8.603   8.813
65994SOL    HW298007  12.517   8.681   8.956
65995SOL     OW98008  11.981   7.452   7.950
65995SOL    HW198009  12.021   7.543   7.941
65995SOL    HW298010  11.881   7.460   7.956
65996SOL     OW98011  11.369   8.424   8.712
65996SOL    HW198012  11.458   8.379   8.698
65996SOL    HW298013  11.296   8.359   8.693
65997SOL     OW98014  12.359   9.240   9.064
65997SOL    HW198015  12.383   9.300   8.988
65997SOL    HW298016  12.366   9.145   9.034
65998SOL     OW98017  11.489   7.699   9.249
65998SOL    HW198018  11.560   7.770   9.255
65998SOL    HW298019  11.401   7.738   9.277
65999SOL     OW98020  12.638   8.865   8.401
65999SOL    HW198021  12.579   8.871   8.481
65999SOL    HW298022  12.623   8.777   8.355
66000SOL     OW98023  12.839   9.162   8.020
66000SOL    HW198024  12.798   9.139   7.932
66000SOL    HW298025  12.821   9.088   8.085
66001SOL     OW98026  11.770   8.177   7.718
66001SOL    HW198027  11.794   8.246   7.650
66001SOL    HW298028  11.692   8.210   7.772
66002SOL     OW98029  12.453   7.793   8.392
66002SOL    HW198030  12.367   7.743   8.379
66002SOL    HW298031  12.515   7.739   8.448
66003SOL     OW98032  11.979   8.053   8.913
66003SOL    HW198033  11.932   8.050   9.002
66003SOL    HW298034  11.928   7.998   8.847
66004SOL     OW98035  12.566   7.917   9.122
66004SOL    HW198036  12.546   7.960   9.210
66004SOL    HW298037  12.644   7.855   9.131
66005SOL     OW98038  12.145   8.338   9.020
66005SOL    HW198039  12.191   8.254   8.991
66005SOL    HW298040  12.089   8.372   8.945
66006SOL     OW98041  12.163   7.858   8.690
66006SOL    HW198042  12.086   7.892   8.744
66006SOL    HW298043  12.129   7.807   8.611
66007SOL     OW98044  12.213   8.149   7.877
66007SOL    HW198045  12.239   8.145   7.973
66007SOL    HW298046  12.128   8.098   7.863
66008SOL     OW98047  11.248   8.259   8.237
66008SOL    HW198048  11.347   8.247   8.246
66008SOL    HW298049  11.224   8.354   8.258
66009SOL     OW98050  11.302   9.269   9.019
66009SOL    HW198051  11.292   9.254   9.118
66009SOL    HW298052  11.216   9.305   8.983
66010SOL     OW98053  12.037   7.796   7.643
66010SOL    HW198054  12.096   7.859   7.594
66010SOL    HW298055  12.056   7.702   7.614
66011SOL     OW98056  12.534   8.592   7.993
66011SOL    HW198057  12.617   8.563   7.945
66011SOL    HW298058  12.485   8.659   7.937
66012SOL     OW98059  11.722   7.644   8.333
66012SOL    HW198060  11.717   7.639   8.433
66012SOL    HW298061  11.724   7.740   8.304
66013SOL     OW98062  12.180   8.904   7.925
66013SOL    HW198063  12.134   8.976   7.873
66013SOL    HW298064  12.176   8.924   8.023
66014SOL     OW98065  11.523   9.249   8.301
66014SOL    HW198066  11.573   9.163   8.307
66014SOL    HW298067  11.588   9.326   8.298
66015SOL     OW98068  12.399   8.998   8.954
66015SOL    HW198069  12.405   8.921   9.018
66015SOL    HW298070  12.347   8.972   8.874
66016SOL     OW98071  11.493   8.391   7.690
66016SOL    HW198072  11.575   8.430   7.648
66016SOL    HW298073  11.466   8.309   7.641
66017SOL     OW98074  12.630   8.183   8.176
66017SOL    HW198075  12.625   8.118   8.251
66017SOL    HW298076  12.710   8.242   8.189
66018SOL     OW98077  11.633   8.714   9.175
66018SOL    HW198078  11.583   8.715   9.089
66018SOL    HW298079  11.570   8.696   9.251
66019SOL     OW98080  12.283   9.224   7.685
66019SOL    HW198081  12.223   9.162   7.735
66019SOL    HW298082  12.314   9.180   7.600
66020SOL     OW98083  11.374   7.733   8.946
66020SOL    HW198084  11.294   7.793   8.933
66020SOL    HW298085  11.364   7.684   9.032
66021SOL     OW98086  11.636   9.191   7.771
66021SOL    HW198087  11.669   9.230   7.857
66021SOL    HW298088  11.712   9.184   7.706
66022SOL     OW98089  12.572   7.555   7.874
66022SOL    HW198090  12.548   7.518   7.784
66022SOL    HW298091  12.671   7.571   7.878
66023SOL     OW98092  11.421   9.233   8.689
66023SOL    HW198093  11.478   9.168   8.739
66023SOL    HW298094  11.405   9.200   8.596
66024SOL     OW98095  12.112   9.146   8.352
66024SOL    HW198096  12.192   9.089   8.373
66024SOL    HW298097  12.063   9.106   8.275
66025SOL     OW98098  11.554   8.148   7.928
66025SOL    HW198099  11.599   8.058   7.925
66025SOL    HW298100  11.460   8.137   7.961
66026SOL     OW98101  11.786   7.570   7.565
66026SOL    HW198102  11.884   7.548   7.572
66026SOL    HW298103  11.755   7.553   7.472
66027SOL     OW98104  11.953   7.712   9.197
66027SOL    HW198105  12.020   7.651   9.240
66027SOL    HW298106  11.880   7.731   9.262
66028SOL     OW98107  12.060   8.962   8.643
66028SOL    HW198108  12.037   8.937   8.549
66028SOL    HW298109  12.121   8.893   8.682
66029SOL     OW98110  12.523   8.038   8.881
66029SOL    HW198111  12.551   7.995   8.966
66029SOL    HW298112  12.548   8.134   8.882
66030SOL     OW98113  11.975   8.850   8.372
66030SOL    HW198114  12.065   8.864   8.330
66030SOL    HW298115  11.904   8.852   8.301
66031SOL     OW98116  12.094   7.951   8.347
66031SOL    HW198117  12.069   7.942   8.251
66031SOL    HW298118  12.142   7.869   8.378
66032SOL     OW98119  11.711   7.512   7.960
66032SOL    HW198120  11.630   7.513   8.018
66032SOL    HW298121  11.714   7.595   7.905
66033SOL     OW98122  12.606   8.636   7.489
66033SOL    HW198123  12.638   8.560   7.546
66033SOL    HW298124  12.514   8.663   7.519
66034SOL     OW98125  11.469   7.483   7.619
66034SOL    HW198126  11.518   7.567   7.598
66034SOL    HW298127  11.531   7.418   7.664
66035SOL     OW98128  12.107   7.684   7.928
66035SOL    HW198129  12.059   7.725   7.850
66035SOL    HW298130  12.206   7.682   7.909
66036SOL     OW98131  12.248   8.131   8.912
66036SOL    HW198132  12.168   8.070   8.915
66036SOL    HW298133  12.329   8.078   8.888
66037SOL     OW98134  12.399   9.018   8.241
66037SOL    HW198135  12.420   9.092   8.176
66037SOL    HW298136  12.467   9.018   8.314
66038SOL     OW98137  11.631   8.600   8.189
66038SOL    HW198138  11.560   8.573   8.254
66038SOL    HW298139  11.605   8.572   8.096
66039SOL     OW98140  12.443   9.245   8.039
66039SOL    HW198141  12.487   9.309   7.975
66039SOL    HW298142  12.393   9.297   8.109
66040SOL     OW98143  12.204   7.997   7.464
66040SOL    HW198144  12.163   8.079   7.425
66040SOL    HW298145  12.268   8.023   7.537
66041SOL     OW98146  11.250   8.004   8.834
66041SOL    HW198147  11.342   8.003   8.793
66041SOL    HW298148  11.244   8.078   8.901
66042SOL     OW98149  11.733   7.670   8.595
66042SOL    HW198150  11.771   7.586   8.632
66042SOL    HW298151  11.645   7.689   8.639
66043SOL     OW98152  12.038   7.902   8.090
66043SOL    HW198153  12.006   7.974   8.028
66043SOL    HW298154  12.062   7.821   8.037
66044SOL     OW98155  12.189   7.487   8.201
66044SOL    HW198156  12.117   7.492   8.132
66044SOL    HW298157  12.165   7.418   8.270
66045SOL     OW98158  12.601   8.621   8.315
66045SOL    HW198159  12.546   8.537   8.308
66045SOL    HW298160  12.627   8.650   8.223
66046SOL     OW98161  12.638   8.038   8.440
66046SOL    HW198162  12.608   7.943   8.447
66046SOL    HW298163  12.711   8.054   8.506
66047SOL     OW98164  11.660   8.833   7.622
66047SOL    HW198165  11.573   8.818   7.669
66047SOL    HW298166  11.643   8.859   7.527
66048SOL     OW98167  12.562   8.023   7.526
66048SOL    HW198168  12.508   8.002   7.607
66048SOL    HW298169  12.653   7.982   7.535
66049SOL     OW98170  11.699   7.704   7.776
66049SOL    HW198171  11.726   7.645   7.701
66049SOL    HW298172  11.699   7.799   7.745
66050SOL     OW98173  12.236   8.795   8.788
66050SOL    HW198174  12.156   8.772   8.843
66050SOL    HW298175  12.319   8.769   8.837
66051SOL     OW98176  12.764   9.077   9.073
66051SOL    HW198177  12.791   9.111   8.983
66051SOL    HW298178  12.843   9.039   9.119
66052SOL     OW98179  12.283   8.643   8.548
66052SOL    HW198180  12.243   8.687   8.629
66052SOL    HW298181  12.242   8.680   8.465
66053SOL     OW98182  12.087   7.537   8.850
66053SOL    HW198183  12.112   7.517   8.755
66053SOL    HW298184  12.159   7.593   8.892
66054SOL     OW98185  12.152   8.564   9.167
66054SOL    HW198186  12.053   8.570   9.177
66054SOL    HW298187  12.175   8.484   9.111
66055SOL     OW98188  11.877   8.498   7.816
66055SOL    HW198189  11.863   8.505   7.915
66055SOL    HW298190  11.961   8.447   7.798
66056SOL     OW98191  11.582   8.261   8.699
66056SOL    HW198192  11.668   8.273   8.749
66056SOL    HW298193  11.540   8.174   8.726
66057SOL     OW98194  12.446   7.834   8.710
66057SOL    HW198195  12.467   7.908   8.774
66057SOL    HW298196  12.357   7.851   8.667
66058SOL     OW98197  11.236   9.012   8.779
66058SOL    HW198198  11.190   9.094   8.745
66058SOL    HW298199  11.334   9.031   8.788
66059SOL     OW98200  11.539   8.548   7.949
66059SOL    HW198201  11.532   8.631   7.893
66059SOL    HW298202  11.543   8.468   7.889
66060SOL     OW98203  11.738   7.985   8.313
66060SOL    HW198204  11.750   8.051   8.239
66060SOL    HW298205  11.784   8.019   8.396
66061SOL     OW98206  12.424   8.796   7.836
66061SOL    HW198207  12.474   8.873   7.876
66061SOL    HW298208  12.329   8.798   7.868
66062SOL     OW98209  12.444   8.893   8.590
66062SOL    HW198210  12.491   8.906   8.677
66062SOL    HW298211  12.378   8.819   8.599
66063SOL     OW98212  12.754   8.087   7.920
66063SOL    HW198213  12.723   8.148   7.993
66063SOL    HW298214  12.804   8.139   7.851
66064SOL     OW98215  11.526   8.958   8.777
66064SOL    HW198216  11.505   8.914   8.690
66064SOL    HW298217  11.623   8.984   8.780
66065SOL     OW98218  11.574   8.199   9.046
66065SOL    HW198219  11.642   8.254   8.999
66065SOL    HW298220  11.614   8.111   9.073
66066SOL     OW98221  12.185   7.553   9.218
66066SOL    HW198222  12.191   7.638   9.166
66066SOL    HW298223  12.217   7.477   9.161
66067SOL     OW98224  11.676   7.498   9.188
66067SOL    HW198225  11.634   7.441   9.118
66067SOL    HW298226  11.610   7.567   9.220
66068SOL     OW98227  11.745   8.318   8.477
66068SOL    HW198228  11.789   8.407   8.468
66068SOL    HW298229  11.682   8.318   8.554
66069SOL     OW98230  12.532   8.310   8.493
66069SOL    HW198231  12.457   8.310   8.427
66069SOL    HW298232  12.569   8.218   8.502
66070SOL     OW98233  12.381   7.973   7.723
66070SOL    HW198234  12.394   7.889   7.777
66070SOL    HW298235  12.352   8.047   7.783
66071SOL     OW98236  11.479   7.661   8.679
66071SOL    HW198237  11.456   7.698   8.769
66071SOL    HW298238  11.449   7.566   8.673
66072SOL     OW98239  11.209   8.758   8.730
66072SOL    HW198240  11.262   8.709   8.798
66072SOL    HW298241  11.231   8.856   8.735
66073SOL     OW98242  11.904   8.082   8.512
66073SOL    HW198243  11.963   8.056   8.436
66073SOL    HW298244  11.876   8.178   8.501
66074SOL     OW98245  11.479   7.511   8.066
66074SOL    HW198246  11.468   7.605   8.099
66074SOL    HW298247  11.474   7.448   8.143
66075SOL     OW98248  12.794   7.815   7.822
66075SOL    HW198249  12.796   7.739   7.886
66075SOL    HW298250  12.746   7.892   7.862
66076SOL     OW98251  12.195   8.214   8.414
66076SOL    HW198252  12.210   8.235   8.510
66076SOL    HW298253  12.165   8.119   8.405
66077SOL     OW98254  12.152   9.021   9.148
66077SOL    HW198255  12.132   9.065   9.060
66077SOL    HW298256  12.191   8.930   9.132
66078SOL     OW98257  11.522   8.346   9.252
66078SOL    HW198258  11.598   8.390   9.300
66078SOL    HW298259  11.557   8.299   9.170
66079SOL     OW98260  12.712   7.722   7.573
66079SOL    HW198261  12.651   7.647   7.596
66079SOL    HW298262  12.734   7.774   7.656
66080SOL     OW98263  12.475   8.286   7.490
66080SOL    HW198264  12.509   8.193   7.505
66080SOL    HW298265  12.493   8.313   7.395
66081SOL     OW98266  12.240   8.781   8.297
66081SOL    HW198267  12.247   8.697   8.242
66081SOL    HW298268  12.302   8.850   8.261
66082SOL     OW98269  11.491   8.258   8.397
66082SOL    HW198270  11.584   8.294   8.402
66082SOL    HW298271  11.485   8.173   8.449
66083SOL     OW98272  11.511   7.957   8.454
66083SOL    HW198273  11.459   7.874   8.437
66083SOL    HW298274  11.588   7.962   8.390
66084SOL     OW98275  12.310   7.828   9.126
66084SOL    HW198276  12.265   7.891   9.190
66084SOL    HW298277  12.403   7.859   9.109
66085SOL     OW98278  12.332   7.655   8.925
66085SOL    HW198279  12.332   7.719   9.002
66085SOL    HW298280  12.360   7.703   8.842
66086SOL     OW98281  11.180   8.774   7.648
66086SOL    HW198282  11.087   8.795   7.617
66086SOL    HW298283  11.190   8.675   7.661
66087SOL     OW98284  11.260   9.249   8.375
66087SOL    HW198285  11.218   9.163   8.348
66087SOL    HW298286  11.354   9.252   8.341
66088SOL     OW98287  11.676   9.016   8.358
66088SOL    HW198288  11.742   9.090   8.367
66088SOL    HW298289  11.720   8.937   8.316
66089SOL     OW98290  12.174   8.244   8.686
66089SOL    HW198291  12.215   8.212   8.772
66089SOL    HW298292  12.078   8.217   8.683
66090SOL     OW98293  11.212   7.992   8.562
66090SOL    HW198294  11.297   7.959   8.521
66090SOL    HW298295  11.225   8.007   8.660
66091SOL     OW98296  11.361   7.968   9.170
66091SOL    HW198297  11.420   7.928   9.100
66091SOL    HW298298  11.303   8.039   9.129
66092SOL     OW98299  12.541   8.398   9.108
66092SOL    HW198300  12.580   8.487   9.128
66092SOL    HW298301  12.551   8.378   9.011
66093SOL     OW98302  11.987   8.020   7.773
66093SOL    HW198303  11.994   7.931   7.727
66093SOL    HW298304  11.893   8.054   7.765
66094SOL     OW98305  11.424   9.012   9.192
66094SOL    HW198306  11.394   9.069   9.268
66094SOL    HW298307  11.417   8.915   9.218
66095SOL     OW98308  11.843   7.912   8.717
66095SOL    HW198309  11.809   7.823   8.687
66095SOL    HW298310  11.869   7.966   8.637
66096SOL     OW98311  12.102   9.126   8.913
66096SOL    HW198312  12.078   9.108   8.818
66096SOL    HW298313  12.132   9.220   8.923
66097SOL     OW98314  11.645   7.948   7.639
66097SOL    HW198315  11.706   8.028   7.643
66097SOL    HW298316  11.550   7.979   7.646
66098SOL     OW98317  11.331   8.585   8.914
66098SOL    HW198318  11.353   8.524   8.990
66098SOL    HW298319  11.341   8.536   8.828
66099SOL     OW98320  12.519   8.507   8.682
66099SOL    HW198321  12.543   8.444   8.608
66099SOL    HW298322  12.429   8.547   8.664
66100SOL     OW98323  12.474   8.303   7.757
66100SOL    HW198324  12.388   8.272   7.799
66100SOL    HW298325  12.470   8.289   7.658
66101SOL     OW98326  12.424   9.179   8.576
66101SOL    HW198327  12.508   9.184   8.522
66101SOL    HW298328  12.401   9.083   8.594
66102SOL     OW98329  11.255   8.706   8.470
66102SOL    HW198330  11.250   8.705   8.570
66102SOL    HW298331  11.172   8.665   8.432
66103SOL     OW98332  11.860   9.110   9.164
66103SOL    HW198333  11.804   9.191   9.173
66103SOL    HW298334  11.912   9.114   9.078
66104SOL     OW98335  12.898   7.583   7.971
66104SOL    HW198336  12.971   7.566   7.904
66104SOL    HW298337  12.867   7.496   8.009
66105SOL     OW98338  12.560   9.021   7.925
66105SOL    HW198339  12.627   9.033   7.851
66105SOL    HW298340  12.520   9.110   7.948
66106SOL     OW98341  11.302   9.242   9.299
66106SOL    HW198342  11.261   9.168   9.352
66106SOL    HW298343  11.366   9.293   9.357
66107SOL     OW98344  12.452   8.375   8.120
66107SOL    HW198345  12.512   8.294   8.122
66107SOL    HW298346  12.492   8.444   8.060
66108SOL     OW98347  12.002   8.721   8.870
66108SOL    HW198348  11.997   8.754   8.965
66108SOL    HW298349  11.916   8.740   8.824
66109SOL     OW98350  11.844   9.064   7.602
66109SOL    HW198351  11.853   9.074   7.503
66109SOL    HW298352  11.804   8.975   7.623
66110SOL     OW98353  11.435   7.774   8.168
66110SOL    HW198354  11.356   7.825   8.134
66110SOL    HW298355  11.426   7.759   8.266
66111SOL     OW98356  12.366   9.060   7.479
66111SOL    HW198357  12.372   8.967   7.516
66111SOL    HW298358  12.307   9.060   7.399
66112SOL     OW98359  11.994   8.450   8.820
66112SOL    HW198360  12.034   8.449   8.728
66112SOL    HW298361  12.004   8.542   8.860
66113SOL     OW98362  12.088   8.358   7.739
66113SOL    HW198363  12.151   8.396   7.671
66113SOL    HW298364  12.128   8.275   7.778
66114SOL     OW98365  12.676   9.055   7.492
66114SOL    HW198366  12.584   9.092   7.499
66114SOL    HW298367  12.714   9.075   7.402
66115SOL     OW98368  11.544   8.736   8.938
66115SOL    HW198369  11.531   8.829   8.904
66115SOL    HW298370  11.460   8.684   8.925
66116SOL     OW98371  12.211   8.546   8.144
66116SOL    HW198372  12.141   8.499   8.198
66116SOL    HW298373  12.270   8.478   8.101
66117SOL     OW98374  12.186   7.684   8.419
66117SOL    HW198375  12.178   7.648   8.326
66117SOL    HW298376  12.184   7.608   8.484
66118SOL     OW98377  11.762   8.935   7.939
66118SOL    HW198378  11.804   8.877   7.869
66118SOL    HW298379  11.718   9.014   7.895
66119SOL     OW98380  11.427   8.796   7.738
66119SOL    HW198381  11.331   8.797   7.711
66119SOL    HW298382  11.439   8.849   7.822
66120SOL     OW98383  11.277   8.461   9.174
66120SOL    HW198384  11.200   8.428   9.228
66120SOL    HW298385  11.362   8.431   9.216
66121SOL     OW98386  11.844   7.651   8.937
66121SOL    HW198387  11.934   7.635   8.897
66121SOL    HW298388  11.852   7.656   9.036
66122SOL     OW98389  11.247   7.793   7.481
66122SOL    HW198390  11.155   7.765   7.452
66122SOL    HW298391  11.278   7.870   7.425
66123SOL     OW98392  12.612   8.304   8.846
66123SOL    HW198393  12.555   8.356   8.783
66123SOL    HW298394  12.708   8.316   8.822
66124SOL     OW98395  11.244   7.614   7.766
66124SOL    HW198396  11.227   7.697   7.712
66124SOL    HW298397  11.334   7.577   7.744
66125SOL     OW98398  12.355   8.783   7.567
66125SOL    HW198399  12.256   8.772   7.569
66125SOL    HW298400  12.389   8.798   7.660
66126SOL     OW98401  11.785   8.290   8.879
66126SOL    HW198402  11.841   8.371   8.862
66126SOL    HW298403  11.844   8.210   8.882
66127SOL     OW98404  12.665   9.215   8.407
66127SOL    HW198405  12.698   9.279   8.338
66127SOL    HW298406  12.731   9.209   8.482
66128SOL     OW98407  11.888   8.013   9.156
66128SOL    HW198408  11.907   8.078   9.230
66128SOL    HW298409  11.948   7.933   9.165
66129SOL     OW98410  12.622   8.668   9.081
66129SOL    HW198411  12.613   8.658   9.180
66129SOL    HW298412  12.718   8.661   9.055
66130SOL     OW98413  11.562   9.189   9.008
66130SOL    HW198414  11.471   9.230   9.006
66130SOL    HW298415  11.555   9.095   9.040
66131SOL     OW98416  12.397   7.773   7.897
66131SOL    HW198417  12.462   7.699   7.886
66131SOL    HW298418  12.417   7.823   7.981
66132SOL     OW98419  11.766   8.193   8.100
66132SOL    HW198420  11.816   8.278   8.081
66132SOL    HW298421  11.678   8.195   8.052
66133SOL     OW98422  12.031   8.822   7.464
66133SOL    HW198423  11.985   8.837   7.552
66133SOL    HW298424  12.075   8.907   7.434
66134SOL     OW98425  11.833   9.238   8.401
66134SOL    HW198426  11.787   9.326   8.388
66134SOL    HW298427  11.932   9.250   8.394
66135SOL     OW98428  12.031   8.404   8.309
66135SOL    HW198429  12.085   8.335   8.357
66135SOL    HW298430  11.999   8.473   8.375
66136SOL     OW98431  12.255   8.432   7.535
66136SOL    HW198432  12.232   8.485   7.453
66136SOL    HW298433  12.336   8.376   7.516
66137SOL     OW98434  13.033   9.017   8.299
66137SOL    HW198435  12.962   9.005   8.229
66137SOL    HW298436  13.034   8.938   8.359
66138SOL     OW98437  11.393   8.762   9.292
66138SOL    HW198438  11.328   8.689   9.271
66138SOL    HW298439  11.397   8.776   9.390
66139SOL     OW98440  11.251   8.688   8.101
66139SOL    HW198441  11.250   8.641   8.189
66139SOL    HW298442  11.333   8.660   8.050
66140SOL     OW98443  11.844   8.839   9.072
66140SOL    HW198444  11.766   8.789   9.110
66140SOL    HW298445  11.841   8.934   9.103
66141SOL     OW98446  11.600   7.872   7.968
66141SOL    HW198447  11.630   7.800   7.906
66141SOL    HW298448  11.561   7.832   8.051
66142SOL     OW98449  11.489   7.995   8.728
66142SOL    HW198450  11.527   7.936   8.800
66142SOL    HW298451  11.529   7.969   8.640
66143SOL     OW98452  11.984   9.034   8.135
66143SOL    HW198453  12.016   9.044   8.041
66143SOL    HW298454  11.905   8.972   8.137
66144SOL     OW98455  12.596   7.662   8.560
66144SOL    HW198456  12.648   7.597   8.615
66144SOL    HW298457  12.547   7.725   8.621
66145SOL     OW98458  12.173   7.482   8.602
66145SOL    HW198459  12.110   7.410   8.571
66145SOL    HW298460  12.266   7.446   8.602
66146SOL     OW98461  11.942   8.778   7.749
66146SOL    HW198462  11.896   8.691   7.766
66146SOL    HW298463  12.033   8.775   7.790
66147SOL     OW98464  11.790   9.015   8.732
66147SOL    HW198465  11.785   9.097   8.789
66147SOL    HW298466  11.879   9.012   8.687
66148SOL     OW98467  12.524   7.500   7.616
66148SOL    HW198468  12.559   7.459   7.532
66148SOL    HW298469  12.434   7.462   7.636
66149SOL     OW98470  12.472   7.901   8.139
66149SOL    HW198471  12.413   7.981   8.143
66149SOL    HW298472  12.487   7.866   8.232
66150SOL     OW98473  12.765   7.669   8.330
66150SOL    HW198474  12.681   7.668   8.384
66150SOL    HW298475  12.767   7.752   8.274
66151SOL     OW98476  11.211   8.525   7.748
66151SOL    HW198477  11.310   8.514   7.739
66151SOL    HW298478  11.171   8.439   7.780
66152SOL     OW98479  12.047   9.094   7.785
66152SOL    HW198480  11.970   9.059   7.731
66152SOL    HW298481  12.015   9.165   7.847
66153SOL     OW98482  11.402   8.076   9.423
66153SOL    HW198483  11.309   8.074   9.460
66153SOL    HW298484  11.403   8.037   9.331
66154SOL     OW98485  11.397   7.723  10.306
66154SOL    HW198486  11.432   7.706  10.398
66154SOL    HW298487  11.309   7.678  10.294
66155SOL     OW98488  11.191   7.816   9.957
66155SOL    HW198489  11.109   7.859   9.996
66155SOL    HW298490  11.163   7.743   9.894
66156SOL     OW98491  11.741   8.723  10.475
66156SOL    HW198492  11.648   8.716  10.438
66156SOL    HW298493  11.752   8.812  10.519
66157SOL     OW98494  12.727   8.959  10.013
66157SOL    HW198495  12.670   8.943  10.094
66157SOL    HW298496  12.668   8.969   9.933
66158SOL     OW98497  12.307   8.151  10.027
66158SOL    HW198498  12.364   8.229  10.002
66158SOL    HW298499  12.247   8.177  10.103
66159SOL     OW98500  11.940   8.592  10.333
66159SOL    HW198501  11.862   8.609  10.393
66159SOL    HW298502  11.974   8.679  10.297
66160SOL     OW98503  12.022   8.246  11.133
66160SOL    HW198504  12.018   8.322  11.198
66160SOL    HW298505  12.044   8.282  11.042
66161SOL     OW98506  11.857   8.460   9.975
66161SOL    HW198507  11.926   8.444  10.045
66161SOL    HW298508  11.784   8.517  10.013
66162SOL     OW98509  11.858   8.609  11.113
66162SOL    HW198510  11.918   8.688  11.127
66162SOL    HW298511  11.772   8.640  11.072
66163SOL     OW98512  11.507   8.883  10.371
66163SOL    HW198513  11.429   8.852  10.318
66163SOL    HW298514  11.565   8.941  10.314
66164SOL     OW98515  12.632   8.953  10.649
66164SOL    HW198516  12.656   9.047  10.675
66164SOL    HW298517  12.616   8.899  10.731
66165SOL     OW98518  11.610   7.840  10.809
66165SOL    HW198519  11.692   7.784  10.818
66165SOL    HW298520  11.529   7.782  10.813
66166SOL     OW98521  11.403   9.161   9.793
66166SOL    HW198522  11.437   9.238   9.847
66166SOL    HW298523  11.447   9.161   9.703
66167SOL     OW98524  12.299   8.789  11.000
66167SOL    HW198525  12.346   8.789  11.088
66167SOL    HW298526  12.251   8.702  10.989
66168SOL     OW98527  11.402   8.882   9.848
66168SOL    HW198528  11.376   8.978   9.848
66168SOL    HW298529  11.331   8.828   9.893
66169SOL     OW98530  11.412   8.539  10.196
66169SOL    HW198531  11.426   8.455  10.248
66169SOL    HW298532  11.357   8.603  10.251
66170SOL     OW98533  11.792   9.234  10.749
66170SOL    HW198534  11.700   9.217  10.784
66170SOL    HW298535  11.820   9.326  10.775
66171SOL     OW98536  11.778   8.412   9.433
66171SOL    HW198537  11.785   8.496   9.379
66171SOL    HW298538  11.824   8.425   9.521
66172SOL     OW98539  12.766   7.562  10.790
66172SOL    HW198540  12.748   7.629  10.718
66172SOL    HW298541  12.763   7.608  10.879
66173SOL     OW98542  11.294   8.091   9.873
66173SOL    HW198543  11.249   8.003   9.890
66173SOL    HW298544  11.293   8.145   9.957
66174SOL     OW98545  11.199   9.044   9.427
66174SOL    HW198546  11.180   8.948   9.448
66174SOL    HW298547  11.166   9.102   9.502
66175SOL     OW98548  12.861   8.370   9.922
66175SOL    HW198549  12.956   8.341   9.930
66175SOL    HW298550  12.853   8.435   9.847
66176SOL     OW98551  11.285   8.185  10.907
66176SOL    HW198552  11.373   8.172  10.952
66176SOL    HW298553  11.272   8.282  10.885
66177SOL     OW98554  11.785   8.813  10.036
66177SOL    HW198555  11.736   8.726  10.045
66177SOL    HW298556  11.762   8.856   9.949
66178SOL     OW98557  12.465   8.676  10.733
66178SOL    HW198558  12.502   8.603  10.675
66178SOL    HW298559  12.517   8.681  10.818
66179SOL     OW98560  11.981   7.452   9.812
66179SOL    HW198561  12.021   7.543   9.803
66179SOL    HW298562  11.881   7.460   9.818
66180SOL     OW98563  11.369   8.424  10.574
66180SOL    HW198564  11.458   8.379  10.560
66180SOL    HW298565  11.296   8.359  10.555
66181SOL     OW98566  12.359   9.240  10.926
66181SOL    HW198567  12.383   9.300  10.850
66181SOL    HW298568  12.366   9.145  10.896
66182SOL     OW98569  11.489   7.699  11.111
66182SOL    HW198570  11.560   7.770  11.117
66182SOL    HW298571  11.401   7.738  11.139
66183SOL     OW98572  12.638   8.865  10.263
66183SOL    HW198573  12.579   8.871  10.343
66183SOL    HW298574  12.623   8.777  10.217
66184SOL     OW98575  12.839   9.162   9.882
66184SOL    HW198576  12.798   9.139   9.794
66184SOL    HW298577  12.821   9.088   9.947
66185SOL     OW98578  11.770   8.177   9.580
66185SOL    HW198579  11.794   8.246   9.512
66185SOL    HW298580  11.692   8.210   9.634
66186SOL     OW98581  12.453   7.793  10.254
66186SOL    HW198582  12.367   7.743  10.241
66186SOL    HW298583  12.515   7.739  10.310
66187SOL     OW98584  11.979   8.053  10.775
66187SOL    HW198585  11.932   8.050  10.864
66187SOL    HW298586  11.928   7.998  10.709
66188SOL     OW98587  12.566   7.917  10.984
66188SOL    HW198588  12.546   7.960  11.072
66188SOL    HW298589  12.644   7.855  10.993
66189SOL     OW98590  12.145   8.338  10.882
66189SOL    HW198591  12.191   8.254  10.853
66189SOL    HW298592  12.089   8.372  10.807
66190SOL     OW98593  12.163   7.858  10.552
66190SOL    HW198594  12.086   7.892  10.606
66190SOL    HW298595  12.129   7.807  10.473
66191SOL     OW98596  12.213   8.149   9.739
66191SOL    HW198597  12.239   8.145   9.835
66191SOL    HW298598  12.128   8.098   9.725
66192SOL     OW98599  11.248   8.259  10.099
66192SOL    HW198600  11.347   8.247  10.108
66192SOL    HW298601  11.224   8.354  10.120
66193SOL     OW98602  11.302   9.269  10.881
66193SOL    HW198603  11.292   9.254  10.980
66193SOL    HW298604  11.216   9.305  10.845
66194SOL     OW98605  12.037   7.796   9.505
66194SOL    HW198606  12.096   7.859   9.456
66194SOL    HW298607  12.056   7.702   9.476
66195SOL     OW98608  12.534   8.592   9.855
66195SOL    HW198609  12.617   8.563   9.807
66195SOL    HW298610  12.485   8.659   9.799
66196SOL     OW98611  11.722   7.644  10.195
66196SOL    HW198612  11.717   7.639  10.295
66196SOL    HW298613  11.724   7.740  10.166
66197SOL     OW98614  12.180   8.904   9.787
66197SOL    HW198615  12.134   8.976   9.735
66197SOL    HW298616  12.176   8.924   9.885
66198SOL     OW98617  11.523   9.249  10.163
66198SOL    HW198618  11.573   9.163  10.169
66198SOL    HW298619  11.588   9.326  10.160
66199SOL     OW98620  12.399   8.998  10.816
66199SOL    HW198621  12.405   8.921  10.880
66199SOL    HW298622  12.347   8.972  10.736
66200SOL     OW98623  11.493   8.391   9.552
66200SOL    HW198624  11.575   8.430   9.510
66200SOL    HW298625  11.466   8.309   9.503
66201SOL     OW98626  12.630   8.183  10.038
66201SOL    HW198627  12.625   8.118  10.113
66201SOL    HW298628  12.710   8.242  10.051
66202SOL     OW98629  11.633   8.714  11.037
66202SOL    HW198630  11.583   8.715  10.951
66202SOL    HW298631  11.570   8.696  11.113
66203SOL     OW98632  12.283   9.224   9.547
66203SOL    HW198633  12.223   9.162   9.597
66203SOL    HW298634  12.314   9.180   9.462
66204SOL     OW98635  11.374   7.733  10.808
66204SOL    HW198636  11.294   7.793  10.795
66204SOL    HW298637  11.364   7.684  10.894
66205SOL     OW98638  11.636   9.191   9.633
66205SOL    HW198639  11.669   9.230   9.719
66205SOL    HW298640  11.712   9.184   9.568
66206SOL     OW98641  12.572   7.555   9.736
66206SOL    HW198642  12.548   7.518   9.646
66206SOL    HW298643  12.671   7.571   9.740
66207SOL     OW98644  11.421   9.233  10.551
66207SOL    HW198645  11.478   9.168  10.601
66207SOL    HW298646  11.405   9.200  10.458
66208SOL     OW98647  12.112   9.146  10.214
66208SOL    HW198648  12.192   9.089  10.235
66208SOL    HW298649  12.063   9.106  10.137
66209SOL     OW98650  11.554   8.148   9.790
66209SOL    HW198651  11.599   8.058   9.787
66209SOL    HW298652  11.460   8.137   9.823
66210SOL     OW98653  11.786   7.570   9.427
66210SOL    HW198654  11.884   7.548   9.434
66210SOL    HW298655  11.755   7.553   9.334
66211SOL     OW98656  11.953   7.712  11.059
66211SOL    HW198657  12.020   7.651  11.102
66211SOL    HW298658  11.880   7.731  11.124
66212SOL     OW98659  12.060   8.962  10.505
66212SOL    HW198660  12.037   8.937  10.411
66212SOL    HW298661  12.121   8.893  10.544
66213SOL     OW98662  12.523   8.038  10.743
66213SOL    HW198663  12.551   7.995  10.828
66213SOL    HW298664  12.548   8.134  10.744
66214SOL     OW98665  11.975   8.850  10.234
66214SOL    HW198666  12.065   8.864  10.192
66214SOL    HW298667  11.904   8.852  10.163
66215SOL     OW98668  12.094   7.951  10.209
66215SOL    HW198669  12.069   7.942  10.113
66215SOL    HW298670  12.142   7.869  10.240
66216SOL     OW98671  11.711   7.512   9.822
66216SOL    HW198672  11.630   7.513   9.880
66216SOL    HW298673  11.714   7.595   9.767
66217SOL     OW98674  12.606   8.636   9.351
66217SOL    HW198675  12.638   8.560   9.408
66217SOL    HW298676  12.514   8.663   9.381
66218SOL     OW98677  11.469   7.483   9.481
66218SOL    HW198678  11.518   7.567   9.460
66218SOL    HW298679  11.531   7.418   9.526
66219SOL     OW98680  12.107   7.684   9.790
66219SOL    HW198681  12.059   7.725   9.712
66219SOL    HW298682  12.206   7.682   9.771
66220SOL     OW98683  12.248   8.131  10.774
66220SOL    HW198684  12.168   8.070  10.777
66220SOL    HW298685  12.329   8.078  10.750
66221SOL     OW98686  12.399   9.018  10.103
66221SOL    HW198687  12.420   9.092  10.038
66221SOL    HW298688  12.467   9.018  10.176
66222SOL     OW98689  11.631   8.600  10.051
66222SOL    HW198690  11.560   8.573  10.116
66222SOL    HW298691  11.605   8.572   9.958
66223SOL     OW98692  12.443   9.245   9.901
66223SOL    HW198693  12.487   9.309   9.837
66223SOL    HW298694  12.393   9.297   9.971
66224SOL     OW98695  12.204   7.997   9.326
66224SOL    HW198696  12.163   8.079   9.287
66224SOL    HW298697  12.268   8.023   9.399
66225SOL     OW98698  11.250   8.004  10.696
66225SOL    HW198699  11.342   8.003  10.655
66225SOL    HW298700  11.244   8.078  10.763
66226SOL     OW98701  11.733   7.670  10.457
66226SOL    HW198702  11.771   7.586  10.494
66226SOL    HW298703  11.645   7.689  10.501
66227SOL     OW98704  12.038   7.902   9.952
66227SOL    HW198705  12.006   7.974   9.890
66227SOL    HW298706  12.062   7.821   9.899
66228SOL     OW98707  12.189   7.487  10.063
66228SOL    HW198708  12.117   7.492   9.994
66228SOL    HW298709  12.165   7.418  10.132
66229SOL     OW98710  12.601   8.621  10.177
66229SOL    HW198711  12.546   8.537  10.170
66229SOL    HW298712  12.627   8.650  10.085
66230SOL     OW98713  12.638   8.038  10.302
66230SOL    HW198714  12.608   7.943  10.309
66230SOL    HW298715  12.711   8.054  10.368
66231SOL     OW98716  11.660   8.833   9.484
66231SOL    HW198717  11.573   8.818   9.531
66231SOL    HW298718  11.643   8.859   9.389
66232SOL     OW98719  12.562   8.023   9.388
66232SOL    HW198720  12.508   8.002   9.469
66232SOL    HW298721  12.653   7.982   9.397
66233SOL     OW98722  11.699   7.704   9.638
66233SOL    HW198723  11.726   7.645   9.563
66233SOL    HW298724  11.699   7.799   9.607
66234SOL     OW98725  12.236   8.795  10.650
66234SOL    HW198726  12.156   8.772  10.705
66234SOL    HW298727  12.319   8.769  10.699
66235SOL     OW98728  12.764   9.077  10.935
66235SOL    HW198729  12.791   9.111  10.845
66235SOL    HW298730  12.843   9.039  10.981
66236SOL     OW98731  12.283   8.643  10.410
66236SOL    HW198732  12.243   8.687  10.491
66236SOL    HW298733  12.242   8.680  10.327
66237SOL     OW98734  12.087   7.537  10.712
66237SOL    HW198735  12.112   7.517  10.617
66237SOL    HW298736  12.159   7.593  10.754
66238SOL     OW98737  12.152   8.564  11.029
66238SOL    HW198738  12.053   8.570  11.039
66238SOL    HW298739  12.175   8.484  10.973
66239SOL     OW98740  11.877   8.498   9.678
66239SOL    HW198741  11.863   8.505   9.777
66239SOL    HW298742  11.961   8.447   9.660
66240SOL     OW98743  11.582   8.261  10.561
66240SOL    HW198744  11.668   8.273  10.611
66240SOL    HW298745  11.540   8.174  10.588
66241SOL     OW98746  12.446   7.834  10.572
66241SOL    HW198747  12.467   7.908  10.636
66241SOL    HW298748  12.357   7.851  10.529
66242SOL     OW98749  11.236   9.012  10.641
66242SOL    HW198750  11.190   9.094  10.607
66242SOL    HW298751  11.334   9.031  10.650
66243SOL     OW98752  11.539   8.548   9.811
66243SOL    HW198753  11.532   8.631   9.755
66243SOL    HW298754  11.543   8.468   9.751
66244SOL     OW98755  11.738   7.985  10.175
66244SOL    HW198756  11.750   8.051  10.101
66244SOL    HW298757  11.784   8.019  10.258
66245SOL     OW98758  12.424   8.796   9.698
66245SOL    HW198759  12.474   8.873   9.738
66245SOL    HW298760  12.329   8.798   9.730
66246SOL     OW98761  12.444   8.893  10.452
66246SOL    HW198762  12.491   8.906  10.539
66246SOL    HW298763  12.378   8.819  10.461
66247SOL     OW98764  12.754   8.087   9.782
66247SOL    HW198765  12.723   8.148   9.855
66247SOL    HW298766  12.804   8.139   9.713
66248SOL     OW98767  11.526   8.958  10.639
66248SOL    HW198768  11.505   8.914  10.552
66248SOL    HW298769  11.623   8.984  10.642
66249SOL     OW98770  11.574   8.199  10.908
66249SOL    HW198771  11.642   8.254  10.861
66249SOL    HW298772  11.614   8.111  10.935
66250SOL     OW98773  12.185   7.553  11.080
66250SOL    HW198774  12.191   7.638  11.028
66250SOL    HW298775  12.217   7.477  11.023
66251SOL     OW98776  11.676   7.498  11.050
66251SOL    HW198777  11.634   7.441  10.980
66251SOL    HW298778  11.610   7.567  11.082
66252SOL     OW98779  11.745   8.318  10.339
66252SOL    HW198780  11.789   8.407  10.330
66252SOL    HW298781  11.682   8.318  10.416
66253SOL     OW98782  12.532   8.310  10.355
66253SOL    HW198783  12.457   8.310  10.289
66253SOL    HW298784  12.569   8.218  10.364
66254SOL     OW98785  12.381   7.973   9.585
66254SOL    HW198786  12.394   7.889   9.639
66254SOL    HW298787  12.352   8.047   9.645
66255SOL     OW98788  11.479   7.661  10.541
66255SOL    HW198789  11.456   7.698  10.631
66255SOL    HW298790  11.449   7.566  10.535
66256SOL     OW98791  11.209   8.758  10.592
66256SOL    HW198792  11.262   8.709  10.660
66256SOL    HW298793  11.231   8.856  10.597
66257SOL     OW98794  11.904   8.082  10.374
66257SOL    HW198795  11.963   8.056  10.298
66257SOL    HW298796  11.876   8.178  10.363
66258SOL     OW98797  11.479   7.511   9.928
66258SOL    HW198798  11.468   7.605   9.961
66258SOL    HW298799  11.474   7.448  10.005
66259SOL     OW98800  12.794   7.815   9.684
66259SOL    HW198801  12.796   7.739   9.748
66259SOL    HW298802  12.746   7.892   9.724
66260SOL     OW98803  12.195   8.214  10.276
66260SOL    HW198804  12.210   8.235  10.372
66260SOL    HW298805  12.165   8.119  10.267
66261SOL     OW98806  12.152   9.021  11.010
66261SOL    HW198807  12.132   9.065  10.922
66261SOL    HW298808  12.191   8.930  10.994
66262SOL     OW98809  11.522   8.346  11.114
66262SOL    HW198810  11.598   8.390  11.162
66262SOL    HW298811  11.557   8.299  11.032
66263SOL     OW98812  12.712   7.722   9.435
66263SOL    HW198813  12.651   7.647   9.458
66263SOL    HW298814  12.734   7.774   9.518
66264SOL     OW98815  12.475   8.286   9.352
66264SOL    HW198816  12.509   8.193   9.367
66264SOL    HW298817  12.493   8.313   9.257
66265SOL     OW98818  12.240   8.781  10.159
66265SOL    HW198819  12.247   8.697  10.104
66265SOL    HW298820  12.302   8.850  10.123
66266SOL     OW98821  11.491   8.258  10.259
66266SOL    HW198822  11.584   8.294  10.264
66266SOL    HW298823  11.485   8.173  10.311
66267SOL     OW98824  11.511   7.957  10.316
66267SOL    HW198825  11.459   7.874  10.299
66267SOL    HW298826  11.588   7.962  10.252
66268SOL     OW98827  12.310   7.828  10.988
66268SOL    HW198828  12.265   7.891  11.052
66268SOL    HW298829  12.403   7.859  10.971
66269SOL     OW98830  12.332   7.655  10.787
66269SOL    HW198831  12.332   7.719  10.864
66269SOL    HW298832  12.360   7.703  10.704
66270SOL     OW98833  11.180   8.774   9.510
66270SOL    HW198834  11.087   8.795   9.479
66270SOL    HW298835  11.190   8.675   9.523
66271SOL     OW98836  11.260   9.249  10.237
66271SOL    HW198837  11.218   9.163  10.210
66271SOL    HW298838  11.354   9.252  10.203
66272SOL     OW98839  11.676   9.016  10.220
66272SOL    HW198840  11.742   9.090  10.229
66272SOL    HW298841  11.720   8.937  10.178
66273SOL     OW98842  12.174   8.244  10.548
66273SOL    HW198843  12.215   8.212  10.634
66273SOL    HW298844  12.078   8.217  10.545
66274SOL     OW98845  11.212   7.992  10.424
66274SOL    HW198846  11.297   7.959  10.383
66274SOL    HW298847  11.225   8.007  10.522
66275SOL     OW98848  11.361   7.968  11.032
66275SOL    HW198849  11.420   7.928  10.962
66275SOL    HW298850  11.303   8.039  10.991
66276SOL     OW98851  12.541   8.398  10.970
66276SOL    HW198852  12.580   8.487  10.990
66276SOL    HW298853  12.551   8.378  10.873
66277SOL     OW98854  11.987   8.020   9.635
66277SOL    HW198855  11.994   7.931   9.589
66277SOL    HW298856  11.893   8.054   9.627
66278SOL     OW98857  11.424   9.012  11.054
66278SOL    HW198858  11.394   9.069  11.130
66278SOL    HW298859  11.417   8.915  11.080
66279SOL     OW98860  11.843   7.912  10.579
66279SOL    HW198861  11.809   7.823  10.549
66279SOL    HW298862  11.869   7.966  10.499
66280SOL     OW98863  12.102   9.126  10.775
66280SOL    HW198864  12.078   9.108  10.680
66280SOL    HW298865  12.132   9.220  10.785
66281SOL     OW98866  11.645   7.948   9.501
66281SOL    HW198867  11.706   8.028   9.505
66281SOL    HW298868  11.550   7.979   9.508
66282SOL     OW98869  11.331   8.585  10.776
66282SOL    HW198870  11.353   8.524  10.852
66282SOL    HW298871  11.341   8.536  10.690
66283SOL     OW98872  12.519   8.507  10.544
66283SOL    HW198873  12.543   8.444  10.470
66283SOL    HW298874  12.429   8.547  10.526
66284SOL     OW98875  12.474   8.303   9.619
66284SOL    HW198876  12.388   8.272   9.661
66284SOL    HW298877  12.470   8.289   9.520
66285SOL     OW98878  12.424   9.179  10.438
66285SOL    HW198879  12.508   9.184  10.384
66285SOL    HW298880  12.401   9.083  10.456
66286SOL     OW98881  11.255   8.706  10.332
66286SOL    HW198882  11.250   8.705  10.432
66286SOL    HW298883  11.172   8.665  10.294
66287SOL     OW98884  11.860   9.110  11.026
66287SOL    HW198885  11.804   9.191  11.035
66287SOL    HW298886  11.912   9.114  10.940
66288SOL     OW98887  12.898   7.583   9.833
66288SOL    HW198888  12.971   7.566   9.766
66288SOL    HW298889  12.867   7.496   9.871
66289SOL     OW98890  12.560   9.021   9.787
66289SOL    HW198891  12.627   9.033   9.713
66289SOL    HW298892  12.520   9.110   9.810
66290SOL     OW98893  11.302   9.242  11.161
66290SOL    HW198894  11.261   9.168  11.214
66290SOL    HW298895  11.366   9.293  11.219
66291SOL     OW98896  12.452   8.375   9.982
66291SOL    HW198897  12.512   8.294   9.984
66291SOL    HW298898  12.492   8.444   9.922
66292SOL     OW98899  12.002   8.721  10.732
66292SOL    HW198900  11.997   8.754  10.827
66292SOL    HW298901  11.916   8.740  10.686
66293SOL     OW98902  11.844   9.064   9.464
66293SOL    HW198903  11.853   9.074   9.365
66293SOL    HW298904  11.804   8.975   9.485
66294SOL     OW98905  11.435   7.774  10.030
66294SOL    HW198906  11.356   7.825   9.996
66294SOL    HW298907  11.426   7.759  10.128
66295SOL     OW98908  12.366   9.060   9.341
66295SOL    HW198909  12.372   8.967   9.378
66295SOL    HW298910  12.307   9.060   9.261
66296SOL     OW98911  11.994   8.450  10.682
66296SOL    HW198912  12.034   8.449  10.590
66296SOL    HW298913  12.004   8.542  10.722
66297SOL     OW98914  12.088   8.358   9.601
66297SOL    HW198915  12.151   8.396   9.533
66297SOL    HW298916  12.128   8.275   9.640
66298SOL     OW98917  12.676   9.055   9.354
66298SOL    HW198918  12.584   9.092   9.361
66298SOL    HW298919  12.714   9.075   9.264
66299SOL     OW98920  11.544   8.736  10.800
66299SOL    HW198921  11.531   8.829  10.766
66299SOL    HW298922  11.460   8.684  10.787
66300SOL     OW98923  12.211   8.546  10.006
66300SOL    HW198924  12.141   8.499  10.060
66300SOL    HW298925  12.270   8.478   9.963
66301SOL     OW98926  12.186   7.684  10.281
66301SOL    HW198927  12.178   7.648  10.188
66301SOL    HW298928  12.184   7.608  10.346
66302SOL     OW98929  11.762   8.935   9.801
66302SOL    HW198930  11.804   8.877   9.731
66302SOL    HW298931  11.718   9.014   9.757
66303SOL     OW98932  11.427   8.796   9.600
66303SOL    HW198933  11.331   8.797   9.573
66303SOL    HW298934  11.439   8.849   9.684
66304SOL     OW98935  11.277   8.461  11.036
66304SOL    HW198936  11.200   8.428  11.090
66304SOL    HW298937  11.362   8.431  11.078
66305SOL     OW98938  11.844   7.651  10.799
66305SOL    HW198939  11.934   7.635  10.759
66305SOL    HW298940  11.852   7.656  10.898
66306SOL     OW98941  11.247   7.793   9.343
66306SOL    HW198942  11.155   7.765   9.314
66306SOL    HW298943  11.278   7.870   9.287
66307SOL     OW98944  12.612   8.304  10.708
66307SOL    HW198945  12.555   8.356  10.645
66307SOL    HW298946  12.708   8.316  10.684
66308SOL     OW98947  11.244   7.614   9.628
66308SOL    HW198948  11.227   7.697   9.574
66308SOL    HW298949  11.334   7.577   9.606
66309SOL     OW98950  12.355   8.783   9.429
66309SOL    HW198951  12.256   8.772   9.431
66309SOL    HW298952  12.389   8.798   9.522
66310SOL     OW98953  11.785   8.290  10.741
66310SOL    HW198954  11.841   8.371  10.724
66310SOL    HW298955  11.844   8.210  10.744
66311SOL     OW98956  12.665   9.215  10.269
66311SOL    HW198957  12.698   9.279  10.200
66311SOL    HW298958  12.731   9.209  10.344
66312SOL     OW98959  11.888   8.013  11.018
66312SOL    HW198960  11.907   8.078  11.092
66312SOL    HW298961  11.948   7.933  11.027
66313SOL     OW98962  12.622   8.668  10.943
66313SOL    HW198963  12.613   8.658  11.042
66313SOL    HW298964  12.718   8.661  10.917
66314SOL     OW98965  11.562   9.189  10.870
66314SOL    HW198966  11.471   9.230  10.868
66314SOL    HW298967  11.555   9.095  10.902
66315SOL     OW98968  12.397   7.773   9.759
66315SOL    HW198969  12.462   7.699   9.748
66315SOL    HW298970  12.417   7.823   9.843
66316SOL     OW98971  11.766   8.193   9.962
66316SOL    HW198972  11.816   8.278   9.943
66316SOL    HW298973  11.678   8.195   9.914
66317SOL     OW98974  12.031   8.822   9.326
66317SOL    HW198975  11.985   8.837   9.414
66317SOL    HW298976  12.075   8.907   9.296
66318SOL     OW98977  11.833   9.238  10.263
66318SOL    HW198978  11.787   9.326  10.250
66318SOL    HW298979  11.932   9.250  10.256
66319SOL     OW98980  12.031   8.404  10.171
66319SOL    HW198981  12.085   8.335  10.219
66319SOL    HW298982  11.999   8.473  10.237
66320SOL     OW98983  12.255   8.432   9.397
66320SOL    HW198984  12.232   8.485   9.315
66320SOL    HW298985  12.336   8.376   9.378
66321SOL     OW98986  13.033   9.017  10.161
66321SOL    HW198987  12.962   9.005  10.091
66321SOL    HW298988  13.034   8.938  10.221
66322SOL     OW98989  11.393   8.762  11.154
66322SOL    HW198990  11.328   8.689  11.133
66322SOL    HW298991  11.397   8.776  11.252
66323SOL     OW98992  11.251   8.688   9.963
66323SOL    HW198993  11.250   8.641  10.051
66323SOL    HW298994  11.333   8.660   9.912
66324SOL     OW98995  11.844   8.839  10.934
66324SOL    HW198996  11.766   8.789  10.972
66324SOL    HW298997  11.841   8.934  10.965
66325SOL     OW98998  11.600   7.872   9.830
66325SOL    HW198999  11.630   7.800   9.768
66325SOL    HW299000  11.561   7.832   9.913
66326SOL     OW99001  11.489   7.995  10.590
66326SOL    HW199002  11.527   7.936  10.662
66326SOL    HW299003  11.529   7.969  10.502
66327SOL     OW99004  11.984   9.034   9.997
66327SOL    HW199005  12.016   9.044   9.903
66327SOL    HW299006  11.905   8.972   9.999
66328SOL     OW99007  12.596   7.662  10.422
66328SOL    HW199008  12.648   7.597  10.477
66328SOL    HW299009  12.547   7.725  10.483
66329SOL     OW99010  12.173   7.482  10.464
66329SOL    HW199011  12.110   7.410  10.433
66329SOL    HW299012  12.266   7.446  10.464
66330SOL     OW99013  11.942   8.778   9.611
66330SOL    HW199014  11.896   8.691   9.628
66330SOL    HW299015  12.033   8.775   9.652
66331SOL     OW99016  11.790   9.015  10.594
66331SOL    HW199017  11.785   9.097  10.651
66331SOL    HW299018  11.879   9.012  10.549
66332SOL     OW99019  12.524   7.500   9.478
66332SOL    HW199020  12.559   7.459   9.394
66332SOL    HW299021  12.434   7.462   9.498
66333SOL     OW99022  12.472   7.901  10.001
66333SOL    HW199023  12.413   7.981  10.005
66333SOL    HW299024  12.487   7.866  10.094
66334SOL     OW99025  12.765   7.669  10.192
66334SOL    HW199026  12.681   7.668  10.246
66334SOL    HW299027  12.767   7.752  10.136
66335SOL     OW99028  11.211   8.525   9.610
66335SOL    HW199029  11.310   8.514   9.601
66335SOL    HW299030  11.171   8.439   9.642
66336SOL     OW99031  12.047   9.094   9.647
66336SOL    HW199032  11.970   9.059   9.593
66336SOL    HW299033  12.015   9.165   9.709
66337SOL     OW99034  11.402   8.076  11.285
66337SOL    HW199035  11.309   8.074  11.322
66337SOL    HW299036  11.403   8.037  11.193
66338SOL     OW99037  11.397   7.723  12.168
66338SOL    HW199038  11.432   7.706  12.260
66338SOL    HW299039  11.309   7.678  12.156
66339SOL     OW99040  11.191   7.816  11.819
66339SOL    HW199041  11.109   7.859  11.858
66339SOL    HW299042  11.163   7.743  11.756
66340SOL     OW99043  11.741   8.723  12.337
66340SOL    HW199044  11.648   8.716  12.300
66340SOL    HW299045  11.752   8.812  12.381
66341SOL     OW99046  12.727   8.959  11.875
66341SOL    HW199047  12.670   8.943  11.956
66341SOL    HW299048  12.668   8.969  11.795
66342SOL     OW99049  12.307   8.151  11.889
66342SOL    HW199050  12.364   8.229  11.864
66342SOL    HW299051  12.247   8.177  11.965
66343SOL     OW99052  11.940   8.592  12.195
66343SOL    HW199053  11.862   8.609  12.255
66343SOL    HW299054  11.974   8.679  12.159
66344SOL     OW99055  11.857   8.460  11.837
66344SOL    HW199056  11.926   8.444  11.907
66344SOL    HW299057  11.784   8.517  11.875
66345SOL     OW99058  11.507   8.883  12.233
66345SOL    HW199059  11.429   8.852  12.180
66345SOL    HW299060  11.565   8.941  12.176
66346SOL     OW99061  12.632   8.953  12.511
66346SOL    HW199062  12.656   9.047  12.537
66346SOL    HW299063  12.616   8.899  12.593
66347SOL     OW99064  11.610   7.840  12.671
66347SOL    HW199065  11.692   7.784  12.680
66347SOL    HW299066  11.529   7.782  12.675
66348SOL     OW99067  11.403   9.161  11.655
66348SOL    HW199068  11.437   9.238  11.709
66348SOL    HW299069  11.447   9.161  11.565
66349SOL     OW99070  11.402   8.882  11.710
66349SOL    HW199071  11.376   8.978  11.710
66349SOL    HW299072  11.331   8.828  11.755
66350SOL     OW99073  11.412   8.539  12.058
66350SOL    HW199074  11.426   8.455  12.110
66350SOL    HW299075  11.357   8.603  12.113
66351SOL     OW99076  11.792   9.234  12.611
66351SOL    HW199077  11.700   9.217  12.646
66351SOL    HW299078  11.820   9.326  12.637
66352SOL     OW99079  11.778   8.412  11.295
66352SOL    HW199080  11.785   8.496  11.241
66352SOL    HW299081  11.824   8.425  11.383
66353SOL     OW99082  12.766   7.562  12.652
66353SOL    HW199083  12.748   7.629  12.580
66353SOL    HW299084  12.763   7.608  12.741
66354SOL     OW99085  11.294   8.091  11.735
66354SOL    HW199086  11.249   8.003  11.752
66354SOL    HW299087  11.293   8.145  11.819
66355SOL     OW99088  11.199   9.044  11.289
66355SOL    HW199089  11.180   8.948  11.310
66355SOL    HW299090  11.166   9.102  11.364
66356SOL     OW99091  12.861   8.370  11.784
66356SOL    HW199092  12.956   8.341  11.792
66356SOL    HW299093  12.853   8.435  11.709
66357SOL     OW99094  11.285   8.185  12.769
66357SOL    HW199095  11.373   8.172  12.814
66357SOL    HW299096  11.272   8.282  12.747
66358SOL     OW99097  11.785   8.813  11.898
66358SOL    HW199098  11.736   8.726  11.907
66358SOL    HW299099  11.762   8.856  11.811
66359SOL     OW99100  12.465   8.676  12.595
66359SOL    HW199101  12.502   8.603  12.537
66359SOL    HW299102  12.517   8.681  12.680
66360SOL     OW99103  11.981   7.452  11.674
66360SOL    HW199104  12.021   7.543  11.665
66360SOL    HW299105  11.881   7.460  11.680
66361SOL     OW99106  11.369   8.424  12.436
66361SOL    HW199107  11.458   8.379  12.422
66361SOL    HW299108  11.296   8.359  12.417
66362SOL     OW99109  12.638   8.865  12.125
66362SOL    HW199110  12.579   8.871  12.205
66362SOL    HW299111  12.623   8.777  12.079
66363SOL     OW99112  12.839   9.162  11.744
66363SOL    HW199113  12.798   9.139  11.656
66363SOL    HW299114  12.821   9.088  11.809
66364SOL     OW99115  11.770   8.177  11.442
66364SOL    HW199116  11.794   8.246  11.374
66364SOL    HW299117  11.692   8.210  11.496
66365SOL     OW99118  12.453   7.793  12.116
66365SOL    HW199119  12.367   7.743  12.103
66365SOL    HW299120  12.515   7.739  12.172
66366SOL     OW99121  11.979   8.053  12.637
66366SOL    HW199122  11.932   8.050  12.726
66366SOL    HW299123  11.928   7.998  12.571
66367SOL     OW99124  12.145   8.338  12.744
66367SOL    HW199125  12.191   8.254  12.715
66367SOL    HW299126  12.089   8.372  12.669
66368SOL     OW99127  12.163   7.858  12.414
66368SOL    HW199128  12.086   7.892  12.468
66368SOL    HW299129  12.129   7.807  12.335
66369SOL     OW99130  12.213   8.149  11.601
66369SOL    HW199131  12.239   8.145  11.697
66369SOL    HW299132  12.128   8.098  11.587
66370SOL     OW99133  11.248   8.259  11.961
66370SOL    HW199134  11.347   8.247  11.970
66370SOL    HW299135  11.224   8.354  11.982
66371SOL     OW99136  11.302   9.269  12.743
66371SOL    HW199137  11.292   9.254  12.842
66371SOL    HW299138  11.216   9.305  12.707
66372SOL     OW99139  12.037   7.796  11.367
66372SOL    HW199140  12.096   7.859  11.318
66372SOL    HW299141  12.056   7.702  11.338
66373SOL     OW99142  12.534   8.592  11.717
66373SOL    HW199143  12.617   8.563  11.669
66373SOL    HW299144  12.485   8.659  11.661
66374SOL     OW99145  11.722   7.644  12.057
66374SOL    HW199146  11.717   7.639  12.157
66374SOL    HW299147  11.724   7.740  12.028
66375SOL     OW99148  12.180   8.904  11.649
66375SOL    HW199149  12.134   8.976  11.597
66375SOL    HW299150  12.176   8.924  11.747
66376SOL     OW99151  11.523   9.249  12.025
66376SOL    HW199152  11.573   9.163  12.031
66376SOL    HW299153  11.588   9.326  12.022
66377SOL     OW99154  12.399   8.998  12.678
66377SOL    HW199155  12.405   8.921  12.742
66377SOL    HW299156  12.347   8.972  12.598
66378SOL     OW99157  11.493   8.391  11.414
66378SOL    HW199158  11.575   8.430  11.372
66378SOL    HW299159  11.466   8.309  11.365
66379SOL     OW99160  12.630   8.183  11.900
66379SOL    HW199161  12.625   8.118  11.975
66379SOL    HW299162  12.710   8.242  11.913
66380SOL     OW99163  12.283   9.224  11.409
66380SOL    HW199164  12.223   9.162  11.459
66380SOL    HW299165  12.314   9.180  11.324
66381SOL     OW99166  11.374   7.733  12.670
66381SOL    HW199167  11.294   7.793  12.657
66381SOL    HW299168  11.364   7.684  12.756
66382SOL     OW99169  11.636   9.191  11.495
66382SOL    HW199170  11.669   9.230  11.581
66382SOL    HW299171  11.712   9.184  11.430
66383SOL     OW99172  12.572   7.555  11.598
66383SOL    HW199173  12.548   7.518  11.508
66383SOL    HW299174  12.671   7.571  11.602
66384SOL     OW99175  11.421   9.233  12.413
66384SOL    HW199176  11.478   9.168  12.463
66384SOL    HW299177  11.405   9.200  12.320
66385SOL     OW99178  12.112   9.146  12.076
66385SOL    HW199179  12.192   9.089  12.097
66385SOL    HW299180  12.063   9.106  11.999
66386SOL     OW99181  11.554   8.148  11.652
66386SOL    HW199182  11.599   8.058  11.649
66386SOL    HW299183  11.460   8.137  11.685
66387SOL     OW99184  11.786   7.570  11.289
66387SOL    HW199185  11.884   7.548  11.296
66387SOL    HW299186  11.755   7.553  11.196
66388SOL     OW99187  12.060   8.962  12.367
66388SOL    HW199188  12.037   8.937  12.273
66388SOL    HW299189  12.121   8.893  12.406
66389SOL     OW99190  12.523   8.038  12.605
66389SOL    HW199191  12.551   7.995  12.690
66389SOL    HW299192  12.548   8.134  12.606
66390SOL     OW99193  11.975   8.850  12.096
66390SOL    HW199194  12.065   8.864  12.054
66390SOL    HW299195  11.904   8.852  12.025
66391SOL     OW99196  12.094   7.951  12.071
66391SOL    HW199197  12.069   7.942  11.975
66391SOL    HW299198  12.142   7.869  12.102
66392SOL     OW99199  11.711   7.512  11.684
66392SOL    HW199200  11.630   7.513  11.742
66392SOL    HW299201  11.714   7.595  11.629
66393SOL     OW99202  12.606   8.636  11.213
66393SOL    HW199203  12.638   8.560  11.270
66393SOL    HW299204  12.514   8.663  11.243
66394SOL     OW99205  11.469   7.483  11.343
66394SOL    HW199206  11.518   7.567  11.322
66394SOL    HW299207  11.531   7.418  11.388
66395SOL     OW99208  12.107   7.684  11.652
66395SOL    HW199209  12.059   7.725  11.574
66395SOL    HW299210  12.206   7.682  11.633
66396SOL     OW99211  12.248   8.131  12.636
66396SOL    HW199212  12.168   8.070  12.639
66396SOL    HW299213  12.329   8.078  12.612
66397SOL     OW99214  12.399   9.018  11.965
66397SOL    HW199215  12.420   9.092  11.900
66397SOL    HW299216  12.467   9.018  12.038
66398SOL     OW99217  11.631   8.600  11.913
66398SOL    HW199218  11.560   8.573  11.978
66398SOL    HW299219  11.605   8.572  11.820
66399SOL     OW99220  12.443   9.245  11.763
66399SOL    HW199221  12.487   9.309  11.699
66399SOL    HW299222  12.393   9.297  11.833
66400SOL     OW99223  12.204   7.997  11.188
66400SOL    HW199224  12.163   8.079  11.149
66400SOL    HW299225  12.268   8.023  11.261
66401SOL     OW99226  11.250   8.004  12.558
66401SOL    HW199227  11.342   8.003  12.517
66401SOL    HW299228  11.244   8.078  12.625
66402SOL     OW99229  11.733   7.670  12.319
66402SOL    HW199230  11.771   7.586  12.356
66402SOL    HW299231  11.645   7.689  12.363
66403SOL     OW99232  12.038   7.902  11.814
66403SOL    HW199233  12.006   7.974  11.752
66403SOL    HW299234  12.062   7.821  11.761
66404SOL     OW99235  12.189   7.487  11.925
66404SOL    HW199236  12.117   7.492  11.856
66404SOL    HW299237  12.165   7.418  11.994
66405SOL     OW99238  12.601   8.621  12.039
66405SOL    HW199239  12.546   8.537  12.032
66405SOL    HW299240  12.627   8.650  11.947
66406SOL     OW99241  12.638   8.038  12.164
66406SOL    HW199242  12.608   7.943  12.171
66406SOL    HW299243  12.711   8.054  12.230
66407SOL     OW99244  11.660   8.833  11.346
66407SOL    HW199245  11.573   8.818  11.393
66407SOL    HW299246  11.643   8.859  11.251
66408SOL     OW99247  12.562   8.023  11.250
66408SOL    HW199248  12.508   8.002  11.331
66408SOL    HW299249  12.653   7.982  11.259
66409SOL     OW99250  11.699   7.704  11.500
66409SOL    HW199251  11.726   7.645  11.425
66409SOL    HW299252  11.699   7.799  11.469
66410SOL     OW99253  12.236   8.795  12.512
66410SOL    HW199254  12.156   8.772  12.567
66410SOL    HW299255  12.319   8.769  12.561
66411SOL     OW99256  12.283   8.643  12.272
66411SOL    HW199257  12.243   8.687  12.353
66411SOL    HW299258  12.242   8.680  12.189
66412SOL     OW99259  12.087   7.537  12.574
66412SOL    HW199260  12.112   7.517  12.479
66412SOL    HW299261  12.159   7.593  12.616
66413SOL     OW99262  11.877   8.498  11.540
66413SOL    HW199263  11.863   8.505  11.639
66413SOL    HW299264  11.961   8.447  11.522
66414SOL     OW99265  11.582   8.261  12.423
66414SOL    HW199266  11.668   8.273  12.473
66414SOL    HW299267  11.540   8.174  12.450
66415SOL     OW99268  12.446   7.834  12.434
66415SOL    HW199269  12.467   7.908  12.498
66415SOL    HW299270  12.357   7.851  12.391
66416SOL     OW99271  11.236   9.012  12.503
66416SOL    HW199272  11.190   9.094  12.469
66416SOL    HW299273  11.334   9.031  12.512
66417SOL     OW99274  11.539   8.548  11.673
66417SOL    HW199275  11.532   8.631  11.617
66417SOL    HW299276  11.543   8.468  11.613
66418SOL     OW99277  11.738   7.985  12.037
66418SOL    HW199278  11.750   8.051  11.963
66418SOL    HW299279  11.784   8.019  12.120
66419SOL     OW99280  12.424   8.796  11.560
66419SOL    HW199281  12.474   8.873  11.600
66419SOL    HW299282  12.329   8.798  11.592
66420SOL     OW99283  12.444   8.893  12.314
66420SOL    HW199284  12.491   8.906  12.401
66420SOL    HW299285  12.378   8.819  12.323
66421SOL     OW99286  12.754   8.087  11.644
66421SOL    HW199287  12.723   8.148  11.717
66421SOL    HW299288  12.804   8.139  11.575
66422SOL     OW99289  11.526   8.958  12.501
66422SOL    HW199290  11.505   8.914  12.414
66422SOL    HW299291  11.623   8.984  12.504
66423SOL     OW99292  11.574   8.199  12.770
66423SOL    HW199293  11.642   8.254  12.723
66423SOL    HW299294  11.614   8.111  12.797
66424SOL     OW99295  11.745   8.318  12.201
66424SOL    HW199296  11.789   8.407  12.192
66424SOL    HW299297  11.682   8.318  12.278
66425SOL     OW99298  12.532   8.310  12.217
66425SOL    HW199299  12.457   8.310  12.151
66425SOL    HW299300  12.569   8.218  12.226
66426SOL     OW99301  12.381   7.973  11.447
66426SOL    HW199302  12.394   7.889  11.501
66426SOL    HW299303  12.352   8.047  11.507
66427SOL     OW99304  11.479   7.661  12.403
66427SOL    HW199305  11.456   7.698  12.493
66427SOL    HW299306  11.449   7.566  12.397
66428SOL     OW99307  11.209   8.758  12.454
66428SOL    HW199308  11.262   8.709  12.522
66428SOL    HW299309  11.231   8.856  12.459
66429SOL     OW99310  11.904   8.082  12.236
66429SOL    HW199311  11.963   8.056  12.160
66429SOL    HW299312  11.876   8.178  12.225
66430SOL     OW99313  11.479   7.511  11.790
66430SOL    HW199314  11.468   7.605  11.823
66430SOL    HW299315  11.474   7.448  11.867
66431SOL     OW99316  12.794   7.815  11.546
66431SOL    HW199317  12.796   7.739  11.610
66431SOL    HW299318  12.746   7.892  11.586
66432SOL     OW99319  12.195   8.214  12.138
66432SOL    HW199320  12.210   8.235  12.234
66432SOL    HW299321  12.165   8.119  12.129
66433SOL     OW99322  12.712   7.722  11.297
66433SOL    HW199323  12.651   7.647  11.320
66433SOL    HW299324  12.734   7.774  11.380
66434SOL     OW99325  12.475   8.286  11.214
66434SOL    HW199326  12.509   8.193  11.229
66434SOL    HW299327  12.493   8.313  11.119
66435SOL     OW99328  12.240   8.781  12.021
66435SOL    HW199329  12.247   8.697  11.966
66435SOL    HW299330  12.302   8.850  11.985
66436SOL     OW99331  11.491   8.258  12.121
66436SOL    HW199332  11.584   8.294  12.126
66436SOL    HW299333  11.485   8.173  12.173
66437SOL     OW99334  11.511   7.957  12.178
66437SOL    HW199335  11.459   7.874  12.161
66437SOL    HW299336  11.588   7.962  12.114
66438SOL     OW99337  12.332   7.655  12.649
66438SOL    HW199338  12.332   7.719  12.726
66438SOL    HW299339  12.360   7.703  12.566
66439SOL     OW99340  11.180   8.774  11.372
66439SOL    HW199341  11.087   8.795  11.341
66439SOL    HW299342  11.190   8.675  11.385
66440SOL     OW99343  11.260   9.249  12.099
66440SOL    HW199344  11.218   9.163  12.072
66440SOL    HW299345  11.354   9.252  12.065
66441SOL     OW99346  11.676   9.016  12.082
66441SOL    HW199347  11.742   9.090  12.091
66441SOL    HW299348  11.720   8.937  12.040
66442SOL     OW99349  12.174   8.244  12.410
66442SOL    HW199350  12.215   8.212  12.496
66442SOL    HW299351  12.078   8.217  12.407
66443SOL     OW99352  11.212   7.992  12.286
66443SOL    HW199353  11.297   7.959  12.245
66443SOL    HW299354  11.225   8.007  12.384
66444SOL     OW99355  11.987   8.020  11.497
66444SOL    HW199356  11.994   7.931  11.451
66444SOL    HW299357  11.893   8.054  11.489
66445SOL     OW99358  11.424   9.012  12.916
66445SOL    HW199359  11.394   9.069  12.992
66445SOL    HW299360  11.417   8.915  12.942
66446SOL     OW99361  11.843   7.912  12.441
66446SOL    HW199362  11.809   7.823  12.411
66446SOL    HW299363  11.869   7.966  12.361
66447SOL     OW99364  12.102   9.126  12.637
66447SOL    HW199365  12.078   9.108  12.542
66447SOL    HW299366  12.132   9.220  12.647
66448SOL     OW99367  11.645   7.948  11.363
66448SOL    HW199368  11.706   8.028  11.367
66448SOL    HW299369  11.550   7.979  11.370
66449SOL     OW99370  11.331   8.585  12.638
66449SOL    HW199371  11.353   8.524  12.714
66449SOL    HW299372  11.341   8.536  12.552
66450SOL     OW99373  12.519   8.507  12.406
66450SOL    HW199374  12.543   8.444  12.332
66450SOL    HW299375  12.429   8.547  12.388
66451SOL     OW99376  12.474   8.303  11.481
66451SOL    HW199377  12.388   8.272  11.523
66451SOL    HW299378  12.470   8.289  11.382
66452SOL     OW99379  12.424   9.179  12.300
66452SOL    HW199380  12.508   9.184  12.246
66452SOL    HW299381  12.401   9.083  12.318
66453SOL     OW99382  11.255   8.706  12.194
66453SOL    HW199383  11.250   8.705  12.294
66453SOL    HW299384  11.172   8.665  12.156
66454SOL     OW99385  12.898   7.583  11.695
66454SOL    HW199386  12.971   7.566  11.628
66454SOL    HW299387  12.867   7.496  11.733
66455SOL     OW99388  12.560   9.021  11.649
66455SOL    HW199389  12.627   9.033  11.575
66455SOL    HW299390  12.520   9.110  11.672
66456SOL     OW99391  12.452   8.375  11.844
66456SOL    HW199392  12.512   8.294  11.846
66456SOL    HW299393  12.492   8.444  11.784
66457SOL     OW99394  12.002   8.721  12.594
66457SOL    HW199395  11.997   8.754  12.689
66457SOL    HW299396  11.916   8.740  12.548
66458SOL     OW99397  11.844   9.064  11.326
66458SOL    HW199398  11.853   9.074  11.227
66458SOL    HW299399  11.804   8.975  11.347
66459SOL     OW99400  11.435   7.774  11.892
66459SOL    HW199401  11.356   7.825  11.858
66459SOL    HW299402  11.426   7.759  11.990
66460SOL     OW99403  12.366   9.060  11.203
66460SOL    HW199404  12.372   8.967  11.240
66460SOL    HW299405  12.307   9.060  11.123
66461SOL     OW99406  11.994   8.450  12.544
66461SOL    HW199407  12.034   8.449  12.452
66461SOL    HW299408  12.004   8.542  12.584
66462SOL     OW99409  12.088   8.358  11.463
66462SOL    HW199410  12.151   8.396  11.395
66462SOL    HW299411  12.128   8.275  11.502
66463SOL     OW99412  12.676   9.055  11.216
66463SOL    HW199413  12.584   9.092  11.223
66463SOL    HW299414  12.714   9.075  11.126
66464SOL     OW99415  11.544   8.736  12.662
66464SOL    HW199416  11.531   8.829  12.628
66464SOL    HW299417  11.460   8.684  12.649
66465SOL     OW99418  12.211   8.546  11.868
66465SOL    HW199419  12.141   8.499  11.922
66465SOL    HW299420  12.270   8.478  11.825
66466SOL     OW99421  12.186   7.684  12.143
66466SOL    HW199422  12.178   7.648  12.050
66466SOL    HW299423  12.184   7.608  12.208
66467SOL     OW99424  11.762   8.935  11.663
66467SOL    HW199425  11.804   8.877  11.593
66467SOL    HW299426  11.718   9.014  11.619
66468SOL     OW99427  11.427   8.796  11.462
66468SOL    HW199428  11.331   8.797  11.435
66468SOL    HW299429  11.439   8.849  11.546
66469SOL     OW99430  11.277   8.461  12.898
66469SOL    HW199431  11.200   8.428  12.952
66469SOL    HW299432  11.362   8.431  12.940
66470SOL     OW99433  11.844   7.651  12.661
66470SOL    HW199434  11.934   7.635  12.621
66470SOL    HW299435  11.852   7.656  12.760
66471SOL     OW99436  11.247   7.793  11.205
66471SOL    HW199437  11.155   7.765  11.176
66471SOL    HW299438  11.278   7.870  11.149
66472SOL     OW99439  12.612   8.304  12.570
66472SOL    HW199440  12.555   8.356  12.507
66472SOL    HW299441  12.708   8.316  12.546
66473SOL     OW99442  11.244   7.614  11.490
66473SOL    HW199443  11.227   7.697  11.436
66473SOL    HW299444  11.334   7.577  11.468
66474SOL     OW99445  12.355   8.783  11.291
66474SOL    HW199446  12.256   8.772  11.293
66474SOL    HW299447  12.389   8.798  11.384
66475SOL     OW99448  11.785   8.290  12.603
66475SOL    HW199449  11.841   8.371  12.586
66475SOL    HW299450  11.844   8.210  12.606
66476SOL     OW99451  12.665   9.215  12.131
66476SOL    HW199452  12.698   9.279  12.062
66476SOL    HW299453  12.731   9.209  12.206
66477SOL     OW99454  11.888   8.013  12.880
66477SOL    HW199455  11.907   8.078  12.954
66477SOL    HW299456  11.948   7.933  12.889
66478SOL     OW99457  11.562   9.189  12.732
66478SOL    HW199458  11.471   9.230  12.730
66478SOL    HW299459  11.555   9.095  12.764
66479SOL     OW99460  12.397   7.773  11.621
66479SOL    HW199461  12.462   7.699  11.610
66479SOL    HW299462  12.417   7.823  11.705
66480SOL     OW99463  11.766   8.193  11.824
66480SOL    HW199464  11.816   8.278  11.805
66480SOL    HW299465  11.678   8.195  11.776
66481SOL     OW99466  12.031   8.822  11.188
66481SOL    HW199467  11.985   8.837  11.276
66481SOL    HW299468  12.075   8.907  11.158
66482SOL     OW99469  11.833   9.238  12.125
66482SOL    HW199470  11.787   9.326  12.112
66482SOL    HW299471  11.932   9.250  12.118
66483SOL     OW99472  12.031   8.404  12.033
66483SOL    HW199473  12.085   8.335  12.081
66483SOL    HW299474  11.999   8.473  12.099
66484SOL     OW99475  12.255   8.432  11.259
66484SOL    HW199476  12.232   8.485  11.177
66484SOL    HW299477  12.336   8.376  11.240
66485SOL     OW99478  13.033   9.017  12.023
66485SOL    HW199479  12.962   9.005  11.953
66485SOL    HW299480  13.034   8.938  12.083
66486SOL     OW99481  11.251   8.688  11.825
66486SOL    HW199482  11.250   8.641  11.913
66486SOL    HW299483  11.333   8.660  11.774
66487SOL     OW99484  11.844   8.839  12.796
66487SOL    HW199485  11.766   8.789  12.834
66487SOL    HW299486  11.841   8.934  12.827
66488SOL     OW99487  11.600   7.872  11.692
66488SOL    HW199488  11.630   7.800  11.630
66488SOL    HW299489  11.561   7.832  11.775
66489SOL     OW99490  11.489   7.995  12.452
66489SOL    HW199491  11.527   7.936  12.524
66489SOL    HW299492  11.529   7.969  12.364
66490SOL     OW99493  11.984   9.034  11.859
66490SOL    HW199494  12.016   9.044  11.765
66490SOL    HW299495  11.905   8.972  11.861
66491SOL     OW99496  12.596   7.662  12.284
66491SOL    HW199497  12.648   7.597  12.339
66491SOL    HW299498  12.547   7.725  12.345
66492SOL     OW99499  12.173   7.482  12.326
66492SOL    HW199500  12.110   7.410  12.295
66492SOL    HW299501  12.266   7.446  12.326
66493SOL     OW99502  11.942   8.778  11.473
66493SOL    HW199503  11.896   8.691  11.490
66493SOL    HW299504  12.033   8.775  11.514
66494SOL     OW99505  11.790   9.015  12.456
66494SOL    HW199506  11.785   9.097  12.513
66494SOL    HW299507  11.879   9.012  12.411
66495SOL     OW99508  12.524   7.500  11.340
66495SOL    HW199509  12.559   7.459  11.256
66495SOL    HW299510  12.434   7.462  11.360
66496SOL     OW99511  12.472   7.901  11.863
66496SOL    HW199512  12.413   7.981  11.867
66496SOL    HW299513  12.487   7.866  11.956
66497SOL     OW99514  12.765   7.669  12.054
66497SOL    HW199515  12.681   7.668  12.108
66497SOL    HW299516  12.767   7.752  11.998
66498SOL     OW99517  11.211   8.525  11.472
66498SOL    HW199518  11.310   8.514  11.463
66498SOL    HW299519  11.171   8.439  11.504
66499SOL     OW99520  12.047   9.094  11.509
66499SOL    HW199521  11.970   9.059  11.455
66499SOL    HW299522  12.015   9.165  11.571
66500SOL     OW99523  11.402   9.938   0.113
66500SOL    HW199524  11.309   9.936   0.150
66500SOL    HW299525  11.403   9.899   0.021
66501SOL     OW99526  11.397   9.585   0.996
66501SOL    HW199527  11.432   9.568   1.088
66501SOL    HW299528  11.309   9.540   0.984
66502SOL     OW99529  11.191   9.678   0.647
66502SOL    HW199530  11.109   9.721   0.686
66502SOL    HW299531  11.163   9.605   0.584
66503SOL     OW99532  11.741  10.585   1.165
66503SOL    HW199533  11.648  10.578   1.128
66503SOL    HW299534  11.752  10.674   1.209
66504SOL     OW99535  12.727  10.821   0.703
66504SOL    HW199536  12.670  10.805   0.784
66504SOL    HW299537  12.668  10.831   0.623
66505SOL     OW99538  12.307  10.013   0.717
66505SOL    HW199539  12.364  10.091   0.692
66505SOL    HW299540  12.247  10.039   0.793
66506SOL     OW99541  11.940  10.454   1.023
66506SOL    HW199542  11.862  10.471   1.083
66506SOL    HW299543  11.974  10.541   0.987
66507SOL     OW99544  12.022  10.108   1.823
66507SOL    HW199545  12.018  10.184   1.888
66507SOL    HW299546  12.044  10.144   1.732
66508SOL     OW99547  11.857  10.322   0.665
66508SOL    HW199548  11.926  10.306   0.735
66508SOL    HW299549  11.784  10.379   0.703
66509SOL     OW99550  11.858  10.471   1.803
66509SOL    HW199551  11.918  10.550   1.817
66509SOL    HW299552  11.772  10.502   1.762
66510SOL     OW99553  11.507  10.745   1.061
66510SOL    HW199554  11.429  10.714   1.008
66510SOL    HW299555  11.565  10.803   1.004
66511SOL     OW99556  12.632  10.815   1.339
66511SOL    HW199557  12.656  10.909   1.365
66511SOL    HW299558  12.616  10.761   1.421
66512SOL     OW99559  11.610   9.702   1.499
66512SOL    HW199560  11.692   9.646   1.508
66512SOL    HW299561  11.529   9.644   1.503
66513SOL     OW99562  11.403  11.023   0.483
66513SOL    HW199563  11.437  11.100   0.537
66513SOL    HW299564  11.447  11.023   0.393
66514SOL     OW99565  12.299  10.651   1.690
66514SOL    HW199566  12.346  10.651   1.778
66514SOL    HW299567  12.251  10.564   1.679
66515SOL     OW99568  11.402  10.744   0.538
66515SOL    HW199569  11.376  10.840   0.538
66515SOL    HW299570  11.331  10.690   0.583
66516SOL     OW99571  11.412  10.401   0.886
66516SOL    HW199572  11.426  10.317   0.938
66516SOL    HW299573  11.357  10.465   0.941
66517SOL     OW99574  11.792  11.096   1.439
66517SOL    HW199575  11.700  11.079   1.474
66517SOL    HW299576  11.820  11.188   1.465
66518SOL     OW99577  11.778  10.274   0.123
66518SOL    HW199578  11.785  10.358   0.069
66518SOL    HW299579  11.824  10.287   0.211
66519SOL     OW99580  12.766   9.424   1.480
66519SOL    HW199581  12.748   9.491   1.408
66519SOL    HW299582  12.763   9.470   1.569
66520SOL     OW99583  11.294   9.953   0.563
66520SOL    HW199584  11.249   9.865   0.580
66520SOL    HW299585  11.293  10.007   0.647
66521SOL     OW99586  11.199  10.906   0.117
66521SOL    HW199587  11.180  10.810   0.138
66521SOL    HW299588  11.166  10.964   0.192
66522SOL     OW99589  12.861  10.232   0.612
66522SOL    HW199590  12.956  10.203   0.620
66522SOL    HW299591  12.853  10.297   0.537
66523SOL     OW99592  11.285  10.047   1.597
66523SOL    HW199593  11.373  10.034   1.642
66523SOL    HW299594  11.272  10.144   1.575
66524SOL     OW99595  11.785  10.675   0.726
66524SOL    HW199596  11.736  10.588   0.735
66524SOL    HW299597  11.762  10.718   0.639
66525SOL     OW99598  12.465  10.538   1.423
66525SOL    HW199599  12.502  10.465   1.365
66525SOL    HW299600  12.517  10.543   1.508
66526SOL     OW99601  11.981   9.314   0.502
66526SOL    HW199602  12.021   9.405   0.493
66526SOL    HW299603  11.881   9.322   0.508
66527SOL     OW99604  11.369  10.286   1.264
66527SOL    HW199605  11.458  10.241   1.250
66527SOL    HW299606  11.296  10.221   1.245
66528SOL     OW99607  12.359  11.102   1.616
66528SOL    HW199608  12.383  11.162   1.540
66528SOL    HW299609  12.366  11.007   1.586
66529SOL     OW99610  11.489   9.561   1.801
66529SOL    HW199611  11.560   9.632   1.807
66529SOL    HW299612  11.401   9.600   1.829
66530SOL     OW99613  12.638  10.727   0.953
66530SOL    HW199614  12.579  10.733   1.033
66530SOL    HW299615  12.623  10.639   0.907
66531SOL     OW99616  12.839  11.024   0.572
66531SOL    HW199617  12.798  11.001   0.484
66531SOL    HW299618  12.821  10.950   0.637
66532SOL     OW99619  11.770  10.039   0.270
66532SOL    HW199620  11.794  10.108   0.202
66532SOL    HW299621  11.692  10.072   0.324
66533SOL     OW99622  12.453   9.655   0.944
66533SOL    HW199623  12.367   9.605   0.931
66533SOL    HW299624  12.515   9.601   1.000
66534SOL     OW99625  11.979   9.915   1.465
66534SOL    HW199626  11.932   9.912   1.554
66534SOL    HW299627  11.928   9.860   1.399
66535SOL     OW99628  12.566   9.779   1.674
66535SOL    HW199629  12.546   9.822   1.762
66535SOL    HW299630  12.644   9.717   1.683
66536SOL     OW99631  12.145  10.200   1.572
66536SOL    HW199632  12.191  10.116   1.543
66536SOL    HW299633  12.089  10.234   1.497
66537SOL     OW99634  12.163   9.720   1.242
66537SOL    HW199635  12.086   9.754   1.296
66537SOL    HW299636  12.129   9.669   1.163
66538SOL     OW99637  12.213  10.011   0.429
66538SOL    HW199638  12.239  10.007   0.525
66538SOL    HW299639  12.128   9.960   0.415
66539SOL     OW99640  11.248  10.121   0.789
66539SOL    HW199641  11.347  10.109   0.798
66539SOL    HW299642  11.224  10.216   0.810
66540SOL     OW99643  11.302  11.131   1.571
66540SOL    HW199644  11.292  11.116   1.670
66540SOL    HW299645  11.216  11.167   1.535
66541SOL     OW99646  12.037   9.658   0.195
66541SOL    HW199647  12.096   9.721   0.146
66541SOL    HW299648  12.056   9.564   0.166
66542SOL     OW99649  12.534  10.454   0.545
66542SOL    HW199650  12.617  10.425   0.497
66542SOL    HW299651  12.485  10.521   0.489
66543SOL     OW99652  11.722   9.506   0.885
66543SOL    HW199653  11.717   9.501   0.985
66543SOL    HW299654  11.724   9.602   0.856
66544SOL     OW99655  12.180  10.766   0.477
66544SOL    HW199656  12.134  10.838   0.425
66544SOL    HW299657  12.176  10.786   0.575
66545SOL     OW99658  11.523  11.111   0.853
66545SOL    HW199659  11.573  11.025   0.859
66545SOL    HW299660  11.588  11.188   0.850
66546SOL     OW99661  12.399  10.860   1.506
66546SOL    HW199662  12.405  10.783   1.570
66546SOL    HW299663  12.347  10.834   1.426
66547SOL     OW99664  11.493  10.253   0.242
66547SOL    HW199665  11.575  10.292   0.200
66547SOL    HW299666  11.466  10.171   0.193
66548SOL     OW99667  12.630  10.045   0.728
66548SOL    HW199668  12.625   9.980   0.803
66548SOL    HW299669  12.710  10.104   0.741
66549SOL     OW99670  11.633  10.576   1.727
66549SOL    HW199671  11.583  10.577   1.641
66549SOL    HW299672  11.570  10.558   1.803
66550SOL     OW99673  12.283  11.086   0.237
66550SOL    HW199674  12.223  11.024   0.287
66550SOL    HW299675  12.314  11.042   0.152
66551SOL     OW99676  11.374   9.595   1.498
66551SOL    HW199677  11.294   9.655   1.485
66551SOL    HW299678  11.364   9.546   1.584
66552SOL     OW99679  11.636  11.053   0.323
66552SOL    HW199680  11.669  11.092   0.409
66552SOL    HW299681  11.712  11.046   0.258
66553SOL     OW99682  12.572   9.417   0.426
66553SOL    HW199683  12.548   9.380   0.336
66553SOL    HW299684  12.671   9.433   0.430
66554SOL     OW99685  11.421  11.095   1.241
66554SOL    HW199686  11.478  11.030   1.291
66554SOL    HW299687  11.405  11.062   1.148
66555SOL     OW99688  12.112  11.008   0.904
66555SOL    HW199689  12.192  10.951   0.925
66555SOL    HW299690  12.063  10.968   0.827
66556SOL     OW99691  11.554  10.010   0.480
66556SOL    HW199692  11.599   9.920   0.477
66556SOL    HW299693  11.460   9.999   0.513
66557SOL     OW99694  11.786   9.432   0.117
66557SOL    HW199695  11.884   9.410   0.124
66557SOL    HW299696  11.755   9.415   0.024
66558SOL     OW99697  11.953   9.574   1.749
66558SOL    HW199698  12.020   9.513   1.792
66558SOL    HW299699  11.880   9.593   1.814
66559SOL     OW99700  12.060  10.824   1.195
66559SOL    HW199701  12.037  10.799   1.101
66559SOL    HW299702  12.121  10.755   1.234
66560SOL     OW99703  12.523   9.900   1.433
66560SOL    HW199704  12.551   9.857   1.518
66560SOL    HW299705  12.548   9.996   1.434
66561SOL     OW99706  11.975  10.712   0.924
66561SOL    HW199707  12.065  10.726   0.882
66561SOL    HW299708  11.904  10.714   0.853
66562SOL     OW99709  12.094   9.813   0.899
66562SOL    HW199710  12.069   9.804   0.803
66562SOL    HW299711  12.142   9.731   0.930
66563SOL     OW99712  11.711   9.374   0.512
66563SOL    HW199713  11.630   9.375   0.570
66563SOL    HW299714  11.714   9.457   0.457
66564SOL     OW99715  12.606  10.498   0.041
66564SOL    HW199716  12.638  10.422   0.098
66564SOL    HW299717  12.514  10.525   0.071
66565SOL     OW99718  11.469   9.345   0.171
66565SOL    HW199719  11.518   9.429   0.150
66565SOL    HW299720  11.531   9.280   0.216
66566SOL     OW99721  12.107   9.546   0.480
66566SOL    HW199722  12.059   9.587   0.402
66566SOL    HW299723  12.206   9.544   0.461
66567SOL     OW99724  12.248   9.993   1.464
66567SOL    HW199725  12.168   9.932   1.467
66567SOL    HW299726  12.329   9.940   1.440
66568SOL     OW99727  12.399  10.880   0.793
66568SOL    HW199728  12.420  10.954   0.728
66568SOL    HW299729  12.467  10.880   0.866
66569SOL     OW99730  11.631  10.462   0.741
66569SOL    HW199731  11.560  10.435   0.806
66569SOL    HW299732  11.605  10.434   0.648
66570SOL     OW99733  12.443  11.107   0.591
66570SOL    HW199734  12.487  11.171   0.527
66570SOL    HW299735  12.393  11.159   0.661
66571SOL     OW99736  12.204   9.859   0.016
66571SOL    HW199737  12.163   9.941  -0.023
66571SOL    HW299738  12.268   9.885   0.089
66572SOL     OW99739  11.250   9.866   1.386
66572SOL    HW199740  11.342   9.865   1.345
66572SOL    HW299741  11.244   9.940   1.453
66573SOL     OW99742  11.733   9.532   1.147
66573SOL    HW199743  11.771   9.448   1.184
66573SOL    HW299744  11.645   9.551   1.191
66574SOL     OW99745  12.038   9.764   0.642
66574SOL    HW199746  12.006   9.836   0.580
66574SOL    HW299747  12.062   9.683   0.589
66575SOL     OW99748  12.189   9.349   0.753
66575SOL    HW199749  12.117   9.354   0.684
66575SOL    HW299750  12.165   9.280   0.822
66576SOL     OW99751  12.601  10.483   0.867
66576SOL    HW199752  12.546  10.399   0.860
66576SOL    HW299753  12.627  10.512   0.775
66577SOL     OW99754  12.638   9.900   0.992
66577SOL    HW199755  12.608   9.805   0.999
66577SOL    HW299756  12.711   9.916   1.058
66578SOL     OW99757  11.660  10.695   0.174
66578SOL    HW199758  11.573  10.680   0.221
66578SOL    HW299759  11.643  10.721   0.079
66579SOL     OW99760  12.562   9.885   0.078
66579SOL    HW199761  12.508   9.864   0.159
66579SOL    HW299762  12.653   9.844   0.087
66580SOL     OW99763  11.699   9.566   0.328
66580SOL    HW199764  11.726   9.507   0.253
66580SOL    HW299765  11.699   9.661   0.297
66581SOL     OW99766  12.236  10.657   1.340
66581SOL    HW199767  12.156  10.634   1.395
66581SOL    HW299768  12.319  10.631   1.389
66582SOL     OW99769  12.764  10.939   1.625
66582SOL    HW199770  12.791  10.973   1.535
66582SOL    HW299771  12.843  10.901   1.671
66583SOL     OW99772  12.283  10.505   1.100
66583SOL    HW199773  12.243  10.549   1.181
66583SOL    HW299774  12.242  10.542   1.017
66584SOL     OW99775  12.087   9.399   1.402
66584SOL    HW199776  12.112   9.379   1.307
66584SOL    HW299777  12.159   9.455   1.444
66585SOL     OW99778  12.152  10.426   1.719
66585SOL    HW199779  12.053  10.432   1.729
66585SOL    HW299780  12.175  10.346   1.663
66586SOL     OW99781  11.877  10.360   0.368
66586SOL    HW199782  11.863  10.367   0.467
66586SOL    HW299783  11.961  10.309   0.350
66587SOL     OW99784  11.582  10.123   1.251
66587SOL    HW199785  11.668  10.135   1.301
66587SOL    HW299786  11.540  10.036   1.278
66588SOL     OW99787  12.446   9.696   1.262
66588SOL    HW199788  12.467   9.770   1.326
66588SOL    HW299789  12.357   9.713   1.219
66589SOL     OW99790  11.236  10.874   1.331
66589SOL    HW199791  11.190  10.956   1.297
66589SOL    HW299792  11.334  10.893   1.340
66590SOL     OW99793  11.539  10.410   0.501
66590SOL    HW199794  11.532  10.493   0.445
66590SOL    HW299795  11.543  10.330   0.441
66591SOL     OW99796  11.738   9.847   0.865
66591SOL    HW199797  11.750   9.913   0.791
66591SOL    HW299798  11.784   9.881   0.948
66592SOL     OW99799  12.424  10.658   0.388
66592SOL    HW199800  12.474  10.735   0.428
66592SOL    HW299801  12.329  10.660   0.420
66593SOL     OW99802  12.444  10.755   1.142
66593SOL    HW199803  12.491  10.768   1.229
66593SOL    HW299804  12.378  10.681   1.151
66594SOL     OW99805  12.754   9.949   0.472
66594SOL    HW199806  12.723  10.010   0.545
66594SOL    HW299807  12.804  10.001   0.403
66595SOL     OW99808  11.526  10.820   1.329
66595SOL    HW199809  11.505  10.776   1.242
66595SOL    HW299810  11.623  10.846   1.332
66596SOL     OW99811  11.574  10.061   1.598
66596SOL    HW199812  11.642  10.116   1.551
66596SOL    HW299813  11.614   9.973   1.625
66597SOL     OW99814  12.185   9.415   1.770
66597SOL    HW199815  12.191   9.500   1.718
66597SOL    HW299816  12.217   9.339   1.713
66598SOL     OW99817  11.676   9.360   1.740
66598SOL    HW199818  11.634   9.303   1.670
66598SOL    HW299819  11.610   9.429   1.772
66599SOL     OW99820  11.745  10.180   1.029
66599SOL    HW199821  11.789  10.269   1.020
66599SOL    HW299822  11.682  10.180   1.106
66600SOL     OW99823  12.532  10.172   1.045
66600SOL    HW199824  12.457  10.172   0.979
66600SOL    HW299825  12.569  10.080   1.054
66601SOL     OW99826  12.381   9.835   0.275
66601SOL    HW199827  12.394   9.751   0.329
66601SOL    HW299828  12.352   9.909   0.335
66602SOL     OW99829  11.479   9.523   1.231
66602SOL    HW199830  11.456   9.560   1.321
66602SOL    HW299831  11.449   9.428   1.225
66603SOL     OW99832  11.209  10.620   1.282
66603SOL    HW199833  11.262  10.571   1.350
66603SOL    HW299834  11.231  10.718   1.287
66604SOL     OW99835  11.904   9.944   1.064
66604SOL    HW199836  11.963   9.918   0.988
66604SOL    HW299837  11.876  10.040   1.053
66605SOL     OW99838  11.479   9.373   0.618
66605SOL    HW199839  11.468   9.467   0.651
66605SOL    HW299840  11.474   9.310   0.695
66606SOL     OW99841  12.794   9.677   0.374
66606SOL    HW199842  12.796   9.601   0.438
66606SOL    HW299843  12.746   9.754   0.414
66607SOL     OW99844  12.195  10.076   0.966
66607SOL    HW199845  12.210  10.097   1.062
66607SOL    HW299846  12.165   9.981   0.957
66608SOL     OW99847  12.152  10.883   1.700
66608SOL    HW199848  12.132  10.927   1.612
66608SOL    HW299849  12.191  10.792   1.684
66609SOL     OW99850  11.522  10.208   1.804
66609SOL    HW199851  11.598  10.252   1.852
66609SOL    HW299852  11.557  10.161   1.722
66610SOL     OW99853  12.712   9.584   0.125
66610SOL    HW199854  12.651   9.509   0.148
66610SOL    HW299855  12.734   9.636   0.208
66611SOL     OW99856  12.475  10.148   0.042
66611SOL    HW199857  12.509  10.055   0.057
66611SOL    HW299858  12.493  10.175  -0.053
66612SOL     OW99859  12.240  10.643   0.849
66612SOL    HW199860  12.247  10.559   0.794
66612SOL    HW299861  12.302  10.712   0.813
66613SOL     OW99862  11.491  10.120   0.949
66613SOL    HW199863  11.584  10.156   0.954
66613SOL    HW299864  11.485  10.035   1.001
66614SOL     OW99865  11.511   9.819   1.006
66614SOL    HW199866  11.459   9.736   0.989
66614SOL    HW299867  11.588   9.824   0.942
66615SOL     OW99868  12.310   9.690   1.678
66615SOL    HW199869  12.265   9.753   1.742
66615SOL    HW299870  12.403   9.721   1.661
66616SOL     OW99871  12.332   9.517   1.477
66616SOL    HW199872  12.332   9.581   1.554
66616SOL    HW299873  12.360   9.565   1.394
66617SOL     OW99874  11.180  10.636   0.200
66617SOL    HW199875  11.087  10.657   0.169
66617SOL    HW299876  11.190  10.537   0.213
66618SOL     OW99877  11.260  11.111   0.927
66618SOL    HW199878  11.218  11.025   0.900
66618SOL    HW299879  11.354  11.114   0.893
66619SOL     OW99880  11.676  10.878   0.910
66619SOL    HW199881  11.742  10.952   0.919
66619SOL    HW299882  11.720  10.799   0.868
66620SOL     OW99883  12.174  10.106   1.238
66620SOL    HW199884  12.215  10.074   1.324
66620SOL    HW299885  12.078  10.079   1.235
66621SOL     OW99886  11.212   9.854   1.114
66621SOL    HW199887  11.297   9.821   1.073
66621SOL    HW299888  11.225   9.869   1.212
66622SOL     OW99889  11.361   9.830   1.722
66622SOL    HW199890  11.420   9.790   1.652
66622SOL    HW299891  11.303   9.901   1.681
66623SOL     OW99892  12.541  10.260   1.660
66623SOL    HW199893  12.580  10.349   1.680
66623SOL    HW299894  12.551  10.240   1.563
66624SOL     OW99895  11.987   9.882   0.325
66624SOL    HW199896  11.994   9.793   0.279
66624SOL    HW299897  11.893   9.916   0.317
66625SOL     OW99898  11.424  10.874   1.744
66625SOL    HW199899  11.394  10.931   1.820
66625SOL    HW299900  11.417  10.777   1.770
66626SOL     OW99901  11.843   9.774   1.269
66626SOL    HW199902  11.809   9.685   1.239
66626SOL    HW299903  11.869   9.828   1.189
66627SOL     OW99904  12.102  10.988   1.465
66627SOL    HW199905  12.078  10.970   1.370
66627SOL    HW299906  12.132  11.082   1.475
66628SOL     OW99907  11.645   9.810   0.191
66628SOL    HW199908  11.706   9.890   0.195
66628SOL    HW299909  11.550   9.841   0.198
66629SOL     OW99910  11.331  10.447   1.466
66629SOL    HW199911  11.353  10.386   1.542
66629SOL    HW299912  11.341  10.398   1.380
66630SOL     OW99913  12.519  10.369   1.234
66630SOL    HW199914  12.543  10.306   1.160
66630SOL    HW299915  12.429  10.409   1.216
66631SOL     OW99916  12.474  10.165   0.309
66631SOL    HW199917  12.388  10.134   0.351
66631SOL    HW299918  12.470  10.151   0.210
66632SOL     OW99919  12.424  11.041   1.128
66632SOL    HW199920  12.508  11.046   1.074
66632SOL    HW299921  12.401  10.945   1.146
66633SOL     OW99922  11.255  10.568   1.022
66633SOL    HW199923  11.250  10.567   1.122
66633SOL    HW299924  11.172  10.527   0.984
66634SOL     OW99925  11.860  10.972   1.716
66634SOL    HW199926  11.804  11.053   1.725
66634SOL    HW299927  11.912  10.976   1.630
66635SOL     OW99928  12.075   9.396   0.133
66635SOL    HW199929  12.126   9.397   0.047
66635SOL    HW299930  12.131   9.354   0.204
66636SOL     OW99931  12.898   9.445   0.523
66636SOL    HW199932  12.971   9.428   0.456
66636SOL    HW299933  12.867   9.358   0.561
66637SOL     OW99934  12.560  10.883   0.477
66637SOL    HW199935  12.627  10.895   0.403
66637SOL    HW299936  12.520  10.972   0.500
66638SOL     OW99937  11.302  11.104   1.851
66638SOL    HW199938  11.261  11.030   1.904
66638SOL    HW299939  11.366  11.155   1.909
66639SOL     OW99940  12.452  10.237   0.672
66639SOL    HW199941  12.512  10.156   0.674
66639SOL    HW299942  12.492  10.306   0.612
66640SOL     OW99943  12.002  10.583   1.422
66640SOL    HW199944  11.997  10.616   1.517
66640SOL    HW299945  11.916  10.602   1.376
66641SOL     OW99946  11.844  10.926   0.154
66641SOL    HW199947  11.853  10.936   0.055
66641SOL    HW299948  11.804  10.837   0.175
66642SOL     OW99949  11.435   9.636   0.720
66642SOL    HW199950  11.356   9.687   0.686
66642SOL    HW299951  11.426   9.621   0.818
66643SOL     OW99952  12.366  10.922   0.031
66643SOL    HW199953  12.372  10.829   0.068
66643SOL    HW299954  12.307  10.922  -0.049
66644SOL     OW99955  11.994  10.312   1.372
66644SOL    HW199956  12.034  10.311   1.280
66644SOL    HW299957  12.004  10.404   1.412
66645SOL     OW99958  12.088  10.220   0.291
66645SOL    HW199959  12.151  10.258   0.223
66645SOL    HW299960  12.128  10.137   0.330
66646SOL     OW99961  12.676  10.917   0.044
66646SOL    HW199962  12.584  10.954   0.051
66646SOL    HW299963  12.714  10.937  -0.046
66647SOL     OW99964  11.544  10.598   1.490
66647SOL    HW199965  11.531  10.691   1.456
66647SOL    HW299966  11.460  10.546   1.477
66648SOL     OW99967  12.211  10.408   0.696
66648SOL    HW199968  12.141  10.361   0.750
66648SOL    HW299969  12.270  10.340   0.653
66649SOL     OW99970  12.186   9.546   0.971
66649SOL    HW199971  12.178   9.510   0.878
66649SOL    HW299972  12.184   9.470   1.036
66650SOL     OW99973  11.762  10.797   0.491
66650SOL    HW199974  11.804  10.739   0.421
66650SOL    HW299975  11.718  10.876   0.447
66651SOL     OW99976  11.427  10.658   0.290
66651SOL    HW199977  11.331  10.659   0.263
66651SOL    HW299978  11.439  10.711   0.374
66652SOL     OW99979  11.277  10.323   1.726
66652SOL    HW199980  11.200  10.290   1.780
66652SOL    HW299981  11.362  10.293   1.768
66653SOL     OW99982  11.844   9.513   1.489
66653SOL    HW199983  11.934   9.497   1.449
66653SOL    HW299984  11.852   9.518   1.588
66654SOL     OW99985  11.247   9.655   0.033
66654SOL    HW199986  11.155   9.627   0.004
66654SOL    HW299987  11.278   9.732  -0.023
66655SOL     OW99988  12.612  10.166   1.398
66655SOL    HW199989  12.555  10.218   1.335
66655SOL    HW299990  12.708  10.178   1.374
66656SOL     OW99991  11.244   9.476   0.318
66656SOL    HW199992  11.227   9.559   0.264
66656SOL    HW299993  11.334   9.439   0.296
66657SOL     OW99994  12.355  10.645   0.119
66657SOL    HW199995  12.256  10.634   0.121
66657SOL    HW299996  12.389  10.660   0.212
66658SOL     OW99997  11.785  10.152   1.431
66658SOL    HW199998  11.841  10.233   1.414
66658SOL    HW299999  11.844  10.072   1.434
66659SOL     OW    0  12.665  11.077   0.959
66659SOL    HW1    1  12.698  11.141   0.890
66659SOL    HW2    2  12.731  11.071   1.034
66660SOL     OW    3  11.888   9.875   1.708
66660SOL    HW1    4  11.907   9.940   1.782
66660SOL    HW2    5  11.948   9.795   1.717
66661SOL     OW    6  12.622  10.530   1.633
66661SOL    HW1    7  12.613  10.520   1.732
66661SOL    HW2    8  12.718  10.523   1.607
66662SOL     OW    9  11.562  11.051   1.560
66662SOL    HW1   10  11.471  11.092   1.558
66662SOL    HW2   11  11.555  10.957   1.592
66663SOL     OW   12  12.397   9.635   0.449
66663SOL    HW1   13  12.462   9.561   0.438
66663SOL    HW2   14  12.417   9.685   0.533
66664SOL     OW   15  11.766  10.055   0.652
66664SOL    HW1   16  11.816  10.140   0.633
66664SOL    HW2   17  11.678  10.057   0.604
66665SOL     OW   18  12.031  10.684   0.016
66665SOL    HW1   19  11.985  10.699   0.104
66665SOL    HW2   20  12.075  10.769  -0.014
66666SOL     OW   21  11.833  11.100   0.953
66666SOL    HW1   22  11.787  11.188   0.940
66666SOL    HW2   23  11.932  11.112   0.946
66667SOL     OW   24  12.031  10.266   0.861
66667SOL    HW1   25  12.085  10.197   0.909
66667SOL    HW2   26  11.999  10.335   0.927
66668SOL     OW   27  12.255  10.294   0.087
66668SOL    HW1   28  12.232  10.347   0.005
66668SOL    HW2   29  12.336  10.238   0.068
66669SOL     OW   30  13.033  10.879   0.851
66669SOL    HW1   31  12.962  10.867   0.781
66669SOL    HW2   32  13.034  10.800   0.911
66670SOL     OW   33  11.393  10.624   1.844
66670SOL    HW1   34  11.328  10.551   1.823
66670SOL    HW2   35  11.397  10.638   1.942
66671SOL     OW   36  11.251  10.550   0.653
66671SOL    HW1   37  11.250  10.503   0.741
66671SOL    HW2   38  11.333  10.522   0.602
66672SOL     OW   39  11.844  10.701   1.624
66672SOL    HW1   40  11.766  10.651   1.662
66672SOL    HW2   41  11.841  10.796   1.655
66673SOL     OW   42  11.600   9.734   0.520
66673SOL    HW1   43  11.630   9.662   0.458
66673SOL    HW2   44  11.561   9.694   0.603
66674SOL     OW   45  11.489   9.857   1.280
66674SOL    HW1   46  11.527   9.798   1.352
66674SOL    HW2   47  11.529   9.831   1.192
66675SOL     OW   48  11.984  10.896   0.687
66675SOL    HW1   49  12.016  10.906   0.593
66675SOL    HW2   50  11.905  10.834   0.689
66676SOL     OW   51  12.596   9.524   1.112
66676SOL    HW1   52  12.648   9.459   1.167
66676SOL    HW2   53  12.547   9.587   1.173
66677SOL     OW   54  12.173   9.344   1.154
66677SOL    HW1   55  12.110   9.272   1.123
66677SOL    HW2   56  12.266   9.308   1.154
66678SOL     OW   57  11.942  10.640   0.301
66678SOL    HW1   58  11.896  10.553   0.318
66678SOL    HW2   59  12.033  10.637   0.342
66679SOL     OW   60  11.790  10.877   1.284
66679SOL    HW1   61  11.785  10.959   1.341
66679SOL    HW2   62  11.879  10.874   1.239
66680SOL     OW   63  12.524   9.362   0.168
66680SOL    HW1   64  12.559   9.321   0.084
66680SOL    HW2   65  12.434   9.324   0.188
66681SOL     OW   66  12.472   9.763   0.691
66681SOL    HW1   67  12.413   9.843   0.695
66681SOL    HW2   68  12.487   9.728   0.784
66682SOL     OW   69  12.765   9.531   0.882
66682SOL    HW1   70  12.681   9.530   0.936
66682SOL    HW2   71  12.767   9.614   0.826
66683SOL     OW   72  11.211  10.387   0.300
66683SOL    HW1   73  11.310  10.376   0.291
66683SOL    HW2   74  11.171  10.301   0.332
66684SOL     OW   75  12.047  10.956   0.337
66684SOL    HW1   76  11.970  10.921   0.283
66684SOL    HW2   77  12.015  11.027   0.399
66685SOL     OW   78  11.402   9.938   1.975
66685SOL    HW1   79  11.309   9.936   2.012
66685SOL    HW2   80  11.403   9.899   1.883
66686SOL     OW   81  11.397   9.585   2.858
66686SOL    HW1   82  11.432   9.568   2.950
66686SOL    HW2   83  11.309   9.540   2.846
66687SOL     OW   84  11.191   9.678   2.509
66687SOL    HW1   85  11.109   9.721   2.548
66687SOL    HW2   86  11.163   9.605   2.446
66688SOL     OW   87  11.741  10.585   3.027
66688SOL    HW1   88  11.648  10.578   2.990
66688SOL    HW2   89  11.752  10.674   3.071
66689SOL     OW   90  12.727  10.821   2.565
66689SOL    HW1   91  12.670  10.805   2.646
66689SOL    HW2   92  12.668  10.831   2.485
66690SOL     OW   93  12.307  10.013   2.579
66690SOL    HW1   94  12.364  10.091   2.554
66690SOL    HW2   95  12.247  10.039   2.655
66691SOL     OW   96  11.940  10.454   2.885
66691SOL    HW1   97  11.862  10.471   2.945
66691SOL    HW2   98  11.974  10.541   2.849
66692SOL     OW   99  12.022  10.108   3.685
66692SOL    HW1  100  12.018  10.184   3.750
66692SOL    HW2  101  12.044  10.144   3.594
66693SOL     OW  102  11.857  10.322   2.527
66693SOL    HW1  103  11.926  10.306   2.597
66693SOL    HW2  104  11.784  10.379   2.565
66694SOL     OW  105  11.858  10.471   3.665
66694SOL    HW1  106  11.918  10.550   3.679
66694SOL    HW2  107  11.772  10.502   3.624
66695SOL     OW  108  11.507  10.745   2.923
66695SOL    HW1  109  11.429  10.714   2.870
66695SOL    HW2  110  11.565  10.803   2.866
66696SOL     OW  111  12.632  10.815   3.201
66696SOL    HW1  112  12.656  10.909   3.227
66696SOL    HW2  113  12.616  10.761   3.283
66697SOL     OW  114  11.610   9.702   3.361
66697SOL    HW1  115  11.692   9.646   3.370
66697SOL    HW2  116  11.529   9.644   3.365
66698SOL     OW  117  11.403  11.023   2.345
66698SOL    HW1  118  11.437  11.100   2.399
66698SOL    HW2  119  11.447  11.023   2.255
66699SOL     OW  120  12.299  10.651   3.552
66699SOL    HW1  121  12.346  10.651   3.640
66699SOL    HW2  122  12.251  10.564   3.541
66700SOL     OW  123  11.402  10.744   2.400
66700SOL    HW1  124  11.376  10.840   2.400
66700SOL    HW2  125  11.331  10.690   2.445
66701SOL     OW  126  11.412  10.401   2.748
66701SOL    HW1  127  11.426  10.317   2.800
66701SOL    HW2  128  11.357  10.465   2.803
66702SOL     OW  129  11.792  11.096   3.301
66702SOL    HW1  130  11.700  11.079   3.336
66702SOL    HW2  131  11.820  11.188   3.327
66703SOL     OW  132  11.778  10.274   1.985
66703SOL    HW1  133  11.785  10.358   1.931
66703SOL    HW2  134  11.824  10.287   2.073
66704SOL     OW  135  12.766   9.424   3.342
66704SOL    HW1  136  12.748   9.491   3.270
66704SOL    HW2  137  12.763   9.470   3.431
66705SOL     OW  138  11.294   9.953   2.425
66705SOL    HW1  139  11.249   9.865   2.442
66705SOL    HW2  140  11.293  10.007   2.509
66706SOL     OW  141  11.199  10.906   1.979
66706SOL    HW1  142  11.180  10.810   2.000
66706SOL    HW2  143  11.166  10.964   2.054
66707SOL     OW  144  12.861  10.232   2.474
66707SOL    HW1  145  12.956  10.203   2.482
66707SOL    HW2  146  12.853  10.297   2.399
66708SOL     OW  147  11.285  10.047   3.459
66708SOL    HW1  148  11.373  10.034   3.504
66708SOL    HW2  149  11.272  10.144   3.437
66709SOL     OW  150  11.785  10.675   2.588
66709SOL    HW1  151  11.736  10.588   2.597
66709SOL    HW2  152  11.762  10.718   2.501
66710SOL     OW  153  12.465  10.538   3.285
66710SOL    HW1  154  12.502  10.465   3.227
66710SOL    HW2  155  12.517  10.543   3.370
66711SOL     OW  156  11.981   9.314   2.364
66711SOL    HW1  157  12.021   9.405   2.355
66711SOL    HW2  158  11.881   9.322   2.370
66712SOL     OW  159  11.369  10.286   3.126
66712SOL    HW1  160  11.458  10.241   3.112
66712SOL    HW2  161  11.296  10.221   3.107
66713SOL     OW  162  12.359  11.102   3.478
66713SOL    HW1  163  12.383  11.162   3.402
66713SOL    HW2  164  12.366  11.007   3.448
66714SOL     OW  165  11.489   9.561   3.663
66714SOL    HW1  166  11.560   9.632   3.669
66714SOL    HW2  167  11.401   9.600   3.691
66715SOL     OW  168  12.638  10.727   2.815
66715SOL    HW1  169  12.579  10.733   2.895
66715SOL    HW2  170  12.623  10.639   2.769
66716SOL     OW  171  12.839  11.024   2.434
66716SOL    HW1  172  12.798  11.001   2.346
66716SOL    HW2  173  12.821  10.950   2.499
66717SOL     OW  174  11.770  10.039   2.132
66717SOL    HW1  175  11.794  10.108   2.064
66717SOL    HW2  176  11.692  10.072   2.186
66718SOL     OW  177  12.453   9.655   2.806
66718SOL    HW1  178  12.367   9.605   2.793
66718SOL    HW2  179  12.515   9.601   2.862
66719SOL     OW  180  11.979   9.915   3.327
66719SOL    HW1  181  11.932   9.912   3.416
66719SOL    HW2  182  11.928   9.860   3.261
66720SOL     OW  183  12.566   9.779   3.536
66720SOL    HW1  184  12.546   9.822   3.624
66720SOL    HW2  185  12.644   9.717   3.545
66721SOL     OW  186  12.145  10.200   3.434
66721SOL    HW1  187  12.191  10.116   3.405
66721SOL    HW2  188  12.089  10.234   3.359
66722SOL     OW  189  12.163   9.720   3.104
66722SOL    HW1  190  12.086   9.754   3.158
66722SOL    HW2  191  12.129   9.669   3.025
66723SOL     OW  192  12.213  10.011   2.291
66723SOL    HW1  193  12.239  10.007   2.387
66723SOL    HW2  194  12.128   9.960   2.277
66724SOL     OW  195  11.248  10.121   2.651
66724SOL    HW1  196  11.347  10.109   2.660
66724SOL    HW2  197  11.224  10.216   2.672
66725SOL     OW  198  11.302  11.131   3.433
66725SOL    HW1  199  11.292  11.116   3.532
66725SOL    HW2  200  11.216  11.167   3.397
66726SOL     OW  201  12.037   9.658   2.057
66726SOL    HW1  202  12.096   9.721   2.008
66726SOL    HW2  203  12.056   9.564   2.028
66727SOL     OW  204  12.534  10.454   2.407
66727SOL    HW1  205  12.617  10.425   2.359
66727SOL    HW2  206  12.485  10.521   2.351
66728SOL     OW  207  11.722   9.506   2.747
66728SOL    HW1  208  11.717   9.501   2.847
66728SOL    HW2  209  11.724   9.602   2.718
66729SOL     OW  210  12.180  10.766   2.339
66729SOL    HW1  211  12.134  10.838   2.287
66729SOL    HW2  212  12.176  10.786   2.437
66730SOL     OW  213  11.523  11.111   2.715
66730SOL    HW1  214  11.573  11.025   2.721
66730SOL    HW2  215  11.588  11.188   2.712
66731SOL     OW  216  12.399  10.860   3.368
66731SOL    HW1  217  12.405  10.783   3.432
66731SOL    HW2  218  12.347  10.834   3.288
66732SOL     OW  219  11.493  10.253   2.104
66732SOL    HW1  220  11.575  10.292   2.062
66732SOL    HW2  221  11.466  10.171   2.055
66733SOL     OW  222  12.630  10.045   2.590
66733SOL    HW1  223  12.625   9.980   2.665
66733SOL    HW2  224  12.710  10.104   2.603
66734SOL     OW  225  11.633  10.576   3.589
66734SOL    HW1  226  11.583  10.577   3.503
66734SOL    HW2  227  11.570  10.558   3.665
66735SOL     OW  228  12.283  11.086   2.099
66735SOL    HW1  229  12.223  11.024   2.149
66735SOL    HW2  230  12.314  11.042   2.014
66736SOL     OW  231  11.374   9.595   3.360
66736SOL    HW1  232  11.294   9.655   3.347
66736SOL    HW2  233  11.364   9.546   3.446
66737SOL     OW  234  11.636  11.053   2.185
66737SOL    HW1  235  11.669  11.092   2.271
66737SOL    HW2  236  11.712  11.046   2.120
66738SOL     OW  237  12.572   9.417   2.288
66738SOL    HW1  238  12.548   9.380   2.198
66738SOL    HW2  239  12.671   9.433   2.292
66739SOL     OW  240  11.421  11.095   3.103
66739SOL    HW1  241  11.478  11.030   3.153
66739SOL    HW2  242  11.405  11.062   3.010
66740SOL     OW  243  12.112  11.008   2.766
66740SOL    HW1  244  12.192  10.951   2.787
66740SOL    HW2  245  12.063  10.968   2.689
66741SOL     OW  246  11.554  10.010   2.342
66741SOL    HW1  247  11.599   9.920   2.339
66741SOL    HW2  248  11.460   9.999   2.375
66742SOL     OW  249  11.786   9.432   1.979
66742SOL    HW1  250  11.884   9.410   1.986
66742SOL    HW2  251  11.755   9.415   1.886
66743SOL     OW  252  11.953   9.574   3.611
66743SOL    HW1  253  12.020   9.513   3.654
66743SOL    HW2  254  11.880   9.593   3.676
66744SOL     OW  255  12.060  10.824   3.057
66744SOL    HW1  256  12.037  10.799   2.963
66744SOL    HW2  257  12.121  10.755   3.096
66745SOL     OW  258  12.523   9.900   3.295
66745SOL    HW1  259  12.551   9.857   3.380
66745SOL    HW2  260  12.548   9.996   3.296
66746SOL     OW  261  11.975  10.712   2.786
66746SOL    HW1  262  12.065  10.726   2.744
66746SOL    HW2  263  11.904  10.714   2.715
66747SOL     OW  264  12.094   9.813   2.761
66747SOL    HW1  265  12.069   9.804   2.665
66747SOL    HW2  266  12.142   9.731   2.792
66748SOL     OW  267  11.711   9.374   2.374
66748SOL    HW1  268  11.630   9.375   2.432
66748SOL    HW2  269  11.714   9.457   2.319
66749SOL     OW  270  12.606  10.498   1.903
66749SOL    HW1  271  12.638  10.422   1.960
66749SOL    HW2  272  12.514  10.525   1.933
66750SOL     OW  273  11.469   9.345   2.033
66750SOL    HW1  274  11.518   9.429   2.012
66750SOL    HW2  275  11.531   9.280   2.078
66751SOL     OW  276  12.107   9.546   2.342
66751SOL    HW1  277  12.059   9.587   2.264
66751SOL    HW2  278  12.206   9.544   2.323
66752SOL     OW  279  12.248   9.993   3.326
66752SOL    HW1  280  12.168   9.932   3.329
66752SOL    HW2  281  12.329   9.940   3.302
66753SOL     OW  282  12.399  10.880   2.655
66753SOL    HW1  283  12.420  10.954   2.590
66753SOL    HW2  284  12.467  10.880   2.728
66754SOL     OW  285  11.631  10.462   2.603
66754SOL    HW1  286  11.560  10.435   2.668
66754SOL    HW2  287  11.605  10.434   2.510
66755SOL     OW  288  12.443  11.107   2.453
66755SOL    HW1  289  12.487  11.171   2.389
66755SOL    HW2  290  12.393  11.159   2.523
66756SOL     OW  291  12.204   9.859   1.878
66756SOL    HW1  292  12.163   9.941   1.839
66756SOL    HW2  293  12.268   9.885   1.951
66757SOL     OW  294  11.250   9.866   3.248
66757SOL    HW1  295  11.342   9.865   3.207
66757SOL    HW2  296  11.244   9.940   3.315
66758SOL     OW  297  11.733   9.532   3.009
66758SOL    HW1  298  11.771   9.448   3.046
66758SOL    HW2  299  11.645   9.551   3.053
66759SOL     OW  300  12.038   9.764   2.504
66759SOL    HW1  301  12.006   9.836   2.442
66759SOL    HW2  302  12.062   9.683   2.451
66760SOL     OW  303  12.189   9.349   2.615
66760SOL    HW1  304  12.117   9.354   2.546
66760SOL    HW2  305  12.165   9.280   2.684
66761SOL     OW  306  12.601  10.483   2.729
66761SOL    HW1  307  12.546  10.399   2.722
66761SOL    HW2  308  12.627  10.512   2.637
66762SOL     OW  309  12.638   9.900   2.854
66762SOL    HW1  310  12.608   9.805   2.861
66762SOL    HW2  311  12.711   9.916   2.920
66763SOL     OW  312  11.660  10.695   2.036
66763SOL    HW1  313  11.573  10.680   2.083
66763SOL    HW2  314  11.643  10.721   1.941
66764SOL     OW  315  12.562   9.885   1.940
66764SOL    HW1  316  12.508   9.864   2.021
66764SOL    HW2  317  12.653   9.844   1.949
66765SOL     OW  318  11.699   9.566   2.190
66765SOL    HW1  319  11.726   9.507   2.115
66765SOL    HW2  320  11.699   9.661   2.159
66766SOL     OW  321  12.236  10.657   3.202
66766SOL    HW1  322  12.156  10.634   3.257
66766SOL    HW2  323  12.319  10.631   3.251
66767SOL     OW  324  12.764  10.939   3.487
66767SOL    HW1  325  12.791  10.973   3.397
66767SOL    HW2  326  12.843  10.901   3.533
66768SOL     OW  327  12.283  10.505   2.962
66768SOL    HW1  328  12.243  10.549   3.043
66768SOL    HW2  329  12.242  10.542   2.879
66769SOL     OW  330  12.087   9.399   3.264
66769SOL    HW1  331  12.112   9.379   3.169
66769SOL    HW2  332  12.159   9.455   3.306
66770SOL     OW  333  12.152  10.426   3.581
66770SOL    HW1  334  12.053  10.432   3.591
66770SOL    HW2  335  12.175  10.346   3.525
66771SOL     OW  336  11.877  10.360   2.230
66771SOL    HW1  337  11.863  10.367   2.329
66771SOL    HW2  338  11.961  10.309   2.212
66772SOL     OW  339  11.582  10.123   3.113
66772SOL    HW1  340  11.668  10.135   3.163
66772SOL    HW2  341  11.540  10.036   3.140
66773SOL     OW  342  12.446   9.696   3.124
66773SOL    HW1  343  12.467   9.770   3.188
66773SOL    HW2  344  12.357   9.713   3.081
66774SOL     OW  345  11.236  10.874   3.193
66774SOL    HW1  346  11.190  10.956   3.159
66774SOL    HW2  347  11.334  10.893   3.202
66775SOL     OW  348  11.539  10.410   2.363
66775SOL    HW1  349  11.532  10.493   2.307
66775SOL    HW2  350  11.543  10.330   2.303
66776SOL     OW  351  11.738   9.847   2.727
66776SOL    HW1  352  11.750   9.913   2.653
66776SOL    HW2  353  11.784   9.881   2.810
66777SOL     OW  354  12.424  10.658   2.250
66777SOL    HW1  355  12.474  10.735   2.290
66777SOL    HW2  356  12.329  10.660   2.282
66778SOL     OW  357  12.444  10.755   3.004
66778SOL    HW1  358  12.491  10.768   3.091
66778SOL    HW2  359  12.378  10.681   3.013
66779SOL     OW  360  12.754   9.949   2.334
66779SOL    HW1  361  12.723  10.010   2.407
66779SOL    HW2  362  12.804  10.001   2.265
66780SOL     OW  363  11.526  10.820   3.191
66780SOL    HW1  364  11.505  10.776   3.104
66780SOL    HW2  365  11.623  10.846   3.194
66781SOL     OW  366  11.574  10.061   3.460
66781SOL    HW1  367  11.642  10.116   3.413
66781SOL    HW2  368  11.614   9.973   3.487
66782SOL     OW  369  12.185   9.415   3.632
66782SOL    HW1  370  12.191   9.500   3.580
66782SOL    HW2  371  12.217   9.339   3.575
66783SOL     OW  372  11.676   9.360   3.602
66783SOL    HW1  373  11.634   9.303   3.532
66783SOL    HW2  374  11.610   9.429   3.634
66784SOL     OW  375  11.745  10.180   2.891
66784SOL    HW1  376  11.789  10.269   2.882
66784SOL    HW2  377  11.682  10.180   2.968
66785SOL     OW  378  12.532  10.172   2.907
66785SOL    HW1  379  12.457  10.172   2.841
66785SOL    HW2  380  12.569  10.080   2.916
66786SOL     OW  381  12.381   9.835   2.137
66786SOL    HW1  382  12.394   9.751   2.191
66786SOL    HW2  383  12.352   9.909   2.197
66787SOL     OW  384  11.479   9.523   3.093
66787SOL    HW1  385  11.456   9.560   3.183
66787SOL    HW2  386  11.449   9.428   3.087
66788SOL     OW  387  11.209  10.620   3.144
66788SOL    HW1  388  11.262  10.571   3.212
66788SOL    HW2  389  11.231  10.718   3.149
66789SOL     OW  390  11.904   9.944   2.926
66789SOL    HW1  391  11.963   9.918   2.850
66789SOL    HW2  392  11.876  10.040   2.915
66790SOL     OW  393  11.479   9.373   2.480
66790SOL    HW1  394  11.468   9.467   2.513
66790SOL    HW2  395  11.474   9.310   2.557
66791SOL     OW  396  12.794   9.677   2.236
66791SOL    HW1  397  12.796   9.601   2.300
66791SOL    HW2  398  12.746   9.754   2.276
66792SOL     OW  399  12.195  10.076   2.828
66792SOL    HW1  400  12.210  10.097   2.924
66792SOL    HW2  401  12.165   9.981   2.819
66793SOL     OW  402  12.152  10.883   3.562
66793SOL    HW1  403  12.132  10.927   3.474
66793SOL    HW2  404  12.191  10.792   3.546
66794SOL     OW  405  11.522  10.208   3.666
66794SOL    HW1  406  11.598  10.252   3.714
66794SOL    HW2  407  11.557  10.161   3.584
66795SOL     OW  408  12.712   9.584   1.987
66795SOL    HW1  409  12.651   9.509   2.010
66795SOL    HW2  410  12.734   9.636   2.070
66796SOL     OW  411  12.475  10.148   1.904
66796SOL    HW1  412  12.509  10.055   1.919
66796SOL    HW2  413  12.493  10.175   1.809
66797SOL     OW  414  12.240  10.643   2.711
66797SOL    HW1  415  12.247  10.559   2.656
66797SOL    HW2  416  12.302  10.712   2.675
66798SOL     OW  417  11.491  10.120   2.811
66798SOL    HW1  418  11.584  10.156   2.816
66798SOL    HW2  419  11.485  10.035   2.863
66799SOL     OW  420  11.511   9.819   2.868
66799SOL    HW1  421  11.459   9.736   2.851
66799SOL    HW2  422  11.588   9.824   2.804
66800SOL     OW  423  12.310   9.690   3.540
66800SOL    HW1  424  12.265   9.753   3.604
66800SOL    HW2  425  12.403   9.721   3.523
66801SOL     OW  426  12.332   9.517   3.339
66801SOL    HW1  427  12.332   9.581   3.416
66801SOL    HW2  428  12.360   9.565   3.256
66802SOL     OW  429  11.180  10.636   2.062
66802SOL    HW1  430  11.087  10.657   2.031
66802SOL    HW2  431  11.190  10.537   2.075
66803SOL     OW  432  11.260  11.111   2.789
66803SOL    HW1  433  11.218  11.025   2.762
66803SOL    HW2  434  11.354  11.114   2.755
66804SOL     OW  435  11.676  10.878   2.772
66804SOL    HW1  436  11.742  10.952   2.781
66804SOL    HW2  437  11.720  10.799   2.730
66805SOL     OW  438  12.174  10.106   3.100
66805SOL    HW1  439  12.215  10.074   3.186
66805SOL    HW2  440  12.078  10.079   3.097
66806SOL     OW  441  11.212   9.854   2.976
66806SOL    HW1  442  11.297   9.821   2.935
66806SOL    HW2  443  11.225   9.869   3.074
66807SOL     OW  444  11.361   9.830   3.584
66807SOL    HW1  445  11.420   9.790   3.514
66807SOL    HW2  446  11.303   9.901   3.543
66808SOL     OW  447  12.541  10.260   3.522
66808SOL    HW1  448  12.580  10.349   3.542
66808SOL    HW2  449  12.551  10.240   3.425
66809SOL     OW  450  11.987   9.882   2.187
66809SOL    HW1  451  11.994   9.793   2.141
66809SOL    HW2  452  11.893   9.916   2.179
66810SOL     OW  453  11.424  10.874   3.606
66810SOL    HW1  454  11.394  10.931   3.682
66810SOL    HW2  455  11.417  10.777   3.632
66811SOL     OW  456  11.843   9.774   3.131
66811SOL    HW1  457  11.809   9.685   3.101
66811SOL    HW2  458  11.869   9.828   3.051
66812SOL     OW  459  12.102  10.988   3.327
66812SOL    HW1  460  12.078  10.970   3.232
66812SOL    HW2  461  12.132  11.082   3.337
66813SOL     OW  462  11.645   9.810   2.053
66813SOL    HW1  463  11.706   9.890   2.057
66813SOL    HW2  464  11.550   9.841   2.060
66814SOL     OW  465  11.331  10.447   3.328
66814SOL    HW1  466  11.353  10.386   3.404
66814SOL    HW2  467  11.341  10.398   3.242
66815SOL     OW  468  12.519  10.369   3.096
66815SOL    HW1  469  12.543  10.306   3.022
66815SOL    HW2  470  12.429  10.409   3.078
66816SOL     OW  471  12.474  10.165   2.171
66816SOL    HW1  472  12.388  10.134   2.213
66816SOL    HW2  473  12.470  10.151   2.072
66817SOL     OW  474  12.424  11.041   2.990
66817SOL    HW1  475  12.508  11.046   2.936
66817SOL    HW2  476  12.401  10.945   3.008
66818SOL     OW  477  11.255  10.568   2.884
66818SOL    HW1  478  11.250  10.567   2.984
66818SOL    HW2  479  11.172  10.527   2.846
66819SOL     OW  480  11.860  10.972   3.578
66819SOL    HW1  481  11.804  11.053   3.587
66819SOL    HW2  482  11.912  10.976   3.492
66820SOL     OW  483  12.898   9.445   2.385
66820SOL    HW1  484  12.971   9.428   2.318
66820SOL    HW2  485  12.867   9.358   2.423
66821SOL     OW  486  12.560  10.883   2.339
66821SOL    HW1  487  12.627  10.895   2.265
66821SOL    HW2  488  12.520  10.972   2.362
66822SOL     OW  489  11.302  11.104   3.713
66822SOL    HW1  490  11.261  11.030   3.766
66822SOL    HW2  491  11.366  11.155   3.771
66823SOL     OW  492  12.452  10.237   2.534
66823SOL    HW1  493  12.512  10.156   2.536
66823SOL    HW2  494  12.492  10.306   2.474
66824SOL     OW  495  12.002  10.583   3.284
66824SOL    HW1  496  11.997  10.616   3.379
66824SOL    HW2  497  11.916  10.602   3.238
66825SOL     OW  498  11.844  10.926   2.016
66825SOL    HW1  499  11.853  10.936   1.917
66825SOL    HW2  500  11.804  10.837   2.037
66826SOL     OW  501  11.435   9.636   2.582
66826SOL    HW1  502  11.356   9.687   2.548
66826SOL    HW2  503  11.426   9.621   2.680
66827SOL     OW  504  12.366  10.922   1.893
66827SOL    HW1  505  12.372  10.829   1.930
66827SOL    HW2  506  12.307  10.922   1.813
66828SOL     OW  507  11.994  10.312   3.234
66828SOL    HW1  508  12.034  10.311   3.142
66828SOL    HW2  509  12.004  10.404   3.274
66829SOL     OW  510  12.088  10.220   2.153
66829SOL    HW1  511  12.151  10.258   2.085
66829SOL    HW2  512  12.128  10.137   2.192
66830SOL     OW  513  12.676  10.917   1.906
66830SOL    HW1  514  12.584  10.954   1.913
66830SOL    HW2  515  12.714  10.937   1.816
66831SOL     OW  516  11.544  10.598   3.352
66831SOL    HW1  517  11.531  10.691   3.318
66831SOL    HW2  518  11.460  10.546   3.339
66832SOL     OW  519  12.211  10.408   2.558
66832SOL    HW1  520  12.141  10.361   2.612
66832SOL    HW2  521  12.270  10.340   2.515
66833SOL     OW  522  12.186   9.546   2.833
66833SOL    HW1  523  12.178   9.510   2.740
66833SOL    HW2  524  12.184   9.470   2.898
66834SOL     OW  525  11.762  10.797   2.353
66834SOL    HW1  526  11.804  10.739   2.283
66834SOL    HW2  527  11.718  10.876   2.309
66835SOL     OW  528  11.427  10.658   2.152
66835SOL    HW1  529  11.331  10.659   2.125
66835SOL    HW2  530  11.439  10.711   2.236
66836SOL     OW  531  11.277  10.323   3.588
66836SOL    HW1  532  11.200  10.290   3.642
66836SOL    HW2  533  11.362  10.293   3.630
66837SOL     OW  534  11.844   9.513   3.351
66837SOL    HW1  535  11.934   9.497   3.311
66837SOL    HW2  536  11.852   9.518   3.450
66838SOL     OW  537  11.247   9.655   1.895
66838SOL    HW1  538  11.155   9.627   1.866
66838SOL    HW2  539  11.278   9.732   1.839
66839SOL     OW  540  12.612  10.166   3.260
66839SOL    HW1  541  12.555  10.218   3.197
66839SOL    HW2  542  12.708  10.178   3.236
66840SOL     OW  543  11.244   9.476   2.180
66840SOL    HW1  544  11.227   9.559   2.126
66840SOL    HW2  545  11.334   9.439   2.158
66841SOL     OW  546  12.355  10.645   1.981
66841SOL    HW1  547  12.256  10.634   1.983
66841SOL    HW2  548  12.389  10.660   2.074
66842SOL     OW  549  11.785  10.152   3.293
66842SOL    HW1  550  11.841  10.233   3.276
66842SOL    HW2  551  11.844  10.072   3.296
66843SOL     OW  552  12.665  11.077   2.821
66843SOL    HW1  553  12.698  11.141   2.752
66843SOL    HW2  554  12.731  11.071   2.896
66844SOL     OW  555  11.888   9.875   3.570
66844SOL    HW1  556  11.907   9.940   3.644
66844SOL    HW2  557  11.948   9.795   3.579
66845SOL     OW  558  12.622  10.530   3.495
66845SOL    HW1  559  12.613  10.520   3.594
66845SOL    HW2  560  12.718  10.523   3.469
66846SOL     OW  561  11.562  11.051   3.422
66846SOL    HW1  562  11.471  11.092   3.420
66846SOL    HW2  563  11.555  10.957   3.454
66847SOL     OW  564  12.397   9.635   2.311
66847SOL    HW1  565  12.462   9.561   2.300
66847SOL    HW2  566  12.417   9.685   2.395
66848SOL     OW  567  11.766  10.055   2.514
66848SOL    HW1  568  11.816  10.140   2.495
66848SOL    HW2  569  11.678  10.057   2.466
66849SOL     OW  570  12.031  10.684   1.878
66849SOL    HW1  571  11.985  10.699   1.966
66849SOL    HW2  572  12.075  10.769   1.848
66850SOL     OW  573  11.833  11.100   2.815
66850SOL    HW1  574  11.787  11.188   2.802
66850SOL    HW2  575  11.932  11.112   2.808
66851SOL     OW  576  12.031  10.266   2.723
66851SOL    HW1  577  12.085  10.197   2.771
66851SOL    HW2  578  11.999  10.335   2.789
66852SOL     OW  579  12.255  10.294   1.949
66852SOL    HW1  580  12.232  10.347   1.867
66852SOL    HW2  581  12.336  10.238   1.930
66853SOL     OW  582  13.033  10.879   2.713
66853SOL    HW1  583  12.962  10.867   2.643
66853SOL    HW2  584  13.034  10.800   2.773
66854SOL     OW  585  11.393  10.624   3.706
66854SOL    HW1  586  11.328  10.551   3.685
66854SOL    HW2  587  11.397  10.638   3.804
66855SOL     OW  588  11.251  10.550   2.515
66855SOL    HW1  589  11.250  10.503   2.603
66855SOL    HW2  590  11.333  10.522   2.464
66856SOL     OW  591  11.844  10.701   3.486
66856SOL    HW1  592  11.766  10.651   3.524
66856SOL    HW2  593  11.841  10.796   3.517
66857SOL     OW  594  11.600   9.734   2.382
66857SOL    HW1  595  11.630   9.662   2.320
66857SOL    HW2  596  11.561   9.694   2.465
66858SOL     OW  597  11.489   9.857   3.142
66858SOL    HW1  598  11.527   9.798   3.214
66858SOL    HW2  599  11.529   9.831   3.054
66859SOL     OW  600  11.984  10.896   2.549
66859SOL    HW1  601  12.016  10.906   2.455
66859SOL    HW2  602  11.905  10.834   2.551
66860SOL     OW  603  12.596   9.524   2.974
66860SOL    HW1  604  12.648   9.459   3.029
66860SOL    HW2  605  12.547   9.587   3.035
66861SOL     OW  606  12.173   9.344   3.016
66861SOL    HW1  607  12.110   9.272   2.985
66861SOL    HW2  608  12.266   9.308   3.016
66862SOL     OW  609  11.942  10.640   2.163
66862SOL    HW1  610  11.896  10.553   2.180
66862SOL    HW2  611  12.033  10.637   2.204
66863SOL     OW  612  11.790  10.877   3.146
66863SOL    HW1  613  11.785  10.959   3.203
66863SOL    HW2  614  11.879  10.874   3.101
66864SOL     OW  615  12.524   9.362   2.030
66864SOL    HW1  616  12.559   9.321   1.946
66864SOL    HW2  617  12.434   9.324   2.050
66865SOL     OW  618  12.472   9.763   2.553
66865SOL    HW1  619  12.413   9.843   2.557
66865SOL    HW2  620  12.487   9.728   2.646
66866SOL     OW  621  12.765   9.531   2.744
66866SOL    HW1  622  12.681   9.530   2.798
66866SOL    HW2  623  12.767   9.614   2.688
66867SOL     OW  624  11.211  10.387   2.162
66867SOL    HW1  625  11.310  10.376   2.153
66867SOL    HW2  626  11.171  10.301   2.194
66868SOL     OW  627  12.047  10.956   2.199
66868SOL    HW1  628  11.970  10.921   2.145
66868SOL    HW2  629  12.015  11.027   2.261
66869SOL     OW  630  11.402   9.938   3.837
66869SOL    HW1  631  11.309   9.936   3.874
66869SOL    HW2  632  11.403   9.899   3.745
66870SOL     OW  633  11.397   9.585   4.720
66870SOL    HW1  634  11.432   9.568   4.812
66870SOL    HW2  635  11.309   9.540   4.708
66871SOL     OW  636  11.191   9.678   4.371
66871SOL    HW1  637  11.109   9.721   4.410
66871SOL    HW2  638  11.163   9.605   4.308
66872SOL     OW  639  11.741  10.585   4.889
66872SOL    HW1  640  11.648  10.578   4.852
66872SOL    HW2  641  11.752  10.674   4.933
66873SOL     OW  642  12.727  10.821   4.427
66873SOL    HW1  643  12.670  10.805   4.508
66873SOL    HW2  644  12.668  10.831   4.347
66874SOL     OW  645  12.307  10.013   4.441
66874SOL    HW1  646  12.364  10.091   4.416
66874SOL    HW2  647  12.247  10.039   4.517
66875SOL     OW  648  11.940  10.454   4.747
66875SOL    HW1  649  11.862  10.471   4.807
66875SOL    HW2  650  11.974  10.541   4.711
66876SOL     OW  651  12.022  10.108   5.547
66876SOL    HW1  652  12.018  10.184   5.612
66876SOL    HW2  653  12.044  10.144   5.456
66877SOL     OW  654  11.857  10.322   4.389
66877SOL    HW1  655  11.926  10.306   4.459
66877SOL    HW2  656  11.784  10.379   4.427
66878SOL     OW  657  11.858  10.471   5.527
66878SOL    HW1  658  11.918  10.550   5.541
66878SOL    HW2  659  11.772  10.502   5.486
66879SOL     OW  660  11.507  10.745   4.785
66879SOL    HW1  661  11.429  10.714   4.732
66879SOL    HW2  662  11.565  10.803   4.728
66880SOL     OW  663  12.632  10.815   5.063
66880SOL    HW1  664  12.656  10.909   5.089
66880SOL    HW2  665  12.616  10.761   5.145
66881SOL     OW  666  11.610   9.702   5.223
66881SOL    HW1  667  11.692   9.646   5.232
66881SOL    HW2  668  11.529   9.644   5.227
66882SOL     OW  669  11.403  11.023   4.207
66882SOL    HW1  670  11.437  11.100   4.261
66882SOL    HW2  671  11.447  11.023   4.117
66883SOL     OW  672  12.299  10.651   5.414
66883SOL    HW1  673  12.346  10.651   5.502
66883SOL    HW2  674  12.251  10.564   5.403
66884SOL     OW  675  11.402  10.744   4.262
66884SOL    HW1  676  11.376  10.840   4.262
66884SOL    HW2  677  11.331  10.690   4.307
66885SOL     OW  678  11.412  10.401   4.610
66885SOL    HW1  679  11.426  10.317   4.662
66885SOL    HW2  680  11.357  10.465   4.665
66886SOL     OW  681  11.792  11.096   5.163
66886SOL    HW1  682  11.700  11.079   5.198
66886SOL    HW2  683  11.820  11.188   5.189
66887SOL     OW  684  11.778  10.274   3.847
66887SOL    HW1  685  11.785  10.358   3.793
66887SOL    HW2  686  11.824  10.287   3.935
66888SOL     OW  687  12.766   9.424   5.204
66888SOL    HW1  688  12.748   9.491   5.132
66888SOL    HW2  689  12.763   9.470   5.293
66889SOL     OW  690  11.294   9.953   4.287
66889SOL    HW1  691  11.249   9.865   4.304
66889SOL    HW2  692  11.293  10.007   4.371
66890SOL     OW  693  11.199  10.906   3.841
66890SOL    HW1  694  11.180  10.810   3.862
66890SOL    HW2  695  11.166  10.964   3.916
66891SOL     OW  696  12.861  10.232   4.336
66891SOL    HW1  697  12.956  10.203   4.344
66891SOL    HW2  698  12.853  10.297   4.261
66892SOL     OW  699  11.285  10.047   5.321
66892SOL    HW1  700  11.373  10.034   5.366
66892SOL    HW2  701  11.272  10.144   5.299
66893SOL     OW  702  11.785  10.675   4.450
66893SOL    HW1  703  11.736  10.588   4.459
66893SOL    HW2  704  11.762  10.718   4.363
66894SOL     OW  705  12.465  10.538   5.147
66894SOL    HW1  706  12.502  10.465   5.089
66894SOL    HW2  707  12.517  10.543   5.232
66895SOL     OW  708  11.981   9.314   4.226
66895SOL    HW1  709  12.021   9.405   4.217
66895SOL    HW2  710  11.881   9.322   4.232
66896SOL     OW  711  11.369  10.286   4.988
66896SOL    HW1  712  11.458  10.241   4.974
66896SOL    HW2  713  11.296  10.221   4.969
66897SOL     OW  714  12.359  11.102   5.340
66897SOL    HW1  715  12.383  11.162   5.264
66897SOL    HW2  716  12.366  11.007   5.310
66898SOL     OW  717  11.489   9.561   5.525
66898SOL    HW1  718  11.560   9.632   5.531
66898SOL    HW2  719  11.401   9.600   5.553
66899SOL     OW  720  12.638  10.727   4.677
66899SOL    HW1  721  12.579  10.733   4.757
66899SOL    HW2  722  12.623  10.639   4.631
66900SOL     OW  723  12.839  11.024   4.296
66900SOL    HW1  724  12.798  11.001   4.208
66900SOL    HW2  725  12.821  10.950   4.361
66901SOL     OW  726  11.770  10.039   3.994
66901SOL    HW1  727  11.794  10.108   3.926
66901SOL    HW2  728  11.692  10.072   4.048
66902SOL     OW  729  12.453   9.655   4.668
66902SOL    HW1  730  12.367   9.605   4.655
66902SOL    HW2  731  12.515   9.601   4.724
66903SOL     OW  732  11.979   9.915   5.189
66903SOL    HW1  733  11.932   9.912   5.278
66903SOL    HW2  734  11.928   9.860   5.123
66904SOL     OW  735  12.566   9.779   5.398
66904SOL    HW1  736  12.546   9.822   5.486
66904SOL    HW2  737  12.644   9.717   5.407
66905SOL     OW  738  12.145  10.200   5.296
66905SOL    HW1  739  12.191  10.116   5.267
66905SOL    HW2  740  12.089  10.234   5.221
66906SOL     OW  741  12.163   9.720   4.966
66906SOL    HW1  742  12.086   9.754   5.020
66906SOL    HW2  743  12.129   9.669   4.887
66907SOL     OW  744  12.213  10.011   4.153
66907SOL    HW1  745  12.239  10.007   4.249
66907SOL    HW2  746  12.128   9.960   4.139
66908SOL     OW  747  11.248  10.121   4.513
66908SOL    HW1  748  11.347  10.109   4.522
66908SOL    HW2  749  11.224  10.216   4.534
66909SOL     OW  750  11.302  11.131   5.295
66909SOL    HW1  751  11.292  11.116   5.394
66909SOL    HW2  752  11.216  11.167   5.259
66910SOL     OW  753  12.037   9.658   3.919
66910SOL    HW1  754  12.096   9.721   3.870
66910SOL    HW2  755  12.056   9.564   3.890
66911SOL     OW  756  12.534  10.454   4.269
66911SOL    HW1  757  12.617  10.425   4.221
66911SOL    HW2  758  12.485  10.521   4.213
66912SOL     OW  759  11.722   9.506   4.609
66912SOL    HW1  760  11.717   9.501   4.709
66912SOL    HW2  761  11.724   9.602   4.580
66913SOL     OW  762  12.180  10.766   4.201
66913SOL    HW1  763  12.134  10.838   4.149
66913SOL    HW2  764  12.176  10.786   4.299
66914SOL     OW  765  11.523  11.111   4.577
66914SOL    HW1  766  11.573  11.025   4.583
66914SOL    HW2  767  11.588  11.188   4.574
66915SOL     OW  768  12.399  10.860   5.230
66915SOL    HW1  769  12.405  10.783   5.294
66915SOL    HW2  770  12.347  10.834   5.150
66916SOL     OW  771  11.493  10.253   3.966
66916SOL    HW1  772  11.575  10.292   3.924
66916SOL    HW2  773  11.466  10.171   3.917
66917SOL     OW  774  12.630  10.045   4.452
66917SOL    HW1  775  12.625   9.980   4.527
66917SOL    HW2  776  12.710  10.104   4.465
66918SOL     OW  777  11.633  10.576   5.451
66918SOL    HW1  778  11.583  10.577   5.365
66918SOL    HW2  779  11.570  10.558   5.527
66919SOL     OW  780  12.283  11.086   3.961
66919SOL    HW1  781  12.223  11.024   4.011
66919SOL    HW2  782  12.314  11.042   3.876
66920SOL     OW  783  11.374   9.595   5.222
66920SOL    HW1  784  11.294   9.655   5.209
66920SOL    HW2  785  11.364   9.546   5.308
66921SOL     OW  786  11.636  11.053   4.047
66921SOL    HW1  787  11.669  11.092   4.133
66921SOL    HW2  788  11.712  11.046   3.982
66922SOL     OW  789  12.572   9.417   4.150
66922SOL    HW1  790  12.548   9.380   4.060
66922SOL    HW2  791  12.671   9.433   4.154
66923SOL     OW  792  11.421  11.095   4.965
66923SOL    HW1  793  11.478  11.030   5.015
66923SOL    HW2  794  11.405  11.062   4.872
66924SOL     OW  795  12.112  11.008   4.628
66924SOL    HW1  796  12.192  10.951   4.649
66924SOL    HW2  797  12.063  10.968   4.551
66925SOL     OW  798  11.554  10.010   4.204
66925SOL    HW1  799  11.599   9.920   4.201
66925SOL    HW2  800  11.460   9.999   4.237
66926SOL     OW  801  11.786   9.432   3.841
66926SOL    HW1  802  11.884   9.410   3.848
66926SOL    HW2  803  11.755   9.415   3.748
66927SOL     OW  804  11.953   9.574   5.473
66927SOL    HW1  805  12.020   9.513   5.516
66927SOL    HW2  806  11.880   9.593   5.538
66928SOL     OW  807  12.060  10.824   4.919
66928SOL    HW1  808  12.037  10.799   4.825
66928SOL    HW2  809  12.121  10.755   4.958
66929SOL     OW  810  12.523   9.900   5.157
66929SOL    HW1  811  12.551   9.857   5.242
66929SOL    HW2  812  12.548   9.996   5.158
66930SOL     OW  813  11.975  10.712   4.648
66930SOL    HW1  814  12.065  10.726   4.606
66930SOL    HW2  815  11.904  10.714   4.577
66931SOL     OW  816  12.094   9.813   4.623
66931SOL    HW1  817  12.069   9.804   4.527
66931SOL    HW2  818  12.142   9.731   4.654
66932SOL     OW  819  11.711   9.374   4.236
66932SOL    HW1  820  11.630   9.375   4.294
66932SOL    HW2  821  11.714   9.457   4.181
66933SOL     OW  822  12.606  10.498   3.765
66933SOL    HW1  823  12.638  10.422   3.822
66933SOL    HW2  824  12.514  10.525   3.795
66934SOL     OW  825  11.469   9.345   3.895
66934SOL    HW1  826  11.518   9.429   3.874
66934SOL    HW2  827  11.531   9.280   3.940
66935SOL     OW  828  12.107   9.546   4.204
66935SOL    HW1  829  12.059   9.587   4.126
66935SOL    HW2  830  12.206   9.544   4.185
66936SOL     OW  831  12.248   9.993   5.188
66936SOL    HW1  832  12.168   9.932   5.191
66936SOL    HW2  833  12.329   9.940   5.164
66937SOL     OW  834  12.399  10.880   4.517
66937SOL    HW1  835  12.420  10.954   4.452
66937SOL    HW2  836  12.467  10.880   4.590
66938SOL     OW  837  11.631  10.462   4.465
66938SOL    HW1  838  11.560  10.435   4.530
66938SOL    HW2  839  11.605  10.434   4.372
66939SOL     OW  840  12.443  11.107   4.315
66939SOL    HW1  841  12.487  11.171   4.251
66939SOL    HW2  842  12.393  11.159   4.385
66940SOL     OW  843  12.204   9.859   3.740
66940SOL    HW1  844  12.163   9.941   3.701
66940SOL    HW2  845  12.268   9.885   3.813
66941SOL     OW  846  11.250   9.866   5.110
66941SOL    HW1  847  11.342   9.865   5.069
66941SOL    HW2  848  11.244   9.940   5.177
66942SOL     OW  849  11.733   9.532   4.871
66942SOL    HW1  850  11.771   9.448   4.908
66942SOL    HW2  851  11.645   9.551   4.915
66943SOL     OW  852  12.038   9.764   4.366
66943SOL    HW1  853  12.006   9.836   4.304
66943SOL    HW2  854  12.062   9.683   4.313
66944SOL     OW  855  12.189   9.349   4.477
66944SOL    HW1  856  12.117   9.354   4.408
66944SOL    HW2  857  12.165   9.280   4.546
66945SOL     OW  858  12.601  10.483   4.591
66945SOL    HW1  859  12.546  10.399   4.584
66945SOL    HW2  860  12.627  10.512   4.499
66946SOL     OW  861  12.638   9.900   4.716
66946SOL    HW1  862  12.608   9.805   4.723
66946SOL    HW2  863  12.711   9.916   4.782
66947SOL     OW  864  11.660  10.695   3.898
66947SOL    HW1  865  11.573  10.680   3.945
66947SOL    HW2  866  11.643  10.721   3.803
66948SOL     OW  867  12.562   9.885   3.802
66948SOL    HW1  868  12.508   9.864   3.883
66948SOL    HW2  869  12.653   9.844   3.811
66949SOL     OW  870  11.699   9.566   4.052
66949SOL    HW1  871  11.726   9.507   3.977
66949SOL    HW2  872  11.699   9.661   4.021
66950SOL     OW  873  12.236  10.657   5.064
66950SOL    HW1  874  12.156  10.634   5.119
66950SOL    HW2  875  12.319  10.631   5.113
66951SOL     OW  876  12.764  10.939   5.349
66951SOL    HW1  877  12.791  10.973   5.259
66951SOL    HW2  878  12.843  10.901   5.395
66952SOL     OW  879  12.283  10.505   4.824
66952SOL    HW1  880  12.243  10.549   4.905
66952SOL    HW2  881  12.242  10.542   4.741
66953SOL     OW  882  12.087   9.399   5.126
66953SOL    HW1  883  12.112   9.379   5.031
66953SOL    HW2  884  12.159   9.455   5.168
66954SOL     OW  885  12.152  10.426   5.443
66954SOL    HW1  886  12.053  10.432   5.453
66954SOL    HW2  887  12.175  10.346   5.387
66955SOL     OW  888  11.877  10.360   4.092
66955SOL    HW1  889  11.863  10.367   4.191
66955SOL    HW2  890  11.961  10.309   4.074
66956SOL     OW  891  11.582  10.123   4.975
66956SOL    HW1  892  11.668  10.135   5.025
66956SOL    HW2  893  11.540  10.036   5.002
66957SOL     OW  894  12.446   9.696   4.986
66957SOL    HW1  895  12.467   9.770   5.050
66957SOL    HW2  896  12.357   9.713   4.943
66958SOL     OW  897  11.236  10.874   5.055
66958SOL    HW1  898  11.190  10.956   5.021
66958SOL    HW2  899  11.334  10.893   5.064
66959SOL     OW  900  11.539  10.410   4.225
66959SOL    HW1  901  11.532  10.493   4.169
66959SOL    HW2  902  11.543  10.330   4.165
66960SOL     OW  903  11.738   9.847   4.589
66960SOL    HW1  904  11.750   9.913   4.515
66960SOL    HW2  905  11.784   9.881   4.672
66961SOL     OW  906  12.424  10.658   4.112
66961SOL    HW1  907  12.474  10.735   4.152
66961SOL    HW2  908  12.329  10.660   4.144
66962SOL     OW  909  12.444  10.755   4.866
66962SOL    HW1  910  12.491  10.768   4.953
66962SOL    HW2  911  12.378  10.681   4.875
66963SOL     OW  912  12.754   9.949   4.196
66963SOL    HW1  913  12.723  10.010   4.269
66963SOL    HW2  914  12.804  10.001   4.127
66964SOL     OW  915  11.526  10.820   5.053
66964SOL    HW1  916  11.505  10.776   4.966
66964SOL    HW2  917  11.623  10.846   5.056
66965SOL     OW  918  11.574  10.061   5.322
66965SOL    HW1  919  11.642  10.116   5.275
66965SOL    HW2  920  11.614   9.973   5.349
66966SOL     OW  921  12.185   9.415   5.494
66966SOL    HW1  922  12.191   9.500   5.442
66966SOL    HW2  923  12.217   9.339   5.437
66967SOL     OW  924  11.676   9.360   5.464
66967SOL    HW1  925  11.634   9.303   5.394
66967SOL    HW2  926  11.610   9.429   5.496
66968SOL     OW  927  11.745  10.180   4.753
66968SOL    HW1  928  11.789  10.269   4.744
66968SOL    HW2  929  11.682  10.180   4.830
66969SOL     OW  930  12.532  10.172   4.769
66969SOL    HW1  931  12.457  10.172   4.703
66969SOL    HW2  932  12.569  10.080   4.778
66970SOL     OW  933  12.381   9.835   3.999
66970SOL    HW1  934  12.394   9.751   4.053
66970SOL    HW2  935  12.352   9.909   4.059
66971SOL     OW  936  11.479   9.523   4.955
66971SOL    HW1  937  11.456   9.560   5.045
66971SOL    HW2  938  11.449   9.428   4.949
66972SOL     OW  939  11.209  10.620   5.006
66972SOL    HW1  940  11.262  10.571   5.074
66972SOL    HW2  941  11.231  10.718   5.011
66973SOL     OW  942  11.904   9.944   4.788
66973SOL    HW1  943  11.963   9.918   4.712
66973SOL    HW2  944  11.876  10.040   4.777
66974SOL     OW  945  11.479   9.373   4.342
66974SOL    HW1  946  11.468   9.467   4.375
66974SOL    HW2  947  11.474   9.310   4.419
66975SOL     OW  948  12.794   9.677   4.098
66975SOL    HW1  949  12.796   9.601   4.162
66975SOL    HW2  950  12.746   9.754   4.138
66976SOL     OW  951  12.195  10.076   4.690
66976SOL    HW1  952  12.210  10.097   4.786
66976SOL    HW2  953  12.165   9.981   4.681
66977SOL     OW  954  12.152  10.883   5.424
66977SOL    HW1  955  12.132  10.927   5.336
66977SOL    HW2  956  12.191  10.792   5.408
66978SOL     OW  957  11.522  10.208   5.528
66978SOL    HW1  958  11.598  10.252   5.576
66978SOL    HW2  959  11.557  10.161   5.446
66979SOL     OW  960  12.712   9.584   3.849
66979SOL    HW1  961  12.651   9.509   3.872
66979SOL    HW2  962  12.734   9.636   3.932
66980SOL     OW  963  12.475  10.148   3.766
66980SOL    HW1  964  12.509  10.055   3.781
66980SOL    HW2  965  12.493  10.175   3.671
66981SOL     OW  966  12.240  10.643   4.573
66981SOL    HW1  967  12.247  10.559   4.518
66981SOL    HW2  968  12.302  10.712   4.537
66982SOL     OW  969  11.491  10.120   4.673
66982SOL    HW1  970  11.584  10.156   4.678
66982SOL    HW2  971  11.485  10.035   4.725
66983SOL     OW  972  11.511   9.819   4.730
66983SOL    HW1  973  11.459   9.736   4.713
66983SOL    HW2  974  11.588   9.824   4.666
66984SOL     OW  975  12.310   9.690   5.402
66984SOL    HW1  976  12.265   9.753   5.466
66984SOL    HW2  977  12.403   9.721   5.385
66985SOL     OW  978  12.332   9.517   5.201
66985SOL    HW1  979  12.332   9.581   5.278
66985SOL    HW2  980  12.360   9.565   5.118
66986SOL     OW  981  11.180  10.636   3.924
66986SOL    HW1  982  11.087  10.657   3.893
66986SOL    HW2  983  11.190  10.537   3.937
66987SOL     OW  984  11.260  11.111   4.651
66987SOL    HW1  985  11.218  11.025   4.624
66987SOL    HW2  986  11.354  11.114   4.617
66988SOL     OW  987  11.676  10.878   4.634
66988SOL    HW1  988  11.742  10.952   4.643
66988SOL    HW2  989  11.720  10.799   4.592
66989SOL     OW  990  12.174  10.106   4.962
66989SOL    HW1  991  12.215  10.074   5.048
66989SOL    HW2  992  12.078  10.079   4.959
66990SOL     OW  993  11.212   9.854   4.838
66990SOL    HW1  994  11.297   9.821   4.797
66990SOL    HW2  995  11.225   9.869   4.936
66991SOL     OW  996  11.361   9.830   5.446
66991SOL    HW1  997  11.420   9.790   5.376
66991SOL    HW2  998  11.303   9.901   5.405
66992SOL     OW  999  12.541  10.260   5.384
66992SOL    HW1 1000  12.580  10.349   5.404
66992SOL    HW2 1001  12.551  10.240   5.287
66993SOL     OW 1002  11.987   9.882   4.049
66993SOL    HW1 1003  11.994   9.793   4.003
66993SOL    HW2 1004  11.893   9.916   4.041
66994SOL     OW 1005  11.424  10.874   5.468
66994SOL    HW1 1006  11.394  10.931   5.544
66994SOL    HW2 1007  11.417  10.777   5.494
66995SOL     OW 1008  11.843   9.774   4.993
66995SOL    HW1 1009  11.809   9.685   4.963
66995SOL    HW2 1010  11.869   9.828   4.913
66996SOL     OW 1011  12.102  10.988   5.189
66996SOL    HW1 1012  12.078  10.970   5.094
66996SOL    HW2 1013  12.132  11.082   5.199
66997SOL     OW 1014  11.645   9.810   3.915
66997SOL    HW1 1015  11.706   9.890   3.919
66997SOL    HW2 1016  11.550   9.841   3.922
66998SOL     OW 1017  11.331  10.447   5.190
66998SOL    HW1 1018  11.353  10.386   5.266
66998SOL    HW2 1019  11.341  10.398   5.104
66999SOL     OW 1020  12.519  10.369   4.958
66999SOL    HW1 1021  12.543  10.306   4.884
66999SOL    HW2 1022  12.429  10.409   4.940
67000SOL     OW 1023  12.474  10.165   4.033
67000SOL    HW1 1024  12.388  10.134   4.075
67000SOL    HW2 1025  12.470  10.151   3.934
67001SOL     OW 1026  12.424  11.041   4.852
67001SOL    HW1 1027  12.508  11.046   4.798
67001SOL    HW2 1028  12.401  10.945   4.870
67002SOL     OW 1029  11.255  10.568   4.746
67002SOL    HW1 1030  11.250  10.567   4.846
67002SOL    HW2 1031  11.172  10.527   4.708
67003SOL     OW 1032  11.860  10.972   5.440
67003SOL    HW1 1033  11.804  11.053   5.449
67003SOL    HW2 1034  11.912  10.976   5.354
67004SOL     OW 1035  12.898   9.445   4.247
67004SOL    HW1 1036  12.971   9.428   4.180
67004SOL    HW2 1037  12.867   9.358   4.285
67005SOL     OW 1038  12.560  10.883   4.201
67005SOL    HW1 1039  12.627  10.895   4.127
67005SOL    HW2 1040  12.520  10.972   4.224
67006SOL     OW 1041  11.302  11.104   5.575
67006SOL    HW1 1042  11.261  11.030   5.628
67006SOL    HW2 1043  11.366  11.155   5.633
67007SOL     OW 1044  12.452  10.237   4.396
67007SOL    HW1 1045  12.512  10.156   4.398
67007SOL    HW2 1046  12.492  10.306   4.336
67008SOL     OW 1047  12.002  10.583   5.146
67008SOL    HW1 1048  11.997  10.616   5.241
67008SOL    HW2 1049  11.916  10.602   5.100
67009SOL     OW 1050  11.844  10.926   3.878
67009SOL    HW1 1051  11.853  10.936   3.779
67009SOL    HW2 1052  11.804  10.837   3.899
67010SOL     OW 1053  11.435   9.636   4.444
67010SOL    HW1 1054  11.356   9.687   4.410
67010SOL    HW2 1055  11.426   9.621   4.542
67011SOL     OW 1056  12.366  10.922   3.755
67011SOL    HW1 1057  12.372  10.829   3.792
67011SOL    HW2 1058  12.307  10.922   3.675
67012SOL     OW 1059  11.994  10.312   5.096
67012SOL    HW1 1060  12.034  10.311   5.004
67012SOL    HW2 1061  12.004  10.404   5.136
67013SOL     OW 1062  12.088  10.220   4.015
67013SOL    HW1 1063  12.151  10.258   3.947
67013SOL    HW2 1064  12.128  10.137   4.054
67014SOL     OW 1065  12.676  10.917   3.768
67014SOL    HW1 1066  12.584  10.954   3.775
67014SOL    HW2 1067  12.714  10.937   3.678
67015SOL     OW 1068  11.544  10.598   5.214
67015SOL    HW1 1069  11.531  10.691   5.180
67015SOL    HW2 1070  11.460  10.546   5.201
67016SOL     OW 1071  12.211  10.408   4.420
67016SOL    HW1 1072  12.141  10.361   4.474
67016SOL    HW2 1073  12.270  10.340   4.377
67017SOL     OW 1074  12.186   9.546   4.695
67017SOL    HW1 1075  12.178   9.510   4.602
67017SOL    HW2 1076  12.184   9.470   4.760
67018SOL     OW 1077  11.762  10.797   4.215
67018SOL    HW1 1078  11.804  10.739   4.145
67018SOL    HW2 1079  11.718  10.876   4.171
67019SOL     OW 1080  11.427  10.658   4.014
67019SOL    HW1 1081  11.331  10.659   3.987
67019SOL    HW2 1082  11.439  10.711   4.098
67020SOL     OW 1083  11.277  10.323   5.450
67020SOL    HW1 1084  11.200  10.290   5.504
67020SOL    HW2 1085  11.362  10.293   5.492
67021SOL     OW 1086  11.844   9.513   5.213
67021SOL    HW1 1087  11.934   9.497   5.173
67021SOL    HW2 1088  11.852   9.518   5.312
67022SOL     OW 1089  11.247   9.655   3.757
67022SOL    HW1 1090  11.155   9.627   3.728
67022SOL    HW2 1091  11.278   9.732   3.701
67023SOL     OW 1092  12.612  10.166   5.122
67023SOL    HW1 1093  12.555  10.218   5.059
67023SOL    HW2 1094  12.708  10.178   5.098
67024SOL     OW 1095  11.244   9.476   4.042
67024SOL    HW1 1096  11.227   9.559   3.988
67024SOL    HW2 1097  11.334   9.439   4.020
67025SOL     OW 1098  12.355  10.645   3.843
67025SOL    HW1 1099  12.256  10.634   3.845
67025SOL    HW2 1100  12.389  10.660   3.936
67026SOL     OW 1101  11.785  10.152   5.155
67026SOL    HW1 1102  11.841  10.233   5.138
67026SOL    HW2 1103  11.844  10.072   5.158
67027SOL     OW 1104  12.665  11.077   4.683
67027SOL    HW1 1105  12.698  11.141   4.614
67027SOL    HW2 1106  12.731  11.071   4.758
67028SOL     OW 1107  11.888   9.875   5.432
67028SOL    HW1 1108  11.907   9.940   5.506
67028SOL    HW2 1109  11.948   9.795   5.441
67029SOL     OW 1110  12.622  10.530   5.357
67029SOL    HW1 1111  12.613  10.520   5.456
67029SOL    HW2 1112  12.718  10.523   5.331
67030SOL     OW 1113  11.562  11.051   5.284
67030SOL    HW1 1114  11.471  11.092   5.282
67030SOL    HW2 1115  11.555  10.957   5.316
67031SOL     OW 1116  12.397   9.635   4.173
67031SOL    HW1 1117  12.462   9.561   4.162
67031SOL    HW2 1118  12.417   9.685   4.257
67032SOL     OW 1119  11.766  10.055   4.376
67032SOL    HW1 1120  11.816  10.140   4.357
67032SOL    HW2 1121  11.678  10.057   4.328
67033SOL     OW 1122  12.031  10.684   3.740
67033SOL    HW1 1123  11.985  10.699   3.828
67033SOL    HW2 1124  12.075  10.769   3.710
67034SOL     OW 1125  11.833  11.100   4.677
67034SOL    HW1 1126  11.787  11.188   4.664
67034SOL    HW2 1127  11.932  11.112   4.670
67035SOL     OW 1128  12.031  10.266   4.585
67035SOL    HW1 1129  12.085  10.197   4.633
67035SOL    HW2 1130  11.999  10.335   4.651
67036SOL     OW 1131  12.255  10.294   3.811
67036SOL    HW1 1132  12.232  10.347   3.729
67036SOL    HW2 1133  12.336  10.238   3.792
67037SOL     OW 1134  13.033  10.879   4.575
67037SOL    HW1 1135  12.962  10.867   4.505
67037SOL    HW2 1136  13.034  10.800   4.635
67038SOL     OW 1137  11.393  10.624   5.568
67038SOL    HW1 1138  11.328  10.551   5.547
67038SOL    HW2 1139  11.397  10.638   5.666
67039SOL     OW 1140  11.251  10.550   4.377
67039SOL    HW1 1141  11.250  10.503   4.465
67039SOL    HW2 1142  11.333  10.522   4.326
67040SOL     OW 1143  11.844  10.701   5.348
67040SOL    HW1 1144  11.766  10.651   5.386
67040SOL    HW2 1145  11.841  10.796   5.379
67041SOL     OW 1146  11.600   9.734   4.244
67041SOL    HW1 1147  11.630   9.662   4.182
67041SOL    HW2 1148  11.561   9.694   4.327
67042SOL     OW 1149  11.489   9.857   5.004
67042SOL    HW1 1150  11.527   9.798   5.076
67042SOL    HW2 1151  11.529   9.831   4.916
67043SOL     OW 1152  11.984  10.896   4.411
67043SOL    HW1 1153  12.016  10.906   4.317
67043SOL    HW2 1154  11.905  10.834   4.413
67044SOL     OW 1155  12.596   9.524   4.836
67044SOL    HW1 1156  12.648   9.459   4.891
67044SOL    HW2 1157  12.547   9.587   4.897
67045SOL     OW 1158  12.173   9.344   4.878
67045SOL    HW1 1159  12.110   9.272   4.847
67045SOL    HW2 1160  12.266   9.308   4.878
67046SOL     OW 1161  11.942  10.640   4.025
67046SOL    HW1 1162  11.896  10.553   4.042
67046SOL    HW2 1163  12.033  10.637   4.066
67047SOL     OW 1164  11.790  10.877   5.008
67047SOL    HW1 1165  11.785  10.959   5.065
67047SOL    HW2 1166  11.879  10.874   4.963
67048SOL     OW 1167  12.524   9.362   3.892
67048SOL    HW1 1168  12.559   9.321   3.808
67048SOL    HW2 1169  12.434   9.324   3.912
67049SOL     OW 1170  12.472   9.763   4.415
67049SOL    HW1 1171  12.413   9.843   4.419
67049SOL    HW2 1172  12.487   9.728   4.508
67050SOL     OW 1173  12.765   9.531   4.606
67050SOL    HW1 1174  12.681   9.530   4.660
67050SOL    HW2 1175  12.767   9.614   4.550
67051SOL     OW 1176  11.211  10.387   4.024
67051SOL    HW1 1177  11.310  10.376   4.015
67051SOL    HW2 1178  11.171  10.301   4.056
67052SOL     OW 1179  12.047  10.956   4.061
67052SOL    HW1 1180  11.970  10.921   4.007
67052SOL    HW2 1181  12.015  11.027   4.123
67053SOL     OW 1182  11.402   9.938   5.699
67053SOL    HW1 1183  11.309   9.936   5.736
67053SOL    HW2 1184  11.403   9.899   5.607
67054SOL     OW 1185  11.397   9.585   6.582
67054SOL    HW1 1186  11.432   9.568   6.674
67054SOL    HW2 1187  11.309   9.540   6.570
67055SOL     OW 1188  11.191   9.678   6.233
67055SOL    HW1 1189  11.109   9.721   6.272
67055SOL    HW2 1190  11.163   9.605   6.170
67056SOL     OW 1191  11.741  10.585   6.751
67056SOL    HW1 1192  11.648  10.578   6.714
67056SOL    HW2 1193  11.752  10.674   6.795
67057SOL     OW 1194  12.727  10.821   6.289
67057SOL    HW1 1195  12.670  10.805   6.370
67057SOL    HW2 1196  12.668  10.831   6.209
67058SOL     OW 1197  12.307  10.013   6.303
67058SOL    HW1 1198  12.364  10.091   6.278
67058SOL    HW2 1199  12.247  10.039   6.379
67059SOL     OW 1200  11.940  10.454   6.609
67059SOL    HW1 1201  11.862  10.471   6.669
67059SOL    HW2 1202  11.974  10.541   6.573
67060SOL     OW 1203  12.022  10.108   7.409
67060SOL    HW1 1204  12.018  10.184   7.474
67060SOL    HW2 1205  12.044  10.144   7.318
67061SOL     OW 1206  11.857  10.322   6.251
67061SOL    HW1 1207  11.926  10.306   6.321
67061SOL    HW2 1208  11.784  10.379   6.289
67062SOL     OW 1209  11.858  10.471   7.389
67062SOL    HW1 1210  11.918  10.550   7.403
67062SOL    HW2 1211  11.772  10.502   7.348
67063SOL     OW 1212  11.507  10.745   6.647
67063SOL    HW1 1213  11.429  10.714   6.594
67063SOL    HW2 1214  11.565  10.803   6.590
67064SOL     OW 1215  12.632  10.815   6.925
67064SOL    HW1 1216  12.656  10.909   6.951
67064SOL    HW2 1217  12.616  10.761   7.007
67065SOL     OW 1218  11.610   9.702   7.085
67065SOL    HW1 1219  11.692   9.646   7.094
67065SOL    HW2 1220  11.529   9.644   7.089
67066SOL     OW 1221  11.403  11.023   6.069
67066SOL    HW1 1222  11.437  11.100   6.123
67066SOL    HW2 1223  11.447  11.023   5.979
67067SOL     OW 1224  12.299  10.651   7.276
67067SOL    HW1 1225  12.346  10.651   7.364
67067SOL    HW2 1226  12.251  10.564   7.265
67068SOL     OW 1227  11.402  10.744   6.124
67068SOL    HW1 1228  11.376  10.840   6.124
67068SOL    HW2 1229  11.331  10.690   6.169
67069SOL     OW 1230  11.412  10.401   6.472
67069SOL    HW1 1231  11.426  10.317   6.524
67069SOL    HW2 1232  11.357  10.465   6.527
67070SOL     OW 1233  11.792  11.096   7.025
67070SOL    HW1 1234  11.700  11.079   7.060
67070SOL    HW2 1235  11.820  11.188   7.051
67071SOL     OW 1236  11.778  10.274   5.709
67071SOL    HW1 1237  11.785  10.358   5.655
67071SOL    HW2 1238  11.824  10.287   5.797
67072SOL     OW 1239  12.766   9.424   7.066
67072SOL    HW1 1240  12.748   9.491   6.994
67072SOL    HW2 1241  12.763   9.470   7.155
67073SOL     OW 1242  11.294   9.953   6.149
67073SOL    HW1 1243  11.249   9.865   6.166
67073SOL    HW2 1244  11.293  10.007   6.233
67074SOL     OW 1245  11.199  10.906   5.703
67074SOL    HW1 1246  11.180  10.810   5.724
67074SOL    HW2 1247  11.166  10.964   5.778
67075SOL     OW 1248  12.861  10.232   6.198
67075SOL    HW1 1249  12.956  10.203   6.206
67075SOL    HW2 1250  12.853  10.297   6.123
67076SOL     OW 1251  11.285  10.047   7.183
67076SOL    HW1 1252  11.373  10.034   7.228
67076SOL    HW2 1253  11.272  10.144   7.161
67077SOL     OW 1254  11.785  10.675   6.312
67077SOL    HW1 1255  11.736  10.588   6.321
67077SOL    HW2 1256  11.762  10.718   6.225
67078SOL     OW 1257  12.465  10.538   7.009
67078SOL    HW1 1258  12.502  10.465   6.951
67078SOL    HW2 1259  12.517  10.543   7.094
67079SOL     OW 1260  11.981   9.314   6.088
67079SOL    HW1 1261  12.021   9.405   6.079
67079SOL    HW2 1262  11.881   9.322   6.094
67080SOL     OW 1263  11.369  10.286   6.850
67080SOL    HW1 1264  11.458  10.241   6.836
67080SOL    HW2 1265  11.296  10.221   6.831
67081SOL     OW 1266  12.359  11.102   7.202
67081SOL    HW1 1267  12.383  11.162   7.126
67081SOL    HW2 1268  12.366  11.007   7.172
67082SOL     OW 1269  11.489   9.561   7.387
67082SOL    HW1 1270  11.560   9.632   7.393
67082SOL    HW2 1271  11.401   9.600   7.415
67083SOL     OW 1272  12.638  10.727   6.539
67083SOL    HW1 1273  12.579  10.733   6.619
67083SOL    HW2 1274  12.623  10.639   6.493
67084SOL     OW 1275  12.839  11.024   6.158
67084SOL    HW1 1276  12.798  11.001   6.070
67084SOL    HW2 1277  12.821  10.950   6.223
67085SOL     OW 1278  11.770  10.039   5.856
67085SOL    HW1 1279  11.794  10.108   5.788
67085SOL    HW2 1280  11.692  10.072   5.910
67086SOL     OW 1281  12.453   9.655   6.530
67086SOL    HW1 1282  12.367   9.605   6.517
67086SOL    HW2 1283  12.515   9.601   6.586
67087SOL     OW 1284  11.979   9.915   7.051
67087SOL    HW1 1285  11.932   9.912   7.140
67087SOL    HW2 1286  11.928   9.860   6.985
67088SOL     OW 1287  12.566   9.779   7.260
67088SOL    HW1 1288  12.546   9.822   7.348
67088SOL    HW2 1289  12.644   9.717   7.269
67089SOL     OW 1290  12.145  10.200   7.158
67089SOL    HW1 1291  12.191  10.116   7.129
67089SOL    HW2 1292  12.089  10.234   7.083
67090SOL     OW 1293  12.163   9.720   6.828
67090SOL    HW1 1294  12.086   9.754   6.882
67090SOL    HW2 1295  12.129   9.669   6.749
67091SOL     OW 1296  12.213  10.011   6.015
67091SOL    HW1 1297  12.239  10.007   6.111
67091SOL    HW2 1298  12.128   9.960   6.001
67092SOL     OW 1299  11.248  10.121   6.375
67092SOL    HW1 1300  11.347  10.109   6.384
67092SOL    HW2 1301  11.224  10.216   6.396
67093SOL     OW 1302  11.302  11.131   7.157
67093SOL    HW1 1303  11.292  11.116   7.256
67093SOL    HW2 1304  11.216  11.167   7.121
67094SOL     OW 1305  12.037   9.658   5.781
67094SOL    HW1 1306  12.096   9.721   5.732
67094SOL    HW2 1307  12.056   9.564   5.752
67095SOL     OW 1308  12.534  10.454   6.131
67095SOL    HW1 1309  12.617  10.425   6.083
67095SOL    HW2 1310  12.485  10.521   6.075
67096SOL     OW 1311  11.722   9.506   6.471
67096SOL    HW1 1312  11.717   9.501   6.571
67096SOL    HW2 1313  11.724   9.602   6.442
67097SOL     OW 1314  12.180  10.766   6.063
67097SOL    HW1 1315  12.134  10.838   6.011
67097SOL    HW2 1316  12.176  10.786   6.161
67098SOL     OW 1317  11.523  11.111   6.439
67098SOL    HW1 1318  11.573  11.025   6.445
67098SOL    HW2 1319  11.588  11.188   6.436
67099SOL     OW 1320  12.399  10.860   7.092
67099SOL    HW1 1321  12.405  10.783   7.156
67099SOL    HW2 1322  12.347  10.834   7.012
67100SOL     OW 1323  11.493  10.253   5.828
67100SOL    HW1 1324  11.575  10.292   5.786
67100SOL    HW2 1325  11.466  10.171   5.779
67101SOL     OW 1326  12.630  10.045   6.314
67101SOL    HW1 1327  12.625   9.980   6.389
67101SOL    HW2 1328  12.710  10.104   6.327
67102SOL     OW 1329  11.633  10.576   7.313
67102SOL    HW1 1330  11.583  10.577   7.227
67102SOL    HW2 1331  11.570  10.558   7.389
67103SOL     OW 1332  12.283  11.086   5.823
67103SOL    HW1 1333  12.223  11.024   5.873
67103SOL    HW2 1334  12.314  11.042   5.738
67104SOL     OW 1335  11.374   9.595   7.084
67104SOL    HW1 1336  11.294   9.655   7.071
67104SOL    HW2 1337  11.364   9.546   7.170
67105SOL     OW 1338  11.636  11.053   5.909
67105SOL    HW1 1339  11.669  11.092   5.995
67105SOL    HW2 1340  11.712  11.046   5.844
67106SOL     OW 1341  12.572   9.417   6.012
67106SOL    HW1 1342  12.548   9.380   5.922
67106SOL    HW2 1343  12.671   9.433   6.016
67107SOL     OW 1344  11.421  11.095   6.827
67107SOL    HW1 1345  11.478  11.030   6.877
67107SOL    HW2 1346  11.405  11.062   6.734
67108SOL     OW 1347  12.112  11.008   6.490
67108SOL    HW1 1348  12.192  10.951   6.511
67108SOL    HW2 1349  12.063  10.968   6.413
67109SOL     OW 1350  11.554  10.010   6.066
67109SOL    HW1 1351  11.599   9.920   6.063
67109SOL    HW2 1352  11.460   9.999   6.099
67110SOL     OW 1353  11.786   9.432   5.703
67110SOL    HW1 1354  11.884   9.410   5.710
67110SOL    HW2 1355  11.755   9.415   5.610
67111SOL     OW 1356  11.953   9.574   7.335
67111SOL    HW1 1357  12.020   9.513   7.378
67111SOL    HW2 1358  11.880   9.593   7.400
67112SOL     OW 1359  12.060  10.824   6.781
67112SOL    HW1 1360  12.037  10.799   6.687
67112SOL    HW2 1361  12.121  10.755   6.820
67113SOL     OW 1362  12.523   9.900   7.019
67113SOL    HW1 1363  12.551   9.857   7.104
67113SOL    HW2 1364  12.548   9.996   7.020
67114SOL     OW 1365  11.975  10.712   6.510
67114SOL    HW1 1366  12.065  10.726   6.468
67114SOL    HW2 1367  11.904  10.714   6.439
67115SOL     OW 1368  12.094   9.813   6.485
67115SOL    HW1 1369  12.069   9.804   6.389
67115SOL    HW2 1370  12.142   9.731   6.516
67116SOL     OW 1371  11.711   9.374   6.098
67116SOL    HW1 1372  11.630   9.375   6.156
67116SOL    HW2 1373  11.714   9.457   6.043
67117SOL     OW 1374  12.606  10.498   5.627
67117SOL    HW1 1375  12.638  10.422   5.684
67117SOL    HW2 1376  12.514  10.525   5.657
67118SOL     OW 1377  11.469   9.345   5.757
67118SOL    HW1 1378  11.518   9.429   5.736
67118SOL    HW2 1379  11.531   9.280   5.802
67119SOL     OW 1380  12.107   9.546   6.066
67119SOL    HW1 1381  12.059   9.587   5.988
67119SOL    HW2 1382  12.206   9.544   6.047
67120SOL     OW 1383  12.248   9.993   7.050
67120SOL    HW1 1384  12.168   9.932   7.053
67120SOL    HW2 1385  12.329   9.940   7.026
67121SOL     OW 1386  12.399  10.880   6.379
67121SOL    HW1 1387  12.420  10.954   6.314
67121SOL    HW2 1388  12.467  10.880   6.452
67122SOL     OW 1389  11.631  10.462   6.327
67122SOL    HW1 1390  11.560  10.435   6.392
67122SOL    HW2 1391  11.605  10.434   6.234
67123SOL     OW 1392  12.443  11.107   6.177
67123SOL    HW1 1393  12.487  11.171   6.113
67123SOL    HW2 1394  12.393  11.159   6.247
67124SOL     OW 1395  12.204   9.859   5.602
67124SOL    HW1 1396  12.163   9.941   5.563
67124SOL    HW2 1397  12.268   9.885   5.675
67125SOL     OW 1398  11.250   9.866   6.972
67125SOL    HW1 1399  11.342   9.865   6.931
67125SOL    HW2 1400  11.244   9.940   7.039
67126SOL     OW 1401  11.733   9.532   6.733
67126SOL    HW1 1402  11.771   9.448   6.770
67126SOL    HW2 1403  11.645   9.551   6.777
67127SOL     OW 1404  12.038   9.764   6.228
67127SOL    HW1 1405  12.006   9.836   6.166
67127SOL    HW2 1406  12.062   9.683   6.175
67128SOL     OW 1407  12.189   9.349   6.339
67128SOL    HW1 1408  12.117   9.354   6.270
67128SOL    HW2 1409  12.165   9.280   6.408
67129SOL     OW 1410  12.601  10.483   6.453
67129SOL    HW1 1411  12.546  10.399   6.446
67129SOL    HW2 1412  12.627  10.512   6.361
67130SOL     OW 1413  12.638   9.900   6.578
67130SOL    HW1 1414  12.608   9.805   6.585
67130SOL    HW2 1415  12.711   9.916   6.644
67131SOL     OW 1416  11.660  10.695   5.760
67131SOL    HW1 1417  11.573  10.680   5.807
67131SOL    HW2 1418  11.643  10.721   5.665
67132SOL     OW 1419  12.562   9.885   5.664
67132SOL    HW1 1420  12.508   9.864   5.745
67132SOL    HW2 1421  12.653   9.844   5.673
67133SOL     OW 1422  11.699   9.566   5.914
67133SOL    HW1 1423  11.726   9.507   5.839
67133SOL    HW2 1424  11.699   9.661   5.883
67134SOL     OW 1425  12.236  10.657   6.926
67134SOL    HW1 1426  12.156  10.634   6.981
67134SOL    HW2 1427  12.319  10.631   6.975
67135SOL     OW 1428  12.764  10.939   7.211
67135SOL    HW1 1429  12.791  10.973   7.121
67135SOL    HW2 1430  12.843  10.901   7.257
67136SOL     OW 1431  12.283  10.505   6.686
67136SOL    HW1 1432  12.243  10.549   6.767
67136SOL    HW2 1433  12.242  10.542   6.603
67137SOL     OW 1434  12.087   9.399   6.988
67137SOL    HW1 1435  12.112   9.379   6.893
67137SOL    HW2 1436  12.159   9.455   7.030
67138SOL     OW 1437  12.152  10.426   7.305
67138SOL    HW1 1438  12.053  10.432   7.315
67138SOL    HW2 1439  12.175  10.346   7.249
67139SOL     OW 1440  11.877  10.360   5.954
67139SOL    HW1 1441  11.863  10.367   6.053
67139SOL    HW2 1442  11.961  10.309   5.936
67140SOL     OW 1443  11.582  10.123   6.837
67140SOL    HW1 1444  11.668  10.135   6.887
67140SOL    HW2 1445  11.540  10.036   6.864
67141SOL     OW 1446  12.446   9.696   6.848
67141SOL    HW1 1447  12.467   9.770   6.912
67141SOL    HW2 1448  12.357   9.713   6.805
67142SOL     OW 1449  11.236  10.874   6.917
67142SOL    HW1 1450  11.190  10.956   6.883
67142SOL    HW2 1451  11.334  10.893   6.926
67143SOL     OW 1452  11.539  10.410   6.087
67143SOL    HW1 1453  11.532  10.493   6.031
67143SOL    HW2 1454  11.543  10.330   6.027
67144SOL     OW 1455  11.738   9.847   6.451
67144SOL    HW1 1456  11.750   9.913   6.377
67144SOL    HW2 1457  11.784   9.881   6.534
67145SOL     OW 1458  12.424  10.658   5.974
67145SOL    HW1 1459  12.474  10.735   6.014
67145SOL    HW2 1460  12.329  10.660   6.006
67146SOL     OW 1461  12.444  10.755   6.728
67146SOL    HW1 1462  12.491  10.768   6.815
67146SOL    HW2 1463  12.378  10.681   6.737
67147SOL     OW 1464  12.754   9.949   6.058
67147SOL    HW1 1465  12.723  10.010   6.131
67147SOL    HW2 1466  12.804  10.001   5.989
67148SOL     OW 1467  11.526  10.820   6.915
67148SOL    HW1 1468  11.505  10.776   6.828
67148SOL    HW2 1469  11.623  10.846   6.918
67149SOL     OW 1470  11.574  10.061   7.184
67149SOL    HW1 1471  11.642  10.116   7.137
67149SOL    HW2 1472  11.614   9.973   7.211
67150SOL     OW 1473  12.185   9.415   7.356
67150SOL    HW1 1474  12.191   9.500   7.304
67150SOL    HW2 1475  12.217   9.339   7.299
67151SOL     OW 1476  11.676   9.360   7.326
67151SOL    HW1 1477  11.634   9.303   7.256
67151SOL    HW2 1478  11.610   9.429   7.358
67152SOL     OW 1479  11.745  10.180   6.615
67152SOL    HW1 1480  11.789  10.269   6.606
67152SOL    HW2 1481  11.682  10.180   6.692
67153SOL     OW 1482  12.532  10.172   6.631
67153SOL    HW1 1483  12.457  10.172   6.565
67153SOL    HW2 1484  12.569  10.080   6.640
67154SOL     OW 1485  12.381   9.835   5.861
67154SOL    HW1 1486  12.394   9.751   5.915
67154SOL    HW2 1487  12.352   9.909   5.921
67155SOL     OW 1488  11.479   9.523   6.817
67155SOL    HW1 1489  11.456   9.560   6.907
67155SOL    HW2 1490  11.449   9.428   6.811
67156SOL     OW 1491  11.209  10.620   6.868
67156SOL    HW1 1492  11.262  10.571   6.936
67156SOL    HW2 1493  11.231  10.718   6.873
67157SOL     OW 1494  11.904   9.944   6.650
67157SOL    HW1 1495  11.963   9.918   6.574
67157SOL    HW2 1496  11.876  10.040   6.639
67158SOL     OW 1497  11.479   9.373   6.204
67158SOL    HW1 1498  11.468   9.467   6.237
67158SOL    HW2 1499  11.474   9.310   6.281
67159SOL     OW 1500  12.794   9.677   5.960
67159SOL    HW1 1501  12.796   9.601   6.024
67159SOL    HW2 1502  12.746   9.754   6.000
67160SOL     OW 1503  12.195  10.076   6.552
67160SOL    HW1 1504  12.210  10.097   6.648
67160SOL    HW2 1505  12.165   9.981   6.543
67161SOL     OW 1506  12.152  10.883   7.286
67161SOL    HW1 1507  12.132  10.927   7.198
67161SOL    HW2 1508  12.191  10.792   7.270
67162SOL     OW 1509  11.522  10.208   7.390
67162SOL    HW1 1510  11.598  10.252   7.438
67162SOL    HW2 1511  11.557  10.161   7.308
67163SOL     OW 1512  12.712   9.584   5.711
67163SOL    HW1 1513  12.651   9.509   5.734
67163SOL    HW2 1514  12.734   9.636   5.794
67164SOL     OW 1515  12.475  10.148   5.628
67164SOL    HW1 1516  12.509  10.055   5.643
67164SOL    HW2 1517  12.493  10.175   5.533
67165SOL     OW 1518  12.240  10.643   6.435
67165SOL    HW1 1519  12.247  10.559   6.380
67165SOL    HW2 1520  12.302  10.712   6.399
67166SOL     OW 1521  11.491  10.120   6.535
67166SOL    HW1 1522  11.584  10.156   6.540
67166SOL    HW2 1523  11.485  10.035   6.587
67167SOL     OW 1524  11.511   9.819   6.592
67167SOL    HW1 1525  11.459   9.736   6.575
67167SOL    HW2 1526  11.588   9.824   6.528
67168SOL     OW 1527  12.310   9.690   7.264
67168SOL    HW1 1528  12.265   9.753   7.328
67168SOL    HW2 1529  12.403   9.721   7.247
67169SOL     OW 1530  12.332   9.517   7.063
67169SOL    HW1 1531  12.332   9.581   7.140
67169SOL    HW2 1532  12.360   9.565   6.980
67170SOL     OW 1533  11.180  10.636   5.786
67170SOL    HW1 1534  11.087  10.657   5.755
67170SOL    HW2 1535  11.190  10.537   5.799
67171SOL     OW 1536  11.260  11.111   6.513
67171SOL    HW1 1537  11.218  11.025   6.486
67171SOL    HW2 1538  11.354  11.114   6.479
67172SOL     OW 1539  11.676  10.878   6.496
67172SOL    HW1 1540  11.742  10.952   6.505
67172SOL    HW2 1541  11.720  10.799   6.454
67173SOL     OW 1542  12.174  10.106   6.824
67173SOL    HW1 1543  12.215  10.074   6.910
67173SOL    HW2 1544  12.078  10.079   6.821
67174SOL     OW 1545  11.212   9.854   6.700
67174SOL    HW1 1546  11.297   9.821   6.659
67174SOL    HW2 1547  11.225   9.869   6.798
67175SOL     OW 1548  11.361   9.830   7.308
67175SOL    HW1 1549  11.420   9.790   7.238
67175SOL    HW2 1550  11.303   9.901   7.267
67176SOL     OW 1551  12.541  10.260   7.246
67176SOL    HW1 1552  12.580  10.349   7.266
67176SOL    HW2 1553  12.551  10.240   7.149
67177SOL     OW 1554  11.987   9.882   5.911
67177SOL    HW1 1555  11.994   9.793   5.865
67177SOL    HW2 1556  11.893   9.916   5.903
67178SOL     OW 1557  11.424  10.874   7.330
67178SOL    HW1 1558  11.394  10.931   7.406
67178SOL    HW2 1559  11.417  10.777   7.356
67179SOL     OW 1560  11.843   9.774   6.855
67179SOL    HW1 1561  11.809   9.685   6.825
67179SOL    HW2 1562  11.869   9.828   6.775
67180SOL     OW 1563  12.102  10.988   7.051
67180SOL    HW1 1564  12.078  10.970   6.956
67180SOL    HW2 1565  12.132  11.082   7.061
67181SOL     OW 1566  11.645   9.810   5.777
67181SOL    HW1 1567  11.706   9.890   5.781
67181SOL    HW2 1568  11.550   9.841   5.784
67182SOL     OW 1569  11.331  10.447   7.052
67182SOL    HW1 1570  11.353  10.386   7.128
67182SOL    HW2 1571  11.341  10.398   6.966
67183SOL     OW 1572  12.519  10.369   6.820
67183SOL    HW1 1573  12.543  10.306   6.746
67183SOL    HW2 1574  12.429  10.409   6.802
67184SOL     OW 1575  12.474  10.165   5.895
67184SOL    HW1 1576  12.388  10.134   5.937
67184SOL    HW2 1577  12.470  10.151   5.796
67185SOL     OW 1578  12.424  11.041   6.714
67185SOL    HW1 1579  12.508  11.046   6.660
67185SOL    HW2 1580  12.401  10.945   6.732
67186SOL     OW 1581  11.255  10.568   6.608
67186SOL    HW1 1582  11.250  10.567   6.708
67186SOL    HW2 1583  11.172  10.527   6.570
67187SOL     OW 1584  11.860  10.972   7.302
67187SOL    HW1 1585  11.804  11.053   7.311
67187SOL    HW2 1586  11.912  10.976   7.216
67188SOL     OW 1587  12.898   9.445   6.109
67188SOL    HW1 1588  12.971   9.428   6.042
67188SOL    HW2 1589  12.867   9.358   6.147
67189SOL     OW 1590  12.560  10.883   6.063
67189SOL    HW1 1591  12.627  10.895   5.989
67189SOL    HW2 1592  12.520  10.972   6.086
67190SOL     OW 1593  11.302  11.104   7.437
67190SOL    HW1 1594  11.261  11.030   7.490
67190SOL    HW2 1595  11.366  11.155   7.495
67191SOL     OW 1596  12.452  10.237   6.258
67191SOL    HW1 1597  12.512  10.156   6.260
67191SOL    HW2 1598  12.492  10.306   6.198
67192SOL     OW 1599  12.002  10.583   7.008
67192SOL    HW1 1600  11.997  10.616   7.103
67192SOL    HW2 1601  11.916  10.602   6.962
67193SOL     OW 1602  11.844  10.926   5.740
67193SOL    HW1 1603  11.853  10.936   5.641
67193SOL    HW2 1604  11.804  10.837   5.761
67194SOL     OW 1605  11.435   9.636   6.306
67194SOL    HW1 1606  11.356   9.687   6.272
67194SOL    HW2 1607  11.426   9.621   6.404
67195SOL     OW 1608  12.366  10.922   5.617
67195SOL    HW1 1609  12.372  10.829   5.654
67195SOL    HW2 1610  12.307  10.922   5.537
67196SOL     OW 1611  11.994  10.312   6.958
67196SOL    HW1 1612  12.034  10.311   6.866
67196SOL    HW2 1613  12.004  10.404   6.998
67197SOL     OW 1614  12.088  10.220   5.877
67197SOL    HW1 1615  12.151  10.258   5.809
67197SOL    HW2 1616  12.128  10.137   5.916
67198SOL     OW 1617  12.676  10.917   5.630
67198SOL    HW1 1618  12.584  10.954   5.637
67198SOL    HW2 1619  12.714  10.937   5.540
67199SOL     OW 1620  11.544  10.598   7.076
67199SOL    HW1 1621  11.531  10.691   7.042
67199SOL    HW2 1622  11.460  10.546   7.063
67200SOL     OW 1623  12.211  10.408   6.282
67200SOL    HW1 1624  12.141  10.361   6.336
67200SOL    HW2 1625  12.270  10.340   6.239
67201SOL     OW 1626  12.186   9.546   6.557
67201SOL    HW1 1627  12.178   9.510   6.464
67201SOL    HW2 1628  12.184   9.470   6.622
67202SOL     OW 1629  11.762  10.797   6.077
67202SOL    HW1 1630  11.804  10.739   6.007
67202SOL    HW2 1631  11.718  10.876   6.033
67203SOL     OW 1632  11.427  10.658   5.876
67203SOL    HW1 1633  11.331  10.659   5.849
67203SOL    HW2 1634  11.439  10.711   5.960
67204SOL     OW 1635  11.277  10.323   7.312
67204SOL    HW1 1636  11.200  10.290   7.366
67204SOL    HW2 1637  11.362  10.293   7.354
67205SOL     OW 1638  11.844   9.513   7.075
67205SOL    HW1 1639  11.934   9.497   7.035
67205SOL    HW2 1640  11.852   9.518   7.174
67206SOL     OW 1641  11.247   9.655   5.619
67206SOL    HW1 1642  11.155   9.627   5.590
67206SOL    HW2 1643  11.278   9.732   5.563
67207SOL     OW 1644  12.612  10.166   6.984
67207SOL    HW1 1645  12.555  10.218   6.921
67207SOL    HW2 1646  12.708  10.178   6.960
67208SOL     OW 1647  11.244   9.476   5.904
67208SOL    HW1 1648  11.227   9.559   5.850
67208SOL    HW2 1649  11.334   9.439   5.882
67209SOL     OW 1650  12.355  10.645   5.705
67209SOL    HW1 1651  12.256  10.634   5.707
67209SOL    HW2 1652  12.389  10.660   5.798
67210SOL     OW 1653  11.785  10.152   7.017
67210SOL    HW1 1654  11.841  10.233   7.000
67210SOL    HW2 1655  11.844  10.072   7.020
67211SOL     OW 1656  12.665  11.077   6.545
67211SOL    HW1 1657  12.698  11.141   6.476
67211SOL    HW2 1658  12.731  11.071   6.620
67212SOL     OW 1659  11.888   9.875   7.294
67212SOL    HW1 1660  11.907   9.940   7.368
67212SOL    HW2 1661  11.948   9.795   7.303
67213SOL     OW 1662  12.622  10.530   7.219
67213SOL    HW1 1663  12.613  10.520   7.318
67213SOL    HW2 1664  12.718  10.523   7.193
67214SOL     OW 1665  11.562  11.051   7.146
67214SOL    HW1 1666  11.471  11.092   7.144
67214SOL    HW2 1667  11.555  10.957   7.178
67215SOL     OW 1668  12.397   9.635   6.035
67215SOL    HW1 1669  12.462   9.561   6.024
67215SOL    HW2 1670  12.417   9.685   6.119
67216SOL     OW 1671  11.766  10.055   6.238
67216SOL    HW1 1672  11.816  10.140   6.219
67216SOL    HW2 1673  11.678  10.057   6.190
67217SOL     OW 1674  12.031  10.684   5.602
67217SOL    HW1 1675  11.985  10.699   5.690
67217SOL    HW2 1676  12.075  10.769   5.572
67218SOL     OW 1677  11.833  11.100   6.539
67218SOL    HW1 1678  11.787  11.188   6.526
67218SOL    HW2 1679  11.932  11.112   6.532
67219SOL     OW 1680  12.031  10.266   6.447
67219SOL    HW1 1681  12.085  10.197   6.495
67219SOL    HW2 1682  11.999  10.335   6.513
67220SOL     OW 1683  12.255  10.294   5.673
67220SOL    HW1 1684  12.232  10.347   5.591
67220SOL    HW2 1685  12.336  10.238   5.654
67221SOL     OW 1686  13.033  10.879   6.437
67221SOL    HW1 1687  12.962  10.867   6.367
67221SOL    HW2 1688  13.034  10.800   6.497
67222SOL     OW 1689  11.393  10.624   7.430
67222SOL    HW1 1690  11.328  10.551   7.409
67222SOL    HW2 1691  11.397  10.638   7.528
67223SOL     OW 1692  11.251  10.550   6.239
67223SOL    HW1 1693  11.250  10.503   6.327
67223SOL    HW2 1694  11.333  10.522   6.188
67224SOL     OW 1695  11.844  10.701   7.210
67224SOL    HW1 1696  11.766  10.651   7.248
67224SOL    HW2 1697  11.841  10.796   7.241
67225SOL     OW 1698  11.600   9.734   6.106
67225SOL    HW1 1699  11.630   9.662   6.044
67225SOL    HW2 1700  11.561   9.694   6.189
67226SOL     OW 1701  11.489   9.857   6.866
67226SOL    HW1 1702  11.527   9.798   6.938
67226SOL    HW2 1703  11.529   9.831   6.778
67227SOL     OW 1704  11.984  10.896   6.273
67227SOL    HW1 1705  12.016  10.906   6.179
67227SOL    HW2 1706  11.905  10.834   6.275
67228SOL     OW 1707  12.596   9.524   6.698
67228SOL    HW1 1708  12.648   9.459   6.753
67228SOL    HW2 1709  12.547   9.587   6.759
67229SOL     OW 1710  12.173   9.344   6.740
67229SOL    HW1 1711  12.110   9.272   6.709
67229SOL    HW2 1712  12.266   9.308   6.740
67230SOL     OW 1713  11.942  10.640   5.887
67230SOL    HW1 1714  11.896  10.553   5.904
67230SOL    HW2 1715  12.033  10.637   5.928
67231SOL     OW 1716  11.790  10.877   6.870
67231SOL    HW1 1717  11.785  10.959   6.927
67231SOL    HW2 1718  11.879  10.874   6.825
67232SOL     OW 1719  12.524   9.362   5.754
67232SOL    HW1 1720  12.559   9.321   5.670
67232SOL    HW2 1721  12.434   9.324   5.774
67233SOL     OW 1722  12.472   9.763   6.277
67233SOL    HW1 1723  12.413   9.843   6.281
67233SOL    HW2 1724  12.487   9.728   6.370
67234SOL     OW 1725  12.765   9.531   6.468
67234SOL    HW1 1726  12.681   9.530   6.522
67234SOL    HW2 1727  12.767   9.614   6.412
67235SOL     OW 1728  11.211  10.387   5.886
67235SOL    HW1 1729  11.310  10.376   5.877
67235SOL    HW2 1730  11.171  10.301   5.918
67236SOL     OW 1731  12.047  10.956   5.923
67236SOL    HW1 1732  11.970  10.921   5.869
67236SOL    HW2 1733  12.015  11.027   5.985
67237SOL     OW 1734  11.402   9.938   7.561
67237SOL    HW1 1735  11.309   9.936   7.598
67237SOL    HW2 1736  11.403   9.899   7.469
67238SOL     OW 1737  11.397   9.585   8.444
67238SOL    HW1 1738  11.432   9.568   8.536
67238SOL    HW2 1739  11.309   9.540   8.432
67239SOL     OW 1740  11.191   9.678   8.095
67239SOL    HW1 1741  11.109   9.721   8.134
67239SOL    HW2 1742  11.163   9.605   8.032
67240SOL     OW 1743  11.741  10.585   8.613
67240SOL    HW1 1744  11.648  10.578   8.576
67240SOL    HW2 1745  11.752  10.674   8.657
67241SOL     OW 1746  12.727  10.821   8.151
67241SOL    HW1 1747  12.670  10.805   8.232
67241SOL    HW2 1748  12.668  10.831   8.071
67242SOL     OW 1749  12.307  10.013   8.165
67242SOL    HW1 1750  12.364  10.091   8.140
67242SOL    HW2 1751  12.247  10.039   8.241
67243SOL     OW 1752  11.940  10.454   8.471
67243SOL    HW1 1753  11.862  10.471   8.531
67243SOL    HW2 1754  11.974  10.541   8.435
67244SOL     OW 1755  12.022  10.108   9.271
67244SOL    HW1 1756  12.018  10.184   9.336
67244SOL    HW2 1757  12.044  10.144   9.180
67245SOL     OW 1758  11.857  10.322   8.113
67245SOL    HW1 1759  11.926  10.306   8.183
67245SOL    HW2 1760  11.784  10.379   8.151
67246SOL     OW 1761  11.858  10.471   9.251
67246SOL    HW1 1762  11.918  10.550   9.265
67246SOL    HW2 1763  11.772  10.502   9.210
67247SOL     OW 1764  11.507  10.745   8.509
67247SOL    HW1 1765  11.429  10.714   8.456
67247SOL    HW2 1766  11.565  10.803   8.452
67248SOL     OW 1767  12.632  10.815   8.787
67248SOL    HW1 1768  12.656  10.909   8.813
67248SOL    HW2 1769  12.616  10.761   8.869
67249SOL     OW 1770  11.610   9.702   8.947
67249SOL    HW1 1771  11.692   9.646   8.956
67249SOL    HW2 1772  11.529   9.644   8.951
67250SOL     OW 1773  11.403  11.023   7.931
67250SOL    HW1 1774  11.437  11.100   7.985
67250SOL    HW2 1775  11.447  11.023   7.841
67251SOL     OW 1776  12.299  10.651   9.138
67251SOL    HW1 1777  12.346  10.651   9.226
67251SOL    HW2 1778  12.251  10.564   9.127
67252SOL     OW 1779  11.402  10.744   7.986
67252SOL    HW1 1780  11.376  10.840   7.986
67252SOL    HW2 1781  11.331  10.690   8.031
67253SOL     OW 1782  11.412  10.401   8.334
67253SOL    HW1 1783  11.426  10.317   8.386
67253SOL    HW2 1784  11.357  10.465   8.389
67254SOL     OW 1785  11.792  11.096   8.887
67254SOL    HW1 1786  11.700  11.079   8.922
67254SOL    HW2 1787  11.820  11.188   8.913
67255SOL     OW 1788  11.778  10.274   7.571
67255SOL    HW1 1789  11.785  10.358   7.517
67255SOL    HW2 1790  11.824  10.287   7.659
67256SOL     OW 1791  12.766   9.424   8.928
67256SOL    HW1 1792  12.748   9.491   8.856
67256SOL    HW2 1793  12.763   9.470   9.017
67257SOL     OW 1794  11.294   9.953   8.011
67257SOL    HW1 1795  11.249   9.865   8.028
67257SOL    HW2 1796  11.293  10.007   8.095
67258SOL     OW 1797  11.199  10.906   7.565
67258SOL    HW1 1798  11.180  10.810   7.586
67258SOL    HW2 1799  11.166  10.964   7.640
67259SOL     OW 1800  12.861  10.232   8.060
67259SOL    HW1 1801  12.956  10.203   8.068
67259SOL    HW2 1802  12.853  10.297   7.985
67260SOL     OW 1803  11.285  10.047   9.045
67260SOL    HW1 1804  11.373  10.034   9.090
67260SOL    HW2 1805  11.272  10.144   9.023
67261SOL     OW 1806  11.785  10.675   8.174
67261SOL    HW1 1807  11.736  10.588   8.183
67261SOL    HW2 1808  11.762  10.718   8.087
67262SOL     OW 1809  12.465  10.538   8.871
67262SOL    HW1 1810  12.502  10.465   8.813
67262SOL    HW2 1811  12.517  10.543   8.956
67263SOL     OW 1812  11.981   9.314   7.950
67263SOL    HW1 1813  12.021   9.405   7.941
67263SOL    HW2 1814  11.881   9.322   7.956
67264SOL     OW 1815  11.369  10.286   8.712
67264SOL    HW1 1816  11.458  10.241   8.698
67264SOL    HW2 1817  11.296  10.221   8.693
67265SOL     OW 1818  12.359  11.102   9.064
67265SOL    HW1 1819  12.383  11.162   8.988
67265SOL    HW2 1820  12.366  11.007   9.034
67266SOL     OW 1821  11.489   9.561   9.249
67266SOL    HW1 1822  11.560   9.632   9.255
67266SOL    HW2 1823  11.401   9.600   9.277
67267SOL     OW 1824  12.638  10.727   8.401
67267SOL    HW1 1825  12.579  10.733   8.481
67267SOL    HW2 1826  12.623  10.639   8.355
67268SOL     OW 1827  12.839  11.024   8.020
67268SOL    HW1 1828  12.798  11.001   7.932
67268SOL    HW2 1829  12.821  10.950   8.085
67269SOL     OW 1830  11.770  10.039   7.718
67269SOL    HW1 1831  11.794  10.108   7.650
67269SOL    HW2 1832  11.692  10.072   7.772
67270SOL     OW 1833  12.453   9.655   8.392
67270SOL    HW1 1834  12.367   9.605   8.379
67270SOL    HW2 1835  12.515   9.601   8.448
67271SOL     OW 1836  11.979   9.915   8.913
67271SOL    HW1 1837  11.932   9.912   9.002
67271SOL    HW2 1838  11.928   9.860   8.847
67272SOL     OW 1839  12.566   9.779   9.122
67272SOL    HW1 1840  12.546   9.822   9.210
67272SOL    HW2 1841  12.644   9.717   9.131
67273SOL     OW 1842  12.145  10.200   9.020
67273SOL    HW1 1843  12.191  10.116   8.991
67273SOL    HW2 1844  12.089  10.234   8.945
67274SOL     OW 1845  12.163   9.720   8.690
67274SOL    HW1 1846  12.086   9.754   8.744
67274SOL    HW2 1847  12.129   9.669   8.611
67275SOL     OW 1848  12.213  10.011   7.877
67275SOL    HW1 1849  12.239  10.007   7.973
67275SOL    HW2 1850  12.128   9.960   7.863
67276SOL     OW 1851  11.248  10.121   8.237
67276SOL    HW1 1852  11.347  10.109   8.246
67276SOL    HW2 1853  11.224  10.216   8.258
67277SOL     OW 1854  11.302  11.131   9.019
67277SOL    HW1 1855  11.292  11.116   9.118
67277SOL    HW2 1856  11.216  11.167   8.983
67278SOL     OW 1857  12.037   9.658   7.643
67278SOL    HW1 1858  12.096   9.721   7.594
67278SOL    HW2 1859  12.056   9.564   7.614
67279SOL     OW 1860  12.534  10.454   7.993
67279SOL    HW1 1861  12.617  10.425   7.945
67279SOL    HW2 1862  12.485  10.521   7.937
67280SOL     OW 1863  11.722   9.506   8.333
67280SOL    HW1 1864  11.717   9.501   8.433
67280SOL    HW2 1865  11.724   9.602   8.304
67281SOL     OW 1866  12.180  10.766   7.925
67281SOL    HW1 1867  12.134  10.838   7.873
67281SOL    HW2 1868  12.176  10.786   8.023
67282SOL     OW 1869  11.523  11.111   8.301
67282SOL    HW1 1870  11.573  11.025   8.307
67282SOL    HW2 1871  11.588  11.188   8.298
67283SOL     OW 1872  12.399  10.860   8.954
67283SOL    HW1 1873  12.405  10.783   9.018
67283SOL    HW2 1874  12.347  10.834   8.874
67284SOL     OW 1875  11.493  10.253   7.690
67284SOL    HW1 1876  11.575  10.292   7.648
67284SOL    HW2 1877  11.466  10.171   7.641
67285SOL     OW 1878  12.630  10.045   8.176
67285SOL    HW1 1879  12.625   9.980   8.251
67285SOL    HW2 1880  12.710  10.104   8.189
67286SOL     OW 1881  11.633  10.576   9.175
67286SOL    HW1 1882  11.583  10.577   9.089
67286SOL    HW2 1883  11.570  10.558   9.251
67287SOL     OW 1884  12.283  11.086   7.685
67287SOL    HW1 1885  12.223  11.024   7.735
67287SOL    HW2 1886  12.314  11.042   7.600
67288SOL     OW 1887  11.374   9.595   8.946
67288SOL    HW1 1888  11.294   9.655   8.933
67288SOL    HW2 1889  11.364   9.546   9.032
67289SOL     OW 1890  11.636  11.053   7.771
67289SOL    HW1 1891  11.669  11.092   7.857
67289SOL    HW2 1892  11.712  11.046   7.706
67290SOL     OW 1893  12.572   9.417   7.874
67290SOL    HW1 1894  12.548   9.380   7.784
67290SOL    HW2 1895  12.671   9.433   7.878
67291SOL     OW 1896  11.421  11.095   8.689
67291SOL    HW1 1897  11.478  11.030   8.739
67291SOL    HW2 1898  11.405  11.062   8.596
67292SOL     OW 1899  12.112  11.008   8.352
67292SOL    HW1 1900  12.192  10.951   8.373
67292SOL    HW2 1901  12.063  10.968   8.275
67293SOL     OW 1902  11.554  10.010   7.928
67293SOL    HW1 1903  11.599   9.920   7.925
67293SOL    HW2 1904  11.460   9.999   7.961
67294SOL     OW 1905  11.786   9.432   7.565
67294SOL    HW1 1906  11.884   9.410   7.572
67294SOL    HW2 1907  11.755   9.415   7.472
67295SOL     OW 1908  11.953   9.574   9.197
67295SOL    HW1 1909  12.020   9.513   9.240
67295SOL    HW2 1910  11.880   9.593   9.262
67296SOL     OW 1911  12.060  10.824   8.643
67296SOL    HW1 1912  12.037  10.799   8.549
67296SOL    HW2 1913  12.121  10.755   8.682
67297SOL     OW 1914  12.523   9.900   8.881
67297SOL    HW1 1915  12.551   9.857   8.966
67297SOL    HW2 1916  12.548   9.996   8.882
67298SOL     OW 1917  11.975  10.712   8.372
67298SOL    HW1 1918  12.065  10.726   8.330
67298SOL    HW2 1919  11.904  10.714   8.301
67299SOL     OW 1920  12.094   9.813   8.347
67299SOL    HW1 1921  12.069   9.804   8.251
67299SOL    HW2 1922  12.142   9.731   8.378
67300SOL     OW 1923  11.711   9.374   7.960
67300SOL    HW1 1924  11.630   9.375   8.018
67300SOL    HW2 1925  11.714   9.457   7.905
67301SOL     OW 1926  12.606  10.498   7.489
67301SOL    HW1 1927  12.638  10.422   7.546
67301SOL    HW2 1928  12.514  10.525   7.519
67302SOL     OW 1929  11.469   9.345   7.619
67302SOL    HW1 1930  11.518   9.429   7.598
67302SOL    HW2 1931  11.531   9.280   7.664
67303SOL     OW 1932  12.107   9.546   7.928
67303SOL    HW1 1933  12.059   9.587   7.850
67303SOL    HW2 1934  12.206   9.544   7.909
67304SOL     OW 1935  12.248   9.993   8.912
67304SOL    HW1 1936  12.168   9.932   8.915
67304SOL    HW2 1937  12.329   9.940   8.888
67305SOL     OW 1938  12.399  10.880   8.241
67305SOL    HW1 1939  12.420  10.954   8.176
67305SOL    HW2 1940  12.467  10.880   8.314
67306SOL     OW 1941  11.631  10.462   8.189
67306SOL    HW1 1942  11.560  10.435   8.254
67306SOL    HW2 1943  11.605  10.434   8.096
67307SOL     OW 1944  12.443  11.107   8.039
67307SOL    HW1 1945  12.487  11.171   7.975
67307SOL    HW2 1946  12.393  11.159   8.109
67308SOL     OW 1947  12.204   9.859   7.464
67308SOL    HW1 1948  12.163   9.941   7.425
67308SOL    HW2 1949  12.268   9.885   7.537
67309SOL     OW 1950  11.250   9.866   8.834
67309SOL    HW1 1951  11.342   9.865   8.793
67309SOL    HW2 1952  11.244   9.940   8.901
67310SOL     OW 1953  11.733   9.532   8.595
67310SOL    HW1 1954  11.771   9.448   8.632
67310SOL    HW2 1955  11.645   9.551   8.639
67311SOL     OW 1956  12.038   9.764   8.090
67311SOL    HW1 1957  12.006   9.836   8.028
67311SOL    HW2 1958  12.062   9.683   8.037
67312SOL     OW 1959  12.189   9.349   8.201
67312SOL    HW1 1960  12.117   9.354   8.132
67312SOL    HW2 1961  12.165   9.280   8.270
67313SOL     OW 1962  12.601  10.483   8.315
67313SOL    HW1 1963  12.546  10.399   8.308
67313SOL    HW2 1964  12.627  10.512   8.223
67314SOL     OW 1965  12.638   9.900   8.440
67314SOL    HW1 1966  12.608   9.805   8.447
67314SOL    HW2 1967  12.711   9.916   8.506
67315SOL     OW 1968  11.660  10.695   7.622
67315SOL    HW1 1969  11.573  10.680   7.669
67315SOL    HW2 1970  11.643  10.721   7.527
67316SOL     OW 1971  12.562   9.885   7.526
67316SOL    HW1 1972  12.508   9.864   7.607
67316SOL    HW2 1973  12.653   9.844   7.535
67317SOL     OW 1974  11.699   9.566   7.776
67317SOL    HW1 1975  11.726   9.507   7.701
67317SOL    HW2 1976  11.699   9.661   7.745
67318SOL     OW 1977  12.236  10.657   8.788
67318SOL    HW1 1978  12.156  10.634   8.843
67318SOL    HW2 1979  12.319  10.631   8.837
67319SOL     OW 1980  12.764  10.939   9.073
67319SOL    HW1 1981  12.791  10.973   8.983
67319SOL    HW2 1982  12.843  10.901   9.119
67320SOL     OW 1983  12.283  10.505   8.548
67320SOL    HW1 1984  12.243  10.549   8.629
67320SOL    HW2 1985  12.242  10.542   8.465
67321SOL     OW 1986  12.087   9.399   8.850
67321SOL    HW1 1987  12.112   9.379   8.755
67321SOL    HW2 1988  12.159   9.455   8.892
67322SOL     OW 1989  12.152  10.426   9.167
67322SOL    HW1 1990  12.053  10.432   9.177
67322SOL    HW2 1991  12.175  10.346   9.111
67323SOL     OW 1992  11.877  10.360   7.816
67323SOL    HW1 1993  11.863  10.367   7.915
67323SOL    HW2 1994  11.961  10.309   7.798
67324SOL     OW 1995  11.582  10.123   8.699
67324SOL    HW1 1996  11.668  10.135   8.749
67324SOL    HW2 1997  11.540  10.036   8.726
67325SOL     OW 1998  12.446   9.696   8.710
67325SOL    HW1 1999  12.467   9.770   8.774
67325SOL    HW2 2000  12.357   9.713   8.667
67326SOL     OW 2001  11.236  10.874   8.779
67326SOL    HW1 2002  11.190  10.956   8.745
67326SOL    HW2 2003  11.334  10.893   8.788
67327SOL     OW 2004  11.539  10.410   7.949
67327SOL    HW1 2005  11.532  10.493   7.893
67327SOL    HW2 2006  11.543  10.330   7.889
67328SOL     OW 2007  11.738   9.847   8.313
67328SOL    HW1 2008  11.750   9.913   8.239
67328SOL    HW2 2009  11.784   9.881   8.396
67329SOL     OW 2010  12.424  10.658   7.836
67329SOL    HW1 2011  12.474  10.735   7.876
67329SOL    HW2 2012  12.329  10.660   7.868
67330SOL     OW 2013  12.444  10.755   8.590
67330SOL    HW1 2014  12.491  10.768   8.677
67330SOL    HW2 2015  12.378  10.681   8.599
67331SOL     OW 2016  12.754   9.949   7.920
67331SOL    HW1 2017  12.723  10.010   7.993
67331SOL    HW2 2018  12.804  10.001   7.851
67332SOL     OW 2019  11.526  10.820   8.777
67332SOL    HW1 2020  11.505  10.776   8.690
67332SOL    HW2 2021  11.623  10.846   8.780
67333SOL     OW 2022  11.574  10.061   9.046
67333SOL    HW1 2023  11.642  10.116   8.999
67333SOL    HW2 2024  11.614   9.973   9.073
67334SOL     OW 2025  12.185   9.415   9.218
67334SOL    HW1 2026  12.191   9.500   9.166
67334SOL    HW2 2027  12.217   9.339   9.161
67335SOL     OW 2028  11.676   9.360   9.188
67335SOL    HW1 2029  11.634   9.303   9.118
67335SOL    HW2 2030  11.610   9.429   9.220
67336SOL     OW 2031  11.745  10.180   8.477
67336SOL    HW1 2032  11.789  10.269   8.468
67336SOL    HW2 2033  11.682  10.180   8.554
67337SOL     OW 2034  12.532  10.172   8.493
67337SOL    HW1 2035  12.457  10.172   8.427
67337SOL    HW2 2036  12.569  10.080   8.502
67338SOL     OW 2037  12.381   9.835   7.723
67338SOL    HW1 2038  12.394   9.751   7.777
67338SOL    HW2 2039  12.352   9.909   7.783
67339SOL     OW 2040  11.479   9.523   8.679
67339SOL    HW1 2041  11.456   9.560   8.769
67339SOL    HW2 2042  11.449   9.428   8.673
67340SOL     OW 2043  11.209  10.620   8.730
67340SOL    HW1 2044  11.262  10.571   8.798
67340SOL    HW2 2045  11.231  10.718   8.735
67341SOL     OW 2046  11.904   9.944   8.512
67341SOL    HW1 2047  11.963   9.918   8.436
67341SOL    HW2 2048  11.876  10.040   8.501
67342SOL     OW 2049  11.479   9.373   8.066
67342SOL    HW1 2050  11.468   9.467   8.099
67342SOL    HW2 2051  11.474   9.310   8.143
67343SOL     OW 2052  12.794   9.677   7.822
67343SOL    HW1 2053  12.796   9.601   7.886
67343SOL    HW2 2054  12.746   9.754   7.862
67344SOL     OW 2055  12.195  10.076   8.414
67344SOL    HW1 2056  12.210  10.097   8.510
67344SOL    HW2 2057  12.165   9.981   8.405
67345SOL     OW 2058  12.152  10.883   9.148
67345SOL    HW1 2059  12.132  10.927   9.060
67345SOL    HW2 2060  12.191  10.792   9.132
67346SOL     OW 2061  11.522  10.208   9.252
67346SOL    HW1 2062  11.598  10.252   9.300
67346SOL    HW2 2063  11.557  10.161   9.170
67347SOL     OW 2064  12.712   9.584   7.573
67347SOL    HW1 2065  12.651   9.509   7.596
67347SOL    HW2 2066  12.734   9.636   7.656
67348SOL     OW 2067  12.475  10.148   7.490
67348SOL    HW1 2068  12.509  10.055   7.505
67348SOL    HW2 2069  12.493  10.175   7.395
67349SOL     OW 2070  12.240  10.643   8.297
67349SOL    HW1 2071  12.247  10.559   8.242
67349SOL    HW2 2072  12.302  10.712   8.261
67350SOL     OW 2073  11.491  10.120   8.397
67350SOL    HW1 2074  11.584  10.156   8.402
67350SOL    HW2 2075  11.485  10.035   8.449
67351SOL     OW 2076  11.511   9.819   8.454
67351SOL    HW1 2077  11.459   9.736   8.437
67351SOL    HW2 2078  11.588   9.824   8.390
67352SOL     OW 2079  12.310   9.690   9.126
67352SOL    HW1 2080  12.265   9.753   9.190
67352SOL    HW2 2081  12.403   9.721   9.109
67353SOL     OW 2082  12.332   9.517   8.925
67353SOL    HW1 2083  12.332   9.581   9.002
67353SOL    HW2 2084  12.360   9.565   8.842
67354SOL     OW 2085  11.180  10.636   7.648
67354SOL    HW1 2086  11.087  10.657   7.617
67354SOL    HW2 2087  11.190  10.537   7.661
67355SOL     OW 2088  11.260  11.111   8.375
67355SOL    HW1 2089  11.218  11.025   8.348
67355SOL    HW2 2090  11.354  11.114   8.341
67356SOL     OW 2091  11.676  10.878   8.358
67356SOL    HW1 2092  11.742  10.952   8.367
67356SOL    HW2 2093  11.720  10.799   8.316
67357SOL     OW 2094  12.174  10.106   8.686
67357SOL    HW1 2095  12.215  10.074   8.772
67357SOL    HW2 2096  12.078  10.079   8.683
67358SOL     OW 2097  11.212   9.854   8.562
67358SOL    HW1 2098  11.297   9.821   8.521
67358SOL    HW2 2099  11.225   9.869   8.660
67359SOL     OW 2100  11.361   9.830   9.170
67359SOL    HW1 2101  11.420   9.790   9.100
67359SOL    HW2 2102  11.303   9.901   9.129
67360SOL     OW 2103  12.541  10.260   9.108
67360SOL    HW1 2104  12.580  10.349   9.128
67360SOL    HW2 2105  12.551  10.240   9.011
67361SOL     OW 2106  11.987   9.882   7.773
67361SOL    HW1 2107  11.994   9.793   7.727
67361SOL    HW2 2108  11.893   9.916   7.765
67362SOL     OW 2109  11.424  10.874   9.192
67362SOL    HW1 2110  11.394  10.931   9.268
67362SOL    HW2 2111  11.417  10.777   9.218
67363SOL     OW 2112  11.843   9.774   8.717
67363SOL    HW1 2113  11.809   9.685   8.687
67363SOL    HW2 2114  11.869   9.828   8.637
67364SOL     OW 2115  12.102  10.988   8.913
67364SOL    HW1 2116  12.078  10.970   8.818
67364SOL    HW2 2117  12.132  11.082   8.923
67365SOL     OW 2118  11.645   9.810   7.639
67365SOL    HW1 2119  11.706   9.890   7.643
67365SOL    HW2 2120  11.550   9.841   7.646
67366SOL     OW 2121  11.331  10.447   8.914
67366SOL    HW1 2122  11.353  10.386   8.990
67366SOL    HW2 2123  11.341  10.398   8.828
67367SOL     OW 2124  12.519  10.369   8.682
67367SOL    HW1 2125  12.543  10.306   8.608
67367SOL    HW2 2126  12.429  10.409   8.664
67368SOL     OW 2127  12.474  10.165   7.757
67368SOL    HW1 2128  12.388  10.134   7.799
67368SOL    HW2 2129  12.470  10.151   7.658
67369SOL     OW 2130  12.424  11.041   8.576
67369SOL    HW1 2131  12.508  11.046   8.522
67369SOL    HW2 2132  12.401  10.945   8.594
67370SOL     OW 2133  11.255  10.568   8.470
67370SOL    HW1 2134  11.250  10.567   8.570
67370SOL    HW2 2135  11.172  10.527   8.432
67371SOL     OW 2136  11.860  10.972   9.164
67371SOL    HW1 2137  11.804  11.053   9.173
67371SOL    HW2 2138  11.912  10.976   9.078
67372SOL     OW 2139  12.898   9.445   7.971
67372SOL    HW1 2140  12.971   9.428   7.904
67372SOL    HW2 2141  12.867   9.358   8.009
67373SOL     OW 2142  12.560  10.883   7.925
67373SOL    HW1 2143  12.627  10.895   7.851
67373SOL    HW2 2144  12.520  10.972   7.948
67374SOL     OW 2145  11.302  11.104   9.299
67374SOL    HW1 2146  11.261  11.030   9.352
67374SOL    HW2 2147  11.366  11.155   9.357
67375SOL     OW 2148  12.452  10.237   8.120
67375SOL    HW1 2149  12.512  10.156   8.122
67375SOL    HW2 2150  12.492  10.306   8.060
67376SOL     OW 2151  12.002  10.583   8.870
67376SOL    HW1 2152  11.997  10.616   8.965
67376SOL    HW2 2153  11.916  10.602   8.824
67377SOL     OW 2154  11.844  10.926   7.602
67377SOL    HW1 2155  11.853  10.936   7.503
67377SOL    HW2 2156  11.804  10.837   7.623
67378SOL     OW 2157  11.435   9.636   8.168
67378SOL    HW1 2158  11.356   9.687   8.134
67378SOL    HW2 2159  11.426   9.621   8.266
67379SOL     OW 2160  12.366  10.922   7.479
67379SOL    HW1 2161  12.372  10.829   7.516
67379SOL    HW2 2162  12.307  10.922   7.399
67380SOL     OW 2163  11.994  10.312   8.820
67380SOL    HW1 2164  12.034  10.311   8.728
67380SOL    HW2 2165  12.004  10.404   8.860
67381SOL     OW 2166  12.088  10.220   7.739
67381SOL    HW1 2167  12.151  10.258   7.671
67381SOL    HW2 2168  12.128  10.137   7.778
67382SOL     OW 2169  12.676  10.917   7.492
67382SOL    HW1 2170  12.584  10.954   7.499
67382SOL    HW2 2171  12.714  10.937   7.402
67383SOL     OW 2172  11.544  10.598   8.938
67383SOL    HW1 2173  11.531  10.691   8.904
67383SOL    HW2 2174  11.460  10.546   8.925
67384SOL     OW 2175  12.211  10.408   8.144
67384SOL    HW1 2176  12.141  10.361   8.198
67384SOL    HW2 2177  12.270  10.340   8.101
67385SOL     OW 2178  12.186   9.546   8.419
67385SOL    HW1 2179  12.178   9.510   8.326
67385SOL    HW2 2180  12.184   9.470   8.484
67386SOL     OW 2181  11.762  10.797   7.939
67386SOL    HW1 2182  11.804  10.739   7.869
67386SOL    HW2 2183  11.718  10.876   7.895
67387SOL     OW 2184  11.427  10.658   7.738
67387SOL    HW1 2185  11.331  10.659   7.711
67387SOL    HW2 2186  11.439  10.711   7.822
67388SOL     OW 2187  11.277  10.323   9.174
67388SOL    HW1 2188  11.200  10.290   9.228
67388SOL    HW2 2189  11.362  10.293   9.216
67389SOL     OW 2190  11.844   9.513   8.937
67389SOL    HW1 2191  11.934   9.497   8.897
67389SOL    HW2 2192  11.852   9.518   9.036
67390SOL     OW 2193  11.247   9.655   7.481
67390SOL    HW1 2194  11.155   9.627   7.452
67390SOL    HW2 2195  11.278   9.732   7.425
67391SOL     OW 2196  12.612  10.166   8.846
67391SOL    HW1 2197  12.555  10.218   8.783
67391SOL    HW2 2198  12.708  10.178   8.822
67392SOL     OW 2199  11.244   9.476   7.766
67392SOL    HW1 2200  11.227   9.559   7.712
67392SOL    HW2 2201  11.334   9.439   7.744
67393SOL     OW 2202  12.355  10.645   7.567
67393SOL    HW1 2203  12.256  10.634   7.569
67393SOL    HW2 2204  12.389  10.660   7.660
67394SOL     OW 2205  11.785  10.152   8.879
67394SOL    HW1 2206  11.841  10.233   8.862
67394SOL    HW2 2207  11.844  10.072   8.882
67395SOL     OW 2208  12.665  11.077   8.407
67395SOL    HW1 2209  12.698  11.141   8.338
67395SOL    HW2 2210  12.731  11.071   8.482
67396SOL     OW 2211  11.888   9.875   9.156
67396SOL    HW1 2212  11.907   9.940   9.230
67396SOL    HW2 2213  11.948   9.795   9.165
67397SOL     OW 2214  12.622  10.530   9.081
67397SOL    HW1 2215  12.613  10.520   9.180
67397SOL    HW2 2216  12.718  10.523   9.055
67398SOL     OW 2217  11.562  11.051   9.008
67398SOL    HW1 2218  11.471  11.092   9.006
67398SOL    HW2 2219  11.555  10.957   9.040
67399SOL     OW 2220  12.397   9.635   7.897
67399SOL    HW1 2221  12.462   9.561   7.886
67399SOL    HW2 2222  12.417   9.685   7.981
67400SOL     OW 2223  11.766  10.055   8.100
67400SOL    HW1 2224  11.816  10.140   8.081
67400SOL    HW2 2225  11.678  10.057   8.052
67401SOL     OW 2226  12.031  10.684   7.464
67401SOL    HW1 2227  11.985  10.699   7.552
67401SOL    HW2 2228  12.075  10.769   7.434
67402SOL     OW 2229  11.833  11.100   8.401
67402SOL    HW1 2230  11.787  11.188   8.388
67402SOL    HW2 2231  11.932  11.112   8.394
67403SOL     OW 2232  12.031  10.266   8.309
67403SOL    HW1 2233  12.085  10.197   8.357
67403SOL    HW2 2234  11.999  10.335   8.375
67404SOL     OW 2235  12.255  10.294   7.535
67404SOL    HW1 2236  12.232  10.347   7.453
67404SOL    HW2 2237  12.336  10.238   7.516
67405SOL     OW 2238  13.033  10.879   8.299
67405SOL    HW1 2239  12.962  10.867   8.229
67405SOL    HW2 2240  13.034  10.800   8.359
67406SOL     OW 2241  11.393  10.624   9.292
67406SOL    HW1 2242  11.328  10.551   9.271
67406SOL    HW2 2243  11.397  10.638   9.390
67407SOL     OW 2244  11.251  10.550   8.101
67407SOL    HW1 2245  11.250  10.503   8.189
67407SOL    HW2 2246  11.333  10.522   8.050
67408SOL     OW 2247  11.844  10.701   9.072
67408SOL    HW1 2248  11.766  10.651   9.110
67408SOL    HW2 2249  11.841  10.796   9.103
67409SOL     OW 2250  11.600   9.734   7.968
67409SOL    HW1 2251  11.630   9.662   7.906
67409SOL    HW2 2252  11.561   9.694   8.051
67410SOL     OW 2253  11.489   9.857   8.728
67410SOL    HW1 2254  11.527   9.798   8.800
67410SOL    HW2 2255  11.529   9.831   8.640
67411SOL     OW 2256  11.984  10.896   8.135
67411SOL    HW1 2257  12.016  10.906   8.041
67411SOL    HW2 2258  11.905  10.834   8.137
67412SOL     OW 2259  12.596   9.524   8.560
67412SOL    HW1 2260  12.648   9.459   8.615
67412SOL    HW2 2261  12.547   9.587   8.621
67413SOL     OW 2262  12.173   9.344   8.602
67413SOL    HW1 2263  12.110   9.272   8.571
67413SOL    HW2 2264  12.266   9.308   8.602
67414SOL     OW 2265  11.942  10.640   7.749
67414SOL    HW1 2266  11.896  10.553   7.766
67414SOL    HW2 2267  12.033  10.637   7.790
67415SOL     OW 2268  11.790  10.877   8.732
67415SOL    HW1 2269  11.785  10.959   8.789
67415SOL    HW2 2270  11.879  10.874   8.687
67416SOL     OW 2271  12.524   9.362   7.616
67416SOL    HW1 2272  12.559   9.321   7.532
67416SOL    HW2 2273  12.434   9.324   7.636
67417SOL     OW 2274  12.472   9.763   8.139
67417SOL    HW1 2275  12.413   9.843   8.143
67417SOL    HW2 2276  12.487   9.728   8.232
67418SOL     OW 2277  12.765   9.531   8.330
67418SOL    HW1 2278  12.681   9.530   8.384
67418SOL    HW2 2279  12.767   9.614   8.274
67419SOL     OW 2280  11.211  10.387   7.748
67419SOL    HW1 2281  11.310  10.376   7.739
67419SOL    HW2 2282  11.171  10.301   7.780
67420SOL     OW 2283  12.047  10.956   7.785
67420SOL    HW1 2284  11.970  10.921   7.731
67420SOL    HW2 2285  12.015  11.027   7.847
67421SOL     OW 2286  11.402   9.938   9.423
67421SOL    HW1 2287  11.309   9.936   9.460
67421SOL    HW2 2288  11.403   9.899   9.331
67422SOL     OW 2289  11.397   9.585  10.306
67422SOL    HW1 2290  11.432   9.568  10.398
67422SOL    HW2 2291  11.309   9.540  10.294
67423SOL     OW 2292  11.191   9.678   9.957
67423SOL    HW1 2293  11.109   9.721   9.996
67423SOL    HW2 2294  11.163   9.605   9.894
67424SOL     OW 2295  11.741  10.585  10.475
67424SOL    HW1 2296  11.648  10.578  10.438
67424SOL    HW2 2297  11.752  10.674  10.519
67425SOL     OW 2298  12.727  10.821  10.013
67425SOL    HW1 2299  12.670  10.805  10.094
67425SOL    HW2 2300  12.668  10.831   9.933
67426SOL     OW 2301  12.307  10.013  10.027
67426SOL    HW1 2302  12.364  10.091  10.002
67426SOL    HW2 2303  12.247  10.039  10.103
67427SOL     OW 2304  11.940  10.454  10.333
67427SOL    HW1 2305  11.862  10.471  10.393
67427SOL    HW2 2306  11.974  10.541  10.297
67428SOL     OW 2307  12.022  10.108  11.133
67428SOL    HW1 2308  12.018  10.184  11.198
67428SOL    HW2 2309  12.044  10.144  11.042
67429SOL     OW 2310  11.857  10.322   9.975
67429SOL    HW1 2311  11.926  10.306  10.045
67429SOL    HW2 2312  11.784  10.379  10.013
67430SOL     OW 2313  11.858  10.471  11.113
67430SOL    HW1 2314  11.918  10.550  11.127
67430SOL    HW2 2315  11.772  10.502  11.072
67431SOL     OW 2316  11.507  10.745  10.371
67431SOL    HW1 2317  11.429  10.714  10.318
67431SOL    HW2 2318  11.565  10.803  10.314
67432SOL     OW 2319  12.632  10.815  10.649
67432SOL    HW1 2320  12.656  10.909  10.675
67432SOL    HW2 2321  12.616  10.761  10.731
67433SOL     OW 2322  11.610   9.702  10.809
67433SOL    HW1 2323  11.692   9.646  10.818
67433SOL    HW2 2324  11.529   9.644  10.813
67434SOL     OW 2325  11.403  11.023   9.793
67434SOL    HW1 2326  11.437  11.100   9.847
67434SOL    HW2 2327  11.447  11.023   9.703
67435SOL     OW 2328  12.299  10.651  11.000
67435SOL    HW1 2329  12.346  10.651  11.088
67435SOL    HW2 2330  12.251  10.564  10.989
67436SOL     OW 2331  11.402  10.744   9.848
67436SOL    HW1 2332  11.376  10.840   9.848
67436SOL    HW2 2333  11.331  10.690   9.893
67437SOL     OW 2334  11.412  10.401  10.196
67437SOL    HW1 2335  11.426  10.317  10.248
67437SOL    HW2 2336  11.357  10.465  10.251
67438SOL     OW 2337  11.792  11.096  10.749
67438SOL    HW1 2338  11.700  11.079  10.784
67438SOL    HW2 2339  11.820  11.188  10.775
67439SOL     OW 2340  11.778  10.274   9.433
67439SOL    HW1 2341  11.785  10.358   9.379
67439SOL    HW2 2342  11.824  10.287   9.521
67440SOL     OW 2343  12.766   9.424  10.790
67440SOL    HW1 2344  12.748   9.491  10.718
67440SOL    HW2 2345  12.763   9.470  10.879
67441SOL     OW 2346  11.294   9.953   9.873
67441SOL    HW1 2347  11.249   9.865   9.890
67441SOL    HW2 2348  11.293  10.007   9.957
67442SOL     OW 2349  11.199  10.906   9.427
67442SOL    HW1 2350  11.180  10.810   9.448
67442SOL    HW2 2351  11.166  10.964   9.502
67443SOL     OW 2352  12.861  10.232   9.922
67443SOL    HW1 2353  12.956  10.203   9.930
67443SOL    HW2 2354  12.853  10.297   9.847
67444SOL     OW 2355  11.285  10.047  10.907
67444SOL    HW1 2356  11.373  10.034  10.952
67444SOL    HW2 2357  11.272  10.144  10.885
67445SOL     OW 2358  11.785  10.675  10.036
67445SOL    HW1 2359  11.736  10.588  10.045
67445SOL    HW2 2360  11.762  10.718   9.949
67446SOL     OW 2361  12.465  10.538  10.733
67446SOL    HW1 2362  12.502  10.465  10.675
67446SOL    HW2 2363  12.517  10.543  10.818
67447SOL     OW 2364  11.981   9.314   9.812
67447SOL    HW1 2365  12.021   9.405   9.803
67447SOL    HW2 2366  11.881   9.322   9.818
67448SOL     OW 2367  11.369  10.286  10.574
67448SOL    HW1 2368  11.458  10.241  10.560
67448SOL    HW2 2369  11.296  10.221  10.555
67449SOL     OW 2370  12.359  11.102  10.926
67449SOL    HW1 2371  12.383  11.162  10.850
67449SOL    HW2 2372  12.366  11.007  10.896
67450SOL     OW 2373  11.489   9.561  11.111
67450SOL    HW1 2374  11.560   9.632  11.117
67450SOL    HW2 2375  11.401   9.600  11.139
67451SOL     OW 2376  12.638  10.727  10.263
67451SOL    HW1 2377  12.579  10.733  10.343
67451SOL    HW2 2378  12.623  10.639  10.217
67452SOL     OW 2379  12.839  11.024   9.882
67452SOL    HW1 2380  12.798  11.001   9.794
67452SOL    HW2 2381  12.821  10.950   9.947
67453SOL     OW 2382  11.770  10.039   9.580
67453SOL    HW1 2383  11.794  10.108   9.512
67453SOL    HW2 2384  11.692  10.072   9.634
67454SOL     OW 2385  12.453   9.655  10.254
67454SOL    HW1 2386  12.367   9.605  10.241
67454SOL    HW2 2387  12.515   9.601  10.310
67455SOL     OW 2388  11.979   9.915  10.775
67455SOL    HW1 2389  11.932   9.912  10.864
67455SOL    HW2 2390  11.928   9.860  10.709
67456SOL     OW 2391  12.566   9.779  10.984
67456SOL    HW1 2392  12.546   9.822  11.072
67456SOL    HW2 2393  12.644   9.717  10.993
67457SOL     OW 2394  12.145  10.200  10.882
67457SOL    HW1 2395  12.191  10.116  10.853
67457SOL    HW2 2396  12.089  10.234  10.807
67458SOL     OW 2397  12.163   9.720  10.552
67458SOL    HW1 2398  12.086   9.754  10.606
67458SOL    HW2 2399  12.129   9.669  10.473
67459SOL     OW 2400  12.213  10.011   9.739
67459SOL    HW1 2401  12.239  10.007   9.835
67459SOL    HW2 2402  12.128   9.960   9.725
67460SOL     OW 2403  11.248  10.121  10.099
67460SOL    HW1 2404  11.347  10.109  10.108
67460SOL    HW2 2405  11.224  10.216  10.120
67461SOL     OW 2406  11.302  11.131  10.881
67461SOL    HW1 2407  11.292  11.116  10.980
67461SOL    HW2 2408  11.216  11.167  10.845
67462SOL     OW 2409  12.037   9.658   9.505
67462SOL    HW1 2410  12.096   9.721   9.456
67462SOL    HW2 2411  12.056   9.564   9.476
67463SOL     OW 2412  12.534  10.454   9.855
67463SOL    HW1 2413  12.617  10.425   9.807
67463SOL    HW2 2414  12.485  10.521   9.799
67464SOL     OW 2415  11.722   9.506  10.195
67464SOL    HW1 2416  11.717   9.501  10.295
67464SOL    HW2 2417  11.724   9.602  10.166
67465SOL     OW 2418  12.180  10.766   9.787
67465SOL    HW1 2419  12.134  10.838   9.735
67465SOL    HW2 2420  12.176  10.786   9.885
67466SOL     OW 2421  11.523  11.111  10.163
67466SOL    HW1 2422  11.573  11.025  10.169
67466SOL    HW2 2423  11.588  11.188  10.160
67467SOL     OW 2424  12.399  10.860  10.816
67467SOL    HW1 2425  12.405  10.783  10.880
67467SOL    HW2 2426  12.347  10.834  10.736
67468SOL     OW 2427  11.493  10.253   9.552
67468SOL    HW1 2428  11.575  10.292   9.510
67468SOL    HW2 2429  11.466  10.171   9.503
67469SOL     OW 2430  12.630  10.045  10.038
67469SOL    HW1 2431  12.625   9.980  10.113
67469SOL    HW2 2432  12.710  10.104  10.051
67470SOL     OW 2433  11.633  10.576  11.037
67470SOL    HW1 2434  11.583  10.577  10.951
67470SOL    HW2 2435  11.570  10.558  11.113
67471SOL     OW 2436  12.283  11.086   9.547
67471SOL    HW1 2437  12.223  11.024   9.597
67471SOL    HW2 2438  12.314  11.042   9.462
67472SOL     OW 2439  11.374   9.595  10.808
67472SOL    HW1 2440  11.294   9.655  10.795
67472SOL    HW2 2441  11.364   9.546  10.894
67473SOL     OW 2442  11.636  11.053   9.633
67473SOL    HW1 2443  11.669  11.092   9.719
67473SOL    HW2 2444  11.712  11.046   9.568
67474SOL     OW 2445  12.572   9.417   9.736
67474SOL    HW1 2446  12.548   9.380   9.646
67474SOL    HW2 2447  12.671   9.433   9.740
67475SOL     OW 2448  11.421  11.095  10.551
67475SOL    HW1 2449  11.478  11.030  10.601
67475SOL    HW2 2450  11.405  11.062  10.458
67476SOL     OW 2451  12.112  11.008  10.214
67476SOL    HW1 2452  12.192  10.951  10.235
67476SOL    HW2 2453  12.063  10.968  10.137
67477SOL     OW 2454  11.554  10.010   9.790
67477SOL    HW1 2455  11.599   9.920   9.787
67477SOL    HW2 2456  11.460   9.999   9.823
67478SOL     OW 2457  11.786   9.432   9.427
67478SOL    HW1 2458  11.884   9.410   9.434
67478SOL    HW2 2459  11.755   9.415   9.334
67479SOL     OW 2460  11.953   9.574  11.059
67479SOL    HW1 2461  12.020   9.513  11.102
67479SOL    HW2 2462  11.880   9.593  11.124
67480SOL     OW 2463  12.060  10.824  10.505
67480SOL    HW1 2464  12.037  10.799  10.411
67480SOL    HW2 2465  12.121  10.755  10.544
67481SOL     OW 2466  12.523   9.900  10.743
67481SOL    HW1 2467  12.551   9.857  10.828
67481SOL    HW2 2468  12.548   9.996  10.744
67482SOL     OW 2469  11.975  10.712  10.234
67482SOL    HW1 2470  12.065  10.726  10.192
67482SOL    HW2 2471  11.904  10.714  10.163
67483SOL     OW 2472  12.094   9.813  10.209
67483SOL    HW1 2473  12.069   9.804  10.113
67483SOL    HW2 2474  12.142   9.731  10.240
67484SOL     OW 2475  11.711   9.374   9.822
67484SOL    HW1 2476  11.630   9.375   9.880
67484SOL    HW2 2477  11.714   9.457   9.767
67485SOL     OW 2478  12.606  10.498   9.351
67485SOL    HW1 2479  12.638  10.422   9.408
67485SOL    HW2 2480  12.514  10.525   9.381
67486SOL     OW 2481  11.469   9.345   9.481
67486SOL    HW1 2482  11.518   9.429   9.460
67486SOL    HW2 2483  11.531   9.280   9.526
67487SOL     OW 2484  12.107   9.546   9.790
67487SOL    HW1 2485  12.059   9.587   9.712
67487SOL    HW2 2486  12.206   9.544   9.771
67488SOL     OW 2487  12.248   9.993  10.774
67488SOL    HW1 2488  12.168   9.932  10.777
67488SOL    HW2 2489  12.329   9.940  10.750
67489SOL     OW 2490  12.399  10.880  10.103
67489SOL    HW1 2491  12.420  10.954  10.038
67489SOL    HW2 2492  12.467  10.880  10.176
67490SOL     OW 2493  11.631  10.462  10.051
67490SOL    HW1 2494  11.560  10.435  10.116
67490SOL    HW2 2495  11.605  10.434   9.958
67491SOL     OW 2496  12.443  11.107   9.901
67491SOL    HW1 2497  12.487  11.171   9.837
67491SOL    HW2 2498  12.393  11.159   9.971
67492SOL     OW 2499  12.204   9.859   9.326
67492SOL    HW1 2500  12.163   9.941   9.287
67492SOL    HW2 2501  12.268   9.885   9.399
67493SOL     OW 2502  11.250   9.866  10.696
67493SOL    HW1 2503  11.342   9.865  10.655
67493SOL    HW2 2504  11.244   9.940  10.763
67494SOL     OW 2505  11.733   9.532  10.457
67494SOL    HW1 2506  11.771   9.448  10.494
67494SOL    HW2 2507  11.645   9.551  10.501
67495SOL     OW 2508  12.038   9.764   9.952
67495SOL    HW1 2509  12.006   9.836   9.890
67495SOL    HW2 2510  12.062   9.683   9.899
67496SOL     OW 2511  12.189   9.349  10.063
67496SOL    HW1 2512  12.117   9.354   9.994
67496SOL    HW2 2513  12.165   9.280  10.132
67497SOL     OW 2514  12.601  10.483  10.177
67497SOL    HW1 2515  12.546  10.399  10.170
67497SOL    HW2 2516  12.627  10.512  10.085
67498SOL     OW 2517  12.638   9.900  10.302
67498SOL    HW1 2518  12.608   9.805  10.309
67498SOL    HW2 2519  12.711   9.916  10.368
67499SOL     OW 2520  11.660  10.695   9.484
67499SOL    HW1 2521  11.573  10.680   9.531
67499SOL    HW2 2522  11.643  10.721   9.389
67500SOL     OW 2523  12.562   9.885   9.388
67500SOL    HW1 2524  12.508   9.864   9.469
67500SOL    HW2 2525  12.653   9.844   9.397
67501SOL     OW 2526  11.699   9.566   9.638
67501SOL    HW1 2527  11.726   9.507   9.563
67501SOL    HW2 2528  11.699   9.661   9.607
67502SOL     OW 2529  12.236  10.657  10.650
67502SOL    HW1 2530  12.156  10.634  10.705
67502SOL    HW2 2531  12.319  10.631  10.699
67503SOL     OW 2532  12.764  10.939  10.935
67503SOL    HW1 2533  12.791  10.973  10.845
67503SOL    HW2 2534  12.843  10.901  10.981
67504SOL     OW 2535  12.283  10.505  10.410
67504SOL    HW1 2536  12.243  10.549  10.491
67504SOL    HW2 2537  12.242  10.542  10.327
67505SOL     OW 2538  12.087   9.399  10.712
67505SOL    HW1 2539  12.112   9.379  10.617
67505SOL    HW2 2540  12.159   9.455  10.754
67506SOL     OW 2541  12.152  10.426  11.029
67506SOL    HW1 2542  12.053  10.432  11.039
67506SOL    HW2 2543  12.175  10.346  10.973
67507SOL     OW 2544  11.877  10.360   9.678
67507SOL    HW1 2545  11.863  10.367   9.777
67507SOL    HW2 2546  11.961  10.309   9.660
67508SOL     OW 2547  11.582  10.123  10.561
67508SOL    HW1 2548  11.668  10.135  10.611
67508SOL    HW2 2549  11.540  10.036  10.588
67509SOL     OW 2550  12.446   9.696  10.572
67509SOL    HW1 2551  12.467   9.770  10.636
67509SOL    HW2 2552  12.357   9.713  10.529
67510SOL     OW 2553  11.236  10.874  10.641
67510SOL    HW1 2554  11.190  10.956  10.607
67510SOL    HW2 2555  11.334  10.893  10.650
67511SOL     OW 2556  11.539  10.410   9.811
67511SOL    HW1 2557  11.532  10.493   9.755
67511SOL    HW2 2558  11.543  10.330   9.751
67512SOL     OW 2559  11.738   9.847  10.175
67512SOL    HW1 2560  11.750   9.913  10.101
67512SOL    HW2 2561  11.784   9.881  10.258
67513SOL     OW 2562  12.424  10.658   9.698
67513SOL    HW1 2563  12.474  10.735   9.738
67513SOL    HW2 2564  12.329  10.660   9.730
67514SOL     OW 2565  12.444  10.755  10.452
67514SOL    HW1 2566  12.491  10.768  10.539
67514SOL    HW2 2567  12.378  10.681  10.461
67515SOL     OW 2568  12.754   9.949   9.782
67515SOL    HW1 2569  12.723  10.010   9.855
67515SOL    HW2 2570  12.804  10.001   9.713
67516SOL     OW 2571  11.526  10.820  10.639
67516SOL    HW1 2572  11.505  10.776  10.552
67516SOL    HW2 2573  11.623  10.846  10.642
67517SOL     OW 2574  11.574  10.061  10.908
67517SOL    HW1 2575  11.642  10.116  10.861
67517SOL    HW2 2576  11.614   9.973  10.935
67518SOL     OW 2577  12.185   9.415  11.080
67518SOL    HW1 2578  12.191   9.500  11.028
67518SOL    HW2 2579  12.217   9.339  11.023
67519SOL     OW 2580  11.676   9.360  11.050
67519SOL    HW1 2581  11.634   9.303  10.980
67519SOL    HW2 2582  11.610   9.429  11.082
67520SOL     OW 2583  11.745  10.180  10.339
67520SOL    HW1 2584  11.789  10.269  10.330
67520SOL    HW2 2585  11.682  10.180  10.416
67521SOL     OW 2586  12.532  10.172  10.355
67521SOL    HW1 2587  12.457  10.172  10.289
67521SOL    HW2 2588  12.569  10.080  10.364
67522SOL     OW 2589  12.381   9.835   9.585
67522SOL    HW1 2590  12.394   9.751   9.639
67522SOL    HW2 2591  12.352   9.909   9.645
67523SOL     OW 2592  11.479   9.523  10.541
67523SOL    HW1 2593  11.456   9.560  10.631
67523SOL    HW2 2594  11.449   9.428  10.535
67524SOL     OW 2595  11.209  10.620  10.592
67524SOL    HW1 2596  11.262  10.571  10.660
67524SOL    HW2 2597  11.231  10.718  10.597
67525SOL     OW 2598  11.904   9.944  10.374
67525SOL    HW1 2599  11.963   9.918  10.298
67525SOL    HW2 2600  11.876  10.040  10.363
67526SOL     OW 2601  11.479   9.373   9.928
67526SOL    HW1 2602  11.468   9.467   9.961
67526SOL    HW2 2603  11.474   9.310  10.005
67527SOL     OW 2604  12.794   9.677   9.684
67527SOL    HW1 2605  12.796   9.601   9.748
67527SOL    HW2 2606  12.746   9.754   9.724
67528SOL     OW 2607  12.195  10.076  10.276
67528SOL    HW1 2608  12.210  10.097  10.372
67528SOL    HW2 2609  12.165   9.981  10.267
67529SOL     OW 2610  12.152  10.883  11.010
67529SOL    HW1 2611  12.132  10.927  10.922
67529SOL    HW2 2612  12.191  10.792  10.994
67530SOL     OW 2613  11.522  10.208  11.114
67530SOL    HW1 2614  11.598  10.252  11.162
67530SOL    HW2 2615  11.557  10.161  11.032
67531SOL     OW 2616  12.712   9.584   9.435
67531SOL    HW1 2617  12.651   9.509   9.458
67531SOL    HW2 2618  12.734   9.636   9.518
67532SOL     OW 2619  12.475  10.148   9.352
67532SOL    HW1 2620  12.509  10.055   9.367
67532SOL    HW2 2621  12.493  10.175   9.257
67533SOL     OW 2622  12.240  10.643  10.159
67533SOL    HW1 2623  12.247  10.559  10.104
67533SOL    HW2 2624  12.302  10.712  10.123
67534SOL     OW 2625  11.491  10.120  10.259
67534SOL    HW1 2626  11.584  10.156  10.264
67534SOL    HW2 2627  11.485  10.035  10.311
67535SOL     OW 2628  11.511   9.819  10.316
67535SOL    HW1 2629  11.459   9.736  10.299
67535SOL    HW2 2630  11.588   9.824  10.252
67536SOL     OW 2631  12.310   9.690  10.988
67536SOL    HW1 2632  12.265   9.753  11.052
67536SOL    HW2 2633  12.403   9.721  10.971
67537SOL     OW 2634  12.332   9.517  10.787
67537SOL    HW1 2635  12.332   9.581  10.864
67537SOL    HW2 2636  12.360   9.565  10.704
67538SOL     OW 2637  11.180  10.636   9.510
67538SOL    HW1 2638  11.087  10.657   9.479
67538SOL    HW2 2639  11.190  10.537   9.523
67539SOL     OW 2640  11.260  11.111  10.237
67539SOL    HW1 2641  11.218  11.025  10.210
67539SOL    HW2 2642  11.354  11.114  10.203
67540SOL     OW 2643  11.676  10.878  10.220
67540SOL    HW1 2644  11.742  10.952  10.229
67540SOL    HW2 2645  11.720  10.799  10.178
67541SOL     OW 2646  12.174  10.106  10.548
67541SOL    HW1 2647  12.215  10.074  10.634
67541SOL    HW2 2648  12.078  10.079  10.545
67542SOL     OW 2649  11.212   9.854  10.424
67542SOL    HW1 2650  11.297   9.821  10.383
67542SOL    HW2 2651  11.225   9.869  10.522
67543SOL     OW 2652  11.361   9.830  11.032
67543SOL    HW1 2653  11.420   9.790  10.962
67543SOL    HW2 2654  11.303   9.901  10.991
67544SOL     OW 2655  12.541  10.260  10.970
67544SOL    HW1 2656  12.580  10.349  10.990
67544SOL    HW2 2657  12.551  10.240  10.873
67545SOL     OW 2658  11.987   9.882   9.635
67545SOL    HW1 2659  11.994   9.793   9.589
67545SOL    HW2 2660  11.893   9.916   9.627
67546SOL     OW 2661  11.424  10.874  11.054
67546SOL    HW1 2662  11.394  10.931  11.130
67546SOL    HW2 2663  11.417  10.777  11.080
67547SOL     OW 2664  11.843   9.774  10.579
67547SOL    HW1 2665  11.809   9.685  10.549
67547SOL    HW2 2666  11.869   9.828  10.499
67548SOL     OW 2667  12.102  10.988  10.775
67548SOL    HW1 2668  12.078  10.970  10.680
67548SOL    HW2 2669  12.132  11.082  10.785
67549SOL     OW 2670  11.645   9.810   9.501
67549SOL    HW1 2671  11.706   9.890   9.505
67549SOL    HW2 2672  11.550   9.841   9.508
67550SOL     OW 2673  11.331  10.447  10.776
67550SOL    HW1 2674  11.353  10.386  10.852
67550SOL    HW2 2675  11.341  10.398  10.690
67551SOL     OW 2676  12.519  10.369  10.544
67551SOL    HW1 2677  12.543  10.306  10.470
67551SOL    HW2 2678  12.429  10.409  10.526
67552SOL     OW 2679  12.474  10.165   9.619
67552SOL    HW1 2680  12.388  10.134   9.661
67552SOL    HW2 2681  12.470  10.151   9.520
67553SOL     OW 2682  12.424  11.041  10.438
67553SOL    HW1 2683  12.508  11.046  10.384
67553SOL    HW2 2684  12.401  10.945  10.456
67554SOL     OW 2685  11.255  10.568  10.332
67554SOL    HW1 2686  11.250  10.567  10.432
67554SOL    HW2 2687  11.172  10.527  10.294
67555SOL     OW 2688  11.860  10.972  11.026
67555SOL    HW1 2689  11.804  11.053  11.035
67555SOL    HW2 2690  11.912  10.976  10.940
67556SOL     OW 2691  12.898   9.445   9.833
67556SOL    HW1 2692  12.971   9.428   9.766
67556SOL    HW2 2693  12.867   9.358   9.871
67557SOL     OW 2694  12.560  10.883   9.787
67557SOL    HW1 2695  12.627  10.895   9.713
67557SOL    HW2 2696  12.520  10.972   9.810
67558SOL     OW 2697  11.302  11.104  11.161
67558SOL    HW1 2698  11.261  11.030  11.214
67558SOL    HW2 2699  11.366  11.155  11.219
67559SOL     OW 2700  12.452  10.237   9.982
67559SOL    HW1 2701  12.512  10.156   9.984
67559SOL    HW2 2702  12.492  10.306   9.922
67560SOL     OW 2703  12.002  10.583  10.732
67560SOL    HW1 2704  11.997  10.616  10.827
67560SOL    HW2 2705  11.916  10.602  10.686
67561SOL     OW 2706  11.844  10.926   9.464
67561SOL    HW1 2707  11.853  10.936   9.365
67561SOL    HW2 2708  11.804  10.837   9.485
67562SOL     OW 2709  11.435   9.636  10.030
67562SOL    HW1 2710  11.356   9.687   9.996
67562SOL    HW2 2711  11.426   9.621  10.128
67563SOL     OW 2712  12.366  10.922   9.341
67563SOL    HW1 2713  12.372  10.829   9.378
67563SOL    HW2 2714  12.307  10.922   9.261
67564SOL     OW 2715  11.994  10.312  10.682
67564SOL    HW1 2716  12.034  10.311  10.590
67564SOL    HW2 2717  12.004  10.404  10.722
67565SOL     OW 2718  12.088  10.220   9.601
67565SOL    HW1 2719  12.151  10.258   9.533
67565SOL    HW2 2720  12.128  10.137   9.640
67566SOL     OW 2721  12.676  10.917   9.354
67566SOL    HW1 2722  12.584  10.954   9.361
67566SOL    HW2 2723  12.714  10.937   9.264
67567SOL     OW 2724  11.544  10.598  10.800
67567SOL    HW1 2725  11.531  10.691  10.766
67567SOL    HW2 2726  11.460  10.546  10.787
67568SOL     OW 2727  12.211  10.408  10.006
67568SOL    HW1 2728  12.141  10.361  10.060
67568SOL    HW2 2729  12.270  10.340   9.963
67569SOL     OW 2730  12.186   9.546  10.281
67569SOL    HW1 2731  12.178   9.510  10.188
67569SOL    HW2 2732  12.184   9.470  10.346
67570SOL     OW 2733  11.762  10.797   9.801
67570SOL    HW1 2734  11.804  10.739   9.731
67570SOL    HW2 2735  11.718  10.876   9.757
67571SOL     OW 2736  11.427  10.658   9.600
67571SOL    HW1 2737  11.331  10.659   9.573
67571SOL    HW2 2738  11.439  10.711   9.684
67572SOL     OW 2739  11.277  10.323  11.036
67572SOL    HW1 2740  11.200  10.290  11.090
67572SOL    HW2 2741  11.362  10.293  11.078
67573SOL     OW 2742  11.844   9.513  10.799
67573SOL    HW1 2743  11.934   9.497  10.759
67573SOL    HW2 2744  11.852   9.518  10.898
67574SOL     OW 2745  11.247   9.655   9.343
67574SOL    HW1 2746  11.155   9.627   9.314
67574SOL    HW2 2747  11.278   9.732   9.287
67575SOL     OW 2748  12.612  10.166  10.708
67575SOL    HW1 2749  12.555  10.218  10.645
67575SOL    HW2 2750  12.708  10.178  10.684
67576SOL     OW 2751  11.244   9.476   9.628
67576SOL    HW1 2752  11.227   9.559   9.574
67576SOL    HW2 2753  11.334   9.439   9.606
67577SOL     OW 2754  12.355  10.645   9.429
67577SOL    HW1 2755  12.256  10.634   9.431
67577SOL    HW2 2756  12.389  10.660   9.522
67578SOL     OW 2757  11.785  10.152  10.741
67578SOL    HW1 2758  11.841  10.233  10.724
67578SOL    HW2 2759  11.844  10.072  10.744
67579SOL     OW 2760  12.665  11.077  10.269
67579SOL    HW1 2761  12.698  11.141  10.200
67579SOL    HW2 2762  12.731  11.071  10.344
67580SOL     OW 2763  11.888   9.875  11.018
67580SOL    HW1 2764  11.907   9.940  11.092
67580SOL    HW2 2765  11.948   9.795  11.027
67581SOL     OW 2766  12.622  10.530  10.943
67581SOL    HW1 2767  12.613  10.520  11.042
67581SOL    HW2 2768  12.718  10.523  10.917
67582SOL     OW 2769  11.562  11.051  10.870
67582SOL    HW1 2770  11.471  11.092  10.868
67582SOL    HW2 2771  11.555  10.957  10.902
67583SOL     OW 2772  12.397   9.635   9.759
67583SOL    HW1 2773  12.462   9.561   9.748
67583SOL    HW2 2774  12.417   9.685   9.843
67584SOL     OW 2775  11.766  10.055   9.962
67584SOL    HW1 2776  11.816  10.140   9.943
67584SOL    HW2 2777  11.678  10.057   9.914
67585SOL     OW 2778  12.031  10.684   9.326
67585SOL    HW1 2779  11.985  10.699   9.414
67585SOL    HW2 2780  12.075  10.769   9.296
67586SOL     OW 2781  11.833  11.100  10.263
67586SOL    HW1 2782  11.787  11.188  10.250
67586SOL    HW2 2783  11.932  11.112  10.256
67587SOL     OW 2784  12.031  10.266  10.171
67587SOL    HW1 2785  12.085  10.197  10.219
67587SOL    HW2 2786  11.999  10.335  10.237
67588SOL     OW 2787  12.255  10.294   9.397
67588SOL    HW1 2788  12.232  10.347   9.315
67588SOL    HW2 2789  12.336  10.238   9.378
67589SOL     OW 2790  13.033  10.879  10.161
67589SOL    HW1 2791  12.962  10.867  10.091
67589SOL    HW2 2792  13.034  10.800  10.221
67590SOL     OW 2793  11.393  10.624  11.154
67590SOL    HW1 2794  11.328  10.551  11.133
67590SOL    HW2 2795  11.397  10.638  11.252
67591SOL     OW 2796  11.251  10.550   9.963
67591SOL    HW1 2797  11.250  10.503  10.051
67591SOL    HW2 2798  11.333  10.522   9.912
67592SOL     OW 2799  11.844  10.701  10.934
67592SOL    HW1 2800  11.766  10.651  10.972
67592SOL    HW2 2801  11.841  10.796  10.965
67593SOL     OW 2802  11.600   9.734   9.830
67593SOL    HW1 2803  11.630   9.662   9.768
67593SOL    HW2 2804  11.561   9.694   9.913
67594SOL     OW 2805  11.489   9.857  10.590
67594SOL    HW1 2806  11.527   9.798  10.662
67594SOL    HW2 2807  11.529   9.831  10.502
67595SOL     OW 2808  11.984  10.896   9.997
67595SOL    HW1 2809  12.016  10.906   9.903
67595SOL    HW2 2810  11.905  10.834   9.999
67596SOL     OW 2811  12.596   9.524  10.422
67596SOL    HW1 2812  12.648   9.459  10.477
67596SOL    HW2 2813  12.547   9.587  10.483
67597SOL     OW 2814  12.173   9.344  10.464
67597SOL    HW1 2815  12.110   9.272  10.433
67597SOL    HW2 2816  12.266   9.308  10.464
67598SOL     OW 2817  11.942  10.640   9.611
67598SOL    HW1 2818  11.896  10.553   9.628
67598SOL    HW2 2819  12.033  10.637   9.652
67599SOL     OW 2820  11.790  10.877  10.594
67599SOL    HW1 2821  11.785  10.959  10.651
67599SOL    HW2 2822  11.879  10.874  10.549
67600SOL     OW 2823  12.524   9.362   9.478
67600SOL    HW1 2824  12.559   9.321   9.394
67600SOL    HW2 2825  12.434   9.324   9.498
67601SOL     OW 2826  12.472   9.763  10.001
67601SOL    HW1 2827  12.413   9.843  10.005
67601SOL    HW2 2828  12.487   9.728  10.094
67602SOL     OW 2829  12.765   9.531  10.192
67602SOL    HW1 2830  12.681   9.530  10.246
67602SOL    HW2 2831  12.767   9.614  10.136
67603SOL     OW 2832  11.211  10.387   9.610
67603SOL    HW1 2833  11.310  10.376   9.601
67603SOL    HW2 2834  11.171  10.301   9.642
67604SOL     OW 2835  12.047  10.956   9.647
67604SOL    HW1 2836  11.970  10.921   9.593
67604SOL    HW2 2837  12.015  11.027   9.709
67605SOL     OW 2838  11.402   9.938  11.285
67605SOL    HW1 2839  11.309   9.936  11.322
67605SOL    HW2 2840  11.403   9.899  11.193
67606SOL     OW 2841  11.397   9.585  12.168
67606SOL    HW1 2842  11.432   9.568  12.260
67606SOL    HW2 2843  11.309   9.540  12.156
67607SOL     OW 2844  11.191   9.678  11.819
67607SOL    HW1 2845  11.109   9.721  11.858
67607SOL    HW2 2846  11.163   9.605  11.756
67608SOL     OW 2847  11.741  10.585  12.337
67608SOL    HW1 2848  11.648  10.578  12.300
67608SOL    HW2 2849  11.752  10.674  12.381
67609SOL     OW 2850  12.727  10.821  11.875
67609SOL    HW1 2851  12.670  10.805  11.956
67609SOL    HW2 2852  12.668  10.831  11.795
67610SOL     OW 2853  12.307  10.013  11.889
67610SOL    HW1 2854  12.364  10.091  11.864
67610SOL    HW2 2855  12.247  10.039  11.965
67611SOL     OW 2856  11.940  10.454  12.195
67611SOL    HW1 2857  11.862  10.471  12.255
67611SOL    HW2 2858  11.974  10.541  12.159
67612SOL     OW 2859  11.857  10.322  11.837
67612SOL    HW1 2860  11.926  10.306  11.907
67612SOL    HW2 2861  11.784  10.379  11.875
67613SOL     OW 2862  11.507  10.745  12.233
67613SOL    HW1 2863  11.429  10.714  12.180
67613SOL    HW2 2864  11.565  10.803  12.176
67614SOL     OW 2865  12.632  10.815  12.511
67614SOL    HW1 2866  12.656  10.909  12.537
67614SOL    HW2 2867  12.616  10.761  12.593
67615SOL     OW 2868  11.610   9.702  12.671
67615SOL    HW1 2869  11.692   9.646  12.680
67615SOL    HW2 2870  11.529   9.644  12.675
67616SOL     OW 2871  11.403  11.023  11.655
67616SOL    HW1 2872  11.437  11.100  11.709
67616SOL    HW2 2873  11.447  11.023  11.565
67617SOL     OW 2874  11.402  10.744  11.710
67617SOL    HW1 2875  11.376  10.840  11.710
67617SOL    HW2 2876  11.331  10.690  11.755
67618SOL     OW 2877  11.412  10.401  12.058
67618SOL    HW1 2878  11.426  10.317  12.110
67618SOL    HW2 2879  11.357  10.465  12.113
67619SOL     OW 2880  11.792  11.096  12.611
67619SOL    HW1 2881  11.700  11.079  12.646
67619SOL    HW2 2882  11.820  11.188  12.637
67620SOL     OW 2883  11.778  10.274  11.295
67620SOL    HW1 2884  11.785  10.358  11.241
67620SOL    HW2 2885  11.824  10.287  11.383
67621SOL     OW 2886  12.766   9.424  12.652
67621SOL    HW1 2887  12.748   9.491  12.580
67621SOL    HW2 2888  12.763   9.470  12.741
67622SOL     OW 2889  11.294   9.953  11.735
67622SOL    HW1 2890  11.249   9.865  11.752
67622SOL    HW2 2891  11.293  10.007  11.819
67623SOL     OW 2892  11.199  10.906  11.289
67623SOL    HW1 2893  11.180  10.810  11.310
67623SOL    HW2 2894  11.166  10.964  11.364
67624SOL     OW 2895  12.861  10.232  11.784
67624SOL    HW1 2896  12.956  10.203  11.792
67624SOL    HW2 2897  12.853  10.297  11.709
67625SOL     OW 2898  11.285  10.047  12.769
67625SOL    HW1 2899  11.373  10.034  12.814
67625SOL    HW2 2900  11.272  10.144  12.747
67626SOL     OW 2901  11.785  10.675  11.898
67626SOL    HW1 2902  11.736  10.588  11.907
67626SOL    HW2 2903  11.762  10.718  11.811
67627SOL     OW 2904  12.465  10.538  12.595
67627SOL    HW1 2905  12.502  10.465  12.537
67627SOL    HW2 2906  12.517  10.543  12.680
67628SOL     OW 2907  11.981   9.314  11.674
67628SOL    HW1 2908  12.021   9.405  11.665
67628SOL    HW2 2909  11.881   9.322  11.680
67629SOL     OW 2910  11.369  10.286  12.436
67629SOL    HW1 2911  11.458  10.241  12.422
67629SOL    HW2 2912  11.296  10.221  12.417
67630SOL     OW 2913  12.638  10.727  12.125
67630SOL    HW1 2914  12.579  10.733  12.205
67630SOL    HW2 2915  12.623  10.639  12.079
67631SOL     OW 2916  12.839  11.024  11.744
67631SOL    HW1 2917  12.798  11.001  11.656
67631SOL    HW2 2918  12.821  10.950  11.809
67632SOL     OW 2919  11.770  10.039  11.442
67632SOL    HW1 2920  11.794  10.108  11.374
67632SOL    HW2 2921  11.692  10.072  11.496
67633SOL     OW 2922  12.453   9.655  12.116
67633SOL    HW1 2923  12.367   9.605  12.103
67633SOL    HW2 2924  12.515   9.601  12.172
67634SOL     OW 2925  11.979   9.915  12.637
67634SOL    HW1 2926  11.932   9.912  12.726
67634SOL    HW2 2927  11.928   9.860  12.571
67635SOL     OW 2928  12.145  10.200  12.744
67635SOL    HW1 2929  12.191  10.116  12.715
67635SOL    HW2 2930  12.089  10.234  12.669
67636SOL     OW 2931  12.163   9.720  12.414
67636SOL    HW1 2932  12.086   9.754  12.468
67636SOL    HW2 2933  12.129   9.669  12.335
67637SOL     OW 2934  12.213  10.011  11.601
67637SOL    HW1 2935  12.239  10.007  11.697
67637SOL    HW2 2936  12.128   9.960  11.587
67638SOL     OW 2937  11.248  10.121  11.961
67638SOL    HW1 2938  11.347  10.109  11.970
67638SOL    HW2 2939  11.224  10.216  11.982
67639SOL     OW 2940  11.302  11.131  12.743
67639SOL    HW1 2941  11.292  11.116  12.842
67639SOL    HW2 2942  11.216  11.167  12.707
67640SOL     OW 2943  12.037   9.658  11.367
67640SOL    HW1 2944  12.096   9.721  11.318
67640SOL    HW2 2945  12.056   9.564  11.338
67641SOL     OW 2946  12.534  10.454  11.717
67641SOL    HW1 2947  12.617  10.425  11.669
67641SOL    HW2 2948  12.485  10.521  11.661
67642SOL     OW 2949  11.722   9.506  12.057
67642SOL    HW1 2950  11.717   9.501  12.157
67642SOL    HW2 2951  11.724   9.602  12.028
67643SOL     OW 2952  12.180  10.766  11.649
67643SOL    HW1 2953  12.134  10.838  11.597
67643SOL    HW2 2954  12.176  10.786  11.747
67644SOL     OW 2955  11.523  11.111  12.025
67644SOL    HW1 2956  11.573  11.025  12.031
67644SOL    HW2 2957  11.588  11.188  12.022
67645SOL     OW 2958  12.399  10.860  12.678
67645SOL    HW1 2959  12.405  10.783  12.742
67645SOL    HW2 2960  12.347  10.834  12.598
67646SOL     OW 2961  11.493  10.253  11.414
67646SOL    HW1 2962  11.575  10.292  11.372
67646SOL    HW2 2963  11.466  10.171  11.365
67647SOL     OW 2964  12.630  10.045  11.900
67647SOL    HW1 2965  12.625   9.980  11.975
67647SOL    HW2 2966  12.710  10.104  11.913
67648SOL     OW 2967  12.283  11.086  11.409
67648SOL    HW1 2968  12.223  11.024  11.459
67648SOL    HW2 2969  12.314  11.042  11.324
67649SOL     OW 2970  11.374   9.595  12.670
67649SOL    HW1 2971  11.294   9.655  12.657
67649SOL    HW2 2972  11.364   9.546  12.756
67650SOL     OW 2973  11.636  11.053  11.495
67650SOL    HW1 2974  11.669  11.092  11.581
67650SOL    HW2 2975  11.712  11.046  11.430
67651SOL     OW 2976  12.572   9.417  11.598
67651SOL    HW1 2977  12.548   9.380  11.508
67651SOL    HW2 2978  12.671   9.433  11.602
67652SOL     OW 2979  11.421  11.095  12.413
67652SOL    HW1 2980  11.478  11.030  12.463
67652SOL    HW2 2981  11.405  11.062  12.320
67653SOL     OW 2982  12.112  11.008  12.076
67653SOL    HW1 2983  12.192  10.951  12.097
67653SOL    HW2 2984  12.063  10.968  11.999
67654SOL     OW 2985  11.554  10.010  11.652
67654SOL    HW1 2986  11.599   9.920  11.649
67654SOL    HW2 2987  11.460   9.999  11.685
67655SOL     OW 2988  11.786   9.432  11.289
67655SOL    HW1 2989  11.884   9.410  11.296
67655SOL    HW2 2990  11.755   9.415  11.196
67656SOL     OW 2991  12.060  10.824  12.367
67656SOL    HW1 2992  12.037  10.799  12.273
67656SOL    HW2 2993  12.121  10.755  12.406
67657SOL     OW 2994  12.523   9.900  12.605
67657SOL    HW1 2995  12.551   9.857  12.690
67657SOL    HW2 2996  12.548   9.996  12.606
67658SOL     OW 2997  11.975  10.712  12.096
67658SOL    HW1 2998  12.065  10.726  12.054
67658SOL    HW2 2999  11.904  10.714  12.025
67659SOL     OW 3000  12.094   9.813  12.071
67659SOL    HW1 3001  12.069   9.804  11.975
67659SOL    HW2 3002  12.142   9.731  12.102
67660SOL     OW 3003  11.711   9.374  11.684
67660SOL    HW1 3004  11.630   9.375  11.742
67660SOL    HW2 3005  11.714   9.457  11.629
67661SOL     OW 3006  12.606  10.498  11.213
67661SOL    HW1 3007  12.638  10.422  11.270
67661SOL    HW2 3008  12.514  10.525  11.243
67662SOL     OW 3009  11.469   9.345  11.343
67662SOL    HW1 3010  11.518   9.429  11.322
67662SOL    HW2 3011  11.531   9.280  11.388
67663SOL     OW 3012  12.107   9.546  11.652
67663SOL    HW1 3013  12.059   9.587  11.574
67663SOL    HW2 3014  12.206   9.544  11.633
67664SOL     OW 3015  12.248   9.993  12.636
67664SOL    HW1 3016  12.168   9.932  12.639
67664SOL    HW2 3017  12.329   9.940  12.612
67665SOL     OW 3018  12.399  10.880  11.965
67665SOL    HW1 3019  12.420  10.954  11.900
67665SOL    HW2 3020  12.467  10.880  12.038
67666SOL     OW 3021  11.631  10.462  11.913
67666SOL    HW1 3022  11.560  10.435  11.978
67666SOL    HW2 3023  11.605  10.434  11.820
67667SOL     OW 3024  12.443  11.107  11.763
67667SOL    HW1 3025  12.487  11.171  11.699
67667SOL    HW2 3026  12.393  11.159  11.833
67668SOL     OW 3027  12.204   9.859  11.188
67668SOL    HW1 3028  12.163   9.941  11.149
67668SOL    HW2 3029  12.268   9.885  11.261
67669SOL     OW 3030  11.250   9.866  12.558
67669SOL    HW1 3031  11.342   9.865  12.517
67669SOL    HW2 3032  11.244   9.940  12.625
67670SOL     OW 3033  11.733   9.532  12.319
67670SOL    HW1 3034  11.771   9.448  12.356
67670SOL    HW2 3035  11.645   9.551  12.363
67671SOL     OW 3036  12.038   9.764  11.814
67671SOL    HW1 3037  12.006   9.836  11.752
67671SOL    HW2 3038  12.062   9.683  11.761
67672SOL     OW 3039  12.189   9.349  11.925
67672SOL    HW1 3040  12.117   9.354  11.856
67672SOL    HW2 3041  12.165   9.280  11.994
67673SOL     OW 3042  12.601  10.483  12.039
67673SOL    HW1 3043  12.546  10.399  12.032
67673SOL    HW2 3044  12.627  10.512  11.947
67674SOL     OW 3045  12.638   9.900  12.164
67674SOL    HW1 3046  12.608   9.805  12.171
67674SOL    HW2 3047  12.711   9.916  12.230
67675SOL     OW 3048  11.660  10.695  11.346
67675SOL    HW1 3049  11.573  10.680  11.393
67675SOL    HW2 3050  11.643  10.721  11.251
67676SOL     OW 3051  12.562   9.885  11.250
67676SOL    HW1 3052  12.508   9.864  11.331
67676SOL    HW2 3053  12.653   9.844  11.259
67677SOL     OW 3054  11.699   9.566  11.500
67677SOL    HW1 3055  11.726   9.507  11.425
67677SOL    HW2 3056  11.699   9.661  11.469
67678SOL     OW 3057  12.236  10.657  12.512
67678SOL    HW1 3058  12.156  10.634  12.567
67678SOL    HW2 3059  12.319  10.631  12.561
67679SOL     OW 3060  12.283  10.505  12.272
67679SOL    HW1 3061  12.243  10.549  12.353
67679SOL    HW2 3062  12.242  10.542  12.189
67680SOL     OW 3063  12.087   9.399  12.574
67680SOL    HW1 3064  12.112   9.379  12.479
67680SOL    HW2 3065  12.159   9.455  12.616
67681SOL     OW 3066  11.877  10.360  11.540
67681SOL    HW1 3067  11.863  10.367  11.639
67681SOL    HW2 3068  11.961  10.309  11.522
67682SOL     OW 3069  11.582  10.123  12.423
67682SOL    HW1 3070  11.668  10.135  12.473
67682SOL    HW2 3071  11.540  10.036  12.450
67683SOL     OW 3072  12.446   9.696  12.434
67683SOL    HW1 3073  12.467   9.770  12.498
67683SOL    HW2 3074  12.357   9.713  12.391
67684SOL     OW 3075  11.236  10.874  12.503
67684SOL    HW1 3076  11.190  10.956  12.469
67684SOL    HW2 3077  11.334  10.893  12.512
67685SOL     OW 3078  11.539  10.410  11.673
67685SOL    HW1 3079  11.532  10.493  11.617
67685SOL    HW2 3080  11.543  10.330  11.613
67686SOL     OW 3081  11.738   9.847  12.037
67686SOL    HW1 3082  11.750   9.913  11.963
67686SOL    HW2 3083  11.784   9.881  12.120
67687SOL     OW 3084  12.424  10.658  11.560
67687SOL    HW1 3085  12.474  10.735  11.600
67687SOL    HW2 3086  12.329  10.660  11.592
67688SOL     OW 3087  12.444  10.755  12.314
67688SOL    HW1 3088  12.491  10.768  12.401
67688SOL    HW2 3089  12.378  10.681  12.323
67689SOL     OW 3090  12.754   9.949  11.644
67689SOL    HW1 3091  12.723  10.010  11.717
67689SOL    HW2 3092  12.804  10.001  11.575
67690SOL     OW 3093  11.526  10.820  12.501
67690SOL    HW1 3094  11.505  10.776  12.414
67690SOL    HW2 3095  11.623  10.846  12.504
67691SOL     OW 3096  11.574  10.061  12.770
67691SOL    HW1 3097  11.642  10.116  12.723
67691SOL    HW2 3098  11.614   9.973  12.797
67692SOL     OW 3099  11.745  10.180  12.201
67692SOL    HW1 3100  11.789  10.269  12.192
67692SOL    HW2 3101  11.682  10.180  12.278
67693SOL     OW 3102  12.532  10.172  12.217
67693SOL    HW1 3103  12.457  10.172  12.151
67693SOL    HW2 3104  12.569  10.080  12.226
67694SOL     OW 3105  12.381   9.835  11.447
67694SOL    HW1 3106  12.394   9.751  11.501
67694SOL    HW2 3107  12.352   9.909  11.507
67695SOL     OW 3108  11.479   9.523  12.403
67695SOL    HW1 3109  11.456   9.560  12.493
67695SOL    HW2 3110  11.449   9.428  12.397
67696SOL     OW 3111  11.209  10.620  12.454
67696SOL    HW1 3112  11.262  10.571  12.522
67696SOL    HW2 3113  11.231  10.718  12.459
67697SOL     OW 3114  11.904   9.944  12.236
67697SOL    HW1 3115  11.963   9.918  12.160
67697SOL    HW2 3116  11.876  10.040  12.225
67698SOL     OW 3117  11.479   9.373  11.790
67698SOL    HW1 3118  11.468   9.467  11.823
67698SOL    HW2 3119  11.474   9.310  11.867
67699SOL     OW 3120  12.794   9.677  11.546
67699SOL    HW1 3121  12.796   9.601  11.610
67699SOL    HW2 3122  12.746   9.754  11.586
67700SOL     OW 3123  12.195  10.076  12.138
67700SOL    HW1 3124  12.210  10.097  12.234
67700SOL    HW2 3125  12.165   9.981  12.129
67701SOL     OW 3126  12.712   9.584  11.297
67701SOL    HW1 3127  12.651   9.509  11.320
67701SOL    HW2 3128  12.734   9.636  11.380
67702SOL     OW 3129  12.475  10.148  11.214
67702SOL    HW1 3130  12.509  10.055  11.229
67702SOL    HW2 3131  12.493  10.175  11.119
67703SOL     OW 3132  12.240  10.643  12.021
67703SOL    HW1 3133  12.247  10.559  11.966
67703SOL    HW2 3134  12.302  10.712  11.985
67704SOL     OW 3135  11.491  10.120  12.121
67704SOL    HW1 3136  11.584  10.156  12.126
67704SOL    HW2 3137  11.485  10.035  12.173
67705SOL     OW 3138  11.511   9.819  12.178
67705SOL    HW1 3139  11.459   9.736  12.161
67705SOL    HW2 3140  11.588   9.824  12.114
67706SOL     OW 3141  12.332   9.517  12.649
67706SOL    HW1 3142  12.332   9.581  12.726
67706SOL    HW2 3143  12.360   9.565  12.566
67707SOL     OW 3144  11.180  10.636  11.372
67707SOL    HW1 3145  11.087  10.657  11.341
67707SOL    HW2 3146  11.190  10.537  11.385
67708SOL     OW 3147  11.260  11.111  12.099
67708SOL    HW1 3148  11.218  11.025  12.072
67708SOL    HW2 3149  11.354  11.114  12.065
67709SOL     OW 3150  11.676  10.878  12.082
67709SOL    HW1 3151  11.742  10.952  12.091
67709SOL    HW2 3152  11.720  10.799  12.040
67710SOL     OW 3153  12.174  10.106  12.410
67710SOL    HW1 3154  12.215  10.074  12.496
67710SOL    HW2 3155  12.078  10.079  12.407
67711SOL     OW 3156  11.212   9.854  12.286
67711SOL    HW1 3157  11.297   9.821  12.245
67711SOL    HW2 3158  11.225   9.869  12.384
67712SOL     OW 3159  11.987   9.882  11.497
67712SOL    HW1 3160  11.994   9.793  11.451
67712SOL    HW2 3161  11.893   9.916  11.489
67713SOL     OW 3162  11.424  10.874  12.916
67713SOL    HW1 3163  11.394  10.931  12.992
67713SOL    HW2 3164  11.417  10.777  12.942
67714SOL     OW 3165  11.843   9.774  12.441
67714SOL    HW1 3166  11.809   9.685  12.411
67714SOL    HW2 3167  11.869   9.828  12.361
67715SOL     OW 3168  12.102  10.988  12.637
67715SOL    HW1 3169  12.078  10.970  12.542
67715SOL    HW2 3170  12.132  11.082  12.647
67716SOL     OW 3171  11.645   9.810  11.363
67716SOL    HW1 3172  11.706   9.890  11.367
67716SOL    HW2 3173  11.550   9.841  11.370
67717SOL     OW 3174  11.331  10.447  12.638
67717SOL    HW1 3175  11.353  10.386  12.714
67717SOL    HW2 3176  11.341  10.398  12.552
67718SOL     OW 3177  12.519  10.369  12.406
67718SOL    HW1 3178  12.543  10.306  12.332
67718SOL    HW2 3179  12.429  10.409  12.388
67719SOL     OW 3180  12.474  10.165  11.481
67719SOL    HW1 3181  12.388  10.134  11.523
67719SOL    HW2 3182  12.470  10.151  11.382
67720SOL     OW 3183  12.424  11.041  12.300
67720SOL    HW1 3184  12.508  11.046  12.246
67720SOL    HW2 3185  12.401  10.945  12.318
67721SOL     OW 3186  11.255  10.568  12.194
67721SOL    HW1 3187  11.250  10.567  12.294
67721SOL    HW2 3188  11.172  10.527  12.156
67722SOL     OW 3189  12.898   9.445  11.695
67722SOL    HW1 3190  12.971   9.428  11.628
67722SOL    HW2 3191  12.867   9.358  11.733
67723SOL     OW 3192  12.560  10.883  11.649
67723SOL    HW1 3193  12.627  10.895  11.575
67723SOL    HW2 3194  12.520  10.972  11.672
67724SOL     OW 3195  12.452  10.237  11.844
67724SOL    HW1 3196  12.512  10.156  11.846
67724SOL    HW2 3197  12.492  10.306  11.784
67725SOL     OW 3198  12.002  10.583  12.594
67725SOL    HW1 3199  11.997  10.616  12.689
67725SOL    HW2 3200  11.916  10.602  12.548
67726SOL     OW 3201  11.844  10.926  11.326
67726SOL    HW1 3202  11.853  10.936  11.227
67726SOL    HW2 3203  11.804  10.837  11.347
67727SOL     OW 3204  11.435   9.636  11.892
67727SOL    HW1 3205  11.356   9.687  11.858
67727SOL    HW2 3206  11.426   9.621  11.990
67728SOL     OW 3207  12.366  10.922  11.203
67728SOL    HW1 3208  12.372  10.829  11.240
67728SOL    HW2 3209  12.307  10.922  11.123
67729SOL     OW 3210  11.994  10.312  12.544
67729SOL    HW1 3211  12.034  10.311  12.452
67729SOL    HW2 3212  12.004  10.404  12.584
67730SOL     OW 3213  12.088  10.220  11.463
67730SOL    HW1 3214  12.151  10.258  11.395
67730SOL    HW2 3215  12.128  10.137  11.502
67731SOL     OW 3216  12.676  10.917  11.216
67731SOL    HW1 3217  12.584  10.954  11.223
67731SOL    HW2 3218  12.714  10.937  11.126
67732SOL     OW 3219  11.544  10.598  12.662
67732SOL    HW1 3220  11.531  10.691  12.628
67732SOL    HW2 3221  11.460  10.546  12.649
67733SOL     OW 3222  12.211  10.408  11.868
67733SOL    HW1 3223  12.141  10.361  11.922
67733SOL    HW2 3224  12.270  10.340  11.825
67734SOL     OW 3225  12.186   9.546  12.143
67734SOL    HW1 3226  12.178   9.510  12.050
67734SOL    HW2 3227  12.184   9.470  12.208
67735SOL     OW 3228  11.762  10.797  11.663
67735SOL    HW1 3229  11.804  10.739  11.593
67735SOL    HW2 3230  11.718  10.876  11.619
67736SOL     OW 3231  11.427  10.658  11.462
67736SOL    HW1 3232  11.331  10.659  11.435
67736SOL    HW2 3233  11.439  10.711  11.546
67737SOL     OW 3234  11.277  10.323  12.898
67737SOL    HW1 3235  11.200  10.290  12.952
67737SOL    HW2 3236  11.362  10.293  12.940
67738SOL     OW 3237  11.844   9.513  12.661
67738SOL    HW1 3238  11.934   9.497  12.621
67738SOL    HW2 3239  11.852   9.518  12.760
67739SOL     OW 3240  11.247   9.655  11.205
67739SOL    HW1 3241  11.155   9.627  11.176
67739SOL    HW2 3242  11.278   9.732  11.149
67740SOL     OW 3243  12.612  10.166  12.570
67740SOL    HW1 3244  12.555  10.218  12.507
67740SOL    HW2 3245  12.708  10.178  12.546
67741SOL     OW 3246  11.244   9.476  11.490
67741SOL    HW1 3247  11.227   9.559  11.436
67741SOL    HW2 3248  11.334   9.439  11.468
67742SOL     OW 3249  12.355  10.645  11.291
67742SOL    HW1 3250  12.256  10.634  11.293
67742SOL    HW2 3251  12.389  10.660  11.384
67743SOL     OW 3252  11.785  10.152  12.603
67743SOL    HW1 3253  11.841  10.233  12.586
67743SOL    HW2 3254  11.844  10.072  12.606
67744SOL     OW 3255  12.665  11.077  12.131
67744SOL    HW1 3256  12.698  11.141  12.062
67744SOL    HW2 3257  12.731  11.071  12.206
67745SOL     OW 3258  11.888   9.875  12.880
67745SOL    HW1 3259  11.907   9.940  12.954
67745SOL    HW2 3260  11.948   9.795  12.889
67746SOL     OW 3261  11.562  11.051  12.732
67746SOL    HW1 3262  11.471  11.092  12.730
67746SOL    HW2 3263  11.555  10.957  12.764
67747SOL     OW 3264  12.397   9.635  11.621
67747SOL    HW1 3265  12.462   9.561  11.610
67747SOL    HW2 3266  12.417   9.685  11.705
67748SOL     OW 3267  11.766  10.055  11.824
67748SOL    HW1 3268  11.816  10.140  11.805
67748SOL    HW2 3269  11.678  10.057  11.776
67749SOL     OW 3270  12.031  10.684  11.188
67749SOL    HW1 3271  11.985  10.699  11.276
67749SOL    HW2 3272  12.075  10.769  11.158
67750SOL     OW 3273  11.833  11.100  12.125
67750SOL    HW1 3274  11.787  11.188  12.112
67750SOL    HW2 3275  11.932  11.112  12.118
67751SOL     OW 3276  12.031  10.266  12.033
67751SOL    HW1 3277  12.085  10.197  12.081
67751SOL    HW2 3278  11.999  10.335  12.099
67752SOL     OW 3279  12.255  10.294  11.259
67752SOL    HW1 3280  12.232  10.347  11.177
67752SOL    HW2 3281  12.336  10.238  11.240
67753SOL     OW 3282  13.033  10.879  12.023
67753SOL    HW1 3283  12.962  10.867  11.953
67753SOL    HW2 3284  13.034  10.800  12.083
67754SOL     OW 3285  11.251  10.550  11.825
67754SOL    HW1 3286  11.250  10.503  11.913
67754SOL    HW2 3287  11.333  10.522  11.774
67755SOL     OW 3288  11.844  10.701  12.796
67755SOL    HW1 3289  11.766  10.651  12.834
67755SOL    HW2 3290  11.841  10.796  12.827
67756SOL     OW 3291  11.600   9.734  11.692
67756SOL    HW1 3292  11.630   9.662  11.630
67756SOL    HW2 3293  11.561   9.694  11.775
67757SOL     OW 3294  11.489   9.857  12.452
67757SOL    HW1 3295  11.527   9.798  12.524
67757SOL    HW2 3296  11.529   9.831  12.364
67758SOL     OW 3297  11.984  10.896  11.859
67758SOL    HW1 3298  12.016  10.906  11.765
67758SOL    HW2 3299  11.905  10.834  11.861
67759SOL     OW 3300  12.596   9.524  12.284
67759SOL    HW1 3301  12.648   9.459  12.339
67759SOL    HW2 3302  12.547   9.587  12.345
67760SOL     OW 3303  12.173   9.344  12.326
67760SOL    HW1 3304  12.110   9.272  12.295
67760SOL    HW2 3305  12.266   9.308  12.326
67761SOL     OW 3306  11.942  10.640  11.473
67761SOL    HW1 3307  11.896  10.553  11.490
67761SOL    HW2 3308  12.033  10.637  11.514
67762SOL     OW 3309  11.790  10.877  12.456
67762SOL    HW1 3310  11.785  10.959  12.513
67762SOL    HW2 3311  11.879  10.874  12.411
67763SOL     OW 3312  12.524   9.362  11.340
67763SOL    HW1 3313  12.559   9.321  11.256
67763SOL    HW2 3314  12.434   9.324  11.360
67764SOL     OW 3315  12.472   9.763  11.863
67764SOL    HW1 3316  12.413   9.843  11.867
67764SOL    HW2 3317  12.487   9.728  11.956
67765SOL     OW 3318  12.765   9.531  12.054
67765SOL    HW1 3319  12.681   9.530  12.108
67765SOL    HW2 3320  12.767   9.614  11.998
67766SOL     OW 3321  11.211  10.387  11.472
67766SOL    HW1 3322  11.310  10.376  11.463
67766SOL    HW2 3323  11.171  10.301  11.504
67767SOL     OW 3324  12.047  10.956  11.509
67767SOL    HW1 3325  11.970  10.921  11.455
67767SOL    HW2 3326  12.015  11.027  11.571
67768SOL     OW 3327  11.402  11.800   0.113
67768SOL    HW1 3328  11.309  11.798   0.150
67768SOL    HW2 3329  11.403  11.761   0.021
67769SOL     OW 3330  11.397  11.447   0.996
67769SOL    HW1 3331  11.432  11.430   1.088
67769SOL    HW2 3332  11.309  11.402   0.984
67770SOL     OW 3333  11.191  11.540   0.647
67770SOL    HW1 3334  11.109  11.583   0.686
67770SOL    HW2 3335  11.163  11.467   0.584
67771SOL     OW 3336  11.741  12.447   1.165
67771SOL    HW1 3337  11.648  12.440   1.128
67771SOL    HW2 3338  11.752  12.536   1.209
67772SOL     OW 3339  12.727  12.683   0.703
67772SOL    HW1 3340  12.670  12.667   0.784
67772SOL    HW2 3341  12.668  12.693   0.623
67773SOL     OW 3342  12.307  11.875   0.717
67773SOL    HW1 3343  12.364  11.953   0.692
67773SOL    HW2 3344  12.247  11.901   0.793
67774SOL     OW 3345  11.940  12.316   1.023
67774SOL    HW1 3346  11.862  12.333   1.083
67774SOL    HW2 3347  11.974  12.403   0.987
67775SOL     OW 3348  12.022  11.970   1.823
67775SOL    HW1 3349  12.018  12.046   1.888
67775SOL    HW2 3350  12.044  12.006   1.732
67776SOL     OW 3351  11.857  12.184   0.665
67776SOL    HW1 3352  11.926  12.168   0.735
67776SOL    HW2 3353  11.784  12.241   0.703
67777SOL     OW 3354  11.858  12.333   1.803
67777SOL    HW1 3355  11.918  12.412   1.817
67777SOL    HW2 3356  11.772  12.364   1.762
67778SOL     OW 3357  11.507  12.607   1.061
67778SOL    HW1 3358  11.429  12.576   1.008
67778SOL    HW2 3359  11.565  12.665   1.004
67779SOL     OW 3360  12.632  12.677   1.339
67779SOL    HW1 3361  12.656  12.771   1.365
67779SOL    HW2 3362  12.616  12.623   1.421
67780SOL     OW 3363  11.610  11.564   1.499
67780SOL    HW1 3364  11.692  11.508   1.508
67780SOL    HW2 3365  11.529  11.506   1.503
67781SOL     OW 3366  12.299  12.513   1.690
67781SOL    HW1 3367  12.346  12.513   1.778
67781SOL    HW2 3368  12.251  12.426   1.679
67782SOL     OW 3369  11.402  12.606   0.538
67782SOL    HW1 3370  11.376  12.702   0.538
67782SOL    HW2 3371  11.331  12.552   0.583
67783SOL     OW 3372  11.412  12.263   0.886
67783SOL    HW1 3373  11.426  12.179   0.938
67783SOL    HW2 3374  11.357  12.327   0.941
67784SOL     OW 3375  11.778  12.136   0.123
67784SOL    HW1 3376  11.785  12.220   0.069
67784SOL    HW2 3377  11.824  12.149   0.211
67785SOL     OW 3378  12.766  11.286   1.480
67785SOL    HW1 3379  12.748  11.353   1.408
67785SOL    HW2 3380  12.763  11.332   1.569
67786SOL     OW 3381  11.294  11.815   0.563
67786SOL    HW1 3382  11.249  11.727   0.580
67786SOL    HW2 3383  11.293  11.869   0.647
67787SOL     OW 3384  11.199  12.768   0.117
67787SOL    HW1 3385  11.180  12.672   0.138
67787SOL    HW2 3386  11.166  12.826   0.192
67788SOL     OW 3387  12.861  12.094   0.612
67788SOL    HW1 3388  12.956  12.065   0.620
67788SOL    HW2 3389  12.853  12.159   0.537
67789SOL     OW 3390  11.285  11.909   1.597
67789SOL    HW1 3391  11.373  11.896   1.642
67789SOL    HW2 3392  11.272  12.006   1.575
67790SOL     OW 3393  11.785  12.537   0.726
67790SOL    HW1 3394  11.736  12.450   0.735
67790SOL    HW2 3395  11.762  12.580   0.639
67791SOL     OW 3396  12.465  12.400   1.423
67791SOL    HW1 3397  12.502  12.327   1.365
67791SOL    HW2 3398  12.517  12.405   1.508
67792SOL     OW 3399  11.981  11.176   0.502
67792SOL    HW1 3400  12.021  11.267   0.493
67792SOL    HW2 3401  11.881  11.184   0.508
67793SOL     OW 3402  11.369  12.148   1.264
67793SOL    HW1 3403  11.458  12.103   1.250
67793SOL    HW2 3404  11.296  12.083   1.245
67794SOL     OW 3405  11.489  11.423   1.801
67794SOL    HW1 3406  11.560  11.494   1.807
67794SOL    HW2 3407  11.401  11.462   1.829
67795SOL     OW 3408  12.638  12.589   0.953
67795SOL    HW1 3409  12.579  12.595   1.033
67795SOL    HW2 3410  12.623  12.501   0.907
67796SOL     OW 3411  11.770  11.901   0.270
67796SOL    HW1 3412  11.794  11.970   0.202
67796SOL    HW2 3413  11.692  11.934   0.324
67797SOL     OW 3414  12.453  11.517   0.944
67797SOL    HW1 3415  12.367  11.467   0.931
67797SOL    HW2 3416  12.515  11.463   1.000
67798SOL     OW 3417  11.979  11.777   1.465
67798SOL    HW1 3418  11.932  11.774   1.554
67798SOL    HW2 3419  11.928  11.722   1.399
67799SOL     OW 3420  12.566  11.641   1.674
67799SOL    HW1 3421  12.546  11.684   1.762
67799SOL    HW2 3422  12.644  11.579   1.683
67800SOL     OW 3423  12.145  12.062   1.572
67800SOL    HW1 3424  12.191  11.978   1.543
67800SOL    HW2 3425  12.089  12.096   1.497
67801SOL     OW 3426  12.163  11.582   1.242
67801SOL    HW1 3427  12.086  11.616   1.296
67801SOL    HW2 3428  12.129  11.531   1.163
67802SOL     OW 3429  12.213  11.873   0.429
67802SOL    HW1 3430  12.239  11.869   0.525
67802SOL    HW2 3431  12.128  11.822   0.415
67803SOL     OW 3432  11.248  11.983   0.789
67803SOL    HW1 3433  11.347  11.971   0.798
67803SOL    HW2 3434  11.224  12.078   0.810
67804SOL     OW 3435  12.037  11.520   0.195
67804SOL    HW1 3436  12.096  11.583   0.146
67804SOL    HW2 3437  12.056  11.426   0.166
67805SOL     OW 3438  12.534  12.316   0.545
67805SOL    HW1 3439  12.617  12.287   0.497
67805SOL    HW2 3440  12.485  12.383   0.489
67806SOL     OW 3441  11.722  11.368   0.885
67806SOL    HW1 3442  11.717  11.363   0.985
67806SOL    HW2 3443  11.724  11.464   0.856
67807SOL     OW 3444  12.180  12.628   0.477
67807SOL    HW1 3445  12.134  12.700   0.425
67807SOL    HW2 3446  12.176  12.648   0.575
67808SOL     OW 3447  12.399  12.722   1.506
67808SOL    HW1 3448  12.405  12.645   1.570
67808SOL    HW2 3449  12.347  12.696   1.426
67809SOL     OW 3450  11.493  12.115   0.242
67809SOL    HW1 3451  11.575  12.154   0.200
67809SOL    HW2 3452  11.466  12.033   0.193
67810SOL     OW 3453  12.630  11.907   0.728
67810SOL    HW1 3454  12.625  11.842   0.803
67810SOL    HW2 3455  12.710  11.966   0.741
67811SOL     OW 3456  11.633  12.438   1.727
67811SOL    HW1 3457  11.583  12.439   1.641
67811SOL    HW2 3458  11.570  12.420   1.803
67812SOL     OW 3459  11.374  11.457   1.498
67812SOL    HW1 3460  11.294  11.517   1.485
67812SOL    HW2 3461  11.364  11.408   1.584
67813SOL     OW 3462  12.572  11.279   0.426
67813SOL    HW1 3463  12.548  11.242   0.336
67813SOL    HW2 3464  12.671  11.295   0.430
67814SOL     OW 3465  11.554  11.872   0.480
67814SOL    HW1 3466  11.599  11.782   0.477
67814SOL    HW2 3467  11.460  11.861   0.513
67815SOL     OW 3468  11.786  11.294   0.117
67815SOL    HW1 3469  11.884  11.272   0.124
67815SOL    HW2 3470  11.755  11.277   0.024
67816SOL     OW 3471  11.953  11.436   1.749
67816SOL    HW1 3472  12.020  11.375   1.792
67816SOL    HW2 3473  11.880  11.455   1.814
67817SOL     OW 3474  12.523  11.762   1.433
67817SOL    HW1 3475  12.551  11.719   1.518
67817SOL    HW2 3476  12.548  11.858   1.434
67818SOL     OW 3477  11.975  12.574   0.924
67818SOL    HW1 3478  12.065  12.588   0.882
67818SOL    HW2 3479  11.904  12.576   0.853
67819SOL     OW 3480  12.094  11.675   0.899
67819SOL    HW1 3481  12.069  11.666   0.803
67819SOL    HW2 3482  12.142  11.593   0.930
67820SOL     OW 3483  11.711  11.236   0.512
67820SOL    HW1 3484  11.630  11.237   0.570
67820SOL    HW2 3485  11.714  11.319   0.457
67821SOL     OW 3486  12.606  12.360   0.041
67821SOL    HW1 3487  12.638  12.284   0.098
67821SOL    HW2 3488  12.514  12.387   0.071
67822SOL     OW 3489  11.469  11.207   0.171
67822SOL    HW1 3490  11.518  11.291   0.150
67822SOL    HW2 3491  11.531  11.142   0.216
67823SOL     OW 3492  12.107  11.408   0.480
67823SOL    HW1 3493  12.059  11.449   0.402
67823SOL    HW2 3494  12.206  11.406   0.461
67824SOL     OW 3495  12.248  11.855   1.464
67824SOL    HW1 3496  12.168  11.794   1.467
67824SOL    HW2 3497  12.329  11.802   1.440
67825SOL     OW 3498  12.399  12.742   0.793
67825SOL    HW1 3499  12.420  12.816   0.728
67825SOL    HW2 3500  12.467  12.742   0.866
67826SOL     OW 3501  11.631  12.324   0.741
67826SOL    HW1 3502  11.560  12.297   0.806
67826SOL    HW2 3503  11.605  12.296   0.648
67827SOL     OW 3504  12.204  11.721   0.016
67827SOL    HW1 3505  12.163  11.803  -0.023
67827SOL    HW2 3506  12.268  11.747   0.089
67828SOL     OW 3507  11.250  11.728   1.386
67828SOL    HW1 3508  11.342  11.727   1.345
67828SOL    HW2 3509  11.244  11.802   1.453
67829SOL     OW 3510  11.733  11.394   1.147
67829SOL    HW1 3511  11.771  11.310   1.184
67829SOL    HW2 3512  11.645  11.413   1.191
67830SOL     OW 3513  12.038  11.626   0.642
67830SOL    HW1 3514  12.006  11.698   0.580
67830SOL    HW2 3515  12.062  11.545   0.589
67831SOL     OW 3516  12.189  11.211   0.753
67831SOL    HW1 3517  12.117  11.216   0.684
67831SOL    HW2 3518  12.165  11.142   0.822
67832SOL     OW 3519  12.601  12.345   0.867
67832SOL    HW1 3520  12.546  12.261   0.860
67832SOL    HW2 3521  12.627  12.374   0.775
67833SOL     OW 3522  12.638  11.762   0.992
67833SOL    HW1 3523  12.608  11.667   0.999
67833SOL    HW2 3524  12.711  11.778   1.058
67834SOL     OW 3525  11.660  12.557   0.174
67834SOL    HW1 3526  11.573  12.542   0.221
67834SOL    HW2 3527  11.643  12.583   0.079
67835SOL     OW 3528  12.562  11.747   0.078
67835SOL    HW1 3529  12.508  11.726   0.159
67835SOL    HW2 3530  12.653  11.706   0.087
67836SOL     OW 3531  11.699  11.428   0.328
67836SOL    HW1 3532  11.726  11.369   0.253
67836SOL    HW2 3533  11.699  11.523   0.297
67837SOL     OW 3534  12.236  12.519   1.340
67837SOL    HW1 3535  12.156  12.496   1.395
67837SOL    HW2 3536  12.319  12.493   1.389
67838SOL     OW 3537  12.283  12.367   1.100
67838SOL    HW1 3538  12.243  12.411   1.181
67838SOL    HW2 3539  12.242  12.404   1.017
67839SOL     OW 3540  12.087  11.261   1.402
67839SOL    HW1 3541  12.112  11.241   1.307
67839SOL    HW2 3542  12.159  11.317   1.444
67840SOL     OW 3543  12.152  12.288   1.719
67840SOL    HW1 3544  12.053  12.294   1.729
67840SOL    HW2 3545  12.175  12.208   1.663
67841SOL     OW 3546  11.877  12.222   0.368
67841SOL    HW1 3547  11.863  12.229   0.467
67841SOL    HW2 3548  11.961  12.171   0.350
67842SOL     OW 3549  11.582  11.985   1.251
67842SOL    HW1 3550  11.668  11.997   1.301
67842SOL    HW2 3551  11.540  11.898   1.278
67843SOL     OW 3552  12.446  11.558   1.262
67843SOL    HW1 3553  12.467  11.632   1.326
67843SOL    HW2 3554  12.357  11.575   1.219
67844SOL     OW 3555  11.236  12.736   1.331
67844SOL    HW1 3556  11.190  12.818   1.297
67844SOL    HW2 3557  11.334  12.755   1.340
67845SOL     OW 3558  11.539  12.272   0.501
67845SOL    HW1 3559  11.532  12.355   0.445
67845SOL    HW2 3560  11.543  12.192   0.441
67846SOL     OW 3561  11.738  11.709   0.865
67846SOL    HW1 3562  11.750  11.775   0.791
67846SOL    HW2 3563  11.784  11.743   0.948
67847SOL     OW 3564  12.424  12.520   0.388
67847SOL    HW1 3565  12.474  12.597   0.428
67847SOL    HW2 3566  12.329  12.522   0.420
67848SOL     OW 3567  12.444  12.617   1.142
67848SOL    HW1 3568  12.491  12.630   1.229
67848SOL    HW2 3569  12.378  12.543   1.151
67849SOL     OW 3570  12.754  11.811   0.472
67849SOL    HW1 3571  12.723  11.872   0.545
67849SOL    HW2 3572  12.804  11.863   0.403
67850SOL     OW 3573  11.526  12.682   1.329
67850SOL    HW1 3574  11.505  12.638   1.242
67850SOL    HW2 3575  11.623  12.708   1.332
67851SOL     OW 3576  11.574  11.923   1.598
67851SOL    HW1 3577  11.642  11.978   1.551
67851SOL    HW2 3578  11.614  11.835   1.625
67852SOL     OW 3579  12.185  11.277   1.770
67852SOL    HW1 3580  12.191  11.362   1.718
67852SOL    HW2 3581  12.217  11.201   1.713
67853SOL     OW 3582  11.676  11.222   1.740
67853SOL    HW1 3583  11.634  11.165   1.670
67853SOL    HW2 3584  11.610  11.291   1.772
67854SOL     OW 3585  11.745  12.042   1.029
67854SOL    HW1 3586  11.789  12.131   1.020
67854SOL    HW2 3587  11.682  12.042   1.106
67855SOL     OW 3588  12.532  12.034   1.045
67855SOL    HW1 3589  12.457  12.034   0.979
67855SOL    HW2 3590  12.569  11.942   1.054
67856SOL     OW 3591  12.381  11.697   0.275
67856SOL    HW1 3592  12.394  11.613   0.329
67856SOL    HW2 3593  12.352  11.771   0.335
67857SOL     OW 3594  11.479  11.385   1.231
67857SOL    HW1 3595  11.456  11.422   1.321
67857SOL    HW2 3596  11.449  11.290   1.225
67858SOL     OW 3597  11.209  12.482   1.282
67858SOL    HW1 3598  11.262  12.433   1.350
67858SOL    HW2 3599  11.231  12.580   1.287
67859SOL     OW 3600  11.904  11.806   1.064
67859SOL    HW1 3601  11.963  11.780   0.988
67859SOL    HW2 3602  11.876  11.902   1.053
67860SOL     OW 3603  11.479  11.235   0.618
67860SOL    HW1 3604  11.468  11.329   0.651
67860SOL    HW2 3605  11.474  11.172   0.695
67861SOL     OW 3606  12.794  11.539   0.374
67861SOL    HW1 3607  12.796  11.463   0.438
67861SOL    HW2 3608  12.746  11.616   0.414
67862SOL     OW 3609  12.195  11.938   0.966
67862SOL    HW1 3610  12.210  11.959   1.062
67862SOL    HW2 3611  12.165  11.843   0.957
67863SOL     OW 3612  11.522  12.070   1.804
67863SOL    HW1 3613  11.598  12.114   1.852
67863SOL    HW2 3614  11.557  12.023   1.722
67864SOL     OW 3615  12.712  11.446   0.125
67864SOL    HW1 3616  12.651  11.371   0.148
67864SOL    HW2 3617  12.734  11.498   0.208
67865SOL     OW 3618  12.475  12.010   0.042
67865SOL    HW1 3619  12.509  11.917   0.057
67865SOL    HW2 3620  12.493  12.037  -0.053
67866SOL     OW 3621  12.240  12.505   0.849
67866SOL    HW1 3622  12.247  12.421   0.794
67866SOL    HW2 3623  12.302  12.574   0.813
67867SOL     OW 3624  11.491  11.982   0.949
67867SOL    HW1 3625  11.584  12.018   0.954
67867SOL    HW2 3626  11.485  11.897   1.001
67868SOL     OW 3627  11.511  11.681   1.006
67868SOL    HW1 3628  11.459  11.598   0.989
67868SOL    HW2 3629  11.588  11.686   0.942
67869SOL     OW 3630  12.310  11.552   1.678
67869SOL    HW1 3631  12.265  11.615   1.742
67869SOL    HW2 3632  12.403  11.583   1.661
67870SOL     OW 3633  12.332  11.379   1.477
67870SOL    HW1 3634  12.332  11.443   1.554
67870SOL    HW2 3635  12.360  11.427   1.394
67871SOL     OW 3636  11.180  12.498   0.200
67871SOL    HW1 3637  11.087  12.519   0.169
67871SOL    HW2 3638  11.190  12.399   0.213
67872SOL     OW 3639  11.676  12.740   0.910
67872SOL    HW1 3640  11.742  12.814   0.919
67872SOL    HW2 3641  11.720  12.661   0.868
67873SOL     OW 3642  12.174  11.968   1.238
67873SOL    HW1 3643  12.215  11.936   1.324
67873SOL    HW2 3644  12.078  11.941   1.235
67874SOL     OW 3645  11.212  11.716   1.114
67874SOL    HW1 3646  11.297  11.683   1.073
67874SOL    HW2 3647  11.225  11.731   1.212
67875SOL     OW 3648  11.361  11.692   1.722
67875SOL    HW1 3649  11.420  11.652   1.652
67875SOL    HW2 3650  11.303  11.763   1.681
67876SOL     OW 3651  12.541  12.122   1.660
67876SOL    HW1 3652  12.580  12.211   1.680
67876SOL    HW2 3653  12.551  12.102   1.563
67877SOL     OW 3654  11.987  11.744   0.325
67877SOL    HW1 3655  11.994  11.655   0.279
67877SOL    HW2 3656  11.893  11.778   0.317
67878SOL     OW 3657  11.424  12.736   1.744
67878SOL    HW1 3658  11.394  12.793   1.820
67878SOL    HW2 3659  11.417  12.639   1.770
67879SOL     OW 3660  11.843  11.636   1.269
67879SOL    HW1 3661  11.809  11.547   1.239
67879SOL    HW2 3662  11.869  11.690   1.189
67880SOL     OW 3663  11.645  11.672   0.191
67880SOL    HW1 3664  11.706  11.752   0.195
67880SOL    HW2 3665  11.550  11.703   0.198
67881SOL     OW 3666  11.331  12.309   1.466
67881SOL    HW1 3667  11.353  12.248   1.542
67881SOL    HW2 3668  11.341  12.260   1.380
67882SOL     OW 3669  12.519  12.231   1.234
67882SOL    HW1 3670  12.543  12.168   1.160
67882SOL    HW2 3671  12.429  12.271   1.216
67883SOL     OW 3672  12.474  12.027   0.309
67883SOL    HW1 3673  12.388  11.996   0.351
67883SOL    HW2 3674  12.470  12.013   0.210
67884SOL     OW 3675  12.931  12.919   1.154
67884SOL    HW1 3676  12.992  12.949   1.081
67884SOL    HW2 3677  12.893  12.830   1.132
67885SOL     OW 3678  12.424  12.903   1.128
67885SOL    HW1 3679  12.508  12.908   1.074
67885SOL    HW2 3680  12.401  12.807   1.146
67886SOL     OW 3681  11.255  12.430   1.022
67886SOL    HW1 3682  11.250  12.429   1.122
67886SOL    HW2 3683  11.172  12.389   0.984
67887SOL     OW 3684  12.075  11.258   0.133
67887SOL    HW1 3685  12.126  11.259   0.047
67887SOL    HW2 3686  12.131  11.216   0.204
67888SOL     OW 3687  12.898  11.307   0.523
67888SOL    HW1 3688  12.971  11.290   0.456
67888SOL    HW2 3689  12.867  11.220   0.561
67889SOL     OW 3690  11.302  12.966   1.851
67889SOL    HW1 3691  11.261  12.892   1.904
67889SOL    HW2 3692  11.366  13.017   1.909
67890SOL     OW 3693  12.452  12.099   0.672
67890SOL    HW1 3694  12.512  12.018   0.674
67890SOL    HW2 3695  12.492  12.168   0.612
67891SOL     OW 3696  12.002  12.445   1.422
67891SOL    HW1 3697  11.997  12.478   1.517
67891SOL    HW2 3698  11.916  12.464   1.376
67892SOL     OW 3699  11.844  12.788   0.154
67892SOL    HW1 3700  11.853  12.798   0.055
67892SOL    HW2 3701  11.804  12.699   0.175
67893SOL     OW 3702  11.435  11.498   0.720
67893SOL    HW1 3703  11.356  11.549   0.686
67893SOL    HW2 3704  11.426  11.483   0.818
67894SOL     OW 3705  12.366  12.784   0.031
67894SOL    HW1 3706  12.372  12.691   0.068
67894SOL    HW2 3707  12.307  12.784  -0.049
67895SOL     OW 3708  11.994  12.174   1.372
67895SOL    HW1 3709  12.034  12.173   1.280
67895SOL    HW2 3710  12.004  12.266   1.412
67896SOL     OW 3711  12.088  12.082   0.291
67896SOL    HW1 3712  12.151  12.120   0.223
67896SOL    HW2 3713  12.128  11.999   0.330
67897SOL     OW 3714  11.544  12.460   1.490
67897SOL    HW1 3715  11.531  12.553   1.456
67897SOL    HW2 3716  11.460  12.408   1.477
67898SOL     OW 3717  12.211  12.270   0.696
67898SOL    HW1 3718  12.141  12.223   0.750
67898SOL    HW2 3719  12.270  12.202   0.653
67899SOL     OW 3720  12.186  11.408   0.971
67899SOL    HW1 3721  12.178  11.372   0.878
67899SOL    HW2 3722  12.184  11.332   1.036
67900SOL     OW 3723  11.762  12.659   0.491
67900SOL    HW1 3724  11.804  12.601   0.421
67900SOL    HW2 3725  11.718  12.738   0.447
67901SOL     OW 3726  11.427  12.520   0.290
67901SOL    HW1 3727  11.331  12.521   0.263
67901SOL    HW2 3728  11.439  12.573   0.374
67902SOL     OW 3729  11.277  12.185   1.726
67902SOL    HW1 3730  11.200  12.152   1.780
67902SOL    HW2 3731  11.362  12.155   1.768
67903SOL     OW 3732  11.844  11.375   1.489
67903SOL    HW1 3733  11.934  11.359   1.449
67903SOL    HW2 3734  11.852  11.380   1.588
67904SOL     OW 3735  12.612  12.028   1.398
67904SOL    HW1 3736  12.555  12.080   1.335
67904SOL    HW2 3737  12.708  12.040   1.374
67905SOL     OW 3738  11.244  11.338   0.318
67905SOL    HW1 3739  11.227  11.421   0.264
67905SOL    HW2 3740  11.334  11.301   0.296
67906SOL     OW 3741  12.355  12.507   0.119
67906SOL    HW1 3742  12.256  12.496   0.121
67906SOL    HW2 3743  12.389  12.522   0.212
67907SOL     OW 3744  11.785  12.014   1.431
67907SOL    HW1 3745  11.841  12.095   1.414
67907SOL    HW2 3746  11.844  11.934   1.434
67908SOL     OW 3747  11.888  11.737   1.708
67908SOL    HW1 3748  11.907  11.802   1.782
67908SOL    HW2 3749  11.948  11.657   1.717
67909SOL     OW 3750  12.622  12.392   1.633
67909SOL    HW1 3751  12.613  12.382   1.732
67909SOL    HW2 3752  12.718  12.385   1.607
67910SOL     OW 3753  12.397  11.497   0.449
67910SOL    HW1 3754  12.462  11.423   0.438
67910SOL    HW2 3755  12.417  11.547   0.533
67911SOL     OW 3756  11.766  11.917   0.652
67911SOL    HW1 3757  11.816  12.002   0.633
67911SOL    HW2 3758  11.678  11.919   0.604
67912SOL     OW 3759  12.031  12.546   0.016
67912SOL    HW1 3760  11.985  12.561   0.104
67912SOL    HW2 3761  12.075  12.631  -0.014
67913SOL     OW 3762  12.580  13.023   1.720
67913SOL    HW1 3763  12.484  13.012   1.693
67913SOL    HW2 3764  12.636  12.956   1.672
67914SOL     OW 3765  12.031  12.128   0.861
67914SOL    HW1 3766  12.085  12.059   0.909
67914SOL    HW2 3767  11.999  12.197   0.927
67915SOL     OW 3768  12.255  12.156   0.087
67915SOL    HW1 3769  12.232  12.209   0.005
67915SOL    HW2 3770  12.336  12.100   0.068
67916SOL     OW 3771  13.033  12.741   0.851
67916SOL    HW1 3772  12.962  12.729   0.781
67916SOL    HW2 3773  13.034  12.662   0.911
67917SOL     OW 3774  11.393  12.486   1.844
67917SOL    HW1 3775  11.328  12.413   1.823
67917SOL    HW2 3776  11.397  12.500   1.942
67918SOL     OW 3777  11.251  12.412   0.653
67918SOL    HW1 3778  11.250  12.365   0.741
67918SOL    HW2 3779  11.333  12.384   0.602
67919SOL     OW 3780  11.844  12.563   1.624
67919SOL    HW1 3781  11.766  12.513   1.662
67919SOL    HW2 3782  11.841  12.658   1.655
67920SOL     OW 3783  11.600  11.596   0.520
67920SOL    HW1 3784  11.630  11.524   0.458
67920SOL    HW2 3785  11.561  11.556   0.603
67921SOL     OW 3786  11.489  11.719   1.280
67921SOL    HW1 3787  11.527  11.660   1.352
67921SOL    HW2 3788  11.529  11.693   1.192
67922SOL     OW 3789  12.596  11.386   1.112
67922SOL    HW1 3790  12.648  11.321   1.167
67922SOL    HW2 3791  12.547  11.449   1.173
67923SOL     OW 3792  12.173  11.206   1.154
67923SOL    HW1 3793  12.110  11.134   1.123
67923SOL    HW2 3794  12.266  11.170   1.154
67924SOL     OW 3795  11.942  12.502   0.301
67924SOL    HW1 3796  11.896  12.415   0.318
67924SOL    HW2 3797  12.033  12.499   0.342
67925SOL     OW 3798  11.790  12.739   1.284
67925SOL    HW1 3799  11.785  12.821   1.341
67925SOL    HW2 3800  11.879  12.736   1.239
67926SOL     OW 3801  12.524  11.224   0.168
67926SOL    HW1 3802  12.559  11.183   0.084
67926SOL    HW2 3803  12.434  11.186   0.188
67927SOL     OW 3804  12.472  11.625   0.691
67927SOL    HW1 3805  12.413  11.705   0.695
67927SOL    HW2 3806  12.487  11.590   0.784
67928SOL     OW 3807  12.765  11.393   0.882
67928SOL    HW1 3808  12.681  11.392   0.936
67928SOL    HW2 3809  12.767  11.476   0.826
67929SOL     OW 3810  11.211  12.249   0.300
67929SOL    HW1 3811  11.310  12.238   0.291
67929SOL    HW2 3812  11.171  12.163   0.332
67930SOL     OW 3813  11.402  11.800   1.975
67930SOL    HW1 3814  11.309  11.798   2.012
67930SOL    HW2 3815  11.403  11.761   1.883
67931SOL     OW 3816  11.397  11.447   2.858
67931SOL    HW1 3817  11.432  11.430   2.950
67931SOL    HW2 3818  11.309  11.402   2.846
67932SOL     OW 3819  11.191  11.540   2.509
67932SOL    HW1 3820  11.109  11.583   2.548
67932SOL    HW2 3821  11.163  11.467   2.446
67933SOL     OW 3822  11.741  12.447   3.027
67933SOL    HW1 3823  11.648  12.440   2.990
67933SOL    HW2 3824  11.752  12.536   3.071
67934SOL     OW 3825  12.727  12.683   2.565
67934SOL    HW1 3826  12.670  12.667   2.646
67934SOL    HW2 3827  12.668  12.693   2.485
67935SOL     OW 3828  12.307  11.875   2.579
67935SOL    HW1 3829  12.364  11.953   2.554
67935SOL    HW2 3830  12.247  11.901   2.655
67936SOL     OW 3831  11.940  12.316   2.885
67936SOL    HW1 3832  11.862  12.333   2.945
67936SOL    HW2 3833  11.974  12.403   2.849
67937SOL     OW 3834  12.022  11.970   3.685
67937SOL    HW1 3835  12.018  12.046   3.750
67937SOL    HW2 3836  12.044  12.006   3.594
67938SOL     OW 3837  11.857  12.184   2.527
67938SOL    HW1 3838  11.926  12.168   2.597
67938SOL    HW2 3839  11.784  12.241   2.565
67939SOL     OW 3840  11.858  12.333   3.665
67939SOL    HW1 3841  11.918  12.412   3.679
67939SOL    HW2 3842  11.772  12.364   3.624
67940SOL     OW 3843  11.507  12.607   2.923
67940SOL    HW1 3844  11.429  12.576   2.870
67940SOL    HW2 3845  11.565  12.665   2.866
67941SOL     OW 3846  12.632  12.677   3.201
67941SOL    HW1 3847  12.656  12.771   3.227
67941SOL    HW2 3848  12.616  12.623   3.283
67942SOL     OW 3849  11.610  11.564   3.361
67942SOL    HW1 3850  11.692  11.508   3.370
67942SOL    HW2 3851  11.529  11.506   3.365
67943SOL     OW 3852  12.299  12.513   3.552
67943SOL    HW1 3853  12.346  12.513   3.640
67943SOL    HW2 3854  12.251  12.426   3.541
67944SOL     OW 3855  11.402  12.606   2.400
67944SOL    HW1 3856  11.376  12.702   2.400
67944SOL    HW2 3857  11.331  12.552   2.445
67945SOL     OW 3858  11.412  12.263   2.748
67945SOL    HW1 3859  11.426  12.179   2.800
67945SOL    HW2 3860  11.357  12.327   2.803
67946SOL     OW 3861  11.778  12.136   1.985
67946SOL    HW1 3862  11.785  12.220   1.931
67946SOL    HW2 3863  11.824  12.149   2.073
67947SOL     OW 3864  12.766  11.286   3.342
67947SOL    HW1 3865  12.748  11.353   3.270
67947SOL    HW2 3866  12.763  11.332   3.431
67948SOL     OW 3867  11.294  11.815   2.425
67948SOL    HW1 3868  11.249  11.727   2.442
67948SOL    HW2 3869  11.293  11.869   2.509
67949SOL     OW 3870  11.199  12.768   1.979
67949SOL    HW1 3871  11.180  12.672   2.000
67949SOL    HW2 3872  11.166  12.826   2.054
67950SOL     OW 3873  12.861  12.094   2.474
67950SOL    HW1 3874  12.956  12.065   2.482
67950SOL    HW2 3875  12.853  12.159   2.399
67951SOL     OW 3876  11.285  11.909   3.459
67951SOL    HW1 3877  11.373  11.896   3.504
67951SOL    HW2 3878  11.272  12.006   3.437
67952SOL     OW 3879  11.785  12.537   2.588
67952SOL    HW1 3880  11.736  12.450   2.597
67952SOL    HW2 3881  11.762  12.580   2.501
67953SOL     OW 3882  12.465  12.400   3.285
67953SOL    HW1 3883  12.502  12.327   3.227
67953SOL    HW2 3884  12.517  12.405   3.370
67954SOL     OW 3885  11.981  11.176   2.364
67954SOL    HW1 3886  12.021  11.267   2.355
67954SOL    HW2 3887  11.881  11.184   2.370
67955SOL     OW 3888  11.369  12.148   3.126
67955SOL    HW1 3889  11.458  12.103   3.112
67955SOL    HW2 3890  11.296  12.083   3.107
67956SOL     OW 3891  11.489  11.423   3.663
67956SOL    HW1 3892  11.560  11.494   3.669
67956SOL    HW2 3893  11.401  11.462   3.691
67957SOL     OW 3894  12.638  12.589   2.815
67957SOL    HW1 3895  12.579  12.595   2.895
67957SOL    HW2 3896  12.623  12.501   2.769
67958SOL     OW 3897  11.770  11.901   2.132
67958SOL    HW1 3898  11.794  11.970   2.064
67958SOL    HW2 3899  11.692  11.934   2.186
67959SOL     OW 3900  12.453  11.517   2.806
67959SOL    HW1 3901  12.367  11.467   2.793
67959SOL    HW2 3902  12.515  11.463   2.862
67960SOL     OW 3903  11.979  11.777   3.327
67960SOL    HW1 3904  11.932  11.774   3.416
67960SOL    HW2 3905  11.928  11.722   3.261
67961SOL     OW 3906  12.566  11.641   3.536
67961SOL    HW1 3907  12.546  11.684   3.624
67961SOL    HW2 3908  12.644  11.579   3.545
67962SOL     OW 3909  12.145  12.062   3.434
67962SOL    HW1 3910  12.191  11.978   3.405
67962SOL    HW2 3911  12.089  12.096   3.359
67963SOL     OW 3912  12.163  11.582   3.104
67963SOL    HW1 3913  12.086  11.616   3.158
67963SOL    HW2 3914  12.129  11.531   3.025
67964SOL     OW 3915  12.213  11.873   2.291
67964SOL    HW1 3916  12.239  11.869   2.387
67964SOL    HW2 3917  12.128  11.822   2.277
67965SOL     OW 3918  11.248  11.983   2.651
67965SOL    HW1 3919  11.347  11.971   2.660
67965SOL    HW2 3920  11.224  12.078   2.672
67966SOL     OW 3921  12.037  11.520   2.057
67966SOL    HW1 3922  12.096  11.583   2.008
67966SOL    HW2 3923  12.056  11.426   2.028
67967SOL     OW 3924  12.534  12.316   2.407
67967SOL    HW1 3925  12.617  12.287   2.359
67967SOL    HW2 3926  12.485  12.383   2.351
67968SOL     OW 3927  11.722  11.368   2.747
67968SOL    HW1 3928  11.717  11.363   2.847
67968SOL    HW2 3929  11.724  11.464   2.718
67969SOL     OW 3930  12.180  12.628   2.339
67969SOL    HW1 3931  12.134  12.700   2.287
67969SOL    HW2 3932  12.176  12.648   2.437
67970SOL     OW 3933  12.399  12.722   3.368
67970SOL    HW1 3934  12.405  12.645   3.432
67970SOL    HW2 3935  12.347  12.696   3.288
67971SOL     OW 3936  11.493  12.115   2.104
67971SOL    HW1 3937  11.575  12.154   2.062
67971SOL    HW2 3938  11.466  12.033   2.055
67972SOL     OW 3939  12.630  11.907   2.590
67972SOL    HW1 3940  12.625  11.842   2.665
67972SOL    HW2 3941  12.710  11.966   2.603
67973SOL     OW 3942  11.633  12.438   3.589
67973SOL    HW1 3943  11.583  12.439   3.503
67973SOL    HW2 3944  11.570  12.420   3.665
67974SOL     OW 3945  11.374  11.457   3.360
67974SOL    HW1 3946  11.294  11.517   3.347
67974SOL    HW2 3947  11.364  11.408   3.446
67975SOL     OW 3948  12.572  11.279   2.288
67975SOL    HW1 3949  12.548  11.242   2.198
67975SOL    HW2 3950  12.671  11.295   2.292
67976SOL     OW 3951  11.554  11.872   2.342
67976SOL    HW1 3952  11.599  11.782   2.339
67976SOL    HW2 3953  11.460  11.861   2.375
67977SOL     OW 3954  11.786  11.294   1.979
67977SOL    HW1 3955  11.884  11.272   1.986
67977SOL    HW2 3956  11.755  11.277   1.886
67978SOL     OW 3957  11.953  11.436   3.611
67978SOL    HW1 3958  12.020  11.375   3.654
67978SOL    HW2 3959  11.880  11.455   3.676
67979SOL     OW 3960  12.523  11.762   3.295
67979SOL    HW1 3961  12.551  11.719   3.380
67979SOL    HW2 3962  12.548  11.858   3.296
67980SOL     OW 3963  11.975  12.574   2.786
67980SOL    HW1 3964  12.065  12.588   2.744
67980SOL    HW2 3965  11.904  12.576   2.715
67981SOL     OW 3966  12.094  11.675   2.761
67981SOL    HW1 3967  12.069  11.666   2.665
67981SOL    HW2 3968  12.142  11.593   2.792
67982SOL     OW 3969  11.711  11.236   2.374
67982SOL    HW1 3970  11.630  11.237   2.432
67982SOL    HW2 3971  11.714  11.319   2.319
67983SOL     OW 3972  12.606  12.360   1.903
67983SOL    HW1 3973  12.638  12.284   1.960
67983SOL    HW2 3974  12.514  12.387   1.933
67984SOL     OW 3975  11.469  11.207   2.033
67984SOL    HW1 3976  11.518  11.291   2.012
67984SOL    HW2 3977  11.531  11.142   2.078
67985SOL     OW 3978  12.107  11.408   2.342
67985SOL    HW1 3979  12.059  11.449   2.264
67985SOL    HW2 3980  12.206  11.406   2.323
67986SOL     OW 3981  12.248  11.855   3.326
67986SOL    HW1 3982  12.168  11.794   3.329
67986SOL    HW2 3983  12.329  11.802   3.302
67987SOL     OW 3984  12.399  12.742   2.655
67987SOL    HW1 3985  12.420  12.816   2.590
67987SOL    HW2 3986  12.467  12.742   2.728
67988SOL     OW 3987  11.631  12.324   2.603
67988SOL    HW1 3988  11.560  12.297   2.668
67988SOL    HW2 3989  11.605  12.296   2.510
67989SOL     OW 3990  12.204  11.721   1.878
67989SOL    HW1 3991  12.163  11.803   1.839
67989SOL    HW2 3992  12.268  11.747   1.951
67990SOL     OW 3993  11.250  11.728   3.248
67990SOL    HW1 3994  11.342  11.727   3.207
67990SOL    HW2 3995  11.244  11.802   3.315
67991SOL     OW 3996  11.733  11.394   3.009
67991SOL    HW1 3997  11.771  11.310   3.046
67991SOL    HW2 3998  11.645  11.413   3.053
67992SOL     OW 3999  12.038  11.626   2.504
67992SOL    HW1 4000  12.006  11.698   2.442
67992SOL    HW2 4001  12.062  11.545   2.451
67993SOL     OW 4002  12.189  11.211   2.615
67993SOL    HW1 4003  12.117  11.216   2.546
67993SOL    HW2 4004  12.165  11.142   2.684
67994SOL     OW 4005  12.601  12.345   2.729
67994SOL    HW1 4006  12.546  12.261   2.722
67994SOL    HW2 4007  12.627  12.374   2.637
67995SOL     OW 4008  12.638  11.762   2.854
67995SOL    HW1 4009  12.608  11.667   2.861
67995SOL    HW2 4010  12.711  11.778   2.920
67996SOL     OW 4011  11.660  12.557   2.036
67996SOL    HW1 4012  11.573  12.542   2.083
67996SOL    HW2 4013  11.643  12.583   1.941
67997SOL     OW 4014  12.562  11.747   1.940
67997SOL    HW1 4015  12.508  11.726   2.021
67997SOL    HW2 4016  12.653  11.706   1.949
67998SOL     OW 4017  11.699  11.428   2.190
67998SOL    HW1 4018  11.726  11.369   2.115
67998SOL    HW2 4019  11.699  11.523   2.159
67999SOL     OW 4020  12.236  12.519   3.202
67999SOL    HW1 4021  12.156  12.496   3.257
67999SOL    HW2 4022  12.319  12.493   3.251
68000SOL     OW 4023  12.283  12.367   2.962
68000SOL    HW1 4024  12.243  12.411   3.043
68000SOL    HW2 4025  12.242  12.404   2.879
68001SOL     OW 4026  12.087  11.261   3.264
68001SOL    HW1 4027  12.112  11.241   3.169
68001SOL    HW2 4028  12.159  11.317   3.306
68002SOL     OW 4029  12.152  12.288   3.581
68002SOL    HW1 4030  12.053  12.294   3.591
68002SOL    HW2 4031  12.175  12.208   3.525
68003SOL     OW 4032  11.877  12.222   2.230
68003SOL    HW1 4033  11.863  12.229   2.329
68003SOL    HW2 4034  11.961  12.171   2.212
68004SOL     OW 4035  11.582  11.985   3.113
68004SOL    HW1 4036  11.668  11.997   3.163
68004SOL    HW2 4037  11.540  11.898   3.140
68005SOL     OW 4038  12.446  11.558   3.124
68005SOL    HW1 4039  12.467  11.632   3.188
68005SOL    HW2 4040  12.357  11.575   3.081
68006SOL     OW 4041  11.236  12.736   3.193
68006SOL    HW1 4042  11.190  12.818   3.159
68006SOL    HW2 4043  11.334  12.755   3.202
68007SOL     OW 4044  11.539  12.272   2.363
68007SOL    HW1 4045  11.532  12.355   2.307
68007SOL    HW2 4046  11.543  12.192   2.303
68008SOL     OW 4047  11.738  11.709   2.727
68008SOL    HW1 4048  11.750  11.775   2.653
68008SOL    HW2 4049  11.784  11.743   2.810
68009SOL     OW 4050  12.424  12.520   2.250
68009SOL    HW1 4051  12.474  12.597   2.290
68009SOL    HW2 4052  12.329  12.522   2.282
68010SOL     OW 4053  12.444  12.617   3.004
68010SOL    HW1 4054  12.491  12.630   3.091
68010SOL    HW2 4055  12.378  12.543   3.013
68011SOL     OW 4056  12.754  11.811   2.334
68011SOL    HW1 4057  12.723  11.872   2.407
68011SOL    HW2 4058  12.804  11.863   2.265
68012SOL     OW 4059  11.526  12.682   3.191
68012SOL    HW1 4060  11.505  12.638   3.104
68012SOL    HW2 4061  11.623  12.708   3.194
68013SOL     OW 4062  11.574  11.923   3.460
68013SOL    HW1 4063  11.642  11.978   3.413
68013SOL    HW2 4064  11.614  11.835   3.487
68014SOL     OW 4065  12.185  11.277   3.632
68014SOL    HW1 4066  12.191  11.362   3.580
68014SOL    HW2 4067  12.217  11.201   3.575
68015SOL     OW 4068  11.676  11.222   3.602
68015SOL    HW1 4069  11.634  11.165   3.532
68015SOL    HW2 4070  11.610  11.291   3.634
68016SOL     OW 4071  11.745  12.042   2.891
68016SOL    HW1 4072  11.789  12.131   2.882
68016SOL    HW2 4073  11.682  12.042   2.968
68017SOL     OW 4074  12.532  12.034   2.907
68017SOL    HW1 4075  12.457  12.034   2.841
68017SOL    HW2 4076  12.569  11.942   2.916
68018SOL     OW 4077  12.381  11.697   2.137
68018SOL    HW1 4078  12.394  11.613   2.191
68018SOL    HW2 4079  12.352  11.771   2.197
68019SOL     OW 4080  11.479  11.385   3.093
68019SOL    HW1 4081  11.456  11.422   3.183
68019SOL    HW2 4082  11.449  11.290   3.087
68020SOL     OW 4083  11.209  12.482   3.144
68020SOL    HW1 4084  11.262  12.433   3.212
68020SOL    HW2 4085  11.231  12.580   3.149
68021SOL     OW 4086  11.904  11.806   2.926
68021SOL    HW1 4087  11.963  11.780   2.850
68021SOL    HW2 4088  11.876  11.902   2.915
68022SOL     OW 4089  11.479  11.235   2.480
68022SOL    HW1 4090  11.468  11.329   2.513
68022SOL    HW2 4091  11.474  11.172   2.557
68023SOL     OW 4092  12.794  11.539   2.236
68023SOL    HW1 4093  12.796  11.463   2.300
68023SOL    HW2 4094  12.746  11.616   2.276
68024SOL     OW 4095  12.195  11.938   2.828
68024SOL    HW1 4096  12.210  11.959   2.924
68024SOL    HW2 4097  12.165  11.843   2.819
68025SOL     OW 4098  11.522  12.070   3.666
68025SOL    HW1 4099  11.598  12.114   3.714
68025SOL    HW2 4100  11.557  12.023   3.584
68026SOL     OW 4101  12.712  11.446   1.987
68026SOL    HW1 4102  12.651  11.371   2.010
68026SOL    HW2 4103  12.734  11.498   2.070
68027SOL     OW 4104  12.475  12.010   1.904
68027SOL    HW1 4105  12.509  11.917   1.919
68027SOL    HW2 4106  12.493  12.037   1.809
68028SOL     OW 4107  12.240  12.505   2.711
68028SOL    HW1 4108  12.247  12.421   2.656
68028SOL    HW2 4109  12.302  12.574   2.675
68029SOL     OW 4110  11.491  11.982   2.811
68029SOL    HW1 4111  11.584  12.018   2.816
68029SOL    HW2 4112  11.485  11.897   2.863
68030SOL     OW 4113  11.511  11.681   2.868
68030SOL    HW1 4114  11.459  11.598   2.851
68030SOL    HW2 4115  11.588  11.686   2.804
68031SOL     OW 4116  12.310  11.552   3.540
68031SOL    HW1 4117  12.265  11.615   3.604
68031SOL    HW2 4118  12.403  11.583   3.523
68032SOL     OW 4119  12.332  11.379   3.339
68032SOL    HW1 4120  12.332  11.443   3.416
68032SOL    HW2 4121  12.360  11.427   3.256
68033SOL     OW 4122  11.180  12.498   2.062
68033SOL    HW1 4123  11.087  12.519   2.031
68033SOL    HW2 4124  11.190  12.399   2.075
68034SOL     OW 4125  11.676  12.740   2.772
68034SOL    HW1 4126  11.742  12.814   2.781
68034SOL    HW2 4127  11.720  12.661   2.730
68035SOL     OW 4128  12.174  11.968   3.100
68035SOL    HW1 4129  12.215  11.936   3.186
68035SOL    HW2 4130  12.078  11.941   3.097
68036SOL     OW 4131  11.212  11.716   2.976
68036SOL    HW1 4132  11.297  11.683   2.935
68036SOL    HW2 4133  11.225  11.731   3.074
68037SOL     OW 4134  11.361  11.692   3.584
68037SOL    HW1 4135  11.420  11.652   3.514
68037SOL    HW2 4136  11.303  11.763   3.543
68038SOL     OW 4137  12.541  12.122   3.522
68038SOL    HW1 4138  12.580  12.211   3.542
68038SOL    HW2 4139  12.551  12.102   3.425
68039SOL     OW 4140  11.987  11.744   2.187
68039SOL    HW1 4141  11.994  11.655   2.141
68039SOL    HW2 4142  11.893  11.778   2.179
68040SOL     OW 4143  11.424  12.736   3.606
68040SOL    HW1 4144  11.394  12.793   3.682
68040SOL    HW2 4145  11.417  12.639   3.632
68041SOL     OW 4146  11.843  11.636   3.131
68041SOL    HW1 4147  11.809  11.547   3.101
68041SOL    HW2 4148  11.869  11.690   3.051
68042SOL     OW 4149  11.645  11.672   2.053
68042SOL    HW1 4150  11.706  11.752   2.057
68042SOL    HW2 4151  11.550  11.703   2.060
68043SOL     OW 4152  11.331  12.309   3.328
68043SOL    HW1 4153  11.353  12.248   3.404
68043SOL    HW2 4154  11.341  12.260   3.242
68044SOL     OW 4155  12.519  12.231   3.096
68044SOL    HW1 4156  12.543  12.168   3.022
68044SOL    HW2 4157  12.429  12.271   3.078
68045SOL     OW 4158  12.474  12.027   2.171
68045SOL    HW1 4159  12.388  11.996   2.213
68045SOL    HW2 4160  12.470  12.013   2.072
68046SOL     OW 4161  12.931  12.919   3.016
68046SOL    HW1 4162  12.992  12.949   2.943
68046SOL    HW2 4163  12.893  12.830   2.994
68047SOL     OW 4164  12.424  12.903   2.990
68047SOL    HW1 4165  12.508  12.908   2.936
68047SOL    HW2 4166  12.401  12.807   3.008
68048SOL     OW 4167  11.255  12.430   2.884
68048SOL    HW1 4168  11.250  12.429   2.984
68048SOL    HW2 4169  11.172  12.389   2.846
68049SOL     OW 4170  12.898  11.307   2.385
68049SOL    HW1 4171  12.971  11.290   2.318
68049SOL    HW2 4172  12.867  11.220   2.423
68050SOL     OW 4173  11.302  12.966   3.713
68050SOL    HW1 4174  11.261  12.892   3.766
68050SOL    HW2 4175  11.366  13.017   3.771
68051SOL     OW 4176  12.452  12.099   2.534
68051SOL    HW1 4177  12.512  12.018   2.536
68051SOL    HW2 4178  12.492  12.168   2.474
68052SOL     OW 4179  12.002  12.445   3.284
68052SOL    HW1 4180  11.997  12.478   3.379
68052SOL    HW2 4181  11.916  12.464   3.238
68053SOL     OW 4182  11.844  12.788   2.016
68053SOL    HW1 4183  11.853  12.798   1.917
68053SOL    HW2 4184  11.804  12.699   2.037
68054SOL     OW 4185  11.435  11.498   2.582
68054SOL    HW1 4186  11.356  11.549   2.548
68054SOL    HW2 4187  11.426  11.483   2.680
68055SOL     OW 4188  12.366  12.784   1.893
68055SOL    HW1 4189  12.372  12.691   1.930
68055SOL    HW2 4190  12.307  12.784   1.813
68056SOL     OW 4191  11.994  12.174   3.234
68056SOL    HW1 4192  12.034  12.173   3.142
68056SOL    HW2 4193  12.004  12.266   3.274
68057SOL     OW 4194  12.088  12.082   2.153
68057SOL    HW1 4195  12.151  12.120   2.085
68057SOL    HW2 4196  12.128  11.999   2.192
68058SOL     OW 4197  11.544  12.460   3.352
68058SOL    HW1 4198  11.531  12.553   3.318
68058SOL    HW2 4199  11.460  12.408   3.339
68059SOL     OW 4200  12.211  12.270   2.558
68059SOL    HW1 4201  12.141  12.223   2.612
68059SOL    HW2 4202  12.270  12.202   2.515
68060SOL     OW 4203  12.186  11.408   2.833
68060SOL    HW1 4204  12.178  11.372   2.740
68060SOL    HW2 4205  12.184  11.332   2.898
68061SOL     OW 4206  11.762  12.659   2.353
68061SOL    HW1 4207  11.804  12.601   2.283
68061SOL    HW2 4208  11.718  12.738   2.309
68062SOL     OW 4209  11.427  12.520   2.152
68062SOL    HW1 4210  11.331  12.521   2.125
68062SOL    HW2 4211  11.439  12.573   2.236
68063SOL     OW 4212  11.277  12.185   3.588
68063SOL    HW1 4213  11.200  12.152   3.642
68063SOL    HW2 4214  11.362  12.155   3.630
68064SOL     OW 4215  11.844  11.375   3.351
68064SOL    HW1 4216  11.934  11.359   3.311
68064SOL    HW2 4217  11.852  11.380   3.450
68065SOL     OW 4218  11.247  11.517   1.895
68065SOL    HW1 4219  11.155  11.489   1.866
68065SOL    HW2 4220  11.278  11.594   1.839
68066SOL     OW 4221  12.612  12.028   3.260
68066SOL    HW1 4222  12.555  12.080   3.197
68066SOL    HW2 4223  12.708  12.040   3.236
68067SOL     OW 4224  11.244  11.338   2.180
68067SOL    HW1 4225  11.227  11.421   2.126
68067SOL    HW2 4226  11.334  11.301   2.158
68068SOL     OW 4227  12.355  12.507   1.981
68068SOL    HW1 4228  12.256  12.496   1.983
68068SOL    HW2 4229  12.389  12.522   2.074
68069SOL     OW 4230  11.785  12.014   3.293
68069SOL    HW1 4231  11.841  12.095   3.276
68069SOL    HW2 4232  11.844  11.934   3.296
68070SOL     OW 4233  11.888  11.737   3.570
68070SOL    HW1 4234  11.907  11.802   3.644
68070SOL    HW2 4235  11.948  11.657   3.579
68071SOL     OW 4236  12.622  12.392   3.495
68071SOL    HW1 4237  12.613  12.382   3.594
68071SOL    HW2 4238  12.718  12.385   3.469
68072SOL     OW 4239  12.397  11.497   2.311
68072SOL    HW1 4240  12.462  11.423   2.300
68072SOL    HW2 4241  12.417  11.547   2.395
68073SOL     OW 4242  11.766  11.917   2.514
68073SOL    HW1 4243  11.816  12.002   2.495
68073SOL    HW2 4244  11.678  11.919   2.466
68074SOL     OW 4245  12.031  12.546   1.878
68074SOL    HW1 4246  11.985  12.561   1.966
68074SOL    HW2 4247  12.075  12.631   1.848
68075SOL     OW 4248  12.580  13.023   3.582
68075SOL    HW1 4249  12.484  13.012   3.555
68075SOL    HW2 4250  12.636  12.956   3.534
68076SOL     OW 4251  12.031  12.128   2.723
68076SOL    HW1 4252  12.085  12.059   2.771
68076SOL    HW2 4253  11.999  12.197   2.789
68077SOL     OW 4254  12.255  12.156   1.949
68077SOL    HW1 4255  12.232  12.209   1.867
68077SOL    HW2 4256  12.336  12.100   1.930
68078SOL     OW 4257  13.033  12.741   2.713
68078SOL    HW1 4258  12.962  12.729   2.643
68078SOL    HW2 4259  13.034  12.662   2.773
68079SOL     OW 4260  11.393  12.486   3.706
68079SOL    HW1 4261  11.328  12.413   3.685
68079SOL    HW2 4262  11.397  12.500   3.804
68080SOL     OW 4263  11.251  12.412   2.515
68080SOL    HW1 4264  11.250  12.365   2.603
68080SOL    HW2 4265  11.333  12.384   2.464
68081SOL     OW 4266  11.844  12.563   3.486
68081SOL    HW1 4267  11.766  12.513   3.524
68081SOL    HW2 4268  11.841  12.658   3.517
68082SOL     OW 4269  11.600  11.596   2.382
68082SOL    HW1 4270  11.630  11.524   2.320
68082SOL    HW2 4271  11.561  11.556   2.465
68083SOL     OW 4272  11.489  11.719   3.142
68083SOL    HW1 4273  11.527  11.660   3.214
68083SOL    HW2 4274  11.529  11.693   3.054
68084SOL     OW 4275  12.596  11.386   2.974
68084SOL    HW1 4276  12.648  11.321   3.029
68084SOL    HW2 4277  12.547  11.449   3.035
68085SOL     OW 4278  12.173  11.206   3.016
68085SOL    HW1 4279  12.110  11.134   2.985
68085SOL    HW2 4280  12.266  11.170   3.016
68086SOL     OW 4281  11.942  12.502   2.163
68086SOL    HW1 4282  11.896  12.415   2.180
68086SOL    HW2 4283  12.033  12.499   2.204
68087SOL     OW 4284  11.790  12.739   3.146
68087SOL    HW1 4285  11.785  12.821   3.203
68087SOL    HW2 4286  11.879  12.736   3.101
68088SOL     OW 4287  12.524  11.224   2.030
68088SOL    HW1 4288  12.559  11.183   1.946
68088SOL    HW2 4289  12.434  11.186   2.050
68089SOL     OW 4290  12.472  11.625   2.553
68089SOL    HW1 4291  12.413  11.705   2.557
68089SOL    HW2 4292  12.487  11.590   2.646
68090SOL     OW 4293  12.765  11.393   2.744
68090SOL    HW1 4294  12.681  11.392   2.798
68090SOL    HW2 4295  12.767  11.476   2.688
68091SOL     OW 4296  11.211  12.249   2.162
68091SOL    HW1 4297  11.310  12.238   2.153
68091SOL    HW2 4298  11.171  12.163   2.194
68092SOL     OW 4299  11.402  11.800   3.837
68092SOL    HW1 4300  11.309  11.798   3.874
68092SOL    HW2 4301  11.403  11.761   3.745
68093SOL     OW 4302  11.397  11.447   4.720
68093SOL    HW1 4303  11.432  11.430   4.812
68093SOL    HW2 4304  11.309  11.402   4.708
68094SOL     OW 4305  11.191  11.540   4.371
68094SOL    HW1 4306  11.109  11.583   4.410
68094SOL    HW2 4307  11.163  11.467   4.308
68095SOL     OW 4308  11.741  12.447   4.889
68095SOL    HW1 4309  11.648  12.440   4.852
68095SOL    HW2 4310  11.752  12.536   4.933
68096SOL     OW 4311  12.727  12.683   4.427
68096SOL    HW1 4312  12.670  12.667   4.508
68096SOL    HW2 4313  12.668  12.693   4.347
68097SOL     OW 4314  12.307  11.875   4.441
68097SOL    HW1 4315  12.364  11.953   4.416
68097SOL    HW2 4316  12.247  11.901   4.517
68098SOL     OW 4317  11.940  12.316   4.747
68098SOL    HW1 4318  11.862  12.333   4.807
68098SOL    HW2 4319  11.974  12.403   4.711
68099SOL     OW 4320  12.022  11.970   5.547
68099SOL    HW1 4321  12.018  12.046   5.612
68099SOL    HW2 4322  12.044  12.006   5.456
68100SOL     OW 4323  11.857  12.184   4.389
68100SOL    HW1 4324  11.926  12.168   4.459
68100SOL    HW2 4325  11.784  12.241   4.427
68101SOL     OW 4326  11.858  12.333   5.527
68101SOL    HW1 4327  11.918  12.412   5.541
68101SOL    HW2 4328  11.772  12.364   5.486
68102SOL     OW 4329  11.507  12.607   4.785
68102SOL    HW1 4330  11.429  12.576   4.732
68102SOL    HW2 4331  11.565  12.665   4.728
68103SOL     OW 4332  12.632  12.677   5.063
68103SOL    HW1 4333  12.656  12.771   5.089
68103SOL    HW2 4334  12.616  12.623   5.145
68104SOL     OW 4335  11.610  11.564   5.223
68104SOL    HW1 4336  11.692  11.508   5.232
68104SOL    HW2 4337  11.529  11.506   5.227
68105SOL     OW 4338  12.299  12.513   5.414
68105SOL    HW1 4339  12.346  12.513   5.502
68105SOL    HW2 4340  12.251  12.426   5.403
68106SOL     OW 4341  11.402  12.606   4.262
68106SOL    HW1 4342  11.376  12.702   4.262
68106SOL    HW2 4343  11.331  12.552   4.307
68107SOL     OW 4344  11.412  12.263   4.610
68107SOL    HW1 4345  11.426  12.179   4.662
68107SOL    HW2 4346  11.357  12.327   4.665
68108SOL     OW 4347  11.778  12.136   3.847
68108SOL    HW1 4348  11.785  12.220   3.793
68108SOL    HW2 4349  11.824  12.149   3.935
68109SOL     OW 4350  12.766  11.286   5.204
68109SOL    HW1 4351  12.748  11.353   5.132
68109SOL    HW2 4352  12.763  11.332   5.293
68110SOL     OW 4353  11.294  11.815   4.287
68110SOL    HW1 4354  11.249  11.727   4.304
68110SOL    HW2 4355  11.293  11.869   4.371
68111SOL     OW 4356  11.199  12.768   3.841
68111SOL    HW1 4357  11.180  12.672   3.862
68111SOL    HW2 4358  11.166  12.826   3.916
68112SOL     OW 4359  12.861  12.094   4.336
68112SOL    HW1 4360  12.956  12.065   4.344
68112SOL    HW2 4361  12.853  12.159   4.261
68113SOL     OW 4362  11.285  11.909   5.321
68113SOL    HW1 4363  11.373  11.896   5.366
68113SOL    HW2 4364  11.272  12.006   5.299
68114SOL     OW 4365  11.785  12.537   4.450
68114SOL    HW1 4366  11.736  12.450   4.459
68114SOL    HW2 4367  11.762  12.580   4.363
68115SOL     OW 4368  12.465  12.400   5.147
68115SOL    HW1 4369  12.502  12.327   5.089
68115SOL    HW2 4370  12.517  12.405   5.232
68116SOL     OW 4371  11.981  11.176   4.226
68116SOL    HW1 4372  12.021  11.267   4.217
68116SOL    HW2 4373  11.881  11.184   4.232
68117SOL     OW 4374  11.369  12.148   4.988
68117SOL    HW1 4375  11.458  12.103   4.974
68117SOL    HW2 4376  11.296  12.083   4.969
68118SOL     OW 4377  11.489  11.423   5.525
68118SOL    HW1 4378  11.560  11.494   5.531
68118SOL    HW2 4379  11.401  11.462   5.553
68119SOL     OW 4380  12.638  12.589   4.677
68119SOL    HW1 4381  12.579  12.595   4.757
68119SOL    HW2 4382  12.623  12.501   4.631
68120SOL     OW 4383  11.770  11.901   3.994
68120SOL    HW1 4384  11.794  11.970   3.926
68120SOL    HW2 4385  11.692  11.934   4.048
68121SOL     OW 4386  12.453  11.517   4.668
68121SOL    HW1 4387  12.367  11.467   4.655
68121SOL    HW2 4388  12.515  11.463   4.724
68122SOL     OW 4389  11.979  11.777   5.189
68122SOL    HW1 4390  11.932  11.774   5.278
68122SOL    HW2 4391  11.928  11.722   5.123
68123SOL     OW 4392  12.566  11.641   5.398
68123SOL    HW1 4393  12.546  11.684   5.486
68123SOL    HW2 4394  12.644  11.579   5.407
68124SOL     OW 4395  12.145  12.062   5.296
68124SOL    HW1 4396  12.191  11.978   5.267
68124SOL    HW2 4397  12.089  12.096   5.221
68125SOL     OW 4398  12.163  11.582   4.966
68125SOL    HW1 4399  12.086  11.616   5.020
68125SOL    HW2 4400  12.129  11.531   4.887
68126SOL     OW 4401  12.213  11.873   4.153
68126SOL    HW1 4402  12.239  11.869   4.249
68126SOL    HW2 4403  12.128  11.822   4.139
68127SOL     OW 4404  11.248  11.983   4.513
68127SOL    HW1 4405  11.347  11.971   4.522
68127SOL    HW2 4406  11.224  12.078   4.534
68128SOL     OW 4407  12.037  11.520   3.919
68128SOL    HW1 4408  12.096  11.583   3.870
68128SOL    HW2 4409  12.056  11.426   3.890
68129SOL     OW 4410  12.534  12.316   4.269
68129SOL    HW1 4411  12.617  12.287   4.221
68129SOL    HW2 4412  12.485  12.383   4.213
68130SOL     OW 4413  11.722  11.368   4.609
68130SOL    HW1 4414  11.717  11.363   4.709
68130SOL    HW2 4415  11.724  11.464   4.580
68131SOL     OW 4416  12.180  12.628   4.201
68131SOL    HW1 4417  12.134  12.700   4.149
68131SOL    HW2 4418  12.176  12.648   4.299
68132SOL     OW 4419  12.399  12.722   5.230
68132SOL    HW1 4420  12.405  12.645   5.294
68132SOL    HW2 4421  12.347  12.696   5.150
68133SOL     OW 4422  11.493  12.115   3.966
68133SOL    HW1 4423  11.575  12.154   3.924
68133SOL    HW2 4424  11.466  12.033   3.917
68134SOL     OW 4425  12.630  11.907   4.452
68134SOL    HW1 4426  12.625  11.842   4.527
68134SOL    HW2 4427  12.710  11.966   4.465
68135SOL     OW 4428  11.633  12.438   5.451
68135SOL    HW1 4429  11.583  12.439   5.365
68135SOL    HW2 4430  11.570  12.420   5.527
68136SOL     OW 4431  11.374  11.457   5.222
68136SOL    HW1 4432  11.294  11.517   5.209
68136SOL    HW2 4433  11.364  11.408   5.308
68137SOL     OW 4434  12.572  11.279   4.150
68137SOL    HW1 4435  12.548  11.242   4.060
68137SOL    HW2 4436  12.671  11.295   4.154
68138SOL     OW 4437  11.554  11.872   4.204
68138SOL    HW1 4438  11.599  11.782   4.201
68138SOL    HW2 4439  11.460  11.861   4.237
68139SOL     OW 4440  11.786  11.294   3.841
68139SOL    HW1 4441  11.884  11.272   3.848
68139SOL    HW2 4442  11.755  11.277   3.748
68140SOL     OW 4443  11.953  11.436   5.473
68140SOL    HW1 4444  12.020  11.375   5.516
68140SOL    HW2 4445  11.880  11.455   5.538
68141SOL     OW 4446  12.523  11.762   5.157
68141SOL    HW1 4447  12.551  11.719   5.242
68141SOL    HW2 4448  12.548  11.858   5.158
68142SOL     OW 4449  11.975  12.574   4.648
68142SOL    HW1 4450  12.065  12.588   4.606
68142SOL    HW2 4451  11.904  12.576   4.577
68143SOL     OW 4452  12.094  11.675   4.623
68143SOL    HW1 4453  12.069  11.666   4.527
68143SOL    HW2 4454  12.142  11.593   4.654
68144SOL     OW 4455  11.711  11.236   4.236
68144SOL    HW1 4456  11.630  11.237   4.294
68144SOL    HW2 4457  11.714  11.319   4.181
68145SOL     OW 4458  12.606  12.360   3.765
68145SOL    HW1 4459  12.638  12.284   3.822
68145SOL    HW2 4460  12.514  12.387   3.795
68146SOL     OW 4461  11.469  11.207   3.895
68146SOL    HW1 4462  11.518  11.291   3.874
68146SOL    HW2 4463  11.531  11.142   3.940
68147SOL     OW 4464  12.107  11.408   4.204
68147SOL    HW1 4465  12.059  11.449   4.126
68147SOL    HW2 4466  12.206  11.406   4.185
68148SOL     OW 4467  12.248  11.855   5.188
68148SOL    HW1 4468  12.168  11.794   5.191
68148SOL    HW2 4469  12.329  11.802   5.164
68149SOL     OW 4470  12.399  12.742   4.517
68149SOL    HW1 4471  12.420  12.816   4.452
68149SOL    HW2 4472  12.467  12.742   4.590
68150SOL     OW 4473  11.631  12.324   4.465
68150SOL    HW1 4474  11.560  12.297   4.530
68150SOL    HW2 4475  11.605  12.296   4.372
68151SOL     OW 4476  12.204  11.721   3.740
68151SOL    HW1 4477  12.163  11.803   3.701
68151SOL    HW2 4478  12.268  11.747   3.813
68152SOL     OW 4479  11.250  11.728   5.110
68152SOL    HW1 4480  11.342  11.727   5.069
68152SOL    HW2 4481  11.244  11.802   5.177
68153SOL     OW 4482  11.733  11.394   4.871
68153SOL    HW1 4483  11.771  11.310   4.908
68153SOL    HW2 4484  11.645  11.413   4.915
68154SOL     OW 4485  12.038  11.626   4.366
68154SOL    HW1 4486  12.006  11.698   4.304
68154SOL    HW2 4487  12.062  11.545   4.313
68155SOL     OW 4488  12.189  11.211   4.477
68155SOL    HW1 4489  12.117  11.216   4.408
68155SOL    HW2 4490  12.165  11.142   4.546
68156SOL     OW 4491  12.601  12.345   4.591
68156SOL    HW1 4492  12.546  12.261   4.584
68156SOL    HW2 4493  12.627  12.374   4.499
68157SOL     OW 4494  12.638  11.762   4.716
68157SOL    HW1 4495  12.608  11.667   4.723
68157SOL    HW2 4496  12.711  11.778   4.782
68158SOL     OW 4497  11.660  12.557   3.898
68158SOL    HW1 4498  11.573  12.542   3.945
68158SOL    HW2 4499  11.643  12.583   3.803
68159SOL     OW 4500  12.562  11.747   3.802
68159SOL    HW1 4501  12.508  11.726   3.883
68159SOL    HW2 4502  12.653  11.706   3.811
68160SOL     OW 4503  11.699  11.428   4.052
68160SOL    HW1 4504  11.726  11.369   3.977
68160SOL    HW2 4505  11.699  11.523   4.021
68161SOL     OW 4506  12.236  12.519   5.064
68161SOL    HW1 4507  12.156  12.496   5.119
68161SOL    HW2 4508  12.319  12.493   5.113
68162SOL     OW 4509  12.283  12.367   4.824
68162SOL    HW1 4510  12.243  12.411   4.905
68162SOL    HW2 4511  12.242  12.404   4.741
68163SOL     OW 4512  12.087  11.261   5.126
68163SOL    HW1 4513  12.112  11.241   5.031
68163SOL    HW2 4514  12.159  11.317   5.168
68164SOL     OW 4515  12.152  12.288   5.443
68164SOL    HW1 4516  12.053  12.294   5.453
68164SOL    HW2 4517  12.175  12.208   5.387
68165SOL     OW 4518  11.877  12.222   4.092
68165SOL    HW1 4519  11.863  12.229   4.191
68165SOL    HW2 4520  11.961  12.171   4.074
68166SOL     OW 4521  11.582  11.985   4.975
68166SOL    HW1 4522  11.668  11.997   5.025
68166SOL    HW2 4523  11.540  11.898   5.002
68167SOL     OW 4524  12.446  11.558   4.986
68167SOL    HW1 4525  12.467  11.632   5.050
68167SOL    HW2 4526  12.357  11.575   4.943
68168SOL     OW 4527  11.236  12.736   5.055
68168SOL    HW1 4528  11.190  12.818   5.021
68168SOL    HW2 4529  11.334  12.755   5.064
68169SOL     OW 4530  11.539  12.272   4.225
68169SOL    HW1 4531  11.532  12.355   4.169
68169SOL    HW2 4532  11.543  12.192   4.165
68170SOL     OW 4533  11.738  11.709   4.589
68170SOL    HW1 4534  11.750  11.775   4.515
68170SOL    HW2 4535  11.784  11.743   4.672
68171SOL     OW 4536  12.424  12.520   4.112
68171SOL    HW1 4537  12.474  12.597   4.152
68171SOL    HW2 4538  12.329  12.522   4.144
68172SOL     OW 4539  12.444  12.617   4.866
68172SOL    HW1 4540  12.491  12.630   4.953
68172SOL    HW2 4541  12.378  12.543   4.875
68173SOL     OW 4542  12.754  11.811   4.196
68173SOL    HW1 4543  12.723  11.872   4.269
68173SOL    HW2 4544  12.804  11.863   4.127
68174SOL     OW 4545  11.526  12.682   5.053
68174SOL    HW1 4546  11.505  12.638   4.966
68174SOL    HW2 4547  11.623  12.708   5.056
68175SOL     OW 4548  11.574  11.923   5.322
68175SOL    HW1 4549  11.642  11.978   5.275
68175SOL    HW2 4550  11.614  11.835   5.349
68176SOL     OW 4551  12.185  11.277   5.494
68176SOL    HW1 4552  12.191  11.362   5.442
68176SOL    HW2 4553  12.217  11.201   5.437
68177SOL     OW 4554  11.676  11.222   5.464
68177SOL    HW1 4555  11.634  11.165   5.394
68177SOL    HW2 4556  11.610  11.291   5.496
68178SOL     OW 4557  11.745  12.042   4.753
68178SOL    HW1 4558  11.789  12.131   4.744
68178SOL    HW2 4559  11.682  12.042   4.830
68179SOL     OW 4560  12.532  12.034   4.769
68179SOL    HW1 4561  12.457  12.034   4.703
68179SOL    HW2 4562  12.569  11.942   4.778
68180SOL     OW 4563  12.381  11.697   3.999
68180SOL    HW1 4564  12.394  11.613   4.053
68180SOL    HW2 4565  12.352  11.771   4.059
68181SOL     OW 4566  11.479  11.385   4.955
68181SOL    HW1 4567  11.456  11.422   5.045
68181SOL    HW2 4568  11.449  11.290   4.949
68182SOL     OW 4569  11.209  12.482   5.006
68182SOL    HW1 4570  11.262  12.433   5.074
68182SOL    HW2 4571  11.231  12.580   5.011
68183SOL     OW 4572  11.904  11.806   4.788
68183SOL    HW1 4573  11.963  11.780   4.712
68183SOL    HW2 4574  11.876  11.902   4.777
68184SOL     OW 4575  11.479  11.235   4.342
68184SOL    HW1 4576  11.468  11.329   4.375
68184SOL    HW2 4577  11.474  11.172   4.419
68185SOL     OW 4578  12.794  11.539   4.098
68185SOL    HW1 4579  12.796  11.463   4.162
68185SOL    HW2 4580  12.746  11.616   4.138
68186SOL     OW 4581  12.195  11.938   4.690
68186SOL    HW1 4582  12.210  11.959   4.786
68186SOL    HW2 4583  12.165  11.843   4.681
68187SOL     OW 4584  11.522  12.070   5.528
68187SOL    HW1 4585  11.598  12.114   5.576
68187SOL    HW2 4586  11.557  12.023   5.446
68188SOL     OW 4587  12.712  11.446   3.849
68188SOL    HW1 4588  12.651  11.371   3.872
68188SOL    HW2 4589  12.734  11.498   3.932
68189SOL     OW 4590  12.475  12.010   3.766
68189SOL    HW1 4591  12.509  11.917   3.781
68189SOL    HW2 4592  12.493  12.037   3.671
68190SOL     OW 4593  12.240  12.505   4.573
68190SOL    HW1 4594  12.247  12.421   4.518
68190SOL    HW2 4595  12.302  12.574   4.537
68191SOL     OW 4596  11.491  11.982   4.673
68191SOL    HW1 4597  11.584  12.018   4.678
68191SOL    HW2 4598  11.485  11.897   4.725
68192SOL     OW 4599  11.511  11.681   4.730
68192SOL    HW1 4600  11.459  11.598   4.713
68192SOL    HW2 4601  11.588  11.686   4.666
68193SOL     OW 4602  12.310  11.552   5.402
68193SOL    HW1 4603  12.265  11.615   5.466
68193SOL    HW2 4604  12.403  11.583   5.385
68194SOL     OW 4605  12.332  11.379   5.201
68194SOL    HW1 4606  12.332  11.443   5.278
68194SOL    HW2 4607  12.360  11.427   5.118
68195SOL     OW 4608  11.180  12.498   3.924
68195SOL    HW1 4609  11.087  12.519   3.893
68195SOL    HW2 4610  11.190  12.399   3.937
68196SOL     OW 4611  11.676  12.740   4.634
68196SOL    HW1 4612  11.742  12.814   4.643
68196SOL    HW2 4613  11.720  12.661   4.592
68197SOL     OW 4614  12.174  11.968   4.962
68197SOL    HW1 4615  12.215  11.936   5.048
68197SOL    HW2 4616  12.078  11.941   4.959
68198SOL     OW 4617  11.212  11.716   4.838
68198SOL    HW1 4618  11.297  11.683   4.797
68198SOL    HW2 4619  11.225  11.731   4.936
68199SOL     OW 4620  11.361  11.692   5.446
68199SOL    HW1 4621  11.420  11.652   5.376
68199SOL    HW2 4622  11.303  11.763   5.405
68200SOL     OW 4623  12.541  12.122   5.384
68200SOL    HW1 4624  12.580  12.211   5.404
68200SOL    HW2 4625  12.551  12.102   5.287
68201SOL     OW 4626  11.987  11.744   4.049
68201SOL    HW1 4627  11.994  11.655   4.003
68201SOL    HW2 4628  11.893  11.778   4.041
68202SOL     OW 4629  11.424  12.736   5.468
68202SOL    HW1 4630  11.394  12.793   5.544
68202SOL    HW2 4631  11.417  12.639   5.494
68203SOL     OW 4632  11.843  11.636   4.993
68203SOL    HW1 4633  11.809  11.547   4.963
68203SOL    HW2 4634  11.869  11.690   4.913
68204SOL     OW 4635  11.645  11.672   3.915
68204SOL    HW1 4636  11.706  11.752   3.919
68204SOL    HW2 4637  11.550  11.703   3.922
68205SOL     OW 4638  11.331  12.309   5.190
68205SOL    HW1 4639  11.353  12.248   5.266
68205SOL    HW2 4640  11.341  12.260   5.104
68206SOL     OW 4641  12.519  12.231   4.958
68206SOL    HW1 4642  12.543  12.168   4.884
68206SOL    HW2 4643  12.429  12.271   4.940
68207SOL     OW 4644  12.474  12.027   4.033
68207SOL    HW1 4645  12.388  11.996   4.075
68207SOL    HW2 4646  12.470  12.013   3.934
68208SOL     OW 4647  12.931  12.919   4.878
68208SOL    HW1 4648  12.992  12.949   4.805
68208SOL    HW2 4649  12.893  12.830   4.856
68209SOL     OW 4650  12.424  12.903   4.852
68209SOL    HW1 4651  12.508  12.908   4.798
68209SOL    HW2 4652  12.401  12.807   4.870
68210SOL     OW 4653  11.255  12.430   4.746
68210SOL    HW1 4654  11.250  12.429   4.846
68210SOL    HW2 4655  11.172  12.389   4.708
68211SOL     OW 4656  12.898  11.307   4.247
68211SOL    HW1 4657  12.971  11.290   4.180
68211SOL    HW2 4658  12.867  11.220   4.285
68212SOL     OW 4659  11.302  12.966   5.575
68212SOL    HW1 4660  11.261  12.892   5.628
68212SOL    HW2 4661  11.366  13.017   5.633
68213SOL     OW 4662  12.452  12.099   4.396
68213SOL    HW1 4663  12.512  12.018   4.398
68213SOL    HW2 4664  12.492  12.168   4.336
68214SOL     OW 4665  12.002  12.445   5.146
68214SOL    HW1 4666  11.997  12.478   5.241
68214SOL    HW2 4667  11.916  12.464   5.100
68215SOL     OW 4668  11.844  12.788   3.878
68215SOL    HW1 4669  11.853  12.798   3.779
68215SOL    HW2 4670  11.804  12.699   3.899
68216SOL     OW 4671  11.435  11.498   4.444
68216SOL    HW1 4672  11.356  11.549   4.410
68216SOL    HW2 4673  11.426  11.483   4.542
68217SOL     OW 4674  12.366  12.784   3.755
68217SOL    HW1 4675  12.372  12.691   3.792
68217SOL    HW2 4676  12.307  12.784   3.675
68218SOL     OW 4677  11.994  12.174   5.096
68218SOL    HW1 4678  12.034  12.173   5.004
68218SOL    HW2 4679  12.004  12.266   5.136
68219SOL     OW 4680  12.088  12.082   4.015
68219SOL    HW1 4681  12.151  12.120   3.947
68219SOL    HW2 4682  12.128  11.999   4.054
68220SOL     OW 4683  11.544  12.460   5.214
68220SOL    HW1 4684  11.531  12.553   5.180
68220SOL    HW2 4685  11.460  12.408   5.201
68221SOL     OW 4686  12.211  12.270   4.420
68221SOL    HW1 4687  12.141  12.223   4.474
68221SOL    HW2 4688  12.270  12.202   4.377
68222SOL     OW 4689  12.186  11.408   4.695
68222SOL    HW1 4690  12.178  11.372   4.602
68222SOL    HW2 4691  12.184  11.332   4.760
68223SOL     OW 4692  11.762  12.659   4.215
68223SOL    HW1 4693  11.804  12.601   4.145
68223SOL    HW2 4694  11.718  12.738   4.171
68224SOL     OW 4695  11.427  12.520   4.014
68224SOL    HW1 4696  11.331  12.521   3.987
68224SOL    HW2 4697  11.439  12.573   4.098
68225SOL     OW 4698  11.277  12.185   5.450
68225SOL    HW1 4699  11.200  12.152   5.504
68225SOL    HW2 4700  11.362  12.155   5.492
68226SOL     OW 4701  11.844  11.375   5.213
68226SOL    HW1 4702  11.934  11.359   5.173
68226SOL    HW2 4703  11.852  11.380   5.312
68227SOL     OW 4704  11.247  11.517   3.757
68227SOL    HW1 4705  11.155  11.489   3.728
68227SOL    HW2 4706  11.278  11.594   3.701
68228SOL     OW 4707  12.612  12.028   5.122
68228SOL    HW1 4708  12.555  12.080   5.059
68228SOL    HW2 4709  12.708  12.040   5.098
68229SOL     OW 4710  11.244  11.338   4.042
68229SOL    HW1 4711  11.227  11.421   3.988
68229SOL    HW2 4712  11.334  11.301   4.020
68230SOL     OW 4713  12.355  12.507   3.843
68230SOL    HW1 4714  12.256  12.496   3.845
68230SOL    HW2 4715  12.389  12.522   3.936
68231SOL     OW 4716  11.785  12.014   5.155
68231SOL    HW1 4717  11.841  12.095   5.138
68231SOL    HW2 4718  11.844  11.934   5.158
68232SOL     OW 4719  11.888  11.737   5.432
68232SOL    HW1 4720  11.907  11.802   5.506
68232SOL    HW2 4721  11.948  11.657   5.441
68233SOL     OW 4722  12.622  12.392   5.357
68233SOL    HW1 4723  12.613  12.382   5.456
68233SOL    HW2 4724  12.718  12.385   5.331
68234SOL     OW 4725  12.397  11.497   4.173
68234SOL    HW1 4726  12.462  11.423   4.162
68234SOL    HW2 4727  12.417  11.547   4.257
68235SOL     OW 4728  11.766  11.917   4.376
68235SOL    HW1 4729  11.816  12.002   4.357
68235SOL    HW2 4730  11.678  11.919   4.328
68236SOL     OW 4731  12.031  12.546   3.740
68236SOL    HW1 4732  11.985  12.561   3.828
68236SOL    HW2 4733  12.075  12.631   3.710
68237SOL     OW 4734  12.580  13.023   5.444
68237SOL    HW1 4735  12.484  13.012   5.417
68237SOL    HW2 4736  12.636  12.956   5.396
68238SOL     OW 4737  12.031  12.128   4.585
68238SOL    HW1 4738  12.085  12.059   4.633
68238SOL    HW2 4739  11.999  12.197   4.651
68239SOL     OW 4740  12.255  12.156   3.811
68239SOL    HW1 4741  12.232  12.209   3.729
68239SOL    HW2 4742  12.336  12.100   3.792
68240SOL     OW 4743  13.033  12.741   4.575
68240SOL    HW1 4744  12.962  12.729   4.505
68240SOL    HW2 4745  13.034  12.662   4.635
68241SOL     OW 4746  11.393  12.486   5.568
68241SOL    HW1 4747  11.328  12.413   5.547
68241SOL    HW2 4748  11.397  12.500   5.666
68242SOL     OW 4749  11.251  12.412   4.377
68242SOL    HW1 4750  11.250  12.365   4.465
68242SOL    HW2 4751  11.333  12.384   4.326
68243SOL     OW 4752  11.844  12.563   5.348
68243SOL    HW1 4753  11.766  12.513   5.386
68243SOL    HW2 4754  11.841  12.658   5.379
68244SOL     OW 4755  11.600  11.596   4.244
68244SOL    HW1 4756  11.630  11.524   4.182
68244SOL    HW2 4757  11.561  11.556   4.327
68245SOL     OW 4758  11.489  11.719   5.004
68245SOL    HW1 4759  11.527  11.660   5.076
68245SOL    HW2 4760  11.529  11.693   4.916
68246SOL     OW 4761  12.596  11.386   4.836
68246SOL    HW1 4762  12.648  11.321   4.891
68246SOL    HW2 4763  12.547  11.449   4.897
68247SOL     OW 4764  12.173  11.206   4.878
68247SOL    HW1 4765  12.110  11.134   4.847
68247SOL    HW2 4766  12.266  11.170   4.878
68248SOL     OW 4767  11.942  12.502   4.025
68248SOL    HW1 4768  11.896  12.415   4.042
68248SOL    HW2 4769  12.033  12.499   4.066
68249SOL     OW 4770  11.790  12.739   5.008
68249SOL    HW1 4771  11.785  12.821   5.065
68249SOL    HW2 4772  11.879  12.736   4.963
68250SOL     OW 4773  12.524  11.224   3.892
68250SOL    HW1 4774  12.559  11.183   3.808
68250SOL    HW2 4775  12.434  11.186   3.912
68251SOL     OW 4776  12.472  11.625   4.415
68251SOL    HW1 4777  12.413  11.705   4.419
68251SOL    HW2 4778  12.487  11.590   4.508
68252SOL     OW 4779  12.765  11.393   4.606
68252SOL    HW1 4780  12.681  11.392   4.660
68252SOL    HW2 4781  12.767  11.476   4.550
68253SOL     OW 4782  11.211  12.249   4.024
68253SOL    HW1 4783  11.310  12.238   4.015
68253SOL    HW2 4784  11.171  12.163   4.056
68254SOL     OW 4785  11.402  11.800   5.699
68254SOL    HW1 4786  11.309  11.798   5.736
68254SOL    HW2 4787  11.403  11.761   5.607
68255SOL     OW 4788  11.397  11.447   6.582
68255SOL    HW1 4789  11.432  11.430   6.674
68255SOL    HW2 4790  11.309  11.402   6.570
68256SOL     OW 4791  11.191  11.540   6.233
68256SOL    HW1 4792  11.109  11.583   6.272
68256SOL    HW2 4793  11.163  11.467   6.170
68257SOL     OW 4794  11.741  12.447   6.751
68257SOL    HW1 4795  11.648  12.440   6.714
68257SOL    HW2 4796  11.752  12.536   6.795
68258SOL     OW 4797  12.727  12.683   6.289
68258SOL    HW1 4798  12.670  12.667   6.370
68258SOL    HW2 4799  12.668  12.693   6.209
68259SOL     OW 4800  12.307  11.875   6.303
68259SOL    HW1 4801  12.364  11.953   6.278
68259SOL    HW2 4802  12.247  11.901   6.379
68260SOL     OW 4803  11.940  12.316   6.609
68260SOL    HW1 4804  11.862  12.333   6.669
68260SOL    HW2 4805  11.974  12.403   6.573
68261SOL     OW 4806  12.022  11.970   7.409
68261SOL    HW1 4807  12.018  12.046   7.474
68261SOL    HW2 4808  12.044  12.006   7.318
68262SOL     OW 4809  11.857  12.184   6.251
68262SOL    HW1 4810  11.926  12.168   6.321
68262SOL    HW2 4811  11.784  12.241   6.289
68263SOL     OW 4812  11.858  12.333   7.389
68263SOL    HW1 4813  11.918  12.412   7.403
68263SOL    HW2 4814  11.772  12.364   7.348
68264SOL     OW 4815  11.507  12.607   6.647
68264SOL    HW1 4816  11.429  12.576   6.594
68264SOL    HW2 4817  11.565  12.665   6.590
68265SOL     OW 4818  12.632  12.677   6.925
68265SOL    HW1 4819  12.656  12.771   6.951
68265SOL    HW2 4820  12.616  12.623   7.007
68266SOL     OW 4821  11.610  11.564   7.085
68266SOL    HW1 4822  11.692  11.508   7.094
68266SOL    HW2 4823  11.529  11.506   7.089
68267SOL     OW 4824  12.299  12.513   7.276
68267SOL    HW1 4825  12.346  12.513   7.364
68267SOL    HW2 4826  12.251  12.426   7.265
68268SOL     OW 4827  11.402  12.606   6.124
68268SOL    HW1 4828  11.376  12.702   6.124
68268SOL    HW2 4829  11.331  12.552   6.169
68269SOL     OW 4830  11.412  12.263   6.472
68269SOL    HW1 4831  11.426  12.179   6.524
68269SOL    HW2 4832  11.357  12.327   6.527
68270SOL     OW 4833  11.778  12.136   5.709
68270SOL    HW1 4834  11.785  12.220   5.655
68270SOL    HW2 4835  11.824  12.149   5.797
68271SOL     OW 4836  12.766  11.286   7.066
68271SOL    HW1 4837  12.748  11.353   6.994
68271SOL    HW2 4838  12.763  11.332   7.155
68272SOL     OW 4839  11.294  11.815   6.149
68272SOL    HW1 4840  11.249  11.727   6.166
68272SOL    HW2 4841  11.293  11.869   6.233
68273SOL     OW 4842  11.199  12.768   5.703
68273SOL    HW1 4843  11.180  12.672   5.724
68273SOL    HW2 4844  11.166  12.826   5.778
68274SOL     OW 4845  12.861  12.094   6.198
68274SOL    HW1 4846  12.956  12.065   6.206
68274SOL    HW2 4847  12.853  12.159   6.123
68275SOL     OW 4848  11.285  11.909   7.183
68275SOL    HW1 4849  11.373  11.896   7.228
68275SOL    HW2 4850  11.272  12.006   7.161
68276SOL     OW 4851  11.785  12.537   6.312
68276SOL    HW1 4852  11.736  12.450   6.321
68276SOL    HW2 4853  11.762  12.580   6.225
68277SOL     OW 4854  12.465  12.400   7.009
68277SOL    HW1 4855  12.502  12.327   6.951
68277SOL    HW2 4856  12.517  12.405   7.094
68278SOL     OW 4857  11.981  11.176   6.088
68278SOL    HW1 4858  12.021  11.267   6.079
68278SOL    HW2 4859  11.881  11.184   6.094
68279SOL     OW 4860  11.369  12.148   6.850
68279SOL    HW1 4861  11.458  12.103   6.836
68279SOL    HW2 4862  11.296  12.083   6.831
68280SOL     OW 4863  11.489  11.423   7.387
68280SOL    HW1 4864  11.560  11.494   7.393
68280SOL    HW2 4865  11.401  11.462   7.415
68281SOL     OW 4866  12.638  12.589   6.539
68281SOL    HW1 4867  12.579  12.595   6.619
68281SOL    HW2 4868  12.623  12.501   6.493
68282SOL     OW 4869  11.770  11.901   5.856
68282SOL    HW1 4870  11.794  11.970   5.788
68282SOL    HW2 4871  11.692  11.934   5.910
68283SOL     OW 4872  12.453  11.517   6.530
68283SOL    HW1 4873  12.367  11.467   6.517
68283SOL    HW2 4874  12.515  11.463   6.586
68284SOL     OW 4875  11.979  11.777   7.051
68284SOL    HW1 4876  11.932  11.774   7.140
68284SOL    HW2 4877  11.928  11.722   6.985
68285SOL     OW 4878  12.566  11.641   7.260
68285SOL    HW1 4879  12.546  11.684   7.348
68285SOL    HW2 4880  12.644  11.579   7.269
68286SOL     OW 4881  12.145  12.062   7.158
68286SOL    HW1 4882  12.191  11.978   7.129
68286SOL    HW2 4883  12.089  12.096   7.083
68287SOL     OW 4884  12.163  11.582   6.828
68287SOL    HW1 4885  12.086  11.616   6.882
68287SOL    HW2 4886  12.129  11.531   6.749
68288SOL     OW 4887  12.213  11.873   6.015
68288SOL    HW1 4888  12.239  11.869   6.111
68288SOL    HW2 4889  12.128  11.822   6.001
68289SOL     OW 4890  11.248  11.983   6.375
68289SOL    HW1 4891  11.347  11.971   6.384
68289SOL    HW2 4892  11.224  12.078   6.396
68290SOL     OW 4893  12.037  11.520   5.781
68290SOL    HW1 4894  12.096  11.583   5.732
68290SOL    HW2 4895  12.056  11.426   5.752
68291SOL     OW 4896  12.534  12.316   6.131
68291SOL    HW1 4897  12.617  12.287   6.083
68291SOL    HW2 4898  12.485  12.383   6.075
68292SOL     OW 4899  11.722  11.368   6.471
68292SOL    HW1 4900  11.717  11.363   6.571
68292SOL    HW2 4901  11.724  11.464   6.442
68293SOL     OW 4902  12.180  12.628   6.063
68293SOL    HW1 4903  12.134  12.700   6.011
68293SOL    HW2 4904  12.176  12.648   6.161
68294SOL     OW 4905  12.399  12.722   7.092
68294SOL    HW1 4906  12.405  12.645   7.156
68294SOL    HW2 4907  12.347  12.696   7.012
68295SOL     OW 4908  11.493  12.115   5.828
68295SOL    HW1 4909  11.575  12.154   5.786
68295SOL    HW2 4910  11.466  12.033   5.779
68296SOL     OW 4911  12.630  11.907   6.314
68296SOL    HW1 4912  12.625  11.842   6.389
68296SOL    HW2 4913  12.710  11.966   6.327
68297SOL     OW 4914  11.633  12.438   7.313
68297SOL    HW1 4915  11.583  12.439   7.227
68297SOL    HW2 4916  11.570  12.420   7.389
68298SOL     OW 4917  11.374  11.457   7.084
68298SOL    HW1 4918  11.294  11.517   7.071
68298SOL    HW2 4919  11.364  11.408   7.170
68299SOL     OW 4920  12.572  11.279   6.012
68299SOL    HW1 4921  12.548  11.242   5.922
68299SOL    HW2 4922  12.671  11.295   6.016
68300SOL     OW 4923  11.554  11.872   6.066
68300SOL    HW1 4924  11.599  11.782   6.063
68300SOL    HW2 4925  11.460  11.861   6.099
68301SOL     OW 4926  11.786  11.294   5.703
68301SOL    HW1 4927  11.884  11.272   5.710
68301SOL    HW2 4928  11.755  11.277   5.610
68302SOL     OW 4929  11.953  11.436   7.335
68302SOL    HW1 4930  12.020  11.375   7.378
68302SOL    HW2 4931  11.880  11.455   7.400
68303SOL     OW 4932  12.523  11.762   7.019
68303SOL    HW1 4933  12.551  11.719   7.104
68303SOL    HW2 4934  12.548  11.858   7.020
68304SOL     OW 4935  11.975  12.574   6.510
68304SOL    HW1 4936  12.065  12.588   6.468
68304SOL    HW2 4937  11.904  12.576   6.439
68305SOL     OW 4938  12.094  11.675   6.485
68305SOL    HW1 4939  12.069  11.666   6.389
68305SOL    HW2 4940  12.142  11.593   6.516
68306SOL     OW 4941  11.711  11.236   6.098
68306SOL    HW1 4942  11.630  11.237   6.156
68306SOL    HW2 4943  11.714  11.319   6.043
68307SOL     OW 4944  12.606  12.360   5.627
68307SOL    HW1 4945  12.638  12.284   5.684
68307SOL    HW2 4946  12.514  12.387   5.657
68308SOL     OW 4947  11.469  11.207   5.757
68308SOL    HW1 4948  11.518  11.291   5.736
68308SOL    HW2 4949  11.531  11.142   5.802
68309SOL     OW 4950  12.107  11.408   6.066
68309SOL    HW1 4951  12.059  11.449   5.988
68309SOL    HW2 4952  12.206  11.406   6.047
68310SOL     OW 4953  12.248  11.855   7.050
68310SOL    HW1 4954  12.168  11.794   7.053
68310SOL    HW2 4955  12.329  11.802   7.026
68311SOL     OW 4956  12.399  12.742   6.379
68311SOL    HW1 4957  12.420  12.816   6.314
68311SOL    HW2 4958  12.467  12.742   6.452
68312SOL     OW 4959  11.631  12.324   6.327
68312SOL    HW1 4960  11.560  12.297   6.392
68312SOL    HW2 4961  11.605  12.296   6.234
68313SOL     OW 4962  12.204  11.721   5.602
68313SOL    HW1 4963  12.163  11.803   5.563
68313SOL    HW2 4964  12.268  11.747   5.675
68314SOL     OW 4965  11.250  11.728   6.972
68314SOL    HW1 4966  11.342  11.727   6.931
68314SOL    HW2 4967  11.244  11.802   7.039
68315SOL     OW 4968  11.733  11.394   6.733
68315SOL    HW1 4969  11.771  11.310   6.770
68315SOL    HW2 4970  11.645  11.413   6.777
68316SOL     OW 4971  12.038  11.626   6.228
68316SOL    HW1 4972  12.006  11.698   6.166
68316SOL    HW2 4973  12.062  11.545   6.175
68317SOL     OW 4974  12.189  11.211   6.339
68317SOL    HW1 4975  12.117  11.216   6.270
68317SOL    HW2 4976  12.165  11.142   6.408
68318SOL     OW 4977  12.601  12.345   6.453
68318SOL    HW1 4978  12.546  12.261   6.446
68318SOL    HW2 4979  12.627  12.374   6.361
68319SOL     OW 4980  12.638  11.762   6.578
68319SOL    HW1 4981  12.608  11.667   6.585
68319SOL    HW2 4982  12.711  11.778   6.644
68320SOL     OW 4983  11.660  12.557   5.760
68320SOL    HW1 4984  11.573  12.542   5.807
68320SOL    HW2 4985  11.643  12.583   5.665
68321SOL     OW 4986  12.562  11.747   5.664
68321SOL    HW1 4987  12.508  11.726   5.745
68321SOL    HW2 4988  12.653  11.706   5.673
68322SOL     OW 4989  11.699  11.428   5.914
68322SOL    HW1 4990  11.726  11.369   5.839
68322SOL    HW2 4991  11.699  11.523   5.883
68323SOL     OW 4992  12.236  12.519   6.926
68323SOL    HW1 4993  12.156  12.496   6.981
68323SOL    HW2 4994  12.319  12.493   6.975
68324SOL     OW 4995  12.283  12.367   6.686
68324SOL    HW1 4996  12.243  12.411   6.767
68324SOL    HW2 4997  12.242  12.404   6.603
68325SOL     OW 4998  12.087  11.261   6.988
68325SOL    HW1 4999  12.112  11.241   6.893
68325SOL    HW2 5000  12.159  11.317   7.030
68326SOL     OW 5001  12.152  12.288   7.305
68326SOL    HW1 5002  12.053  12.294   7.315
68326SOL    HW2 5003  12.175  12.208   7.249
68327SOL     OW 5004  11.877  12.222   5.954
68327SOL    HW1 5005  11.863  12.229   6.053
68327SOL    HW2 5006  11.961  12.171   5.936
68328SOL     OW 5007  11.582  11.985   6.837
68328SOL    HW1 5008  11.668  11.997   6.887
68328SOL    HW2 5009  11.540  11.898   6.864
68329SOL     OW 5010  12.446  11.558   6.848
68329SOL    HW1 5011  12.467  11.632   6.912
68329SOL    HW2 5012  12.357  11.575   6.805
68330SOL     OW 5013  11.236  12.736   6.917
68330SOL    HW1 5014  11.190  12.818   6.883
68330SOL    HW2 5015  11.334  12.755   6.926
68331SOL     OW 5016  11.539  12.272   6.087
68331SOL    HW1 5017  11.532  12.355   6.031
68331SOL    HW2 5018  11.543  12.192   6.027
68332SOL     OW 5019  11.738  11.709   6.451
68332SOL    HW1 5020  11.750  11.775   6.377
68332SOL    HW2 5021  11.784  11.743   6.534
68333SOL     OW 5022  12.424  12.520   5.974
68333SOL    HW1 5023  12.474  12.597   6.014
68333SOL    HW2 5024  12.329  12.522   6.006
68334SOL     OW 5025  12.444  12.617   6.728
68334SOL    HW1 5026  12.491  12.630   6.815
68334SOL    HW2 5027  12.378  12.543   6.737
68335SOL     OW 5028  12.754  11.811   6.058
68335SOL    HW1 5029  12.723  11.872   6.131
68335SOL    HW2 5030  12.804  11.863   5.989
68336SOL     OW 5031  11.526  12.682   6.915
68336SOL    HW1 5032  11.505  12.638   6.828
68336SOL    HW2 5033  11.623  12.708   6.918
68337SOL     OW 5034  11.574  11.923   7.184
68337SOL    HW1 5035  11.642  11.978   7.137
68337SOL    HW2 5036  11.614  11.835   7.211
68338SOL     OW 5037  12.185  11.277   7.356
68338SOL    HW1 5038  12.191  11.362   7.304
68338SOL    HW2 5039  12.217  11.201   7.299
68339SOL     OW 5040  11.676  11.222   7.326
68339SOL    HW1 5041  11.634  11.165   7.256
68339SOL    HW2 5042  11.610  11.291   7.358
68340SOL     OW 5043  11.745  12.042   6.615
68340SOL    HW1 5044  11.789  12.131   6.606
68340SOL    HW2 5045  11.682  12.042   6.692
68341SOL     OW 5046  12.532  12.034   6.631
68341SOL    HW1 5047  12.457  12.034   6.565
68341SOL    HW2 5048  12.569  11.942   6.640
68342SOL     OW 5049  12.381  11.697   5.861
68342SOL    HW1 5050  12.394  11.613   5.915
68342SOL    HW2 5051  12.352  11.771   5.921
68343SOL     OW 5052  11.479  11.385   6.817
68343SOL    HW1 5053  11.456  11.422   6.907
68343SOL    HW2 5054  11.449  11.290   6.811
68344SOL     OW 5055  11.209  12.482   6.868
68344SOL    HW1 5056  11.262  12.433   6.936
68344SOL    HW2 5057  11.231  12.580   6.873
68345SOL     OW 5058  11.904  11.806   6.650
68345SOL    HW1 5059  11.963  11.780   6.574
68345SOL    HW2 5060  11.876  11.902   6.639
68346SOL     OW 5061  11.479  11.235   6.204
68346SOL    HW1 5062  11.468  11.329   6.237
68346SOL    HW2 5063  11.474  11.172   6.281
68347SOL     OW 5064  12.794  11.539   5.960
68347SOL    HW1 5065  12.796  11.463   6.024
68347SOL    HW2 5066  12.746  11.616   6.000
68348SOL     OW 5067  12.195  11.938   6.552
68348SOL    HW1 5068  12.210  11.959   6.648
68348SOL    HW2 5069  12.165  11.843   6.543
68349SOL     OW 5070  11.522  12.070   7.390
68349SOL    HW1 5071  11.598  12.114   7.438
68349SOL    HW2 5072  11.557  12.023   7.308
68350SOL     OW 5073  12.712  11.446   5.711
68350SOL    HW1 5074  12.651  11.371   5.734
68350SOL    HW2 5075  12.734  11.498   5.794
68351SOL     OW 5076  12.475  12.010   5.628
68351SOL    HW1 5077  12.509  11.917   5.643
68351SOL    HW2 5078  12.493  12.037   5.533
68352SOL     OW 5079  12.240  12.505   6.435
68352SOL    HW1 5080  12.247  12.421   6.380
68352SOL    HW2 5081  12.302  12.574   6.399
68353SOL     OW 5082  11.491  11.982   6.535
68353SOL    HW1 5083  11.584  12.018   6.540
68353SOL    HW2 5084  11.485  11.897   6.587
68354SOL     OW 5085  11.511  11.681   6.592
68354SOL    HW1 5086  11.459  11.598   6.575
68354SOL    HW2 5087  11.588  11.686   6.528
68355SOL     OW 5088  12.310  11.552   7.264
68355SOL    HW1 5089  12.265  11.615   7.328
68355SOL    HW2 5090  12.403  11.583   7.247
68356SOL     OW 5091  12.332  11.379   7.063
68356SOL    HW1 5092  12.332  11.443   7.140
68356SOL    HW2 5093  12.360  11.427   6.980
68357SOL     OW 5094  11.180  12.498   5.786
68357SOL    HW1 5095  11.087  12.519   5.755
68357SOL    HW2 5096  11.190  12.399   5.799
68358SOL     OW 5097  11.676  12.740   6.496
68358SOL    HW1 5098  11.742  12.814   6.505
68358SOL    HW2 5099  11.720  12.661   6.454
68359SOL     OW 5100  12.174  11.968   6.824
68359SOL    HW1 5101  12.215  11.936   6.910
68359SOL    HW2 5102  12.078  11.941   6.821
68360SOL     OW 5103  11.212  11.716   6.700
68360SOL    HW1 5104  11.297  11.683   6.659
68360SOL    HW2 5105  11.225  11.731   6.798
68361SOL     OW 5106  11.361  11.692   7.308
68361SOL    HW1 5107  11.420  11.652   7.238
68361SOL    HW2 5108  11.303  11.763   7.267
68362SOL     OW 5109  12.541  12.122   7.246
68362SOL    HW1 5110  12.580  12.211   7.266
68362SOL    HW2 5111  12.551  12.102   7.149
68363SOL     OW 5112  11.987  11.744   5.911
68363SOL    HW1 5113  11.994  11.655   5.865
68363SOL    HW2 5114  11.893  11.778   5.903
68364SOL     OW 5115  11.424  12.736   7.330
68364SOL    HW1 5116  11.394  12.793   7.406
68364SOL    HW2 5117  11.417  12.639   7.356
68365SOL     OW 5118  11.843  11.636   6.855
68365SOL    HW1 5119  11.809  11.547   6.825
68365SOL    HW2 5120  11.869  11.690   6.775
68366SOL     OW 5121  11.645  11.672   5.777
68366SOL    HW1 5122  11.706  11.752   5.781
68366SOL    HW2 5123  11.550  11.703   5.784
68367SOL     OW 5124  11.331  12.309   7.052
68367SOL    HW1 5125  11.353  12.248   7.128
68367SOL    HW2 5126  11.341  12.260   6.966
68368SOL     OW 5127  12.519  12.231   6.820
68368SOL    HW1 5128  12.543  12.168   6.746
68368SOL    HW2 5129  12.429  12.271   6.802
68369SOL     OW 5130  12.474  12.027   5.895
68369SOL    HW1 5131  12.388  11.996   5.937
68369SOL    HW2 5132  12.470  12.013   5.796
68370SOL     OW 5133  12.931  12.919   6.740
68370SOL    HW1 5134  12.992  12.949   6.667
68370SOL    HW2 5135  12.893  12.830   6.718
68371SOL     OW 5136  12.424  12.903   6.714
68371SOL    HW1 5137  12.508  12.908   6.660
68371SOL    HW2 5138  12.401  12.807   6.732
68372SOL     OW 5139  11.255  12.430   6.608
68372SOL    HW1 5140  11.250  12.429   6.708
68372SOL    HW2 5141  11.172  12.389   6.570
68373SOL     OW 5142  12.898  11.307   6.109
68373SOL    HW1 5143  12.971  11.290   6.042
68373SOL    HW2 5144  12.867  11.220   6.147
68374SOL     OW 5145  11.302  12.966   7.437
68374SOL    HW1 5146  11.261  12.892   7.490
68374SOL    HW2 5147  11.366  13.017   7.495
68375SOL     OW 5148  12.452  12.099   6.258
68375SOL    HW1 5149  12.512  12.018   6.260
68375SOL    HW2 5150  12.492  12.168   6.198
68376SOL     OW 5151  12.002  12.445   7.008
68376SOL    HW1 5152  11.997  12.478   7.103
68376SOL    HW2 5153  11.916  12.464   6.962
68377SOL     OW 5154  11.844  12.788   5.740
68377SOL    HW1 5155  11.853  12.798   5.641
68377SOL    HW2 5156  11.804  12.699   5.761
68378SOL     OW 5157  11.435  11.498   6.306
68378SOL    HW1 5158  11.356  11.549   6.272
68378SOL    HW2 5159  11.426  11.483   6.404
68379SOL     OW 5160  12.366  12.784   5.617
68379SOL    HW1 5161  12.372  12.691   5.654
68379SOL    HW2 5162  12.307  12.784   5.537
68380SOL     OW 5163  11.994  12.174   6.958
68380SOL    HW1 5164  12.034  12.173   6.866
68380SOL    HW2 5165  12.004  12.266   6.998
68381SOL     OW 5166  12.088  12.082   5.877
68381SOL    HW1 5167  12.151  12.120   5.809
68381SOL    HW2 5168  12.128  11.999   5.916
68382SOL     OW 5169  11.544  12.460   7.076
68382SOL    HW1 5170  11.531  12.553   7.042
68382SOL    HW2 5171  11.460  12.408   7.063
68383SOL     OW 5172  12.211  12.270   6.282
68383SOL    HW1 5173  12.141  12.223   6.336
68383SOL    HW2 5174  12.270  12.202   6.239
68384SOL     OW 5175  12.186  11.408   6.557
68384SOL    HW1 5176  12.178  11.372   6.464
68384SOL    HW2 5177  12.184  11.332   6.622
68385SOL     OW 5178  11.762  12.659   6.077
68385SOL    HW1 5179  11.804  12.601   6.007
68385SOL    HW2 5180  11.718  12.738   6.033
68386SOL     OW 5181  11.427  12.520   5.876
68386SOL    HW1 5182  11.331  12.521   5.849
68386SOL    HW2 5183  11.439  12.573   5.960
68387SOL     OW 5184  11.277  12.185   7.312
68387SOL    HW1 5185  11.200  12.152   7.366
68387SOL    HW2 5186  11.362  12.155   7.354
68388SOL     OW 5187  11.844  11.375   7.075
68388SOL    HW1 5188  11.934  11.359   7.035
68388SOL    HW2 5189  11.852  11.380   7.174
68389SOL     OW 5190  11.247  11.517   5.619
68389SOL    HW1 5191  11.155  11.489   5.590
68389SOL    HW2 5192  11.278  11.594   5.563
68390SOL     OW 5193  12.612  12.028   6.984
68390SOL    HW1 5194  12.555  12.080   6.921
68390SOL    HW2 5195  12.708  12.040   6.960
68391SOL     OW 5196  11.244  11.338   5.904
68391SOL    HW1 5197  11.227  11.421   5.850
68391SOL    HW2 5198  11.334  11.301   5.882
68392SOL     OW 5199  12.355  12.507   5.705
68392SOL    HW1 5200  12.256  12.496   5.707
68392SOL    HW2 5201  12.389  12.522   5.798
68393SOL     OW 5202  11.785  12.014   7.017
68393SOL    HW1 5203  11.841  12.095   7.000
68393SOL    HW2 5204  11.844  11.934   7.020
68394SOL     OW 5205  11.888  11.737   7.294
68394SOL    HW1 5206  11.907  11.802   7.368
68394SOL    HW2 5207  11.948  11.657   7.303
68395SOL     OW 5208  12.622  12.392   7.219
68395SOL    HW1 5209  12.613  12.382   7.318
68395SOL    HW2 5210  12.718  12.385   7.193
68396SOL     OW 5211  12.397  11.497   6.035
68396SOL    HW1 5212  12.462  11.423   6.024
68396SOL    HW2 5213  12.417  11.547   6.119
68397SOL     OW 5214  11.766  11.917   6.238
68397SOL    HW1 5215  11.816  12.002   6.219
68397SOL    HW2 5216  11.678  11.919   6.190
68398SOL     OW 5217  12.031  12.546   5.602
68398SOL    HW1 5218  11.985  12.561   5.690
68398SOL    HW2 5219  12.075  12.631   5.572
68399SOL     OW 5220  12.580  13.023   7.306
68399SOL    HW1 5221  12.484  13.012   7.279
68399SOL    HW2 5222  12.636  12.956   7.258
68400SOL     OW 5223  12.031  12.128   6.447
68400SOL    HW1 5224  12.085  12.059   6.495
68400SOL    HW2 5225  11.999  12.197   6.513
68401SOL     OW 5226  12.255  12.156   5.673
68401SOL    HW1 5227  12.232  12.209   5.591
68401SOL    HW2 5228  12.336  12.100   5.654
68402SOL     OW 5229  13.033  12.741   6.437
68402SOL    HW1 5230  12.962  12.729   6.367
68402SOL    HW2 5231  13.034  12.662   6.497
68403SOL     OW 5232  11.393  12.486   7.430
68403SOL    HW1 5233  11.328  12.413   7.409
68403SOL    HW2 5234  11.397  12.500   7.528
68404SOL     OW 5235  11.251  12.412   6.239
68404SOL    HW1 5236  11.250  12.365   6.327
68404SOL    HW2 5237  11.333  12.384   6.188
68405SOL     OW 5238  11.844  12.563   7.210
68405SOL    HW1 5239  11.766  12.513   7.248
68405SOL    HW2 5240  11.841  12.658   7.241
68406SOL     OW 5241  11.600  11.596   6.106
68406SOL    HW1 5242  11.630  11.524   6.044
68406SOL    HW2 5243  11.561  11.556   6.189
68407SOL     OW 5244  11.489  11.719   6.866
68407SOL    HW1 5245  11.527  11.660   6.938
68407SOL    HW2 5246  11.529  11.693   6.778
68408SOL     OW 5247  12.596  11.386   6.698
68408SOL    HW1 5248  12.648  11.321   6.753
68408SOL    HW2 5249  12.547  11.449   6.759
68409SOL     OW 5250  12.173  11.206   6.740
68409SOL    HW1 5251  12.110  11.134   6.709
68409SOL    HW2 5252  12.266  11.170   6.740
68410SOL     OW 5253  11.942  12.502   5.887
68410SOL    HW1 5254  11.896  12.415   5.904
68410SOL    HW2 5255  12.033  12.499   5.928
68411SOL     OW 5256  11.790  12.739   6.870
68411SOL    HW1 5257  11.785  12.821   6.927
68411SOL    HW2 5258  11.879  12.736   6.825
68412SOL     OW 5259  12.524  11.224   5.754
68412SOL    HW1 5260  12.559  11.183   5.670
68412SOL    HW2 5261  12.434  11.186   5.774
68413SOL     OW 5262  12.472  11.625   6.277
68413SOL    HW1 5263  12.413  11.705   6.281
68413SOL    HW2 5264  12.487  11.590   6.370
68414SOL     OW 5265  12.765  11.393   6.468
68414SOL    HW1 5266  12.681  11.392   6.522
68414SOL    HW2 5267  12.767  11.476   6.412
68415SOL     OW 5268  11.211  12.249   5.886
68415SOL    HW1 5269  11.310  12.238   5.877
68415SOL    HW2 5270  11.171  12.163   5.918
68416SOL     OW 5271  11.402  11.800   7.561
68416SOL    HW1 5272  11.309  11.798   7.598
68416SOL    HW2 5273  11.403  11.761   7.469
68417SOL     OW 5274  11.397  11.447   8.444
68417SOL    HW1 5275  11.432  11.430   8.536
68417SOL    HW2 5276  11.309  11.402   8.432
68418SOL     OW 5277  11.191  11.540   8.095
68418SOL    HW1 5278  11.109  11.583   8.134
68418SOL    HW2 5279  11.163  11.467   8.032
68419SOL     OW 5280  11.741  12.447   8.613
68419SOL    HW1 5281  11.648  12.440   8.576
68419SOL    HW2 5282  11.752  12.536   8.657
68420SOL     OW 5283  12.727  12.683   8.151
68420SOL    HW1 5284  12.670  12.667   8.232
68420SOL    HW2 5285  12.668  12.693   8.071
68421SOL     OW 5286  12.307  11.875   8.165
68421SOL    HW1 5287  12.364  11.953   8.140
68421SOL    HW2 5288  12.247  11.901   8.241
68422SOL     OW 5289  11.940  12.316   8.471
68422SOL    HW1 5290  11.862  12.333   8.531
68422SOL    HW2 5291  11.974  12.403   8.435
68423SOL     OW 5292  12.022  11.970   9.271
68423SOL    HW1 5293  12.018  12.046   9.336
68423SOL    HW2 5294  12.044  12.006   9.180
68424SOL     OW 5295  11.857  12.184   8.113
68424SOL    HW1 5296  11.926  12.168   8.183
68424SOL    HW2 5297  11.784  12.241   8.151
68425SOL     OW 5298  11.858  12.333   9.251
68425SOL    HW1 5299  11.918  12.412   9.265
68425SOL    HW2 5300  11.772  12.364   9.210
68426SOL     OW 5301  11.507  12.607   8.509
68426SOL    HW1 5302  11.429  12.576   8.456
68426SOL    HW2 5303  11.565  12.665   8.452
68427SOL     OW 5304  12.632  12.677   8.787
68427SOL    HW1 5305  12.656  12.771   8.813
68427SOL    HW2 5306  12.616  12.623   8.869
68428SOL     OW 5307  11.610  11.564   8.947
68428SOL    HW1 5308  11.692  11.508   8.956
68428SOL    HW2 5309  11.529  11.506   8.951
68429SOL     OW 5310  12.299  12.513   9.138
68429SOL    HW1 5311  12.346  12.513   9.226
68429SOL    HW2 5312  12.251  12.426   9.127
68430SOL     OW 5313  11.402  12.606   7.986
68430SOL    HW1 5314  11.376  12.702   7.986
68430SOL    HW2 5315  11.331  12.552   8.031
68431SOL     OW 5316  11.412  12.263   8.334
68431SOL    HW1 5317  11.426  12.179   8.386
68431SOL    HW2 5318  11.357  12.327   8.389
68432SOL     OW 5319  11.778  12.136   7.571
68432SOL    HW1 5320  11.785  12.220   7.517
68432SOL    HW2 5321  11.824  12.149   7.659
68433SOL     OW 5322  12.766  11.286   8.928
68433SOL    HW1 5323  12.748  11.353   8.856
68433SOL    HW2 5324  12.763  11.332   9.017
68434SOL     OW 5325  11.294  11.815   8.011
68434SOL    HW1 5326  11.249  11.727   8.028
68434SOL    HW2 5327  11.293  11.869   8.095
68435SOL     OW 5328  11.199  12.768   7.565
68435SOL    HW1 5329  11.180  12.672   7.586
68435SOL    HW2 5330  11.166  12.826   7.640
68436SOL     OW 5331  12.861  12.094   8.060
68436SOL    HW1 5332  12.956  12.065   8.068
68436SOL    HW2 5333  12.853  12.159   7.985
68437SOL     OW 5334  11.285  11.909   9.045
68437SOL    HW1 5335  11.373  11.896   9.090
68437SOL    HW2 5336  11.272  12.006   9.023
68438SOL     OW 5337  11.785  12.537   8.174
68438SOL    HW1 5338  11.736  12.450   8.183
68438SOL    HW2 5339  11.762  12.580   8.087
68439SOL     OW 5340  12.465  12.400   8.871
68439SOL    HW1 5341  12.502  12.327   8.813
68439SOL    HW2 5342  12.517  12.405   8.956
68440SOL     OW 5343  11.981  11.176   7.950
68440SOL    HW1 5344  12.021  11.267   7.941
68440SOL    HW2 5345  11.881  11.184   7.956
68441SOL     OW 5346  11.369  12.148   8.712
68441SOL    HW1 5347  11.458  12.103   8.698
68441SOL    HW2 5348  11.296  12.083   8.693
68442SOL     OW 5349  11.489  11.423   9.249
68442SOL    HW1 5350  11.560  11.494   9.255
68442SOL    HW2 5351  11.401  11.462   9.277
68443SOL     OW 5352  12.638  12.589   8.401
68443SOL    HW1 5353  12.579  12.595   8.481
68443SOL    HW2 5354  12.623  12.501   8.355
68444SOL     OW 5355  11.770  11.901   7.718
68444SOL    HW1 5356  11.794  11.970   7.650
68444SOL    HW2 5357  11.692  11.934   7.772
68445SOL     OW 5358  12.453  11.517   8.392
68445SOL    HW1 5359  12.367  11.467   8.379
68445SOL    HW2 5360  12.515  11.463   8.448
68446SOL     OW 5361  11.979  11.777   8.913
68446SOL    HW1 5362  11.932  11.774   9.002
68446SOL    HW2 5363  11.928  11.722   8.847
68447SOL     OW 5364  12.566  11.641   9.122
68447SOL    HW1 5365  12.546  11.684   9.210
68447SOL    HW2 5366  12.644  11.579   9.131
68448SOL     OW 5367  12.145  12.062   9.020
68448SOL    HW1 5368  12.191  11.978   8.991
68448SOL    HW2 5369  12.089  12.096   8.945
68449SOL     OW 5370  12.163  11.582   8.690
68449SOL    HW1 5371  12.086  11.616   8.744
68449SOL    HW2 5372  12.129  11.531   8.611
68450SOL     OW 5373  12.213  11.873   7.877
68450SOL    HW1 5374  12.239  11.869   7.973
68450SOL    HW2 5375  12.128  11.822   7.863
68451SOL     OW 5376  11.248  11.983   8.237
68451SOL    HW1 5377  11.347  11.971   8.246
68451SOL    HW2 5378  11.224  12.078   8.258
68452SOL     OW 5379  12.037  11.520   7.643
68452SOL    HW1 5380  12.096  11.583   7.594
68452SOL    HW2 5381  12.056  11.426   7.614
68453SOL     OW 5382  12.534  12.316   7.993
68453SOL    HW1 5383  12.617  12.287   7.945
68453SOL    HW2 5384  12.485  12.383   7.937
68454SOL     OW 5385  11.722  11.368   8.333
68454SOL    HW1 5386  11.717  11.363   8.433
68454SOL    HW2 5387  11.724  11.464   8.304
68455SOL     OW 5388  12.180  12.628   7.925
68455SOL    HW1 5389  12.134  12.700   7.873
68455SOL    HW2 5390  12.176  12.648   8.023
68456SOL     OW 5391  12.399  12.722   8.954
68456SOL    HW1 5392  12.405  12.645   9.018
68456SOL    HW2 5393  12.347  12.696   8.874
68457SOL     OW 5394  11.493  12.115   7.690
68457SOL    HW1 5395  11.575  12.154   7.648
68457SOL    HW2 5396  11.466  12.033   7.641
68458SOL     OW 5397  12.630  11.907   8.176
68458SOL    HW1 5398  12.625  11.842   8.251
68458SOL    HW2 5399  12.710  11.966   8.189
68459SOL     OW 5400  11.633  12.438   9.175
68459SOL    HW1 5401  11.583  12.439   9.089
68459SOL    HW2 5402  11.570  12.420   9.251
68460SOL     OW 5403  11.374  11.457   8.946
68460SOL    HW1 5404  11.294  11.517   8.933
68460SOL    HW2 5405  11.364  11.408   9.032
68461SOL     OW 5406  12.572  11.279   7.874
68461SOL    HW1 5407  12.548  11.242   7.784
68461SOL    HW2 5408  12.671  11.295   7.878
68462SOL     OW 5409  11.554  11.872   7.928
68462SOL    HW1 5410  11.599  11.782   7.925
68462SOL    HW2 5411  11.460  11.861   7.961
68463SOL     OW 5412  11.786  11.294   7.565
68463SOL    HW1 5413  11.884  11.272   7.572
68463SOL    HW2 5414  11.755  11.277   7.472
68464SOL     OW 5415  11.953  11.436   9.197
68464SOL    HW1 5416  12.020  11.375   9.240
68464SOL    HW2 5417  11.880  11.455   9.262
68465SOL     OW 5418  12.523  11.762   8.881
68465SOL    HW1 5419  12.551  11.719   8.966
68465SOL    HW2 5420  12.548  11.858   8.882
68466SOL     OW 5421  11.975  12.574   8.372
68466SOL    HW1 5422  12.065  12.588   8.330
68466SOL    HW2 5423  11.904  12.576   8.301
68467SOL     OW 5424  12.094  11.675   8.347
68467SOL    HW1 5425  12.069  11.666   8.251
68467SOL    HW2 5426  12.142  11.593   8.378
68468SOL     OW 5427  11.711  11.236   7.960
68468SOL    HW1 5428  11.630  11.237   8.018
68468SOL    HW2 5429  11.714  11.319   7.905
68469SOL     OW 5430  12.606  12.360   7.489
68469SOL    HW1 5431  12.638  12.284   7.546
68469SOL    HW2 5432  12.514  12.387   7.519
68470SOL     OW 5433  11.469  11.207   7.619
68470SOL    HW1 5434  11.518  11.291   7.598
68470SOL    HW2 5435  11.531  11.142   7.664
68471SOL     OW 5436  12.107  11.408   7.928
68471SOL    HW1 5437  12.059  11.449   7.850
68471SOL    HW2 5438  12.206  11.406   7.909
68472SOL     OW 5439  12.248  11.855   8.912
68472SOL    HW1 5440  12.168  11.794   8.915
68472SOL    HW2 5441  12.329  11.802   8.888
68473SOL     OW 5442  12.399  12.742   8.241
68473SOL    HW1 5443  12.420  12.816   8.176
68473SOL    HW2 5444  12.467  12.742   8.314
68474SOL     OW 5445  11.631  12.324   8.189
68474SOL    HW1 5446  11.560  12.297   8.254
68474SOL    HW2 5447  11.605  12.296   8.096
68475SOL     OW 5448  12.204  11.721   7.464
68475SOL    HW1 5449  12.163  11.803   7.425
68475SOL    HW2 5450  12.268  11.747   7.537
68476SOL     OW 5451  11.250  11.728   8.834
68476SOL    HW1 5452  11.342  11.727   8.793
68476SOL    HW2 5453  11.244  11.802   8.901
68477SOL     OW 5454  11.733  11.394   8.595
68477SOL    HW1 5455  11.771  11.310   8.632
68477SOL    HW2 5456  11.645  11.413   8.639
68478SOL     OW 5457  12.038  11.626   8.090
68478SOL    HW1 5458  12.006  11.698   8.028
68478SOL    HW2 5459  12.062  11.545   8.037
68479SOL     OW 5460  12.189  11.211   8.201
68479SOL    HW1 5461  12.117  11.216   8.132
68479SOL    HW2 5462  12.165  11.142   8.270
68480SOL     OW 5463  12.601  12.345   8.315
68480SOL    HW1 5464  12.546  12.261   8.308
68480SOL    HW2 5465  12.627  12.374   8.223
68481SOL     OW 5466  12.638  11.762   8.440
68481SOL    HW1 5467  12.608  11.667   8.447
68481SOL    HW2 5468  12.711  11.778   8.506
68482SOL     OW 5469  11.660  12.557   7.622
68482SOL    HW1 5470  11.573  12.542   7.669
68482SOL    HW2 5471  11.643  12.583   7.527
68483SOL     OW 5472  12.562  11.747   7.526
68483SOL    HW1 5473  12.508  11.726   7.607
68483SOL    HW2 5474  12.653  11.706   7.535
68484SOL     OW 5475  11.699  11.428   7.776
68484SOL    HW1 5476  11.726  11.369   7.701
68484SOL    HW2 5477  11.699  11.523   7.745
68485SOL     OW 5478  12.236  12.519   8.788
68485SOL    HW1 5479  12.156  12.496   8.843
68485SOL    HW2 5480  12.319  12.493   8.837
68486SOL     OW 5481  12.283  12.367   8.548
68486SOL    HW1 5482  12.243  12.411   8.629
68486SOL    HW2 5483  12.242  12.404   8.465
68487SOL     OW 5484  12.087  11.261   8.850
68487SOL    HW1 5485  12.112  11.241   8.755
68487SOL    HW2 5486  12.159  11.317   8.892
68488SOL     OW 5487  12.152  12.288   9.167
68488SOL    HW1 5488  12.053  12.294   9.177
68488SOL    HW2 5489  12.175  12.208   9.111
68489SOL     OW 5490  11.877  12.222   7.816
68489SOL    HW1 5491  11.863  12.229   7.915
68489SOL    HW2 5492  11.961  12.171   7.798
68490SOL     OW 5493  11.582  11.985   8.699
68490SOL    HW1 5494  11.668  11.997   8.749
68490SOL    HW2 5495  11.540  11.898   8.726
68491SOL     OW 5496  12.446  11.558   8.710
68491SOL    HW1 5497  12.467  11.632   8.774
68491SOL    HW2 5498  12.357  11.575   8.667
68492SOL     OW 5499  11.236  12.736   8.779
68492SOL    HW1 5500  11.190  12.818   8.745
68492SOL    HW2 5501  11.334  12.755   8.788
68493SOL     OW 5502  11.539  12.272   7.949
68493SOL    HW1 5503  11.532  12.355   7.893
68493SOL    HW2 5504  11.543  12.192   7.889
68494SOL     OW 5505  11.738  11.709   8.313
68494SOL    HW1 5506  11.750  11.775   8.239
68494SOL    HW2 5507  11.784  11.743   8.396
68495SOL     OW 5508  12.424  12.520   7.836
68495SOL    HW1 5509  12.474  12.597   7.876
68495SOL    HW2 5510  12.329  12.522   7.868
68496SOL     OW 5511  12.444  12.617   8.590
68496SOL    HW1 5512  12.491  12.630   8.677
68496SOL    HW2 5513  12.378  12.543   8.599
68497SOL     OW 5514  12.754  11.811   7.920
68497SOL    HW1 5515  12.723  11.872   7.993
68497SOL    HW2 5516  12.804  11.863   7.851
68498SOL     OW 5517  11.526  12.682   8.777
68498SOL    HW1 5518  11.505  12.638   8.690
68498SOL    HW2 5519  11.623  12.708   8.780
68499SOL     OW 5520  11.574  11.923   9.046
68499SOL    HW1 5521  11.642  11.978   8.999
68499SOL    HW2 5522  11.614  11.835   9.073
68500SOL     OW 5523  12.185  11.277   9.218
68500SOL    HW1 5524  12.191  11.362   9.166
68500SOL    HW2 5525  12.217  11.201   9.161
68501SOL     OW 5526  11.676  11.222   9.188
68501SOL    HW1 5527  11.634  11.165   9.118
68501SOL    HW2 5528  11.610  11.291   9.220
68502SOL     OW 5529  11.745  12.042   8.477
68502SOL    HW1 5530  11.789  12.131   8.468
68502SOL    HW2 5531  11.682  12.042   8.554
68503SOL     OW 5532  12.532  12.034   8.493
68503SOL    HW1 5533  12.457  12.034   8.427
68503SOL    HW2 5534  12.569  11.942   8.502
68504SOL     OW 5535  12.381  11.697   7.723
68504SOL    HW1 5536  12.394  11.613   7.777
68504SOL    HW2 5537  12.352  11.771   7.783
68505SOL     OW 5538  11.479  11.385   8.679
68505SOL    HW1 5539  11.456  11.422   8.769
68505SOL    HW2 5540  11.449  11.290   8.673
68506SOL     OW 5541  11.209  12.482   8.730
68506SOL    HW1 5542  11.262  12.433   8.798
68506SOL    HW2 5543  11.231  12.580   8.735
68507SOL     OW 5544  11.904  11.806   8.512
68507SOL    HW1 5545  11.963  11.780   8.436
68507SOL    HW2 5546  11.876  11.902   8.501
68508SOL     OW 5547  11.479  11.235   8.066
68508SOL    HW1 5548  11.468  11.329   8.099
68508SOL    HW2 5549  11.474  11.172   8.143
68509SOL     OW 5550  12.794  11.539   7.822
68509SOL    HW1 5551  12.796  11.463   7.886
68509SOL    HW2 5552  12.746  11.616   7.862
68510SOL     OW 5553  12.195  11.938   8.414
68510SOL    HW1 5554  12.210  11.959   8.510
68510SOL    HW2 5555  12.165  11.843   8.405
68511SOL     OW 5556  11.522  12.070   9.252
68511SOL    HW1 5557  11.598  12.114   9.300
68511SOL    HW2 5558  11.557  12.023   9.170
68512SOL     OW 5559  12.712  11.446   7.573
68512SOL    HW1 5560  12.651  11.371   7.596
68512SOL    HW2 5561  12.734  11.498   7.656
68513SOL     OW 5562  12.475  12.010   7.490
68513SOL    HW1 5563  12.509  11.917   7.505
68513SOL    HW2 5564  12.493  12.037   7.395
68514SOL     OW 5565  12.240  12.505   8.297
68514SOL    HW1 5566  12.247  12.421   8.242
68514SOL    HW2 5567  12.302  12.574   8.261
68515SOL     OW 5568  11.491  11.982   8.397
68515SOL    HW1 5569  11.584  12.018   8.402
68515SOL    HW2 5570  11.485  11.897   8.449
68516SOL     OW 5571  11.511  11.681   8.454
68516SOL    HW1 5572  11.459  11.598   8.437
68516SOL    HW2 5573  11.588  11.686   8.390
68517SOL     OW 5574  12.310  11.552   9.126
68517SOL    HW1 5575  12.265  11.615   9.190
68517SOL    HW2 5576  12.403  11.583   9.109
68518SOL     OW 5577  12.332  11.379   8.925
68518SOL    HW1 5578  12.332  11.443   9.002
68518SOL    HW2 5579  12.360  11.427   8.842
68519SOL     OW 5580  11.180  12.498   7.648
68519SOL    HW1 5581  11.087  12.519   7.617
68519SOL    HW2 5582  11.190  12.399   7.661
68520SOL     OW 5583  11.676  12.740   8.358
68520SOL    HW1 5584  11.742  12.814   8.367
68520SOL    HW2 5585  11.720  12.661   8.316
68521SOL     OW 5586  12.174  11.968   8.686
68521SOL    HW1 5587  12.215  11.936   8.772
68521SOL    HW2 5588  12.078  11.941   8.683
68522SOL     OW 5589  11.212  11.716   8.562
68522SOL    HW1 5590  11.297  11.683   8.521
68522SOL    HW2 5591  11.225  11.731   8.660
68523SOL     OW 5592  11.361  11.692   9.170
68523SOL    HW1 5593  11.420  11.652   9.100
68523SOL    HW2 5594  11.303  11.763   9.129
68524SOL     OW 5595  12.541  12.122   9.108
68524SOL    HW1 5596  12.580  12.211   9.128
68524SOL    HW2 5597  12.551  12.102   9.011
68525SOL     OW 5598  11.987  11.744   7.773
68525SOL    HW1 5599  11.994  11.655   7.727
68525SOL    HW2 5600  11.893  11.778   7.765
68526SOL     OW 5601  11.424  12.736   9.192
68526SOL    HW1 5602  11.394  12.793   9.268
68526SOL    HW2 5603  11.417  12.639   9.218
68527SOL     OW 5604  11.843  11.636   8.717
68527SOL    HW1 5605  11.809  11.547   8.687
68527SOL    HW2 5606  11.869  11.690   8.637
68528SOL     OW 5607  11.645  11.672   7.639
68528SOL    HW1 5608  11.706  11.752   7.643
68528SOL    HW2 5609  11.550  11.703   7.646
68529SOL     OW 5610  11.331  12.309   8.914
68529SOL    HW1 5611  11.353  12.248   8.990
68529SOL    HW2 5612  11.341  12.260   8.828
68530SOL     OW 5613  12.519  12.231   8.682
68530SOL    HW1 5614  12.543  12.168   8.608
68530SOL    HW2 5615  12.429  12.271   8.664
68531SOL     OW 5616  12.474  12.027   7.757
68531SOL    HW1 5617  12.388  11.996   7.799
68531SOL    HW2 5618  12.470  12.013   7.658
68532SOL     OW 5619  12.931  12.919   8.602
68532SOL    HW1 5620  12.992  12.949   8.529
68532SOL    HW2 5621  12.893  12.830   8.580
68533SOL     OW 5622  12.424  12.903   8.576
68533SOL    HW1 5623  12.508  12.908   8.522
68533SOL    HW2 5624  12.401  12.807   8.594
68534SOL     OW 5625  11.255  12.430   8.470
68534SOL    HW1 5626  11.250  12.429   8.570
68534SOL    HW2 5627  11.172  12.389   8.432
68535SOL     OW 5628  12.898  11.307   7.971
68535SOL    HW1 5629  12.971  11.290   7.904
68535SOL    HW2 5630  12.867  11.220   8.009
68536SOL     OW 5631  11.302  12.966   9.299
68536SOL    HW1 5632  11.261  12.892   9.352
68536SOL    HW2 5633  11.366  13.017   9.357
68537SOL     OW 5634  12.452  12.099   8.120
68537SOL    HW1 5635  12.512  12.018   8.122
68537SOL    HW2 5636  12.492  12.168   8.060
68538SOL     OW 5637  12.002  12.445   8.870
68538SOL    HW1 5638  11.997  12.478   8.965
68538SOL    HW2 5639  11.916  12.464   8.824
68539SOL     OW 5640  11.844  12.788   7.602
68539SOL    HW1 5641  11.853  12.798   7.503
68539SOL    HW2 5642  11.804  12.699   7.623
68540SOL     OW 5643  11.435  11.498   8.168
68540SOL    HW1 5644  11.356  11.549   8.134
68540SOL    HW2 5645  11.426  11.483   8.266
68541SOL     OW 5646  12.366  12.784   7.479
68541SOL    HW1 5647  12.372  12.691   7.516
68541SOL    HW2 5648  12.307  12.784   7.399
68542SOL     OW 5649  11.994  12.174   8.820
68542SOL    HW1 5650  12.034  12.173   8.728
68542SOL    HW2 5651  12.004  12.266   8.860
68543SOL     OW 5652  12.088  12.082   7.739
68543SOL    HW1 5653  12.151  12.120   7.671
68543SOL    HW2 5654  12.128  11.999   7.778
68544SOL     OW 5655  11.544  12.460   8.938
68544SOL    HW1 5656  11.531  12.553   8.904
68544SOL    HW2 5657  11.460  12.408   8.925
68545SOL     OW 5658  12.211  12.270   8.144
68545SOL    HW1 5659  12.141  12.223   8.198
68545SOL    HW2 5660  12.270  12.202   8.101
68546SOL     OW 5661  12.186  11.408   8.419
68546SOL    HW1 5662  12.178  11.372   8.326
68546SOL    HW2 5663  12.184  11.332   8.484
68547SOL     OW 5664  11.762  12.659   7.939
68547SOL    HW1 5665  11.804  12.601   7.869
68547SOL    HW2 5666  11.718  12.738   7.895
68548SOL     OW 5667  11.427  12.520   7.738
68548SOL    HW1 5668  11.331  12.521   7.711
68548SOL    HW2 5669  11.439  12.573   7.822
68549SOL     OW 5670  11.277  12.185   9.174
68549SOL    HW1 5671  11.200  12.152   9.228
68549SOL    HW2 5672  11.362  12.155   9.216
68550SOL     OW 5673  11.844  11.375   8.937
68550SOL    HW1 5674  11.934  11.359   8.897
68550SOL    HW2 5675  11.852  11.380   9.036
68551SOL     OW 5676  11.247  11.517   7.481
68551SOL    HW1 5677  11.155  11.489   7.452
68551SOL    HW2 5678  11.278  11.594   7.425
68552SOL     OW 5679  12.612  12.028   8.846
68552SOL    HW1 5680  12.555  12.080   8.783
68552SOL    HW2 5681  12.708  12.040   8.822
68553SOL     OW 5682  11.244  11.338   7.766
68553SOL    HW1 5683  11.227  11.421   7.712
68553SOL    HW2 5684  11.334  11.301   7.744
68554SOL     OW 5685  12.355  12.507   7.567
68554SOL    HW1 5686  12.256  12.496   7.569
68554SOL    HW2 5687  12.389  12.522   7.660
68555SOL     OW 5688  11.785  12.014   8.879
68555SOL    HW1 5689  11.841  12.095   8.862
68555SOL    HW2 5690  11.844  11.934   8.882
68556SOL     OW 5691  11.888  11.737   9.156
68556SOL    HW1 5692  11.907  11.802   9.230
68556SOL    HW2 5693  11.948  11.657   9.165
68557SOL     OW 5694  12.622  12.392   9.081
68557SOL    HW1 5695  12.613  12.382   9.180
68557SOL    HW2 5696  12.718  12.385   9.055
68558SOL     OW 5697  12.397  11.497   7.897
68558SOL    HW1 5698  12.462  11.423   7.886
68558SOL    HW2 5699  12.417  11.547   7.981
68559SOL     OW 5700  11.766  11.917   8.100
68559SOL    HW1 5701  11.816  12.002   8.081
68559SOL    HW2 5702  11.678  11.919   8.052
68560SOL     OW 5703  12.031  12.546   7.464
68560SOL    HW1 5704  11.985  12.561   7.552
68560SOL    HW2 5705  12.075  12.631   7.434
68561SOL     OW 5706  12.580  13.023   9.168
68561SOL    HW1 5707  12.484  13.012   9.141
68561SOL    HW2 5708  12.636  12.956   9.120
68562SOL     OW 5709  12.031  12.128   8.309
68562SOL    HW1 5710  12.085  12.059   8.357
68562SOL    HW2 5711  11.999  12.197   8.375
68563SOL     OW 5712  12.255  12.156   7.535
68563SOL    HW1 5713  12.232  12.209   7.453
68563SOL    HW2 5714  12.336  12.100   7.516
68564SOL     OW 5715  13.033  12.741   8.299
68564SOL    HW1 5716  12.962  12.729   8.229
68564SOL    HW2 5717  13.034  12.662   8.359
68565SOL     OW 5718  11.393  12.486   9.292
68565SOL    HW1 5719  11.328  12.413   9.271
68565SOL    HW2 5720  11.397  12.500   9.390
68566SOL     OW 5721  11.251  12.412   8.101
68566SOL    HW1 5722  11.250  12.365   8.189
68566SOL    HW2 5723  11.333  12.384   8.050
68567SOL     OW 5724  11.844  12.563   9.072
68567SOL    HW1 5725  11.766  12.513   9.110
68567SOL    HW2 5726  11.841  12.658   9.103
68568SOL     OW 5727  11.600  11.596   7.968
68568SOL    HW1 5728  11.630  11.524   7.906
68568SOL    HW2 5729  11.561  11.556   8.051
68569SOL     OW 5730  11.489  11.719   8.728
68569SOL    HW1 5731  11.527  11.660   8.800
68569SOL    HW2 5732  11.529  11.693   8.640
68570SOL     OW 5733  12.596  11.386   8.560
68570SOL    HW1 5734  12.648  11.321   8.615
68570SOL    HW2 5735  12.547  11.449   8.621
68571SOL     OW 5736  12.173  11.206   8.602
68571SOL    HW1 5737  12.110  11.134   8.571
68571SOL    HW2 5738  12.266  11.170   8.602
68572SOL     OW 5739  11.942  12.502   7.749
68572SOL    HW1 5740  11.896  12.415   7.766
68572SOL    HW2 5741  12.033  12.499   7.790
68573SOL     OW 5742  11.790  12.739   8.732
68573SOL    HW1 5743  11.785  12.821   8.789
68573SOL    HW2 5744  11.879  12.736   8.687
68574SOL     OW 5745  12.524  11.224   7.616
68574SOL    HW1 5746  12.559  11.183   7.532
68574SOL    HW2 5747  12.434  11.186   7.636
68575SOL     OW 5748  12.472  11.625   8.139
68575SOL    HW1 5749  12.413  11.705   8.143
68575SOL    HW2 5750  12.487  11.590   8.232
68576SOL     OW 5751  12.765  11.393   8.330
68576SOL    HW1 5752  12.681  11.392   8.384
68576SOL    HW2 5753  12.767  11.476   8.274
68577SOL     OW 5754  11.211  12.249   7.748
68577SOL    HW1 5755  11.310  12.238   7.739
68577SOL    HW2 5756  11.171  12.163   7.780
68578SOL     OW 5757  11.402  11.800   9.423
68578SOL    HW1 5758  11.309  11.798   9.460
68578SOL    HW2 5759  11.403  11.761   9.331
68579SOL     OW 5760  11.397  11.447  10.306
68579SOL    HW1 5761  11.432  11.430  10.398
68579SOL    HW2 5762  11.309  11.402  10.294
68580SOL     OW 5763  11.191  11.540   9.957
68580SOL    HW1 5764  11.109  11.583   9.996
68580SOL    HW2 5765  11.163  11.467   9.894
68581SOL     OW 5766  11.741  12.447  10.475
68581SOL    HW1 5767  11.648  12.440  10.438
68581SOL    HW2 5768  11.752  12.536  10.519
68582SOL     OW 5769  12.727  12.683  10.013
68582SOL    HW1 5770  12.670  12.667  10.094
68582SOL    HW2 5771  12.668  12.693   9.933
68583SOL     OW 5772  12.307  11.875  10.027
68583SOL    HW1 5773  12.364  11.953  10.002
68583SOL    HW2 5774  12.247  11.901  10.103
68584SOL     OW 5775  11.940  12.316  10.333
68584SOL    HW1 5776  11.862  12.333  10.393
68584SOL    HW2 5777  11.974  12.403  10.297
68585SOL     OW 5778  12.022  11.970  11.133
68585SOL    HW1 5779  12.018  12.046  11.198
68585SOL    HW2 5780  12.044  12.006  11.042
68586SOL     OW 5781  11.857  12.184   9.975
68586SOL    HW1 5782  11.926  12.168  10.045
68586SOL    HW2 5783  11.784  12.241  10.013
68587SOL     OW 5784  11.858  12.333  11.113
68587SOL    HW1 5785  11.918  12.412  11.127
68587SOL    HW2 5786  11.772  12.364  11.072
68588SOL     OW 5787  11.507  12.607  10.371
68588SOL    HW1 5788  11.429  12.576  10.318
68588SOL    HW2 5789  11.565  12.665  10.314
68589SOL     OW 5790  12.632  12.677  10.649
68589SOL    HW1 5791  12.656  12.771  10.675
68589SOL    HW2 5792  12.616  12.623  10.731
68590SOL     OW 5793  11.610  11.564  10.809
68590SOL    HW1 5794  11.692  11.508  10.818
68590SOL    HW2 5795  11.529  11.506  10.813
68591SOL     OW 5796  12.299  12.513  11.000
68591SOL    HW1 5797  12.346  12.513  11.088
68591SOL    HW2 5798  12.251  12.426  10.989
68592SOL     OW 5799  11.402  12.606   9.848
68592SOL    HW1 5800  11.376  12.702   9.848
68592SOL    HW2 5801  11.331  12.552   9.893
68593SOL     OW 5802  11.412  12.263  10.196
68593SOL    HW1 5803  11.426  12.179  10.248
68593SOL    HW2 5804  11.357  12.327  10.251
68594SOL     OW 5805  11.778  12.136   9.433
68594SOL    HW1 5806  11.785  12.220   9.379
68594SOL    HW2 5807  11.824  12.149   9.521
68595SOL     OW 5808  12.766  11.286  10.790
68595SOL    HW1 5809  12.748  11.353  10.718
68595SOL    HW2 5810  12.763  11.332  10.879
68596SOL     OW 5811  11.294  11.815   9.873
68596SOL    HW1 5812  11.249  11.727   9.890
68596SOL    HW2 5813  11.293  11.869   9.957
68597SOL     OW 5814  11.199  12.768   9.427
68597SOL    HW1 5815  11.180  12.672   9.448
68597SOL    HW2 5816  11.166  12.826   9.502
68598SOL     OW 5817  12.861  12.094   9.922
68598SOL    HW1 5818  12.956  12.065   9.930
68598SOL    HW2 5819  12.853  12.159   9.847
68599SOL     OW 5820  11.285  11.909  10.907
68599SOL    HW1 5821  11.373  11.896  10.952
68599SOL    HW2 5822  11.272  12.006  10.885
68600SOL     OW 5823  11.785  12.537  10.036
68600SOL    HW1 5824  11.736  12.450  10.045
68600SOL    HW2 5825  11.762  12.580   9.949
68601SOL     OW 5826  12.465  12.400  10.733
68601SOL    HW1 5827  12.502  12.327  10.675
68601SOL    HW2 5828  12.517  12.405  10.818
68602SOL     OW 5829  11.981  11.176   9.812
68602SOL    HW1 5830  12.021  11.267   9.803
68602SOL    HW2 5831  11.881  11.184   9.818
68603SOL     OW 5832  11.369  12.148  10.574
68603SOL    HW1 5833  11.458  12.103  10.560
68603SOL    HW2 5834  11.296  12.083  10.555
68604SOL     OW 5835  11.489  11.423  11.111
68604SOL    HW1 5836  11.560  11.494  11.117
68604SOL    HW2 5837  11.401  11.462  11.139
68605SOL     OW 5838  12.638  12.589  10.263
68605SOL    HW1 5839  12.579  12.595  10.343
68605SOL    HW2 5840  12.623  12.501  10.217
68606SOL     OW 5841  11.770  11.901   9.580
68606SOL    HW1 5842  11.794  11.970   9.512
68606SOL    HW2 5843  11.692  11.934   9.634
68607SOL     OW 5844  12.453  11.517  10.254
68607SOL    HW1 5845  12.367  11.467  10.241
68607SOL    HW2 5846  12.515  11.463  10.310
68608SOL     OW 5847  11.979  11.777  10.775
68608SOL    HW1 5848  11.932  11.774  10.864
68608SOL    HW2 5849  11.928  11.722  10.709
68609SOL     OW 5850  12.566  11.641  10.984
68609SOL    HW1 5851  12.546  11.684  11.072
68609SOL    HW2 5852  12.644  11.579  10.993
68610SOL     OW 5853  12.145  12.062  10.882
68610SOL    HW1 5854  12.191  11.978  10.853
68610SOL    HW2 5855  12.089  12.096  10.807
68611SOL     OW 5856  12.163  11.582  10.552
68611SOL    HW1 5857  12.086  11.616  10.606
68611SOL    HW2 5858  12.129  11.531  10.473
68612SOL     OW 5859  12.213  11.873   9.739
68612SOL    HW1 5860  12.239  11.869   9.835
68612SOL    HW2 5861  12.128  11.822   9.725
68613SOL     OW 5862  11.248  11.983  10.099
68613SOL    HW1 5863  11.347  11.971  10.108
68613SOL    HW2 5864  11.224  12.078  10.120
68614SOL     OW 5865  12.037  11.520   9.505
68614SOL    HW1 5866  12.096  11.583   9.456
68614SOL    HW2 5867  12.056  11.426   9.476
68615SOL     OW 5868  12.534  12.316   9.855
68615SOL    HW1 5869  12.617  12.287   9.807
68615SOL    HW2 5870  12.485  12.383   9.799
68616SOL     OW 5871  11.722  11.368  10.195
68616SOL    HW1 5872  11.717  11.363  10.295
68616SOL    HW2 5873  11.724  11.464  10.166
68617SOL     OW 5874  12.180  12.628   9.787
68617SOL    HW1 5875  12.134  12.700   9.735
68617SOL    HW2 5876  12.176  12.648   9.885
68618SOL     OW 5877  12.399  12.722  10.816
68618SOL    HW1 5878  12.405  12.645  10.880
68618SOL    HW2 5879  12.347  12.696  10.736
68619SOL     OW 5880  11.493  12.115   9.552
68619SOL    HW1 5881  11.575  12.154   9.510
68619SOL    HW2 5882  11.466  12.033   9.503
68620SOL     OW 5883  12.630  11.907  10.038
68620SOL    HW1 5884  12.625  11.842  10.113
68620SOL    HW2 5885  12.710  11.966  10.051
68621SOL     OW 5886  11.633  12.438  11.037
68621SOL    HW1 5887  11.583  12.439  10.951
68621SOL    HW2 5888  11.570  12.420  11.113
68622SOL     OW 5889  11.374  11.457  10.808
68622SOL    HW1 5890  11.294  11.517  10.795
68622SOL    HW2 5891  11.364  11.408  10.894
68623SOL     OW 5892  12.572  11.279   9.736
68623SOL    HW1 5893  12.548  11.242   9.646
68623SOL    HW2 5894  12.671  11.295   9.740
68624SOL     OW 5895  11.554  11.872   9.790
68624SOL    HW1 5896  11.599  11.782   9.787
68624SOL    HW2 5897  11.460  11.861   9.823
68625SOL     OW 5898  11.786  11.294   9.427
68625SOL    HW1 5899  11.884  11.272   9.434
68625SOL    HW2 5900  11.755  11.277   9.334
68626SOL     OW 5901  11.953  11.436  11.059
68626SOL    HW1 5902  12.020  11.375  11.102
68626SOL    HW2 5903  11.880  11.455  11.124
68627SOL     OW 5904  12.523  11.762  10.743
68627SOL    HW1 5905  12.551  11.719  10.828
68627SOL    HW2 5906  12.548  11.858  10.744
68628SOL     OW 5907  11.975  12.574  10.234
68628SOL    HW1 5908  12.065  12.588  10.192
68628SOL    HW2 5909  11.904  12.576  10.163
68629SOL     OW 5910  12.094  11.675  10.209
68629SOL    HW1 5911  12.069  11.666  10.113
68629SOL    HW2 5912  12.142  11.593  10.240
68630SOL     OW 5913  11.711  11.236   9.822
68630SOL    HW1 5914  11.630  11.237   9.880
68630SOL    HW2 5915  11.714  11.319   9.767
68631SOL     OW 5916  12.606  12.360   9.351
68631SOL    HW1 5917  12.638  12.284   9.408
68631SOL    HW2 5918  12.514  12.387   9.381
68632SOL     OW 5919  11.469  11.207   9.481
68632SOL    HW1 5920  11.518  11.291   9.460
68632SOL    HW2 5921  11.531  11.142   9.526
68633SOL     OW 5922  12.107  11.408   9.790
68633SOL    HW1 5923  12.059  11.449   9.712
68633SOL    HW2 5924  12.206  11.406   9.771
68634SOL     OW 5925  12.248  11.855  10.774
68634SOL    HW1 5926  12.168  11.794  10.777
68634SOL    HW2 5927  12.329  11.802  10.750
68635SOL     OW 5928  12.399  12.742  10.103
68635SOL    HW1 5929  12.420  12.816  10.038
68635SOL    HW2 5930  12.467  12.742  10.176
68636SOL     OW 5931  11.631  12.324  10.051
68636SOL    HW1 5932  11.560  12.297  10.116
68636SOL    HW2 5933  11.605  12.296   9.958
68637SOL     OW 5934  12.204  11.721   9.326
68637SOL    HW1 5935  12.163  11.803   9.287
68637SOL    HW2 5936  12.268  11.747   9.399
68638SOL     OW 5937  11.250  11.728  10.696
68638SOL    HW1 5938  11.342  11.727  10.655
68638SOL    HW2 5939  11.244  11.802  10.763
68639SOL     OW 5940  11.733  11.394  10.457
68639SOL    HW1 5941  11.771  11.310  10.494
68639SOL    HW2 5942  11.645  11.413  10.501
68640SOL     OW 5943  12.038  11.626   9.952
68640SOL    HW1 5944  12.006  11.698   9.890
68640SOL    HW2 5945  12.062  11.545   9.899
68641SOL     OW 5946  12.189  11.211  10.063
68641SOL    HW1 5947  12.117  11.216   9.994
68641SOL    HW2 5948  12.165  11.142  10.132
68642SOL     OW 5949  12.601  12.345  10.177
68642SOL    HW1 5950  12.546  12.261  10.170
68642SOL    HW2 5951  12.627  12.374  10.085
68643SOL     OW 5952  12.638  11.762  10.302
68643SOL    HW1 5953  12.608  11.667  10.309
68643SOL    HW2 5954  12.711  11.778  10.368
68644SOL     OW 5955  11.660  12.557   9.484
68644SOL    HW1 5956  11.573  12.542   9.531
68644SOL    HW2 5957  11.643  12.583   9.389
68645SOL     OW 5958  12.562  11.747   9.388
68645SOL    HW1 5959  12.508  11.726   9.469
68645SOL    HW2 5960  12.653  11.706   9.397
68646SOL     OW 5961  11.699  11.428   9.638
68646SOL    HW1 5962  11.726  11.369   9.563
68646SOL    HW2 5963  11.699  11.523   9.607
68647SOL     OW 5964  12.236  12.519  10.650
68647SOL    HW1 5965  12.156  12.496  10.705
68647SOL    HW2 5966  12.319  12.493  10.699
68648SOL     OW 5967  12.283  12.367  10.410
68648SOL    HW1 5968  12.243  12.411  10.491
68648SOL    HW2 5969  12.242  12.404  10.327
68649SOL     OW 5970  12.087  11.261  10.712
68649SOL    HW1 5971  12.112  11.241  10.617
68649SOL    HW2 5972  12.159  11.317  10.754
68650SOL     OW 5973  12.152  12.288  11.029
68650SOL    HW1 5974  12.053  12.294  11.039
68650SOL    HW2 5975  12.175  12.208  10.973
68651SOL     OW 5976  11.877  12.222   9.678
68651SOL    HW1 5977  11.863  12.229   9.777
68651SOL    HW2 5978  11.961  12.171   9.660
68652SOL     OW 5979  11.582  11.985  10.561
68652SOL    HW1 5980  11.668  11.997  10.611
68652SOL    HW2 5981  11.540  11.898  10.588
68653SOL     OW 5982  12.446  11.558  10.572
68653SOL    HW1 5983  12.467  11.632  10.636
68653SOL    HW2 5984  12.357  11.575  10.529
68654SOL     OW 5985  11.236  12.736  10.641
68654SOL    HW1 5986  11.190  12.818  10.607
68654SOL    HW2 5987  11.334  12.755  10.650
68655SOL     OW 5988  11.539  12.272   9.811
68655SOL    HW1 5989  11.532  12.355   9.755
68655SOL    HW2 5990  11.543  12.192   9.751
68656SOL     OW 5991  11.738  11.709  10.175
68656SOL    HW1 5992  11.750  11.775  10.101
68656SOL    HW2 5993  11.784  11.743  10.258
68657SOL     OW 5994  12.424  12.520   9.698
68657SOL    HW1 5995  12.474  12.597   9.738
68657SOL    HW2 5996  12.329  12.522   9.730
68658SOL     OW 5997  12.444  12.617  10.452
68658SOL    HW1 5998  12.491  12.630  10.539
68658SOL    HW2 5999  12.378  12.543  10.461
68659SOL     OW 6000  12.754  11.811   9.782
68659SOL    HW1 6001  12.723  11.872   9.855
68659SOL    HW2 6002  12.804  11.863   9.713
68660SOL     OW 6003  11.526  12.682  10.639
68660SOL    HW1 6004  11.505  12.638  10.552
68660SOL    HW2 6005  11.623  12.708  10.642
68661SOL     OW 6006  11.574  11.923  10.908
68661SOL    HW1 6007  11.642  11.978  10.861
68661SOL    HW2 6008  11.614  11.835  10.935
68662SOL     OW 6009  12.185  11.277  11.080
68662SOL    HW1 6010  12.191  11.362  11.028
68662SOL    HW2 6011  12.217  11.201  11.023
68663SOL     OW 6012  11.676  11.222  11.050
68663SOL    HW1 6013  11.634  11.165  10.980
68663SOL    HW2 6014  11.610  11.291  11.082
68664SOL     OW 6015  11.745  12.042  10.339
68664SOL    HW1 6016  11.789  12.131  10.330
68664SOL    HW2 6017  11.682  12.042  10.416
68665SOL     OW 6018  12.532  12.034  10.355
68665SOL    HW1 6019  12.457  12.034  10.289
68665SOL    HW2 6020  12.569  11.942  10.364
68666SOL     OW 6021  12.381  11.697   9.585
68666SOL    HW1 6022  12.394  11.613   9.639
68666SOL    HW2 6023  12.352  11.771   9.645
68667SOL     OW 6024  11.479  11.385  10.541
68667SOL    HW1 6025  11.456  11.422  10.631
68667SOL    HW2 6026  11.449  11.290  10.535
68668SOL     OW 6027  11.209  12.482  10.592
68668SOL    HW1 6028  11.262  12.433  10.660
68668SOL    HW2 6029  11.231  12.580  10.597
68669SOL     OW 6030  11.904  11.806  10.374
68669SOL    HW1 6031  11.963  11.780  10.298
68669SOL    HW2 6032  11.876  11.902  10.363
68670SOL     OW 6033  11.479  11.235   9.928
68670SOL    HW1 6034  11.468  11.329   9.961
68670SOL    HW2 6035  11.474  11.172  10.005
68671SOL     OW 6036  12.794  11.539   9.684
68671SOL    HW1 6037  12.796  11.463   9.748
68671SOL    HW2 6038  12.746  11.616   9.724
68672SOL     OW 6039  12.195  11.938  10.276
68672SOL    HW1 6040  12.210  11.959  10.372
68672SOL    HW2 6041  12.165  11.843  10.267
68673SOL     OW 6042  11.522  12.070  11.114
68673SOL    HW1 6043  11.598  12.114  11.162
68673SOL    HW2 6044  11.557  12.023  11.032
68674SOL     OW 6045  12.712  11.446   9.435
68674SOL    HW1 6046  12.651  11.371   9.458
68674SOL    HW2 6047  12.734  11.498   9.518
68675SOL     OW 6048  12.475  12.010   9.352
68675SOL    HW1 6049  12.509  11.917   9.367
68675SOL    HW2 6050  12.493  12.037   9.257
68676SOL     OW 6051  12.240  12.505  10.159
68676SOL    HW1 6052  12.247  12.421  10.104
68676SOL    HW2 6053  12.302  12.574  10.123
68677SOL     OW 6054  11.491  11.982  10.259
68677SOL    HW1 6055  11.584  12.018  10.264
68677SOL    HW2 6056  11.485  11.897  10.311
68678SOL     OW 6057  11.511  11.681  10.316
68678SOL    HW1 6058  11.459  11.598  10.299
68678SOL    HW2 6059  11.588  11.686  10.252
68679SOL     OW 6060  12.310  11.552  10.988
68679SOL    HW1 6061  12.265  11.615  11.052
68679SOL    HW2 6062  12.403  11.583  10.971
68680SOL     OW 6063  12.332  11.379  10.787
68680SOL    HW1 6064  12.332  11.443  10.864
68680SOL    HW2 6065  12.360  11.427  10.704
68681SOL     OW 6066  11.180  12.498   9.510
68681SOL    HW1 6067  11.087  12.519   9.479
68681SOL    HW2 6068  11.190  12.399   9.523
68682SOL     OW 6069  11.676  12.740  10.220
68682SOL    HW1 6070  11.742  12.814  10.229
68682SOL    HW2 6071  11.720  12.661  10.178
68683SOL     OW 6072  12.174  11.968  10.548
68683SOL    HW1 6073  12.215  11.936  10.634
68683SOL    HW2 6074  12.078  11.941  10.545
68684SOL     OW 6075  11.212  11.716  10.424
68684SOL    HW1 6076  11.297  11.683  10.383
68684SOL    HW2 6077  11.225  11.731  10.522
68685SOL     OW 6078  11.361  11.692  11.032
68685SOL    HW1 6079  11.420  11.652  10.962
68685SOL    HW2 6080  11.303  11.763  10.991
68686SOL     OW 6081  12.541  12.122  10.970
68686SOL    HW1 6082  12.580  12.211  10.990
68686SOL    HW2 6083  12.551  12.102  10.873
68687SOL     OW 6084  11.987  11.744   9.635
68687SOL    HW1 6085  11.994  11.655   9.589
68687SOL    HW2 6086  11.893  11.778   9.627
68688SOL     OW 6087  11.424  12.736  11.054
68688SOL    HW1 6088  11.394  12.793  11.130
68688SOL    HW2 6089  11.417  12.639  11.080
68689SOL     OW 6090  11.843  11.636  10.579
68689SOL    HW1 6091  11.809  11.547  10.549
68689SOL    HW2 6092  11.869  11.690  10.499
68690SOL     OW 6093  11.645  11.672   9.501
68690SOL    HW1 6094  11.706  11.752   9.505
68690SOL    HW2 6095  11.550  11.703   9.508
68691SOL     OW 6096  11.331  12.309  10.776
68691SOL    HW1 6097  11.353  12.248  10.852
68691SOL    HW2 6098  11.341  12.260  10.690
68692SOL     OW 6099  12.519  12.231  10.544
68692SOL    HW1 6100  12.543  12.168  10.470
68692SOL    HW2 6101  12.429  12.271  10.526
68693SOL     OW 6102  12.474  12.027   9.619
68693SOL    HW1 6103  12.388  11.996   9.661
68693SOL    HW2 6104  12.470  12.013   9.520
68694SOL     OW 6105  12.931  12.919  10.464
68694SOL    HW1 6106  12.992  12.949  10.391
68694SOL    HW2 6107  12.893  12.830  10.442
68695SOL     OW 6108  12.424  12.903  10.438
68695SOL    HW1 6109  12.508  12.908  10.384
68695SOL    HW2 6110  12.401  12.807  10.456
68696SOL     OW 6111  11.255  12.430  10.332
68696SOL    HW1 6112  11.250  12.429  10.432
68696SOL    HW2 6113  11.172  12.389  10.294
68697SOL     OW 6114  12.898  11.307   9.833
68697SOL    HW1 6115  12.971  11.290   9.766
68697SOL    HW2 6116  12.867  11.220   9.871
68698SOL     OW 6117  11.302  12.966  11.161
68698SOL    HW1 6118  11.261  12.892  11.214
68698SOL    HW2 6119  11.366  13.017  11.219
68699SOL     OW 6120  12.452  12.099   9.982
68699SOL    HW1 6121  12.512  12.018   9.984
68699SOL    HW2 6122  12.492  12.168   9.922
68700SOL     OW 6123  12.002  12.445  10.732
68700SOL    HW1 6124  11.997  12.478  10.827
68700SOL    HW2 6125  11.916  12.464  10.686
68701SOL     OW 6126  11.844  12.788   9.464
68701SOL    HW1 6127  11.853  12.798   9.365
68701SOL    HW2 6128  11.804  12.699   9.485
68702SOL     OW 6129  11.435  11.498  10.030
68702SOL    HW1 6130  11.356  11.549   9.996
68702SOL    HW2 6131  11.426  11.483  10.128
68703SOL     OW 6132  12.366  12.784   9.341
68703SOL    HW1 6133  12.372  12.691   9.378
68703SOL    HW2 6134  12.307  12.784   9.261
68704SOL     OW 6135  11.994  12.174  10.682
68704SOL    HW1 6136  12.034  12.173  10.590
68704SOL    HW2 6137  12.004  12.266  10.722
68705SOL     OW 6138  12.088  12.082   9.601
68705SOL    HW1 6139  12.151  12.120   9.533
68705SOL    HW2 6140  12.128  11.999   9.640
68706SOL     OW 6141  11.544  12.460  10.800
68706SOL    HW1 6142  11.531  12.553  10.766
68706SOL    HW2 6143  11.460  12.408  10.787
68707SOL     OW 6144  12.211  12.270  10.006
68707SOL    HW1 6145  12.141  12.223  10.060
68707SOL    HW2 6146  12.270  12.202   9.963
68708SOL     OW 6147  12.186  11.408  10.281
68708SOL    HW1 6148  12.178  11.372  10.188
68708SOL    HW2 6149  12.184  11.332  10.346
68709SOL     OW 6150  11.762  12.659   9.801
68709SOL    HW1 6151  11.804  12.601   9.731
68709SOL    HW2 6152  11.718  12.738   9.757
68710SOL     OW 6153  11.427  12.520   9.600
68710SOL    HW1 6154  11.331  12.521   9.573
68710SOL    HW2 6155  11.439  12.573   9.684
68711SOL     OW 6156  11.277  12.185  11.036
68711SOL    HW1 6157  11.200  12.152  11.090
68711SOL    HW2 6158  11.362  12.155  11.078
68712SOL     OW 6159  11.844  11.375  10.799
68712SOL    HW1 6160  11.934  11.359  10.759
68712SOL    HW2 6161  11.852  11.380  10.898
68713SOL     OW 6162  11.247  11.517   9.343
68713SOL    HW1 6163  11.155  11.489   9.314
68713SOL    HW2 6164  11.278  11.594   9.287
68714SOL     OW 6165  12.612  12.028  10.708
68714SOL    HW1 6166  12.555  12.080  10.645
68714SOL    HW2 6167  12.708  12.040  10.684
68715SOL     OW 6168  11.244  11.338   9.628
68715SOL    HW1 6169  11.227  11.421   9.574
68715SOL    HW2 6170  11.334  11.301   9.606
68716SOL     OW 6171  12.355  12.507   9.429
68716SOL    HW1 6172  12.256  12.496   9.431
68716SOL    HW2 6173  12.389  12.522   9.522
68717SOL     OW 6174  11.785  12.014  10.741
68717SOL    HW1 6175  11.841  12.095  10.724
68717SOL    HW2 6176  11.844  11.934  10.744
68718SOL     OW 6177  11.888  11.737  11.018
68718SOL    HW1 6178  11.907  11.802  11.092
68718SOL    HW2 6179  11.948  11.657  11.027
68719SOL     OW 6180  12.622  12.392  10.943
68719SOL    HW1 6181  12.613  12.382  11.042
68719SOL    HW2 6182  12.718  12.385  10.917
68720SOL     OW 6183  12.397  11.497   9.759
68720SOL    HW1 6184  12.462  11.423   9.748
68720SOL    HW2 6185  12.417  11.547   9.843
68721SOL     OW 6186  11.766  11.917   9.962
68721SOL    HW1 6187  11.816  12.002   9.943
68721SOL    HW2 6188  11.678  11.919   9.914
68722SOL     OW 6189  12.031  12.546   9.326
68722SOL    HW1 6190  11.985  12.561   9.414
68722SOL    HW2 6191  12.075  12.631   9.296
68723SOL     OW 6192  12.580  13.023  11.030
68723SOL    HW1 6193  12.484  13.012  11.003
68723SOL    HW2 6194  12.636  12.956  10.982
68724SOL     OW 6195  12.031  12.128  10.171
68724SOL    HW1 6196  12.085  12.059  10.219
68724SOL    HW2 6197  11.999  12.197  10.237
68725SOL     OW 6198  12.255  12.156   9.397
68725SOL    HW1 6199  12.232  12.209   9.315
68725SOL    HW2 6200  12.336  12.100   9.378
68726SOL     OW 6201  13.033  12.741  10.161
68726SOL    HW1 6202  12.962  12.729  10.091
68726SOL    HW2 6203  13.034  12.662  10.221
68727SOL     OW 6204  11.393  12.486  11.154
68727SOL    HW1 6205  11.328  12.413  11.133
68727SOL    HW2 6206  11.397  12.500  11.252
68728SOL     OW 6207  11.251  12.412   9.963
68728SOL    HW1 6208  11.250  12.365  10.051
68728SOL    HW2 6209  11.333  12.384   9.912
68729SOL     OW 6210  11.844  12.563  10.934
68729SOL    HW1 6211  11.766  12.513  10.972
68729SOL    HW2 6212  11.841  12.658  10.965
68730SOL     OW 6213  11.600  11.596   9.830
68730SOL    HW1 6214  11.630  11.524   9.768
68730SOL    HW2 6215  11.561  11.556   9.913
68731SOL     OW 6216  11.489  11.719  10.590
68731SOL    HW1 6217  11.527  11.660  10.662
68731SOL    HW2 6218  11.529  11.693  10.502
68732SOL     OW 6219  12.596  11.386  10.422
68732SOL    HW1 6220  12.648  11.321  10.477
68732SOL    HW2 6221  12.547  11.449  10.483
68733SOL     OW 6222  12.173  11.206  10.464
68733SOL    HW1 6223  12.110  11.134  10.433
68733SOL    HW2 6224  12.266  11.170  10.464
68734SOL     OW 6225  11.942  12.502   9.611
68734SOL    HW1 6226  11.896  12.415   9.628
68734SOL    HW2 6227  12.033  12.499   9.652
68735SOL     OW 6228  11.790  12.739  10.594
68735SOL    HW1 6229  11.785  12.821  10.651
68735SOL    HW2 6230  11.879  12.736  10.549
68736SOL     OW 6231  12.524  11.224   9.478
68736SOL    HW1 6232  12.559  11.183   9.394
68736SOL    HW2 6233  12.434  11.186   9.498
68737SOL     OW 6234  12.472  11.625  10.001
68737SOL    HW1 6235  12.413  11.705  10.005
68737SOL    HW2 6236  12.487  11.590  10.094
68738SOL     OW 6237  12.765  11.393  10.192
68738SOL    HW1 6238  12.681  11.392  10.246
68738SOL    HW2 6239  12.767  11.476  10.136
68739SOL     OW 6240  11.211  12.249   9.610
68739SOL    HW1 6241  11.310  12.238   9.601
68739SOL    HW2 6242  11.171  12.163   9.642
68740SOL     OW 6243  11.402  11.800  11.285
68740SOL    HW1 6244  11.309  11.798  11.322
68740SOL    HW2 6245  11.403  11.761  11.193
68741SOL     OW 6246  11.397  11.447  12.168
68741SOL    HW1 6247  11.432  11.430  12.260
68741SOL    HW2 6248  11.309  11.402  12.156
68742SOL     OW 6249  11.191  11.540  11.819
68742SOL    HW1 6250  11.109  11.583  11.858
68742SOL    HW2 6251  11.163  11.467  11.756
68743SOL     OW 6252  11.741  12.447  12.337
68743SOL    HW1 6253  11.648  12.440  12.300
68743SOL    HW2 6254  11.752  12.536  12.381
68744SOL     OW 6255  12.727  12.683  11.875
68744SOL    HW1 6256  12.670  12.667  11.956
68744SOL    HW2 6257  12.668  12.693  11.795
68745SOL     OW 6258  12.307  11.875  11.889
68745SOL    HW1 6259  12.364  11.953  11.864
68745SOL    HW2 6260  12.247  11.901  11.965
68746SOL     OW 6261  11.940  12.316  12.195
68746SOL    HW1 6262  11.862  12.333  12.255
68746SOL    HW2 6263  11.974  12.403  12.159
68747SOL     OW 6264  11.857  12.184  11.837
68747SOL    HW1 6265  11.926  12.168  11.907
68747SOL    HW2 6266  11.784  12.241  11.875
68748SOL     OW 6267  11.507  12.607  12.233
68748SOL    HW1 6268  11.429  12.576  12.180
68748SOL    HW2 6269  11.565  12.665  12.176
68749SOL     OW 6270  12.632  12.677  12.511
68749SOL    HW1 6271  12.656  12.771  12.537
68749SOL    HW2 6272  12.616  12.623  12.593
68750SOL     OW 6273  11.610  11.564  12.671
68750SOL    HW1 6274  11.692  11.508  12.680
68750SOL    HW2 6275  11.529  11.506  12.675
68751SOL     OW 6276  11.402  12.606  11.710
68751SOL    HW1 6277  11.376  12.702  11.710
68751SOL    HW2 6278  11.331  12.552  11.755
68752SOL     OW 6279  11.412  12.263  12.058
68752SOL    HW1 6280  11.426  12.179  12.110
68752SOL    HW2 6281  11.357  12.327  12.113
68753SOL     OW 6282  11.778  12.136  11.295
68753SOL    HW1 6283  11.785  12.220  11.241
68753SOL    HW2 6284  11.824  12.149  11.383
68754SOL     OW 6285  12.766  11.286  12.652
68754SOL    HW1 6286  12.748  11.353  12.580
68754SOL    HW2 6287  12.763  11.332  12.741
68755SOL     OW 6288  11.294  11.815  11.735
68755SOL    HW1 6289  11.249  11.727  11.752
68755SOL    HW2 6290  11.293  11.869  11.819
68756SOL     OW 6291  11.199  12.768  11.289
68756SOL    HW1 6292  11.180  12.672  11.310
68756SOL    HW2 6293  11.166  12.826  11.364
68757SOL     OW 6294  12.861  12.094  11.784
68757SOL    HW1 6295  12.956  12.065  11.792
68757SOL    HW2 6296  12.853  12.159  11.709
68758SOL     OW 6297  11.285  11.909  12.769
68758SOL    HW1 6298  11.373  11.896  12.814
68758SOL    HW2 6299  11.272  12.006  12.747
68759SOL     OW 6300  11.785  12.537  11.898
68759SOL    HW1 6301  11.736  12.450  11.907
68759SOL    HW2 6302  11.762  12.580  11.811
68760SOL     OW 6303  12.465  12.400  12.595
68760SOL    HW1 6304  12.502  12.327  12.537
68760SOL    HW2 6305  12.517  12.405  12.680
68761SOL     OW 6306  11.981  11.176  11.674
68761SOL    HW1 6307  12.021  11.267  11.665
68761SOL    HW2 6308  11.881  11.184  11.680
68762SOL     OW 6309  11.369  12.148  12.436
68762SOL    HW1 6310  11.458  12.103  12.422
68762SOL    HW2 6311  11.296  12.083  12.417
68763SOL     OW 6312  12.638  12.589  12.125
68763SOL    HW1 6313  12.579  12.595  12.205
68763SOL    HW2 6314  12.623  12.501  12.079
68764SOL     OW 6315  11.770  11.901  11.442
68764SOL    HW1 6316  11.794  11.970  11.374
68764SOL    HW2 6317  11.692  11.934  11.496
68765SOL     OW 6318  12.453  11.517  12.116
68765SOL    HW1 6319  12.367  11.467  12.103
68765SOL    HW2 6320  12.515  11.463  12.172
68766SOL     OW 6321  11.979  11.777  12.637
68766SOL    HW1 6322  11.932  11.774  12.726
68766SOL    HW2 6323  11.928  11.722  12.571
68767SOL     OW 6324  12.145  12.062  12.744
68767SOL    HW1 6325  12.191  11.978  12.715
68767SOL    HW2 6326  12.089  12.096  12.669
68768SOL     OW 6327  12.163  11.582  12.414
68768SOL    HW1 6328  12.086  11.616  12.468
68768SOL    HW2 6329  12.129  11.531  12.335
68769SOL     OW 6330  12.213  11.873  11.601
68769SOL    HW1 6331  12.239  11.869  11.697
68769SOL    HW2 6332  12.128  11.822  11.587
68770SOL     OW 6333  11.248  11.983  11.961
68770SOL    HW1 6334  11.347  11.971  11.970
68770SOL    HW2 6335  11.224  12.078  11.982
68771SOL     OW 6336  12.037  11.520  11.367
68771SOL    HW1 6337  12.096  11.583  11.318
68771SOL    HW2 6338  12.056  11.426  11.338
68772SOL     OW 6339  12.534  12.316  11.717
68772SOL    HW1 6340  12.617  12.287  11.669
68772SOL    HW2 6341  12.485  12.383  11.661
68773SOL     OW 6342  11.722  11.368  12.057
68773SOL    HW1 6343  11.717  11.363  12.157
68773SOL    HW2 6344  11.724  11.464  12.028
68774SOL     OW 6345  12.180  12.628  11.649
68774SOL    HW1 6346  12.134  12.700  11.597
68774SOL    HW2 6347  12.176  12.648  11.747
68775SOL     OW 6348  12.399  12.722  12.678
68775SOL    HW1 6349  12.405  12.645  12.742
68775SOL    HW2 6350  12.347  12.696  12.598
68776SOL     OW 6351  11.493  12.115  11.414
68776SOL    HW1 6352  11.575  12.154  11.372
68776SOL    HW2 6353  11.466  12.033  11.365
68777SOL     OW 6354  12.630  11.907  11.900
68777SOL    HW1 6355  12.625  11.842  11.975
68777SOL    HW2 6356  12.710  11.966  11.913
68778SOL     OW 6357  11.374  11.457  12.670
68778SOL    HW1 6358  11.294  11.517  12.657
68778SOL    HW2 6359  11.364  11.408  12.756
68779SOL     OW 6360  12.572  11.279  11.598
68779SOL    HW1 6361  12.548  11.242  11.508
68779SOL    HW2 6362  12.671  11.295  11.602
68780SOL     OW 6363  11.554  11.872  11.652
68780SOL    HW1 6364  11.599  11.782  11.649
68780SOL    HW2 6365  11.460  11.861  11.685
68781SOL     OW 6366  11.786  11.294  11.289
68781SOL    HW1 6367  11.884  11.272  11.296
68781SOL    HW2 6368  11.755  11.277  11.196
68782SOL     OW 6369  12.523  11.762  12.605
68782SOL    HW1 6370  12.551  11.719  12.690
68782SOL    HW2 6371  12.548  11.858  12.606
68783SOL     OW 6372  11.975  12.574  12.096
68783SOL    HW1 6373  12.065  12.588  12.054
68783SOL    HW2 6374  11.904  12.576  12.025
68784SOL     OW 6375  12.094  11.675  12.071
68784SOL    HW1 6376  12.069  11.666  11.975
68784SOL    HW2 6377  12.142  11.593  12.102
68785SOL     OW 6378  11.711  11.236  11.684
68785SOL    HW1 6379  11.630  11.237  11.742
68785SOL    HW2 6380  11.714  11.319  11.629
68786SOL     OW 6381  12.606  12.360  11.213
68786SOL    HW1 6382  12.638  12.284  11.270
68786SOL    HW2 6383  12.514  12.387  11.243
68787SOL     OW 6384  11.469  11.207  11.343
68787SOL    HW1 6385  11.518  11.291  11.322
68787SOL    HW2 6386  11.531  11.142  11.388
68788SOL     OW 6387  12.107  11.408  11.652
68788SOL    HW1 6388  12.059  11.449  11.574
68788SOL    HW2 6389  12.206  11.406  11.633
68789SOL     OW 6390  12.248  11.855  12.636
68789SOL    HW1 6391  12.168  11.794  12.639
68789SOL    HW2 6392  12.329  11.802  12.612
68790SOL     OW 6393  12.399  12.742  11.965
68790SOL    HW1 6394  12.420  12.816  11.900
68790SOL    HW2 6395  12.467  12.742  12.038
68791SOL     OW 6396  11.631  12.324  11.913
68791SOL    HW1 6397  11.560  12.297  11.978
68791SOL    HW2 6398  11.605  12.296  11.820
68792SOL     OW 6399  12.204  11.721  11.188
68792SOL    HW1 6400  12.163  11.803  11.149
68792SOL    HW2 6401  12.268  11.747  11.261
68793SOL     OW 6402  11.250  11.728  12.558
68793SOL    HW1 6403  11.342  11.727  12.517
68793SOL    HW2 6404  11.244  11.802  12.625
68794SOL     OW 6405  11.733  11.394  12.319
68794SOL    HW1 6406  11.771  11.310  12.356
68794SOL    HW2 6407  11.645  11.413  12.363
68795SOL     OW 6408  12.038  11.626  11.814
68795SOL    HW1 6409  12.006  11.698  11.752
68795SOL    HW2 6410  12.062  11.545  11.761
68796SOL     OW 6411  12.189  11.211  11.925
68796SOL    HW1 6412  12.117  11.216  11.856
68796SOL    HW2 6413  12.165  11.142  11.994
68797SOL     OW 6414  12.601  12.345  12.039
68797SOL    HW1 6415  12.546  12.261  12.032
68797SOL    HW2 6416  12.627  12.374  11.947
68798SOL     OW 6417  12.638  11.762  12.164
68798SOL    HW1 6418  12.608  11.667  12.171
68798SOL    HW2 6419  12.711  11.778  12.230
68799SOL     OW 6420  11.660  12.557  11.346
68799SOL    HW1 6421  11.573  12.542  11.393
68799SOL    HW2 6422  11.643  12.583  11.251
68800SOL     OW 6423  12.562  11.747  11.250
68800SOL    HW1 6424  12.508  11.726  11.331
68800SOL    HW2 6425  12.653  11.706  11.259
68801SOL     OW 6426  11.699  11.428  11.500
68801SOL    HW1 6427  11.726  11.369  11.425
68801SOL    HW2 6428  11.699  11.523  11.469
68802SOL     OW 6429  12.236  12.519  12.512
68802SOL    HW1 6430  12.156  12.496  12.567
68802SOL    HW2 6431  12.319  12.493  12.561
68803SOL     OW 6432  12.283  12.367  12.272
68803SOL    HW1 6433  12.243  12.411  12.353
68803SOL    HW2 6434  12.242  12.404  12.189
68804SOL     OW 6435  12.087  11.261  12.574
68804SOL    HW1 6436  12.112  11.241  12.479
68804SOL    HW2 6437  12.159  11.317  12.616
68805SOL     OW 6438  11.877  12.222  11.540
68805SOL    HW1 6439  11.863  12.229  11.639
68805SOL    HW2 6440  11.961  12.171  11.522
68806SOL     OW 6441  11.582  11.985  12.423
68806SOL    HW1 6442  11.668  11.997  12.473
68806SOL    HW2 6443  11.540  11.898  12.450
68807SOL     OW 6444  12.446  11.558  12.434
68807SOL    HW1 6445  12.467  11.632  12.498
68807SOL    HW2 6446  12.357  11.575  12.391
68808SOL     OW 6447  11.236  12.736  12.503
68808SOL    HW1 6448  11.190  12.818  12.469
68808SOL    HW2 6449  11.334  12.755  12.512
68809SOL     OW 6450  11.539  12.272  11.673
68809SOL    HW1 6451  11.532  12.355  11.617
68809SOL    HW2 6452  11.543  12.192  11.613
68810SOL     OW 6453  11.738  11.709  12.037
68810SOL    HW1 6454  11.750  11.775  11.963
68810SOL    HW2 6455  11.784  11.743  12.120
68811SOL     OW 6456  12.424  12.520  11.560
68811SOL    HW1 6457  12.474  12.597  11.600
68811SOL    HW2 6458  12.329  12.522  11.592
68812SOL     OW 6459  12.444  12.617  12.314
68812SOL    HW1 6460  12.491  12.630  12.401
68812SOL    HW2 6461  12.378  12.543  12.323
68813SOL     OW 6462  12.754  11.811  11.644
68813SOL    HW1 6463  12.723  11.872  11.717
68813SOL    HW2 6464  12.804  11.863  11.575
68814SOL     OW 6465  11.526  12.682  12.501
68814SOL    HW1 6466  11.505  12.638  12.414
68814SOL    HW2 6467  11.623  12.708  12.504
68815SOL     OW 6468  11.574  11.923  12.770
68815SOL    HW1 6469  11.642  11.978  12.723
68815SOL    HW2 6470  11.614  11.835  12.797
68816SOL     OW 6471  11.745  12.042  12.201
68816SOL    HW1 6472  11.789  12.131  12.192
68816SOL    HW2 6473  11.682  12.042  12.278
68817SOL     OW 6474  12.532  12.034  12.217
68817SOL    HW1 6475  12.457  12.034  12.151
68817SOL    HW2 6476  12.569  11.942  12.226
68818SOL     OW 6477  12.381  11.697  11.447
68818SOL    HW1 6478  12.394  11.613  11.501
68818SOL    HW2 6479  12.352  11.771  11.507
68819SOL     OW 6480  11.479  11.385  12.403
68819SOL    HW1 6481  11.456  11.422  12.493
68819SOL    HW2 6482  11.449  11.290  12.397
68820SOL     OW 6483  11.209  12.482  12.454
68820SOL    HW1 6484  11.262  12.433  12.522
68820SOL    HW2 6485  11.231  12.580  12.459
68821SOL     OW 6486  11.904  11.806  12.236
68821SOL    HW1 6487  11.963  11.780  12.160
68821SOL    HW2 6488  11.876  11.902  12.225
68822SOL     OW 6489  11.479  11.235  11.790
68822SOL    HW1 6490  11.468  11.329  11.823
68822SOL    HW2 6491  11.474  11.172  11.867
68823SOL     OW 6492  12.794  11.539  11.546
68823SOL    HW1 6493  12.796  11.463  11.610
68823SOL    HW2 6494  12.746  11.616  11.586
68824SOL     OW 6495  12.195  11.938  12.138
68824SOL    HW1 6496  12.210  11.959  12.234
68824SOL    HW2 6497  12.165  11.843  12.129
68825SOL     OW 6498  13.031  12.690  12.777
68825SOL    HW1 6499  13.045  12.717  12.682
68825SOL    HW2 6500  13.114  12.712  12.830
68826SOL     OW 6501  12.712  11.446  11.297
68826SOL    HW1 6502  12.651  11.371  11.320
68826SOL    HW2 6503  12.734  11.498  11.380
68827SOL     OW 6504  12.475  12.010  11.214
68827SOL    HW1 6505  12.509  11.917  11.229
68827SOL    HW2 6506  12.493  12.037  11.119
68828SOL     OW 6507  12.240  12.505  12.021
68828SOL    HW1 6508  12.247  12.421  11.966
68828SOL    HW2 6509  12.302  12.574  11.985
68829SOL     OW 6510  11.491  11.982  12.121
68829SOL    HW1 6511  11.584  12.018  12.126
68829SOL    HW2 6512  11.485  11.897  12.173
68830SOL     OW 6513  11.511  11.681  12.178
68830SOL    HW1 6514  11.459  11.598  12.161
68830SOL    HW2 6515  11.588  11.686  12.114
68831SOL     OW 6516  12.332  11.379  12.649
68831SOL    HW1 6517  12.332  11.443  12.726
68831SOL    HW2 6518  12.360  11.427  12.566
68832SOL     OW 6519  11.180  12.498  11.372
68832SOL    HW1 6520  11.087  12.519  11.341
68832SOL    HW2 6521  11.190  12.399  11.385
68833SOL     OW 6522  11.676  12.740  12.082
68833SOL    HW1 6523  11.742  12.814  12.091
68833SOL    HW2 6524  11.720  12.661  12.040
68834SOL     OW 6525  12.174  11.968  12.410
68834SOL    HW1 6526  12.215  11.936  12.496
68834SOL    HW2 6527  12.078  11.941  12.407
68835SOL     OW 6528  11.212  11.716  12.286
68835SOL    HW1 6529  11.297  11.683  12.245
68835SOL    HW2 6530  11.225  11.731  12.384
68836SOL     OW 6531  11.987  11.744  11.497
68836SOL    HW1 6532  11.994  11.655  11.451
68836SOL    HW2 6533  11.893  11.778  11.489
68837SOL     OW 6534  11.843  11.636  12.441
68837SOL    HW1 6535  11.809  11.547  12.411
68837SOL    HW2 6536  11.869  11.690  12.361
68838SOL     OW 6537  11.645  11.672  11.363
68838SOL    HW1 6538  11.706  11.752  11.367
68838SOL    HW2 6539  11.550  11.703  11.370
68839SOL     OW 6540  11.331  12.309  12.638
68839SOL    HW1 6541  11.353  12.248  12.714
68839SOL    HW2 6542  11.341  12.260  12.552
68840SOL     OW 6543  12.519  12.231  12.406
68840SOL    HW1 6544  12.543  12.168  12.332
68840SOL    HW2 6545  12.429  12.271  12.388
68841SOL     OW 6546  12.474  12.027  11.481
68841SOL    HW1 6547  12.388  11.996  11.523
68841SOL    HW2 6548  12.470  12.013  11.382
68842SOL     OW 6549  12.931  12.919  12.326
68842SOL    HW1 6550  12.992  12.949  12.253
68842SOL    HW2 6551  12.893  12.830  12.304
68843SOL     OW 6552  12.424  12.903  12.300
68843SOL    HW1 6553  12.508  12.908  12.246
68843SOL    HW2 6554  12.401  12.807  12.318
68844SOL     OW 6555  11.255  12.430  12.194
68844SOL    HW1 6556  11.250  12.429  12.294
68844SOL    HW2 6557  11.172  12.389  12.156
68845SOL     OW 6558  12.898  11.307  11.695
68845SOL    HW1 6559  12.971  11.290  11.628
68845SOL    HW2 6560  12.867  11.220  11.733
68846SOL     OW 6561  12.452  12.099  11.844
68846SOL    HW1 6562  12.512  12.018  11.846
68846SOL    HW2 6563  12.492  12.168  11.784
68847SOL     OW 6564  12.002  12.445  12.594
68847SOL    HW1 6565  11.997  12.478  12.689
68847SOL    HW2 6566  11.916  12.464  12.548
68848SOL     OW 6567  11.844  12.788  11.326
68848SOL    HW1 6568  11.853  12.798  11.227
68848SOL    HW2 6569  11.804  12.699  11.347
68849SOL     OW 6570  11.435  11.498  11.892
68849SOL    HW1 6571  11.356  11.549  11.858
68849SOL    HW2 6572  11.426  11.483  11.990
68850SOL     OW 6573  12.366  12.784  11.203
68850SOL    HW1 6574  12.372  12.691  11.240
68850SOL    HW2 6575  12.307  12.784  11.123
68851SOL     OW 6576  11.994  12.174  12.544
68851SOL    HW1 6577  12.034  12.173  12.452
68851SOL    HW2 6578  12.004  12.266  12.584
68852SOL     OW 6579  12.088  12.082  11.463
68852SOL    HW1 6580  12.151  12.120  11.395
68852SOL    HW2 6581  12.128  11.999  11.502
68853SOL     OW 6582  11.544  12.460  12.662
68853SOL    HW1 6583  11.531  12.553  12.628
68853SOL    HW2 6584  11.460  12.408  12.649
68854SOL     OW 6585  12.211  12.270  11.868
68854SOL    HW1 6586  12.141  12.223  11.922
68854SOL    HW2 6587  12.270  12.202  11.825
68855SOL     OW 6588  12.186  11.408  12.143
68855SOL    HW1 6589  12.178  11.372  12.050
68855SOL    HW2 6590  12.184  11.332  12.208
68856SOL     OW 6591  11.762  12.659  11.663
68856SOL    HW1 6592  11.804  12.601  11.593
68856SOL    HW2 6593  11.718  12.738  11.619
68857SOL     OW 6594  11.427  12.520  11.462
68857SOL    HW1 6595  11.331  12.521  11.435
68857SOL    HW2 6596  11.439  12.573  11.546
68858SOL     OW 6597  11.277  12.185  12.898
68858SOL    HW1 6598  11.200  12.152  12.952
68858SOL    HW2 6599  11.362  12.155  12.940
68859SOL     OW 6600  11.844  11.375  12.661
68859SOL    HW1 6601  11.934  11.359  12.621
68859SOL    HW2 6602  11.852  11.380  12.760
68860SOL     OW 6603  11.247  11.517  11.205
68860SOL    HW1 6604  11.155  11.489  11.176
68860SOL    HW2 6605  11.278  11.594  11.149
68861SOL     OW 6606  12.612  12.028  12.570
68861SOL    HW1 6607  12.555  12.080  12.507
68861SOL    HW2 6608  12.708  12.040  12.546
68862SOL     OW 6609  11.244  11.338  11.490
68862SOL    HW1 6610  11.227  11.421  11.436
68862SOL    HW2 6611  11.334  11.301  11.468
68863SOL     OW 6612  12.355  12.507  11.291
68863SOL    HW1 6613  12.256  12.496  11.293
68863SOL    HW2 6614  12.389  12.522  11.384
68864SOL     OW 6615  11.785  12.014  12.603
68864SOL    HW1 6616  11.841  12.095  12.586
68864SOL    HW2 6617  11.844  11.934  12.606
68865SOL     OW 6618  11.888  11.737  12.880
68865SOL    HW1 6619  11.907  11.802  12.954
68865SOL    HW2 6620  11.948  11.657  12.889
68866SOL     OW 6621  11.562  12.913  12.732
68866SOL    HW1 6622  11.471  12.954  12.730
68866SOL    HW2 6623  11.555  12.819  12.764
68867SOL     OW 6624  12.397  11.497  11.621
68867SOL    HW1 6625  12.462  11.423  11.610
68867SOL    HW2 6626  12.417  11.547  11.705
68868SOL     OW 6627  11.766  11.917  11.824
68868SOL    HW1 6628  11.816  12.002  11.805
68868SOL    HW2 6629  11.678  11.919  11.776
68869SOL     OW 6630  12.031  12.546  11.188
68869SOL    HW1 6631  11.985  12.561  11.276
68869SOL    HW2 6632  12.075  12.631  11.158
68870SOL     OW 6633  12.031  12.128  12.033
68870SOL    HW1 6634  12.085  12.059  12.081
68870SOL    HW2 6635  11.999  12.197  12.099
68871SOL     OW 6636  12.255  12.156  11.259
68871SOL    HW1 6637  12.232  12.209  11.177
68871SOL    HW2 6638  12.336  12.100  11.240
68872SOL     OW 6639  13.033  12.741  12.023
68872SOL    HW1 6640  12.962  12.729  11.953
68872SOL    HW2 6641  13.034  12.662  12.083
68873SOL     OW 6642  11.251  12.412  11.825
68873SOL    HW1 6643  11.250  12.365  11.913
68873SOL    HW2 6644  11.333  12.384  11.774
68874SOL     OW 6645  11.844  12.563  12.796
68874SOL    HW1 6646  11.766  12.513  12.834
68874SOL    HW2 6647  11.841  12.658  12.827
68875SOL     OW 6648  11.600  11.596  11.692
68875SOL    HW1 6649  11.630  11.524  11.630
68875SOL    HW2 6650  11.561  11.556  11.775
68876SOL     OW 6651  11.489  11.719  12.452
68876SOL    HW1 6652  11.527  11.660  12.524
68876SOL    HW2 6653  11.529  11.693  12.364
68877SOL     OW 6654  12.596  11.386  12.284
68877SOL    HW1 6655  12.648  11.321  12.339
68877SOL    HW2 6656  12.547  11.449  12.345
68878SOL     OW 6657  12.173  11.206  12.326
68878SOL    HW1 6658  12.110  11.134  12.295
68878SOL    HW2 6659  12.266  11.170  12.326
68879SOL     OW 6660  11.942  12.502  11.473
68879SOL    HW1 6661  11.896  12.415  11.490
68879SOL    HW2 6662  12.033  12.499  11.514
68880SOL     OW 6663  11.790  12.739  12.456
68880SOL    HW1 6664  11.785  12.821  12.513
68880SOL    HW2 6665  11.879  12.736  12.411
68881SOL     OW 6666  12.524  11.224  11.340
68881SOL    HW1 6667  12.559  11.183  11.256
68881SOL    HW2 6668  12.434  11.186  11.360
68882SOL     OW 6669  12.472  11.625  11.863
68882SOL    HW1 6670  12.413  11.705  11.867
68882SOL    HW2 6671  12.487  11.590  11.956
68883SOL     OW 6672  12.765  11.393  12.054
68883SOL    HW1 6673  12.681  11.392  12.108
68883SOL    HW2 6674  12.767  11.476  11.998
68884SOL     OW 6675  11.211  12.249  11.472
68884SOL    HW1 6676  11.310  12.238  11.463
68884SOL    HW2 6677  11.171  12.163  11.504
  12.83690  12.83690  12.83690
