BioSimSpace_System
   30
    1MOL      C    1   6.525   6.102   6.089
    1MOL      C    2   6.473   6.227   6.161
    1MOL      C    3   6.387   6.311   6.094
    1MOL      C    4   6.337   6.426   6.159
    1MOL      C    5   6.191   6.606   6.144
    1MOL      C    6   6.218   6.635   6.274
    1MOL      C    7   6.313   6.567   6.347
    1MOL      C    8   6.331   6.599   6.497
    1MOL      C    9   6.368   6.450   6.286
    1MOL      C   10   6.455   6.363   6.355
    1MOL      C   11   6.507   6.253   6.290
    1MOL      C   12   6.603   6.160   6.365
    1MOL      O   13   6.251   6.503   6.086
    1MOL      O   14   6.116   6.666   6.082
    1MOL      O   15   6.225   6.535   6.732
    1MOL      O   16   6.240   6.353   6.576
    1MOL      O   17   6.066   6.536   6.550
    1MOL      P   18   6.207   6.503   6.601
    1MOL      H   19   6.473   6.088   6.005
    1MOL      H   20   6.564   6.067   6.368
    1MOL      H   21   6.622   6.114   6.066
    1MOL      H   22   6.514   6.023   6.149
    1MOL      H   23   6.424   6.575   6.525
    1MOL      H   24   6.317   6.697   6.512
    1MOL      H   25   6.691   6.156   6.317
    1MOL      H   26   6.616   6.194   6.457
    1MOL      H   27   6.360   6.291   6.000
    1MOL      H   28   6.167   6.709   6.319
    1MOL      H   29   6.478   6.380   6.450
    1MOL      H   30   6.041   6.631   6.571
  12.73170  12.73170  12.73170   0.00000   0.00000  -0.00000   0.00000  -0.00000  -0.00000
