; Gromacs Topology File written by Sire
; File written 06/23/26  18:07:37
[ defaults ]
; nbfunc      comb-rule       gen-pairs      fudgeLJ     fudgeQQ
  1           2               yes            0.5         0.833333

[ atomtypes ]
; name      at.num        mass      charge   ptype       sigma     epsilon
    HW           1    1.007940    0.000000       A    0.000000    0.000000
    OW           8   15.999400    0.000000       A    0.315061    0.636386
     c           6   12.010700    0.000000       A    0.331521    0.413379
    c3           6   12.010700    0.000000       A    0.339771    0.451035
    ca           6   12.010700    0.000000       A    0.331521    0.413379
    cc           6   12.010700    0.000000       A    0.331521    0.413379
    cd           6   12.010700    0.000000       A    0.331521    0.413379
    ha           1    1.007940    0.000000       A    0.262548    0.067362
    hc           1    1.007940    0.000000       A    0.260018    0.087027
    ho           1    1.007940    0.000000       A    0.053792    0.019665
     o           8   15.999400    0.000000       A    0.304812    0.612119
    oh           8   15.999400    0.000000       A    0.324287    0.389112
    os           8   15.999400    0.000000       A    0.315610    0.303758
    p5          15   30.973761    0.000000       A    0.369402    0.960228

[ moleculetype ]
; name  nrexcl
SOL  3

[ atoms ]
;   nr   type  resnr residue  atom   cgnr     charge         mass
     1     OW      1     SOL    OW      1  -0.834000    16.000000
     2     HW      1     SOL   HW1      1   0.417000     1.008000
     3     HW      1     SOL   HW2      1   0.417000     1.008000

#ifdef FLEXIBLE
[ bonds ]
;   ai     aj  funct  parameters
     1      2      1  0.09572  502416
     1      3      1  0.09572  502416

[ angles ]
;   ai     aj     ak   funct   parameters
     2      1      3       1   104.52  628.02

#else

[ settles ]
; OW    funct   doh dhh
1       1       0.09572 0.15136

[ exclusions ]
1   2   3
2   1   3
3   1   2

#endif

[ moleculetype ]
; name  nrexcl
ligand_1  3

[ atoms ]
;   nr   type  resnr residue  atom   cgnr     charge         mass
     1     c3      1     MOL     C      1  -0.048833    12.010000
     2     ca      1     MOL     C      2  -0.047333    12.010000
     3     ca      1     MOL     C      3  -0.173033    12.010000
     4     ca      1     MOL     C      4   0.143067    12.010000
     5      c      1     MOL     C      5   0.735767    12.010000
     6     cc      1     MOL     C      6  -0.320233    12.010000
     7     cd      1     MOL     C      7   0.152567    12.010000
     8     c3      1     MOL     C      8  -0.307433    12.010000
     9     ca      1     MOL     C      9  -0.144833    12.010000
    10     ca      1     MOL     C     10  -0.060033    12.010000
    11     ca      1     MOL     C     11  -0.119333    12.010000
    12     c3      1     MOL     C     12  -0.044833    12.010000
    13     os      1     MOL     O     13  -0.342233    16.000000
    14      o      1     MOL     O     14  -0.623533    16.000000
    15      o      1     MOL     O     15  -0.856533    16.000000
    16      o      1     MOL     O     16  -0.856533    16.000000
    17     oh      1     MOL     O     17  -0.791433    16.000000
    18     p5      1     MOL     P     18   1.337567    30.970000
    19     hc      1     MOL     H     19   0.038000     1.008000
    20     hc      1     MOL     H     20   0.040667     1.008000
    21     hc      1     MOL     H     21   0.038000     1.008000
    22     hc      1     MOL     H     22   0.038000     1.008000
    23     hc      1     MOL     H     23   0.089667     1.008000
    24     hc      1     MOL     H     24   0.089667     1.008000
    25     hc      1     MOL     H     25   0.040667     1.008000
    26     hc      1     MOL     H     26   0.040667     1.008000
    27     ha      1     MOL     H     27   0.139967     1.008000
    28     ha      1     MOL     H     28   0.160967     1.008000
    29     ha      1     MOL     H     29   0.218967     1.008000
    30     ho      1     MOL     H     30   0.431967     1.008000

[ bonds ]
;   ai     aj  funct  parameters
     1      2      1  0.15147  204104
     1     19      1  0.10962  288905
     1     21      1  0.10962  288905
     1     22      1  0.10962  288905
     2      3      1  0.13986  296436
     2     11      1  0.13986  296436
     3      4      1  0.13986  296436
     3     27      1  0.1086  301825
     4      9      1  0.13986  296436
     4     13      1  0.13688  287307
     5      6      1  0.14687  235794
     5     13      1  0.13621  293976
     5     14      1  0.1219  494214
     6      7      1  0.1373  323206
     6     28      1  0.10838  304696
     7      8      1  0.15018  212438
     7      9      1  0.1461  241659
     8     18      1  0.18439  166716
     8     23      1  0.10962  288905
     8     24      1  0.10962  288905
     9     10      1  0.13986  296436
    10     11      1  0.13986  296436
    10     29      1  0.1086  301825
    11     12      1  0.15147  204104
    12     20      1  0.10962  288905
    12     25      1  0.10962  288905
    12     26      1  0.10962  288905
    15     18      1  0.14885  479512
    16     18      1  0.14885  479512
    17     18      1  0.16144  327925
    17     30      1  0.09725  448115

[ pairs ]
;   ai     aj funct 
     1      4     1
     1     10     1
     1     12     1
     1     27     1
     2      9     1
     2     13     1
     2     20     1
     2     25     1
     2     26     1
     2     29     1
     3      5     1
     3      7     1
     3     10     1
     3     12     1
     3     19     1
     3     21     1
     3     22     1
     4      6     1
     4      8     1
     4     11     1
     4     14     1
     4     29     1
     5      8     1
     5      9     1
     6     10     1
     6     18     1
     6     23     1
     6     24     1
     7     11     1
     7     13     1
     7     14     1
     7     15     1
     7     16     1
     7     17     1
     7     29     1
     8     10     1
     8     28     1
     8     30     1
     9     12     1
     9     18     1
     9     23     1
     9     24     1
     9     27     1
     9     28     1
    10     13     1
    10     20     1
    10     25     1
    10     26     1
    11     19     1
    11     21     1
    11     22     1
    11     27     1
    12     29     1
    13     27     1
    13     28     1
    14     28     1
    15     23     1
    15     24     1
    15     30     1
    16     23     1
    16     24     1
    16     30     1
    17     23     1
    17     24     1

[ angles ]
;   ai     aj     ak   funct   parameters
     1      2      3       1   120.83  508.272
     1      2     11       1   120.83  508.272
     2      1     19       1   110.63  364.928
     2      1     21       1   110.63  364.928
     2      1     22       1   110.63  364.928
     2      3      4       1   120.02  532.791
     2      3     27       1   119.88  375.723
     2     11     10       1   120.02  532.791
     2     11     12       1   120.83  508.272
     3      2     11       1   120.02  532.791
     3      4      9       1   120.02  532.791
     3      4     13       1   119.11  661.072
     4      3     27       1   119.88  375.723
     4      9      7       1   120.83  518.983
     4      9     10       1   120.02  532.791
     4     13      5       1   121.29  747.764
     5      6      7       1   121.32  520.49
     5      6     28       1   116.81  365.431
     6      5     13       1   114.1  658.562
     6      5     14       1   124.06  655.716
     6      7      8       1   126.68  502.582
     6      7      9       1   124.29  515.804
     7      6     28       1   121.4  379.07
     7      8     18       1   116.23  665.256
     7      8     23       1   110.62  367.774
     7      8     24       1   110.62  367.774
     7      9     10       1   120.83  518.983
     8      7      9       1   126.13  490.532
     8     18     15       1   113.69  632.37
     8     18     16       1   113.69  632.37
     8     18     17       1   102.68  650.11
     9      4     13       1   119.11  661.072
     9     10     11       1   120.02  532.791
     9     10     29       1   119.88  375.723
    10     11     12       1   120.83  508.272
    11     10     29       1   119.88  375.723
    11     12     20       1   110.63  364.928
    11     12     25       1   110.63  364.928
    11     12     26       1   110.63  364.928
    13      5     14       1   123.2  847.344
    15     18     16       1   118.29  868.264
    15     18     17       1   115.17  841.486
    16     18     17       1   115.17  841.486
    18      8     23       1   108.27  214.472
    18      8     24       1   108.27  214.472
    18     17     30       1   110.07  335.055
    19      1     21       1   107.73  299.574
    19      1     22       1   107.73  299.574
    20     12     25       1   107.73  299.574
    20     12     26       1   107.73  299.574
    21      1     22       1   107.73  299.574
    23      8     24       1   107.73  299.574
    25     12     26       1   107.73  299.574

[ dihedrals ]
;   ai     aj     ak     al  funct  parameters
     1      2      3      4      1  180  15.167  2
     1      2      3     27      1  180  15.167  2
     1      2     11      3      4  180  4.6024  2
     1      2     11     10      1  180  15.167  2
     1      2     11     12      1  180  15.167  2
     2      3      4      9      1  180  15.167  2
     2      3      4     13      1  180  15.167  2
     2      4      3     27      4  180  4.6024  2
     2     11     10      9      1  180  15.167  2
     2     11     10     29      1  180  15.167  2
     2     11     12     20      1  0  0  1
     2     11     12     25      1  0  0  1
     2     11     12     26      1  0  0  1
     3      2      1     19      1  0  0  1
     3      2      1     21      1  0  0  1
     3      2      1     22      1  0  0  1
     3      2     11     10      1  180  15.167  2
     3      2     11     12      1  180  15.167  2
     3      4      9      7      1  180  15.167  2
     3      4      9     10      1  180  15.167  2
     3      4     13      5      1  180  4.10032  2
     3      9      4     13      4  180  4.6024  2
     4      3      2     11      1  180  15.167  2
     4      9      7      6      1  180  15.7737  2
     4      9      7      8      1  180  2.5104  2
     4      9     10     11      1  180  15.167  2
     4      9     10     29      1  180  15.167  2
     4     10      9      7      4  180  4.6024  2
     4     13      5      6      1  180  11.2968  2
     4     13      5     14      9  0  0.33472  3
     4     13      5     14      9  0  7.23832  1
     4     13      5     14      9  180  8.9956  2
     5      6      7      8      1  180  16.736  2
     5      6      7      9      1  180  16.736  2
     5      7      6     28      4  180  4.6024  2
     5     13      4      9      1  180  4.10032  2
     6      7      8     18      1  0  0  1
     6      7      8     23      1  0  0  1
     6      7      8     24      1  0  0  1
     6      7      9      8      4  180  4.6024  2
     6      7      9     10      1  180  15.7737  2
     6     14      5     13      4  180  43.932  2
     7      6      5     13      1  180  12.029  2
     7      6      5     14      1  180  12.029  2
     7      8     18     15      1  0  0.0929778  3
     7      8     18     16      1  0  0.0929778  3
     7      8     18     17      1  0  0.0929778  3
     7      9      4     13      1  180  15.167  2
     7      9     10     11      1  180  15.167  2
     7      9     10     29      1  180  15.167  2
     8      7      6     28      1  180  16.736  2
     8      7      9     10      1  180  2.5104  2
     8     18     17     30      1  0  2.23147  3
     9      4      3     27      1  180  15.167  2
     9      7      6     28      1  180  16.736  2
     9      7      8     18      1  0  0  1
     9      7      8     23      1  0  0  1
     9      7      8     24      1  0  0  1
     9     10     11     12      1  180  15.167  2
     9     11     10     29      4  180  4.6024  2
    10      9      4     13      1  180  15.167  2
    10     11      2     12      4  180  4.6024  2
    10     11     12     20      1  0  0  1
    10     11     12     25      1  0  0  1
    10     11     12     26      1  0  0  1
    11      2      1     19      1  0  0  1
    11      2      1     21      1  0  0  1
    11      2      1     22      1  0  0  1
    11      2      3     27      1  180  15.167  2
    12     11     10     29      1  180  15.167  2
    13      4      3     27      1  180  15.167  2
    13      5      6     28      1  180  12.029  2
    14      5      6     28      1  180  12.029  2
    15     18      8     23      1  0  0.0929778  3
    15     18      8     24      1  0  0.0929778  3
    15     18     17     30      9  0  4.14216  1
    15     18     17     30      9  180  2.63592  2
    15     18     17     30      9  180  2.88696  3
    16     18      8     23      1  0  0.0929778  3
    16     18      8     24      1  0  0.0929778  3
    16     18     17     30      9  0  4.14216  1
    16     18     17     30      9  180  2.63592  2
    16     18     17     30      9  180  2.88696  3
    17     18      8     23      1  0  0.0929778  3
    17     18      8     24      1  0  0.0929778  3


[ system ]
BioSimSpace_System

[ molecules ]
;molecule name    nr.
      ligand_1      1
SOL         67219
NA               187
CL               186

